Title
44415
    1GLY      N    1   2.196   3.882   4.878 -0.2770  0.2142  0.5440
    1GLY    HT1    2   2.271   3.877   4.951  0.9274  2.5978 -0.4477
    1GLY    HT2    3   2.190   3.794   4.823  0.0473  1.2474 -1.1976
    1GLY    HT3    4   2.105   3.896   4.926 -0.0751  0.3439  0.8962
    1GLY     CA    5   2.209   4.005   4.796  0.7356  0.5179  0.0812
    1GLY    HA1    6   2.223   4.082   4.871 -1.1151 -0.7848  1.7950
    1GLY    HA2    7   2.116   4.009   4.740  2.2299 -0.8075 -2.6195
    1GLY      C    8   2.318   3.999   4.693  0.4744  0.6435 -0.0946
    1GLY      O    9   2.365   3.889   4.664  0.1096  0.8738  0.2486
    2PRO      N   10   2.369   4.104   4.625 -0.7694 -0.4119 -0.3051
    2PRO     CD   11   2.334   4.246   4.664 -0.2831 -0.1861 -0.1999
    2PRO    HD1   12   2.341   4.259   4.774  0.0823  1.3304 -0.3994
    2PRO    HD2   13   2.227   4.253   4.635 -0.3382 -1.4978 -0.3754
    2PRO     CA   14   2.468   4.098   4.524  0.2632  0.0325 -0.4018
    2PRO     HA   15   2.431   4.023   4.455 -2.2504  0.9059 -0.0515
    2PRO     CB   16   2.474   4.242   4.471 -0.4403 -0.6814 -0.4094
    2PRO    HB1   17   2.393   4.254   4.397 -0.3335 -0.2715 -0.4588
    2PRO    HB2   18   2.566   4.273   4.417  1.2212 -1.7947  1.6741
    2PRO     CG   19   2.425   4.339   4.585 -0.9739 -0.7203 -0.5805
    2PRO    HG1   20   2.510   4.376   4.647 -1.2390  0.9218 -1.1531
    2PRO    HG2   21   2.361   4.423   4.550  2.0798  2.0081  0.1586
    2PRO      C   22   2.601   4.044   4.578 -0.2852 -0.5254  0.4147
    2PRO      O   23   2.631   4.072   4.693 -0.1230  0.1313 -0.0011
    3GLY      N   24   2.675   3.968   4.499  0.2916 -0.1945 -0.2809
    3GLY     HN   25   2.641   3.942   4.409 -0.0232 -2.4729  0.4650
    3GLY     CA   26   2.798   3.899   4.535  0.3583  0.2501  0.7103
    3GLY    HA1   27   2.834   3.853   4.443  0.8030 -0.5442  1.2714
    3GLY    HA2   28   2.778   3.818   4.604 -0.4341 -0.4540 -0.3235
    3GLY      C   29   2.904   3.977   4.601  0.3167 -0.3262  0.0885
    3GLY      O   30   2.919   4.096   4.580  0.0361 -0.6298  0.2846
    4ASP      N   31   2.988   3.918   4.680 -0.7342 -0.9943  0.3956
    4ASP     HN   32   2.974   3.823   4.708  1.5014 -1.0162  1.5772
    4ASP     CA   33   3.112   3.979   4.732 -0.3193 -0.5482 -0.0046
    4ASP     HA   34   3.080   4.062   4.793 -1.3252 -1.9155  1.3956
    4ASP     CB   35   3.192   3.885   4.826  0.3112 -0.6891  0.6621
    4ASP    HB1   36   3.279   3.928   4.878  0.2938 -1.1498  1.0717
    4ASP    HB2   37   3.217   3.805   4.753  0.0286  1.3848 -1.7906
    4ASP     CG   38   3.101   3.821   4.936  0.5496 -0.0232  0.4541
    4ASP    OD1   39   2.990   3.877   4.965 -0.8950  0.4032 -0.5830
    4ASP    OD2   40   3.131   3.708   4.978  0.1432 -0.5091  0.4341
    4ASP      C   41   3.209   4.026   4.625  0.0386  0.0957  0.2542
    4ASP      O   42   3.238   3.943   4.535  0.2367 -0.0193 -0.0485
    5PRO      N   43   3.248   4.148   4.609 -0.6400  0.3821  0.3109
    5PRO     CD   44   3.207   4.260   4.702  0.1056  0.4398  0.7470
    5PRO    HD1   45   3.264   4.248   4.796 -0.0064  0.7518  0.8553
    5PRO    HD2   46   3.097   4.275   4.712  0.1270  0.8213  0.4214
    5PRO     CA   47   3.349   4.195   4.507  0.3464  0.3219  0.0209
    5PRO     HA   48   3.294   4.205   4.415 -1.2447  1.3018  1.0461
    5PRO     CB   49   3.389   4.333   4.563  0.1751  0.0548 -0.3518
    5PRO    HB1   50   3.425   4.399   4.480  1.8567  0.6606  0.8340
    5PRO    HB2   51   3.475   4.324   4.632  0.0931  1.0026 -0.1213
    5PRO     CG   52   3.265   4.386   4.626 -0.2293 -0.1286  0.5363
    5PRO    HG1   53   3.293   4.469   4.694  0.6240  0.6668 -0.7685
    5PRO    HG2   54   3.186   4.419   4.555 -1.2323  0.4768  1.9207
    5PRO      C   55   3.478   4.118   4.474 -0.0309  0.3284 -0.1065
    5PRO      O   56   3.537   4.050   4.563 -0.1917  0.3027 -0.1079
    6GLY      N   57   3.522   4.120   4.347  0.3138  0.2644 -0.2711
    6GLY     HN   58   3.488   4.197   4.294  0.9325  0.4654 -0.3791
    6GLY     CA   59   3.641   4.052   4.310  0.0576 -0.4429 -0.6197
    6GLY    HA1   60   3.652   4.077   4.206  1.9010 -1.9789 -0.8279
    6GLY    HA2   61   3.626   3.946   4.327 -2.1661  0.0977  1.0489
    6GLY      C   62   3.773   4.088   4.380 -0.8917  0.2744  0.0758
    6GLY      O   63   3.784   4.207   4.419  0.7748 -1.4553  0.2461
    7SER      N   64   3.864   3.984   4.391 -0.5967  0.2288  0.7650
    7SER     HN   65   3.843   3.891   4.360 -0.4869  0.8261 -1.1723
    7SER     CA   66   3.989   4.001   4.453 -1.4120  0.0737  0.2723
    7SER     HA   67   3.967   4.029   4.555  0.6077  2.0136  0.2060
    7SER     CB   68   4.069   3.868   4.462 -0.3699 -0.3576  0.1856
    7SER    HB1   69   4.110   3.844   4.362  1.6910  1.1065  0.6565
    7SER    HB2   70   4.000   3.783   4.480  1.1286 -2.3835 -3.0921
    7SER     OG   71   4.172   3.877   4.565  0.1164  0.3051 -0.0096
    7SER    HG1   72   4.222   3.796   4.558 -0.8061 -0.3710  0.9986
    7SER      C   73   4.077   4.112   4.392  0.4290  0.1798 -0.0820
    7SER      O   74   4.088   4.118   4.273  0.7901  0.2310  0.2259
    8ASP      N   75   4.144   4.199   4.474 -0.4419  0.0474  0.2860
    8ASP     HN   76   4.140   4.188   4.573 -1.6184 -0.8576  0.1477
    8ASP     CA   77   4.225   4.310   4.416  0.3885  0.0725 -0.3418
    8ASP     HA   78   4.158   4.382   4.372 -0.1888  0.7644  1.5919
    8ASP     CB   79   4.297   4.398   4.523  0.0210 -0.2759  0.6614
    8ASP    HB1   80   4.356   4.475   4.470 -2.1626  2.6048  2.2916
    8ASP    HB2   81   4.365   4.325   4.572  0.8035  0.5871  0.8644
    8ASP     CG   82   4.205   4.462   4.624 -0.6506  0.4731 -0.5087
    8ASP    OD1   83   4.081   4.478   4.602 -0.2277 -0.0920  0.0238
    8ASP    OD2   84   4.257   4.505   4.731 -0.1433 -0.5611  0.1931
    8ASP      C   85   4.333   4.258   4.321  0.7802  0.6967 -0.0992
    8ASP      O   86   4.400   4.156   4.341 -0.5610 -0.0366  0.0069
    9GLY      N   87   4.339   4.326   4.207  0.3956 -0.3051  0.0211
    9GLY     HN   88   4.287   4.411   4.208  1.8366  0.6085 -0.4496
    9GLY     CA   89   4.415   4.274   4.092  0.4467 -0.5221  0.1789
    9GLY    HA1   90   4.407   4.355   4.021  2.3387  0.1105  0.6601
    9GLY    HA2   91   4.372   4.182   4.054 -1.1064  0.5245 -0.6906
    9GLY      C   92   4.566   4.252   4.125  0.0431 -0.1380  0.1103
    9GLY      O   93   4.622   4.310   4.219  0.9938  0.5062 -0.2850
   10SER      N   94   4.634   4.175   4.040 -0.1499  0.1472  0.1015
   10SER     HN   95   4.599   4.126   3.960 -0.5403  0.8955 -0.1921
   10SER     CA   96   4.780   4.144   4.053 -0.1079 -0.4313  0.5137
   10SER     HA   97   4.798   4.110   4.154 -0.2843  1.2258  1.1168
   10SER     CB   98   4.821   4.046   3.941  1.0797  0.5463  0.2409
   10SER    HB1   99   4.929   4.018   3.940  1.6056  2.5297  0.3601
   10SER    HB2  100   4.801   4.090   3.841  3.7750  0.3647 -0.4317
   10SER     OG  101   4.754   3.921   3.958 -0.6039  0.5295 -0.2670
   10SER    HG1  102   4.659   3.926   3.943 -0.8003  1.2221  1.1278
   10SER      C  103   4.873   4.266   4.039  0.1325 -1.0209 -0.6608
   10SER      O  104   4.838   4.368   3.980 -0.6195  0.0543  0.2594
   11GLY      N  105   4.988   4.263   4.097 -0.6592 -0.9927 -0.0477
   11GLY     HN  106   5.019   4.179   4.141  0.6196 -0.8697 -0.6957
   11GLY     CA  107   5.094   4.370   4.085 -0.2118 -0.3324 -0.4791
   11GLY    HA1  108   5.181   4.329   4.133 -0.2987  2.3389  2.0787
   11GLY    HA2  109   5.060   4.457   4.138  1.6187 -0.1341  0.3809
   11GLY      C  110   5.140   4.410   3.948 -0.5062  0.9587  0.1011
   11GLY      O  111   5.108   4.333   3.860  0.1262 -0.5997 -0.2799
   12PRO      N  112   5.200   4.530   3.923  0.7619  0.0282 -0.8186
   12PRO     CD  113   5.231   4.628   4.031  0.1388 -0.2350  0.7135
   12PRO    HD1  114   5.280   4.580   4.118  0.6821  0.2851  0.6944
   12PRO    HD2  115   5.140   4.690   4.050  0.6996  1.9974 -3.2017
   12PRO     CA  116   5.282   4.551   3.805 -0.5951 -0.1028 -0.6681
   12PRO     HA  117   5.219   4.539   3.719 -2.5840  2.6620  0.3292
   12PRO     CB  118   5.333   4.696   3.819 -0.3518 -0.2513  0.5212
   12PRO    HB1  119   5.273   4.765   3.756  1.2106  0.4618 -0.2299
   12PRO    HB2  120   5.435   4.705   3.776 -1.7266 -0.4777 -2.8774
   12PRO     CG  121   5.330   4.729   3.972  0.0450 -0.0103  0.0727
   12PRO    HG1  122   5.427   4.707   4.022 -0.5165 -0.0407  1.1777
   12PRO    HG2  123   5.300   4.834   3.993  0.1859  0.6598 -2.8342
   12PRO      C  124   5.398   4.450   3.791  0.6802 -0.6865  0.3092
   12PRO      O  125   5.430   4.382   3.892  0.0332 -0.2302  0.6388
   13GLY      N  126   5.458   4.445   3.667  0.3605  0.5021 -0.0848
   13GLY     HN  127   5.424   4.506   3.595 -0.6487 -0.7562 -0.6938
   13GLY     CA  128   5.576   4.367   3.637  0.0999 -0.5958  0.2052
   13GLY    HA1  129   5.593   4.371   3.530  0.9191  0.2320  0.3668
   13GLY    HA2  130   5.561   4.264   3.667  2.3190 -1.7426 -2.3864
   13GLY      C  131   5.698   4.406   3.704 -0.9911  0.1813  0.0922
   13GLY      O  132   5.703   4.515   3.770  0.6595  0.1275  0.4477
   14ASP      N  133   5.800   4.327   3.698 -0.4983  0.1379  0.5336
   14ASP     HN  134   5.794   4.240   3.650 -2.3347  0.2206  0.5953
   14ASP     CA  135   5.927   4.371   3.748  0.6832  0.6925  0.4883
   14ASP     HA  136   5.906   4.424   3.839  0.3414  0.3048  0.6348
   14ASP     CB  137   6.015   4.242   3.779  0.0776  0.0099 -0.4420
   14ASP    HB1  138   6.110   4.291   3.809 -0.7255  0.7526  0.9381
   14ASP    HB2  139   6.031   4.185   3.685 -1.9614 -0.9919 -0.2091
   14ASP     CG  140   5.959   4.164   3.892  0.7554  0.1001  1.0970
   14ASP    OD1  141   5.861   4.216   3.954  0.2084 -0.9796 -0.0738
   14ASP    OD2  142   6.008   4.051   3.923  0.3430  0.1181 -0.3192
   14ASP      C  143   6.012   4.454   3.653  0.3303 -0.0274  0.1919
   14ASP      O  144   6.015   4.409   3.535  0.6277 -0.0731 -0.3658
   15PRO      N  145   6.074   4.566   3.694  0.5323 -0.6155 -0.1795
   15PRO     CD  146   6.036   4.644   3.812  0.1615  0.4899 -0.5690
   15PRO    HD1  147   6.033   4.582   3.904 -1.9353  0.9856 -0.2662
   15PRO    HD2  148   5.934   4.684   3.791 -0.7222  1.8808  5.4439
   15PRO     CA  149   6.175   4.641   3.620  0.5580 -0.5796  0.0851
   15PRO     HA  150   6.143   4.656   3.518 -0.0018  0.0154  0.3472
   15PRO     CB  151   6.183   4.781   3.685  0.4510 -0.2076 -0.3054
   15PRO    HB1  152   6.117   4.849   3.628 -1.5902 -2.0450 -0.2212
   15PRO    HB2  153   6.283   4.828   3.691  0.0567  0.5421  0.4125
   15PRO     CG  154   6.130   4.759   3.829 -0.2877  0.0302 -0.3496
   15PRO    HG1  155   6.219   4.745   3.894  1.3239  1.4293 -2.1605
   15PRO    HG2  156   6.081   4.850   3.870 -1.1638 -1.4641  2.0003
   15PRO      C  157   6.307   4.574   3.619  0.4733 -0.1406 -0.4222
   15PRO    OT1  158   6.357   4.545   3.730 -0.0408 -0.4072 -0.0739
   15PRO    OT2  159   6.373   4.550   3.518  0.4506 -0.0496  0.1128
   16SOD    SOD  160   7.523   3.002   0.991 -0.0096  0.4841 -0.3277
   17SOD    SOD  161   0.282   0.402   1.417 -0.3100  0.3725 -0.5109
   18SOD    SOD  162   0.060   3.974   1.451  0.0111 -0.8511  0.1674
   19SOD    SOD  163   3.024   6.204   4.559 -0.2747  0.0254  0.0539
   20SOD    SOD  164   1.777   6.710   3.758 -0.4366  0.9439 -0.1974
   21SOD    SOD  165   6.337   1.611   3.923  0.4116 -0.3849 -0.0857
   22SOD    SOD  166   5.026   6.162   1.649  0.2612  0.2044 -0.4737
   23SOD    SOD  167   7.801   6.526   4.840 -0.2415 -0.2466 -0.0105
   24SOD    SOD  168   5.926   3.424   5.325 -0.4857 -0.2603  0.1551
   25SOD    SOD  169   7.123   6.676   3.831 -0.2991 -0.0696  0.0183
   26SOD    SOD  170   1.202   3.242   2.634 -0.2516 -0.1755  0.3843
   27SOD    SOD  171   0.340   6.935   2.051  0.2615 -0.1887 -0.2595
   28SOD    SOD  172   0.971   5.397   6.572 -0.3692 -0.0741 -0.7073
   29SOD    SOD  173   2.125   2.004   4.397 -0.5998 -0.0028  0.0761
   30SOD    SOD  174   3.635   4.081   5.487  0.0622  0.3442  0.1930
   31SOD    SOD  175   2.579   0.106   2.782 -0.4603  0.0939 -0.2900
   32SOD    SOD  176   5.420   6.337   5.855 -0.3432  0.1617  0.4992
   33SOD    SOD  177   1.171   2.751   3.928  0.3214  0.7304 -0.2672
   34SOD    SOD  178   0.706   0.174   2.709 -0.2137 -0.1481  0.3468
   35SOD    SOD  179   5.425   2.788   3.887  0.0977  0.0034 -0.4046
   36SOD    SOD  180   6.713   0.376   3.698  0.1030  0.4232  0.2156
   37SOD    SOD  181   5.408   6.721   6.921  0.0058 -0.3595 -0.2338
   38SOD    SOD  182   5.357   0.676   0.193  0.2138  0.0407 -0.2539
   39SOD    SOD  183   1.490   5.444   0.906  0.2130  0.0609 -0.1225
   40SOD    SOD  184   7.890   3.227   4.617  0.3480  0.4958  0.3536
   41SOD    SOD  185   8.401   5.210   4.005  0.3945  0.1750 -0.3743
   42SOD    SOD  186   6.983   4.044   1.044  0.1565  0.5318 -0.2984
   43SOD    SOD  187   7.527   5.091   4.696 -0.2435 -0.3551 -0.0434
   44SOD    SOD  188   6.682   1.741   2.997  0.4580  0.0272  0.0730
   45SOD    SOD  189   2.231   2.115   5.191 -0.4081  0.0685  0.1351
   46SOD    SOD  190   8.471   4.227   3.690 -0.5320 -0.2767 -0.2736
   47SOD    SOD  191   7.692   0.966   1.329  0.0185  0.1366  0.0303
   48SOD    SOD  192   0.941   4.337   2.003 -0.0866 -0.7586  0.3207
   49SOD    SOD  193   2.619   0.286   4.678  0.2074  0.0147  0.2921
   50SOD    SOD  194   3.460   2.108   1.715 -0.3307  0.0466 -0.4038
   51SOD    SOD  195   5.185   3.617   3.688 -0.0442  0.1091  0.2093
   52SOD    SOD  196   5.067   0.666   3.694 -0.4137  0.0111 -0.1180
   53SOD    SOD  197   0.190   3.939   6.140 -0.1844 -0.7095 -0.0889
   54SOD    SOD  198   5.477   2.850   1.401  0.3489 -0.1131 -0.6693
   55SOD    SOD  199   5.300   4.019   1.934  0.0668 -0.3450  0.1052
   56SOD    SOD  200   6.267   3.576   3.365  0.1083 -0.0311  0.1741
   57SOD    SOD  201   6.415   5.034   0.485  0.1499  0.0377 -0.7355
   58SOD    SOD  202   1.750   3.279   6.930  0.6092 -0.0308 -0.0743
   59SOD    SOD  203   1.433   2.403   1.567  0.1076 -0.3071 -0.2857
   60SOD    SOD  204   1.354   0.330   0.247 -0.1000 -0.4233  0.1539
   61CLA    CLA  205   3.162   6.067   6.255 -0.0803 -0.2642 -0.1921
   62CLA    CLA  206   2.913   3.296   0.585 -0.0364 -0.5730 -0.0104
   63CLA    CLA  207   5.884   7.779   3.977  0.2394 -0.2542  0.2152
   64CLA    CLA  208   0.824   7.521   3.026  0.2022 -0.2481  0.1795
   65CLA    CLA  209   6.819   1.326   1.956 -0.1291  0.0321  0.0019
   66CLA    CLA  210   0.679   2.808   6.190 -0.2404 -0.0097 -0.0884
   67CLA    CLA  211   4.114   6.109   1.251  0.5108  0.0514  0.0975
   68CLA    CLA  212   6.230   2.660   6.784  0.4031 -0.1055  0.4019
   69CLA    CLA  213   3.853   1.567   3.661  0.0628 -0.2783  0.2822
   70CLA    CLA  214   6.816   7.873   1.090 -0.0514  0.5544  0.3756
   71CLA    CLA  215   0.915   1.893   5.871 -0.3147  0.0397  0.0441
   72CLA    CLA  216   3.323   2.125   6.301  0.1373 -0.2175 -0.1468
   73CLA    CLA  217   0.648   0.956   1.964  0.1854  0.1381  0.1465
   74CLA    CLA  218   8.303   3.749   5.997 -0.0454  0.2428 -0.1006
   75CLA    CLA  219   1.909   4.526   6.441  0.2971  0.4698 -0.0272
   76CLA    CLA  220   3.381   3.931   2.599 -0.1548 -0.0803  0.1366
   77CLA    CLA  221   7.430   0.474   2.862 -0.2639  0.2810 -0.0898
   78CLA    CLA  222   8.449   6.924   2.305  0.0759  0.5418  0.2546
   79CLA    CLA  223   5.889   4.122   1.434 -0.0329 -0.1239  0.0842
   80CLA    CLA  224   1.720   3.489   4.399 -0.1258  0.2103 -0.3584
   81CLA    CLA  225   6.378   6.638   5.287 -0.2835 -0.2647  0.0490
   82CLA    CLA  226   1.571   3.766   1.865  0.2952  0.1326 -0.0875
   83CLA    CLA  227   5.233   3.236   6.550  0.5102  0.4872  0.1687
   84CLA    CLA  228   0.592   0.773   0.695 -0.1594 -0.0345  0.3005
   85CLA    CLA  229   2.603   1.328   3.805  0.6121 -0.2498 -0.0450
   86CLA    CLA  230   3.279   3.922   1.932  0.1215  0.0471 -0.3461
   87CLA    CLA  231   8.084   3.832   2.118  0.2259  0.0078  0.1257
   88CLA    CLA  232   2.650   3.270   4.440 -0.2923 -0.0397 -0.3061
   89CLA    CLA  233   4.252   7.905   4.126 -0.3445 -0.1725 -0.3017
   90CLA    CLA  234   5.160   2.616   3.163 -0.1956 -0.1980  0.0843
   91CLA    CLA  235   4.310   1.253   3.508 -0.1489  0.1131  0.2996
   92CLA    CLA  236   8.263   1.192   1.874 -0.2085  0.6102  0.2324
   93CLA    CLA  237   1.281   4.606   4.250 -0.0349 -0.0508 -0.2019
   94CLA    CLA  238   6.237   3.999   5.992 -0.2609 -0.3662  0.0594
   95CLA    CLA  239   1.728   2.267   0.473  0.2522 -0.2654 -0.1509
   96CLA    CLA  240   5.035   1.188   3.166 -0.0174  0.4967 -0.1586
   97CLA    CLA  241   5.292   5.412   5.053  0.1336  0.3490  0.3784
   98CLA    CLA  242   2.674   4.594   0.266  0.0117  0.1685 -0.0498
   99CLA    CLA  243   7.295   3.799   3.681 -0.2568 -0.0580  0.1369
  100CLA    CLA  244   7.209   6.774   3.318  0.1338 -0.1713 -0.0389
  101CLA    CLA  245   7.895   3.096   4.853 -0.2754 -0.0230 -0.2970
  102CLA    CLA  246   2.967   6.677   4.163 -0.3796  0.2874 -0.1097
  103TIP3   OH2  247   2.905   0.241   3.635  0.4599 -0.2957  0.6037
  103TIP3    H1  248   2.920   0.162   3.687  0.1370 -0.2172  0.8088
  103TIP3    H2  249   2.972   0.302   3.665  0.5567 -0.4063  0.6139
  104TIP3   OH2  250   4.204   6.295   5.933  0.2043  0.4542 -0.3971
  104TIP3    H1  251   4.275   6.277   5.995  0.4101 -0.0855 -0.7896
  104TIP3    H2  252   4.209   6.224   5.869  0.5854  1.5073 -1.5608
  105TIP3   OH2  253   1.242   7.219   1.787  0.3159  0.3027 -0.2489
  105TIP3    H1  254   1.148   7.230   1.771  0.3848  1.9159  0.2834
  105TIP3    H2  255   1.266   7.297   1.839  1.3849 -1.4792  2.0111
  106TIP3   OH2  256   1.784   0.826   1.870 -0.5025  0.6028 -0.4154
  106TIP3    H1  257   1.778   0.826   1.775 -0.6452 -1.5902 -0.4238
  106TIP3    H2  258   1.740   0.746   1.897  1.5533  0.0260  1.3773
  107TIP3   OH2  259   2.553   2.298   1.261 -0.5391 -0.2433  0.1177
  107TIP3    H1  260   2.580   2.274   1.350  1.0552 -1.9042 -0.7937
  107TIP3    H2  261   2.508   2.221   1.228 -0.6343  0.1761 -0.7329
  108TIP3   OH2  262   0.838   5.394   1.223 -0.0116  0.1604  0.0379
  108TIP3    H1  263   0.931   5.391   1.248  0.0531  0.0680 -0.2187
  108TIP3    H2  264   0.792   5.364   1.301  0.1097  1.2992  0.5531
  109TIP3   OH2  265   2.447   7.915   2.195 -0.1109 -0.0846  0.0380
  109TIP3    H1  266   2.413   7.912   2.105  0.0018  0.1940 -0.0133
  109TIP3    H2  267   2.541   7.899   2.186 -0.3455 -1.7004  0.2520
  110TIP3   OH2  268   6.448   7.691   0.722 -0.2916  0.2989 -0.1405
  110TIP3    H1  269   6.507   7.696   0.647 -0.5610  2.8097 -0.2343
  110TIP3    H2  270   6.498   7.731   0.794 -0.1956 -1.6816  0.9294
  111TIP3   OH2  271   2.203   0.179   3.139 -0.1040 -0.2949  0.0456
  111TIP3    H1  272   2.241   0.180   3.226  0.6839 -0.0215 -0.2966
  111TIP3    H2  273   2.181   0.270   3.120 -0.1571 -0.3335 -0.0833
  112TIP3   OH2  274   7.974   6.288   1.692 -0.1509 -0.5684 -0.0918
  112TIP3    H1  275   7.904   6.313   1.752 -1.5011 -1.2792 -1.3418
  112TIP3    H2  276   8.003   6.202   1.722 -0.3579 -0.6186 -0.0367
  113TIP3   OH2  277   1.107   7.370   1.475  0.7364 -0.1797  0.4411
  113TIP3    H1  278   1.163   7.443   1.448  1.5495 -0.4560  1.3430
  113TIP3    H2  279   1.023   7.411   1.495  1.1782  0.5125  0.9069
  114TIP3   OH2  280   0.862   7.438   1.906  0.3530 -0.3634  0.4070
  114TIP3    H1  281   0.902   7.353   1.927  0.8537  0.0795  1.2986
  114TIP3    H2  282   0.914   7.473   1.834 -0.0935 -0.9838 -0.2196
  115TIP3   OH2  283   4.331   0.992   0.852 -0.0945  0.1771  0.0487
  115TIP3    H1  284   4.343   0.912   0.801  0.0527  0.7736 -0.8662
  115TIP3    H2  285   4.338   1.063   0.788 -0.3828  0.9188  0.8220
  116TIP3   OH2  286   5.921   1.100   1.878 -0.3463  0.0364  0.0580
  116TIP3    H1  287   5.854   1.163   1.852 -0.6347 -0.5335 -0.5943
  116TIP3    H2  288   5.991   1.111   1.813 -0.7819 -0.9296 -0.5766
  117TIP3   OH2  289   4.700   1.159   2.556 -0.1608 -0.7129  0.2157
  117TIP3    H1  290   4.699   1.065   2.577  0.9222 -0.4719  1.3815
  117TIP3    H2  291   4.740   1.164   2.470 -0.2046 -1.3194  0.1579
  118TIP3   OH2  292   1.615   0.436   0.600 -0.0084  0.8142  0.0578
  118TIP3    H1  293   1.683   0.494   0.566 -0.7605  1.6757  0.0115
  118TIP3    H2  294   1.607   0.459   0.693  1.5629 -1.0662  0.7089
  119TIP3   OH2  295   4.648   0.995   0.677  0.4956 -0.1300 -0.8292
  119TIP3    H1  296   4.628   1.087   0.692  1.4390  0.1921 -1.4998
  119TIP3    H2  297   4.564   0.957   0.650  0.2635  0.7029 -1.3184
  120TIP3   OH2  298   1.586   7.371   0.940 -0.2615  0.0550 -0.4294
  120TIP3    H1  299   1.620   7.311   0.874  3.1370  3.9458 -2.3917
  120TIP3    H2  300   1.518   7.422   0.895 -2.9962 -2.0186  1.1714
  121TIP3   OH2  301   5.271   2.394   1.332 -0.0309  0.6567  0.2859
  121TIP3    H1  302   5.318   2.440   1.402  0.0811  0.7586  0.1451
  121TIP3    H2  303   5.339   2.372   1.269 -0.2714  1.4236 -0.2539
  122TIP3   OH2  304   4.391   0.396   2.768 -0.0105 -0.3506  0.1132
  122TIP3    H1  305   4.439   0.478   2.756 -0.6997 -0.0890 -0.8667
  122TIP3    H2  306   4.430   0.357   2.846 -0.2296  1.3050  1.0719
  123TIP3   OH2  307   0.913   6.785   0.782 -0.4065 -0.0010  0.1351
  123TIP3    H1  308   0.994   6.793   0.833  0.3670 -1.6615 -0.7939
  123TIP3    H2  309   0.843   6.797   0.846  0.5692 -0.4951  1.3124
  124TIP3   OH2  310   3.043   6.204   3.071 -0.0531 -0.6800 -0.2214
  124TIP3    H1  311   2.967   6.159   3.109 -0.0402 -1.3422 -0.9757
  124TIP3    H2  312   3.021   6.213   2.978  0.2438  0.2636 -0.2073
  125TIP3   OH2  313   1.866   6.521   1.335  0.2793 -0.1639 -0.2384
  125TIP3    H1  314   1.827   6.568   1.409 -1.6748 -0.1313 -1.2452
  125TIP3    H2  315   1.858   6.582   1.261  1.6006 -0.4476 -0.6225
  126TIP3   OH2  316   2.720   7.345   1.739  0.2863  0.0286 -0.0592
  126TIP3    H1  317   2.671   7.421   1.769  2.3303  1.0538  0.8034
  126TIP3    H2  318   2.737   7.294   1.819  2.9067  1.0745  0.0973
  127TIP3   OH2  319   4.917   1.114   2.809  0.0245  0.4481 -0.2575
  127TIP3    H1  320   4.958   1.111   2.722  2.8676  2.2014  0.9362
  127TIP3    H2  321   4.958   1.043   2.858  0.8186  1.4522  0.5778
  128TIP3   OH2  322   2.050   6.752   3.097 -0.2513 -0.2085  0.9673
  128TIP3    H1  323   1.975   6.773   3.042  2.1170  0.9478 -1.9589
  128TIP3    H2  324   2.082   6.668   3.063 -0.2204 -0.6973  2.1881
  129TIP3   OH2  325   3.092   7.951   1.811 -0.1100 -0.1072  0.0762
  129TIP3    H1  326   3.186   7.947   1.794 -0.1167  0.1627 -0.0232
  129TIP3    H2  327   3.052   7.958   1.725 -0.3248 -2.0359  0.0054
  130TIP3   OH2  328   6.190   0.211   1.425 -0.5613 -0.3929  0.3107
  130TIP3    H1  329   6.139   0.286   1.456 -0.2913  0.4603 -1.2722
  130TIP3    H2  330   6.124   0.144   1.405 -1.0827  0.7080 -1.7433
  131TIP3   OH2  331   5.656   0.513   1.465 -0.2432 -0.0186 -0.1990
  131TIP3    H1  332   5.654   0.420   1.487  0.9018  0.1571  0.6592
  131TIP3    H2  333   5.730   0.522   1.405 -0.5906  0.2844 -0.5890
  132TIP3   OH2  334   2.782   6.692   2.438 -0.2173 -0.2025  0.2276
  132TIP3    H1  335   2.724   6.666   2.366 -0.6697  1.7318 -0.1343
  132TIP3    H2  336   2.726   6.697   2.515  0.2282 -2.0691  0.6999
  133TIP3   OH2  337   2.599   1.242   0.581 -0.3676  0.2849  0.3187
  133TIP3    H1  338   2.564   1.174   0.524  0.4156  0.4951 -0.4186
  133TIP3    H2  339   2.533   1.251   0.651 -0.3551 -1.3876  0.5626
  134TIP3   OH2  340   2.214   6.123   1.127 -0.2231  0.7103 -0.0386
  134TIP3    H1  341   2.186   6.033   1.146  0.9064  0.5702  1.0448
  134TIP3    H2  342   2.212   6.129   1.032 -0.0385 -0.5506 -0.1336
  135TIP3   OH2  343   4.383   0.458   3.405 -0.0906 -0.0727  0.5067
  135TIP3    H1  344   4.305   0.502   3.438  0.1630 -0.2060  1.2881
  135TIP3    H2  345   4.386   0.482   3.312 -1.0542 -0.0596  0.4661
  136TIP3   OH2  346   0.813   5.748   2.117 -0.3204  0.8385 -0.0419
  136TIP3    H1  347   0.725   5.761   2.152 -0.5651  0.4042 -0.4946
  136TIP3    H2  348   0.800   5.737   2.022  0.0577 -0.7973  0.0738
  137TIP3   OH2  349   2.718   6.296   0.767 -0.1290  0.3908  0.1767
  137TIP3    H1  350   2.641   6.307   0.712 -0.4079  0.3728  0.5683
  137TIP3    H2  351   2.782   6.357   0.730  0.7587 -1.8204 -2.1335
  138TIP3   OH2  352   2.514   1.038   1.726  0.3276  0.3925 -0.0012
  138TIP3    H1  353   2.429   1.081   1.733  0.0845 -0.1324  0.2894
  138TIP3    H2  354   2.494   0.949   1.697  0.8155  0.4151 -0.4292
  139TIP3   OH2  355   1.263   6.179   0.748 -0.2027 -0.3839  0.0146
  139TIP3    H1  356   1.338   6.127   0.720 -0.2558  1.1420 -3.0578
  139TIP3    H2  357   1.187   6.123   0.730 -0.1147 -0.0964 -1.2786
  140TIP3   OH2  358   5.343   1.680   2.676 -0.6313 -0.6654 -0.2422
  140TIP3    H1  359   5.300   1.605   2.635  0.7329 -1.9493  0.6269
  140TIP3    H2  360   5.274   1.720   2.729 -2.1163  0.3556 -2.8467
  141TIP3   OH2  361   3.125   7.366   3.067  0.3307  0.1889  0.4148
  141TIP3    H1  362   3.150   7.449   3.026 -2.0550  0.5510 -0.3623
  141TIP3    H2  363   3.122   7.304   2.994  2.3297 -0.6563  1.0273
  142TIP3   OH2  364   1.862   7.371   2.836 -0.1348  0.2590  0.3846
  142TIP3    H1  365   1.846   7.437   2.903  0.5045  1.1076 -0.2805
  142TIP3    H2  366   1.810   7.401   2.761  0.2262  0.0569  0.0538
  143TIP3   OH2  367   1.603   7.836   2.052  0.6333  0.5987 -0.4359
  143TIP3    H1  368   1.569   7.882   2.129  1.7816  0.2359  0.2842
  143TIP3    H2  369   1.695   7.862   2.046  0.5547  0.6436 -1.7025
  144TIP3   OH2  370   5.196   0.170   1.886  0.6292  0.8414  0.3873
  144TIP3    H1  371   5.243   0.199   1.807 -1.3940 -1.3976 -1.6888
  144TIP3    H2  372   5.214   0.076   1.892 -2.0209  0.3130  0.6230
  145TIP3   OH2  373   2.337   6.897   1.479  0.0407  0.4995 -0.2841
  145TIP3    H1  374   2.328   6.992   1.479  1.0967  0.6132 -0.5496
  145TIP3    H2  375   2.249   6.864   1.492 -0.4348  1.5145 -0.8867
  146TIP3   OH2  376   0.361   7.442   1.500 -0.1132  0.5847  0.1716
  146TIP3    H1  377   0.423   7.511   1.478  0.3979  0.1766  0.3279
  146TIP3    H2  378   0.314   7.425   1.418  0.3723  0.5055 -0.0967
  147TIP3   OH2  379   3.349   6.557   2.315  0.0976 -0.4701  0.3306
  147TIP3    H1  380   3.421   6.559   2.253 -0.0263 -2.2462  0.1090
  147TIP3    H2  381   3.290   6.490   2.282  0.0462 -1.4738  2.3721
  148TIP3   OH2  382   1.632   7.969   2.904  0.3827 -0.4683 -0.0524
  148TIP3    H1  383   1.689   7.893   2.893 -1.1325 -1.7258  0.6464
  148TIP3    H2  384   1.648   7.999   2.993  0.1099 -0.7024  0.0772
  149TIP3   OH2  385   0.801   7.975   1.405 -0.0939 -0.0547  0.2189
  149TIP3    H1  386   0.824   7.890   1.367 -0.4405  1.1474 -2.7849
  149TIP3    H2  387   0.729   7.955   1.465 -0.6126 -1.8031 -0.9521
  150TIP3   OH2  388   1.763   0.466   1.691 -0.1329 -0.6112 -0.2468
  150TIP3    H1  389   1.669   0.464   1.708 -0.5158 -1.0735 -2.2450
  150TIP3    H2  390   1.780   0.388   1.639  1.3019 -0.3343 -0.2299
  151TIP3   OH2  391   5.227   3.058   6.279 -0.4744 -0.1031  0.3355
  151TIP3    H1  392   5.163   2.992   6.305 -0.2074 -0.2121  0.7193
  151TIP3    H2  393   5.232   3.117   6.355  0.3600 -0.4596  0.5578
  152TIP3   OH2  394   2.431   7.852   4.442 -0.3822 -0.2477  0.0154
  152TIP3    H1  395   2.490   7.848   4.367 -0.1432  0.6360  0.1427
  152TIP3    H2  396   2.453   7.777   4.496 -0.5672 -0.8978 -0.8131
  153TIP3   OH2  397   2.105   7.663   2.238 -0.3689  0.0723 -0.0798
  153TIP3    H1  398   2.127   7.756   2.252  1.4348 -0.2340 -0.7223
  153TIP3    H2  399   2.061   7.661   2.153  1.2547  0.1207 -0.9427
  154TIP3   OH2  400   2.507   7.411   2.212 -0.0948 -0.1088  0.2599
  154TIP3    H1  401   2.437   7.397   2.148 -0.9598 -0.3100  1.2387
  154TIP3    H2  402   2.477   7.484   2.265  0.6571  0.1055  0.3937
  155TIP3   OH2  403   7.943   4.764   3.297 -0.7249 -0.0795  0.6092
  155TIP3    H1  404   7.962   4.857   3.297 -0.4765 -0.1203  1.5564
  155TIP3    H2  405   7.994   4.728   3.225 -0.7161  0.4916  0.3304
  156TIP3   OH2  406   2.536   0.205   1.342  0.2494  0.1976  0.0319
  156TIP3    H1  407   2.589   0.264   1.395 -0.6874 -0.3440  1.6083
  156TIP3    H2  408   2.577   0.119   1.353  0.9410  0.3282 -1.3534
  157TIP3   OH2  409   4.251   6.953   1.207  0.1591  0.1622  0.0585
  157TIP3    H1  410   4.291   6.930   1.291  0.5600  1.3353  0.1904
  157TIP3    H2  411   4.325   6.951   1.145 -0.3829 -2.1752 -0.5682
  158TIP3   OH2  412   0.029   5.970   1.359  0.0712  0.2983  0.3654
  158TIP3    H1  413   0.030   5.916   1.438  1.8419 -1.3523 -0.7425
  158TIP3    H2  414  -0.003   5.911   1.290 -0.2062  1.3317 -0.4025
  159TIP3   OH2  415   3.108   6.892   3.226 -0.1297  0.1214  0.0557
  159TIP3    H1  416   3.203   6.895   3.221  0.0076 -2.5367  0.0419
  159TIP3    H2  417   3.087   6.932   3.311  0.8951  1.6797 -0.4042
  160TIP3   OH2  418   4.243   0.259   0.424  0.0034  0.0599 -0.2070
  160TIP3    H1  419   4.278   0.172   0.408 -1.1568 -0.2619 -1.0137
  160TIP3    H2  420   4.154   0.257   0.390 -1.2294  0.5354  2.8469
  161TIP3   OH2  421   5.742   0.099   2.990  0.1761 -0.2008  0.0816
  161TIP3    H1  422   5.756   0.051   3.072 -2.2294 -0.6142  0.2603
  161TIP3    H2  423   5.671   0.160   3.010 -0.9749 -0.8732 -1.9374
  162TIP3   OH2  424   1.294   7.942   0.770 -0.2482  0.3011  0.4021
  162TIP3    H1  425   1.319   8.028   0.738 -0.8350  0.4994  0.4761
  162TIP3    H2  426   1.272   7.892   0.691 -0.3830  0.3697  0.3963
  163TIP3   OH2  427   4.308   7.052   1.683  0.2290 -0.0273  0.0033
  163TIP3    H1  428   4.338   7.114   1.616 -0.6593  1.1520  0.6866
  163TIP3    H2  429   4.215   7.041   1.666  0.4170 -1.2951 -0.2040
  164TIP3   OH2  430   4.593   0.060   1.837 -0.0133  0.3175  0.1311
  164TIP3    H1  431   4.539   0.058   1.758  1.2007 -2.0207 -0.7094
  164TIP3    H2  432   4.532   0.074   1.908 -1.1343  2.5388 -1.2097
  165TIP3   OH2  433   6.699   0.093   0.524  0.0855  0.3618 -0.3594
  165TIP3    H1  434   6.733   0.173   0.564  1.5488 -0.7349  0.6338
  165TIP3    H2  435   6.647   0.124   0.449  0.3752  2.2407  0.1896
  166TIP3   OH2  436   3.951   6.960   1.291 -0.5163 -0.1469 -0.4949
  166TIP3    H1  437   4.037   6.927   1.267  0.6072  2.0256  0.4356
  166TIP3    H2  438   3.915   6.996   1.210 -0.7461 -1.4563 -0.9789
  167TIP3   OH2  439   3.491   7.590   0.694  0.2029  0.2011 -0.4526
  167TIP3    H1  440   3.499   7.685   0.702 -0.0877  0.4100 -2.4253
  167TIP3    H2  441   3.556   7.555   0.754  0.0108  1.6426  0.6158
  168TIP3   OH2  442   3.007   7.500   4.180  0.6514  0.1846 -0.0476
  168TIP3    H1  443   2.961   7.562   4.236  1.5487 -0.1488  1.0868
  168TIP3    H2  444   2.939   7.443   4.146  0.1887 -0.2062  1.4960
  169TIP3   OH2  445   5.493   1.450   2.387 -0.0123 -0.1111  0.1400
  169TIP3    H1  446   5.556   1.442   2.459 -1.3726 -1.3333  1.2250
  169TIP3    H2  447   5.408   1.460   2.430 -1.1559 -3.2928 -1.2523
  170TIP3   OH2  448   2.027   7.010   2.041  0.2581  0.1690  0.3062
  170TIP3    H1  449   2.121   7.021   2.054  0.3275  0.9967 -0.7288
  170TIP3    H2  450   1.993   6.981   2.125  1.3822  0.2902  0.7999
  171TIP3   OH2  451   5.045   0.851   2.872  0.7987 -0.8213  0.0365
  171TIP3    H1  452   4.977   0.816   2.929  1.0226 -2.0707 -0.4534
  171TIP3    H2  453   5.025   0.814   2.785 -0.0852  1.7780 -0.9282
  172TIP3   OH2  454   2.694   7.195   2.998  0.0453  0.0398 -0.4239
  172TIP3    H1  455   2.738   7.255   2.937  0.2995 -1.1530 -1.4134
  172TIP3    H2  456   2.764   7.166   3.057  0.3480 -0.9014 -1.2384
  173TIP3   OH2  457   3.023   5.736   1.778 -0.2083 -0.0144  0.5089
  173TIP3    H1  458   3.017   5.649   1.739 -0.1874 -0.5131  1.5918
  173TIP3    H2  459   3.113   5.764   1.761 -0.1892 -0.2396  0.2349
  174TIP3   OH2  460   2.048   0.280   1.485  0.5611 -0.1708  0.6344
  174TIP3    H1  461   2.068   0.331   1.406 -0.8462 -0.0845  0.3050
  174TIP3    H2  462   2.128   0.232   1.505  0.9706 -0.0890 -0.7761
  175TIP3   OH2  463   8.523   7.791   0.202  0.2502  0.2067 -0.3038
  175TIP3    H1  464   8.516   7.873   0.252  0.8716  0.7258 -1.0494
  175TIP3    H2  465   8.456   7.735   0.239  1.4518  0.1618  1.8920
  176TIP3   OH2  466   7.935   6.402   2.051 -0.7451 -0.1130  0.1156
  176TIP3    H1  467   7.961   6.480   2.001 -1.3601 -0.5069 -0.8210
  176TIP3    H2  468   7.849   6.378   2.017 -1.4720 -0.0184  1.8109
  177TIP3   OH2  469   3.308   0.871   2.037  0.3340 -0.6156 -0.0983
  177TIP3    H1  470   3.218   0.841   2.024 -0.4142  1.5208 -0.0560
  177TIP3    H2  471   3.343   0.881   1.948  0.6156 -1.6706 -0.1108
  178TIP3   OH2  472   3.012   1.425   0.936  0.8455 -0.0576  0.3722
  178TIP3    H1  473   2.980   1.465   0.855  1.3700 -1.0817 -0.3510
  178TIP3    H2  474   2.984   1.486   1.005 -1.3709 -0.1785 -0.3665
  179TIP3   OH2  475   2.181   3.053   0.616 -0.1103  0.6409  0.1602
  179TIP3    H1  476   2.220   3.047   0.703  0.1494  0.2106  0.0172
  179TIP3    H2  477   2.124   2.977   0.610 -1.3622  1.5334  0.5495
  180TIP3   OH2  478   2.768   2.407   2.445 -0.6287  0.0573 -0.1346
  180TIP3    H1  479   2.803   2.321   2.423  0.8108  0.9040 -1.3265
  180TIP3    H2  480   2.822   2.437   2.518  0.9924  1.2335 -1.7669
  181TIP3   OH2  481   2.828   0.198   1.096 -0.1523 -0.0629 -0.1140
  181TIP3    H1  482   2.920   0.223   1.088 -1.0217  2.8574 -1.4190
  181TIP3    H2  483   2.802   0.230   1.182  0.3133 -1.9035  0.7408
  182TIP3   OH2  484   5.197   1.600   1.264  0.1678 -0.0155 -0.0230
  182TIP3    H1  485   5.245   1.573   1.186 -1.9178  1.9887 -2.1098
  182TIP3    H2  486   5.118   1.546   1.264  0.2121 -0.0797  0.7321
  183TIP3   OH2  487   4.191   0.962   3.235 -0.2051 -0.9439 -0.0233
  183TIP3    H1  488   4.262   1.003   3.186 -1.6040  1.3464 -0.2168
  183TIP3    H2  489   4.165   0.887   3.181  0.9830 -0.8668 -0.7192
  184TIP3   OH2  490   6.260   0.664   3.163  0.0133 -0.5447 -0.1927
  184TIP3    H1  491   6.336   0.631   3.210  0.4221 -1.2304 -1.3335
  184TIP3    H2  492   6.210   0.586   3.138 -0.9096 -0.1168  0.2865
  185TIP3   OH2  493   7.424   7.509   1.569 -0.2783 -0.1906  0.2001
  185TIP3    H1  494   7.495   7.491   1.508 -1.2949 -0.6831 -0.8447
  185TIP3    H2  495   7.467   7.555   1.642  1.0648 -0.2713 -0.5153
  186TIP3   OH2  496   4.030   2.614   2.201  0.0090  0.1191 -0.4273
  186TIP3    H1  497   3.980   2.548   2.152  1.7150 -1.2844 -0.3000
  186TIP3    H2  498   4.115   2.574   2.217  1.2797  2.5659 -0.8104
  187TIP3   OH2  499   6.513   0.401   2.112 -0.2780 -0.7684  0.5049
  187TIP3    H1  500   6.590   0.401   2.169  0.3117 -3.5282 -0.1985
  187TIP3    H2  501   6.547   0.422   2.025 -0.7368  0.5186  0.6194
  188TIP3   OH2  502   3.503   7.891   0.258 -0.3818 -0.0197 -0.2901
  188TIP3    H1  503   3.509   7.912   0.165  1.0213  0.8919  0.0010
  188TIP3    H2  504   3.593   7.868   0.284 -0.6031  0.5517  1.0353
  189TIP3   OH2  505   3.543   7.425   2.105  0.6732  0.5773  0.3881
  189TIP3    H1  506   3.571   7.436   2.014  0.7993 -0.2602  0.3258
  189TIP3    H2  507   3.608   7.473   2.156  0.7079  0.8905  0.0540
  190TIP3   OH2  508   6.773   0.366   1.491  0.3667 -0.4730  0.0692
  190TIP3    H1  509   6.855   0.414   1.480 -0.0376 -0.1671 -1.8116
  190TIP3    H2  510   6.769   0.308   1.414 -0.6356 -1.3035  0.7311
  191TIP3   OH2  511   0.051   1.140   3.768  0.0063  0.6737  0.0526
  191TIP3    H1  512   0.005   1.088   3.835 -0.6043 -0.7011 -1.4035
  191TIP3    H2  513  -0.019   1.182   3.718  0.4397  1.2574 -0.0655
  192TIP3   OH2  514   2.332   7.417   0.616  0.5756 -0.0507  0.1178
  192TIP3    H1  515   2.316   7.470   0.694  0.0067 -0.2531  0.1385
  192TIP3    H2  516   2.279   7.338   0.630  1.2456 -0.5299 -0.0105
  193TIP3   OH2  517   3.514   7.915   1.011  0.1930  0.6163 -0.1947
  193TIP3    H1  518   3.426   7.938   0.983 -0.4400 -0.9721  0.4170
  193TIP3    H2  519   3.521   7.948   1.100 -0.8157 -1.6829  0.7875
  194TIP3   OH2  520   4.926   0.672   1.458 -0.2231  0.0179  0.1204
  194TIP3    H1  521   4.992   0.741   1.467  0.8795 -0.6626 -2.3589
  194TIP3    H2  522   4.970   0.594   1.492 -0.6844  0.0679  0.8505
  195TIP3   OH2  523   6.523   0.743   1.864 -0.1234  0.2032 -0.2090
  195TIP3    H1  524   6.540   0.716   1.774  0.4809  1.1749 -0.3981
  195TIP3    H2  525   6.605   0.727   1.910 -0.1433  0.5521 -0.0475
  196TIP3   OH2  526   3.996   6.453   0.944 -0.0651 -0.0169 -0.3116
  196TIP3    H1  527   3.964   6.543   0.945  2.5610  0.9848 -0.7011
  196TIP3    H2  528   4.007   6.432   0.851 -1.4737 -1.0559 -0.2529
  197TIP3   OH2  529   7.561   0.232   3.961 -0.4569  0.4273  0.0064
  197TIP3    H1  530   7.489   0.171   3.948 -0.5544  0.9484 -1.9977
  197TIP3    H2  531   7.610   0.229   3.879  1.5984  0.3613  1.2067
  198TIP3   OH2  532   6.353   1.239   2.348  0.1432  0.2822  0.1262
  198TIP3    H1  533   6.313   1.195   2.272  0.1285  2.1502 -0.9825
  198TIP3    H2  534   6.399   1.314   2.310  1.1796  0.5258  1.8554
  199TIP3   OH2  535   4.156   0.901   1.555  0.5662  0.4078  0.0289
  199TIP3    H1  536   4.094   0.870   1.622  2.1788 -1.8980  0.5197
  199TIP3    H2  537   4.206   0.969   1.600 -0.2087  0.8299  0.2757
  200TIP3   OH2  538   1.320   6.830   1.421 -0.2704  0.1382  0.1749
  200TIP3    H1  539   1.297   6.854   1.511  0.6096 -1.1188  0.7492
  200TIP3    H2  540   1.416   6.821   1.422 -0.1910  0.7294 -1.0425
  201TIP3   OH2  541   3.273   6.055   2.996  0.2864  0.3284  0.2090
  201TIP3    H1  542   3.305   6.112   2.925  0.3976  0.8864  0.6957
  201TIP3    H2  543   3.198   6.102   3.033 -0.1688 -0.2682  0.0425
  202TIP3   OH2  544   7.376   1.314   1.069  0.1616  0.3390  0.1201
  202TIP3    H1  545   7.380   1.322   1.165 -0.6412 -0.0875  0.1916
  202TIP3    H2  546   7.309   1.247   1.053  3.0059 -2.4118 -0.6261
  203TIP3   OH2  547   3.727   5.251   0.700 -0.1613  0.0968  0.1705
  203TIP3    H1  548   3.652   5.250   0.641  1.0262 -0.1417 -1.3714
  203TIP3    H2  549   3.772   5.333   0.681  0.2949 -0.0350  0.6604
  204TIP3   OH2  550   4.665   6.666   1.817 -0.5072  0.3915 -0.1605
  204TIP3    H1  551   4.702   6.639   1.733  0.2383  2.0721 -0.3949
  204TIP3    H2  552   4.571   6.657   1.806 -0.2520 -3.9684  0.4529
  205TIP3   OH2  553   5.643   0.528   3.027  0.4185  0.0242  0.3875
  205TIP3    H1  554   5.672   0.582   2.954 -0.2553 -1.3007 -0.8623
  205TIP3    H2  555   5.661   0.582   3.105  1.1184  1.4356 -0.7353
  206TIP3   OH2  556   6.382   1.591   0.996 -0.0520 -0.0223 -0.0295
  206TIP3    H1  557   6.431   1.673   0.985  0.9508 -0.7076 -0.8229
  206TIP3    H2  558   6.450   1.524   1.007 -0.8550 -0.7891  0.3117
  207TIP3   OH2  559   5.524   0.815   1.071  0.1166 -0.0568 -0.6241
  207TIP3    H1  560   5.545   0.723   1.086 -0.4368  0.1102  1.2100
  207TIP3    H2  561   5.590   0.863   1.120 -1.2209  0.4956  0.6526
  208TIP3   OH2  562   2.935   7.500   0.959  0.1065 -0.5925  0.1875
  208TIP3    H1  563   2.920   7.504   1.054  0.2778 -1.3809  0.2460
  208TIP3    H2  564   3.025   7.530   0.947  0.4003 -1.4023  0.3610
  209TIP3   OH2  565   5.729   1.473   0.875 -0.2823 -0.3762  0.1625
  209TIP3    H1  566   5.792   1.449   0.943 -0.7194 -0.3073  0.5977
  209TIP3    H2  567   5.781   1.479   0.795  0.4151  0.4648  0.6681
  210TIP3   OH2  568   6.200   0.845   1.793  0.3664  0.1315  0.0535
  210TIP3    H1  569   6.190   0.859   1.699  0.9206 -1.8424 -0.3232
  210TIP3    H2  570   6.116   0.810   1.822  0.1956  0.7378  0.2870
  211TIP3   OH2  571   6.289   0.165   1.905  0.0178 -0.2358  0.2764
  211TIP3    H1  572   6.312   0.172   1.998 -2.1170  0.1508  0.7983
  211TIP3    H2  573   6.261   0.074   1.895 -0.3137 -0.1206  0.1508
  212TIP3   OH2  574   2.677   6.624   1.417 -0.1235  0.2028 -0.2062
  212TIP3    H1  575   2.636   6.703   1.382  0.0305  0.7240  0.7785
  212TIP3    H2  576   2.767   6.628   1.384 -0.1578  0.3584 -0.2833
  213TIP3   OH2  577   6.920   0.985   1.131 -0.1432  0.3121  0.0302
  213TIP3    H1  578   6.994   1.039   1.104 -0.2340 -0.2287 -1.3165
  213TIP3    H2  579   6.906   1.009   1.223  0.4675  1.8287 -0.2471
  214TIP3   OH2  580   1.722   3.910   6.430 -0.5014 -0.0124  0.4730
  214TIP3    H1  581   1.759   3.822   6.426  2.2036  1.1100 -0.6201
  214TIP3    H2  582   1.660   3.913   6.358 -0.1298 -0.8164  0.1107
  215TIP3   OH2  583   3.105   7.599   2.193 -0.0233 -0.4715  0.4264
  215TIP3    H1  584   3.063   7.549   2.123  1.2121 -0.7988 -0.0898
  215TIP3    H2  585   3.191   7.622   2.158  0.0941  0.5009  1.3399
  216TIP3   OH2  586   1.088   3.390   1.854 -0.5238 -0.2787 -0.5351
  216TIP3    H1  587   0.997   3.373   1.828  0.0908 -0.1328 -2.9339
  216TIP3    H2  588   1.128   3.304   1.859 -0.4497 -0.2697 -0.9051
  217TIP3   OH2  589   2.015   0.445   1.239  0.4574 -0.0655 -0.1493
  217TIP3    H1  590   2.047   0.524   1.282  1.1542 -1.4379  1.9658
  217TIP3    H2  591   2.087   0.417   1.183  2.0696 -1.6407  2.5454
  218TIP3   OH2  592   0.610   1.278   2.031  0.2799 -0.0231 -0.4727
  218TIP3    H1  593   0.609   1.183   2.028 -0.5194 -0.0134 -0.7092
  218TIP3    H2  594   0.617   1.305   1.940  0.9926  0.1488 -0.3736
  219TIP3   OH2  595   1.108   7.353   2.680  0.0175 -0.0949 -0.1878
  219TIP3    H1  596   1.049   7.311   2.743  0.9142 -0.6729  0.2783
  219TIP3    H2  597   1.054   7.367   2.602 -0.6512 -0.8943  0.1243
  220TIP3   OH2  598   1.498   6.336   2.440 -0.2373 -0.2473 -0.3222
  220TIP3    H1  599   1.508   6.355   2.533 -0.8391 -0.2870 -0.2470
  220TIP3    H2  600   1.405   6.351   2.423 -0.0718  0.0222 -0.9763
  221TIP3   OH2  601   3.613   1.742   4.451  0.5166 -0.1040 -0.0551
  221TIP3    H1  602   3.521   1.733   4.476  0.5338  1.1331  0.4745
  221TIP3    H2  603   3.611   1.761   4.357  0.2859 -1.2226 -0.2759
  222TIP3   OH2  604   3.441   3.607   1.934 -0.5837  0.0360  0.4355
  222TIP3    H1  605   3.409   3.694   1.958 -0.4090  0.4723 -0.8430
  222TIP3    H2  606   3.367   3.566   1.889  0.1660  0.5096 -1.2670
  223TIP3   OH2  607   3.530   0.699   1.802 -0.1223  0.0568 -0.0054
  223TIP3    H1  608   3.525   0.628   1.738  0.8973 -0.8625  0.9058
  223TIP3    H2  609   3.496   0.776   1.756 -0.4151 -0.8276 -1.2881
  224TIP3   OH2  610   3.248   1.827   2.067  0.1541 -0.3231  0.2610
  224TIP3    H1  611   3.201   1.745   2.082 -2.8417  1.2261 -0.1292
  224TIP3    H2  612   3.313   1.832   2.137  0.2317 -2.8995  0.4007
  225TIP3   OH2  613   2.120   2.413   2.764 -0.1007  0.0493 -0.1512
  225TIP3    H1  614   2.078   2.397   2.848  0.9146 -0.9383  0.1782
  225TIP3    H2  615   2.051   2.451   2.709 -1.0286 -0.2307  0.8097
  226TIP3   OH2  616   3.742   2.389   0.973 -0.4427 -0.9633 -0.5227
  226TIP3    H1  617   3.775   2.300   0.990  0.5087 -0.7731 -1.3213
  226TIP3    H2  618   3.758   2.403   0.880  0.5579  0.5115 -0.1454
  227TIP3   OH2  619   2.283   4.252   3.557 -0.3387 -0.5039  0.3083
  227TIP3    H1  620   2.270   4.346   3.546  0.6047 -0.6748 -3.0557
  227TIP3    H2  621   2.378   4.241   3.552 -0.3603 -1.5133  1.9387
  228TIP3   OH2  622   2.096   3.573   2.349  0.0333  0.0780  0.0944
  228TIP3    H1  623   2.041   3.647   2.376 -1.0051  0.5658 -3.1350
  228TIP3    H2  624   2.035   3.500   2.338  0.6668 -0.5392  0.6028
  229TIP3   OH2  625   3.201   4.154   2.500  0.4920 -0.5802  0.3704
  229TIP3    H1  626   3.137   4.149   2.572  0.5464 -2.2234  0.3215
  229TIP3    H2  627   3.250   4.072   2.506  2.3383  0.4897  0.1416
  230TIP3   OH2  628   3.909   7.085   6.523 -0.0669 -0.5292  0.2261
  230TIP3    H1  629   3.831   7.030   6.529 -1.5990  1.1273 -3.2046
  230TIP3    H2  630   3.876   7.174   6.536  1.1168  0.2367 -1.8541
  231TIP3   OH2  631   2.806   0.086   2.700  0.0157 -0.2753  0.5992
  231TIP3    H1  632   2.875   0.060   2.761  1.1324  1.8906  0.3414
  231TIP3    H2  633   2.853   0.126   2.627 -1.4836  1.5567  0.5770
  232TIP3   OH2  634   5.558   4.595   5.919  0.4931 -0.1994  0.3815
  232TIP3    H1  635   5.528   4.682   5.891  1.2197  0.1329  0.6180
  232TIP3    H2  636   5.562   4.544   5.838  1.8279  0.5314 -0.0287
  233TIP3   OH2  637   2.355   1.600   1.922 -0.5723 -0.6410 -0.3016
  233TIP3    H1  638   2.397   1.531   1.972 -1.2231 -0.4897  0.4606
  233TIP3    H2  639   2.406   1.606   1.841  1.6029  0.3773  1.1210
  234TIP3   OH2  640   2.822   1.391   3.422 -0.3155 -0.3757  0.1134
  234TIP3    H1  641   2.860   1.305   3.436  1.9462  0.5536 -0.0277
  234TIP3    H2  642   2.872   1.449   3.480 -2.0227  0.8010  0.4643
  235TIP3   OH2  643   3.280   2.868   4.655  0.0597 -0.1131  0.1471
  235TIP3    H1  644   3.332   2.910   4.723 -2.1408 -1.6041  2.8577
  235TIP3    H2  645   3.222   2.937   4.623  0.3684  0.3384  0.5532
  236TIP3   OH2  646   1.284   7.592   1.621  0.6777  0.2415 -0.1997
  236TIP3    H1  647   1.332   7.643   1.686  2.8475  0.5532 -1.9738
  236TIP3    H2  648   1.333   7.604   1.540 -0.0421 -2.8575 -1.1650
  237TIP3   OH2  649   4.382   2.482   2.572  0.0493  0.5930  0.3584
  237TIP3    H1  650   4.459   2.453   2.621 -0.6540 -0.4012  0.8797
  237TIP3    H2  651   4.359   2.407   2.517 -0.4078  0.9773  0.0249
  238TIP3   OH2  652   2.285   2.913   3.156 -0.5596 -0.4313 -0.2229
  238TIP3    H1  653   2.330   2.839   3.114 -0.4665 -0.2330 -0.4767
  238TIP3    H2  654   2.337   2.933   3.233  0.2840  0.3679 -0.9976
  239TIP3   OH2  655   1.125   1.157   2.838  0.3386  0.3162 -0.2752
  239TIP3    H1  656   1.210   1.194   2.817  0.4024  0.1126 -0.3833
  239TIP3    H2  657   1.061   1.219   2.802  0.4409 -0.8062 -2.5145
  240TIP3   OH2  658   0.354   3.325   3.235 -0.0948 -0.5587  1.2566
  240TIP3    H1  659   0.327   3.247   3.187  0.3506  0.1370 -0.1502
  240TIP3    H2  660   0.393   3.291   3.316 -0.3962 -1.7643  0.9039
  241TIP3   OH2  661   4.724   1.392   1.580 -0.8332 -0.0444  0.1940
  241TIP3    H1  662   4.747   1.335   1.653 -0.0124 -0.1868 -0.1801
  241TIP3    H2  663   4.753   1.345   1.502 -1.5270  0.1991 -0.2163
  242TIP3   OH2  664   3.506   1.989   1.060  0.1770 -0.3276  0.2104
  242TIP3    H1  665   3.560   1.959   0.987 -1.6438  0.4053 -1.4769
  242TIP3    H2  666   3.511   2.085   1.056 -0.5369 -0.2713  0.5915
  243TIP3   OH2  667   3.300   3.887   1.611 -0.5605 -0.2506  0.2007
  243TIP3    H1  668   3.272   3.894   1.703  1.2896 -1.0455  0.8524
  243TIP3    H2  669   3.375   3.946   1.605  0.5950 -1.7357 -0.2688
  244TIP3   OH2  670   3.987   1.789   2.705  0.1674 -0.2595 -0.0708
  244TIP3    H1  671   3.943   1.835   2.776  0.4310  0.5969 -0.4612
  244TIP3    H2  672   4.070   1.761   2.743 -1.2871 -3.2245  1.1481
  245TIP3   OH2  673   1.765   1.262   0.077  0.3388  0.0889  0.0110
  245TIP3    H1  674   1.834   1.201   0.049  0.1722  0.2149 -0.6918
  245TIP3    H2  675   1.736   1.229   0.162  0.7224 -0.4163 -0.0531
  246TIP3   OH2  676   1.356   2.674   2.642  0.1720 -0.0712 -0.0138
  246TIP3    H1  677   1.385   2.595   2.687  1.9472  0.2786 -0.5076
  246TIP3    H2  678   1.329   2.644   2.555  0.1466 -0.2363  0.0511
  247TIP3   OH2  679   3.381   4.326   2.165 -0.0276  0.3786  0.3263
  247TIP3    H1  680   3.428   4.406   2.190  0.1848  0.6082 -0.7481
  247TIP3    H2  681   3.451   4.261   2.151 -0.0004  0.7710 -1.4580
  248TIP3   OH2  682   3.194   4.039   4.195  0.1508 -0.5770 -0.1512
  248TIP3    H1  683   3.239   4.083   4.123 -0.4094 -0.1914 -0.2654
  248TIP3    H2  684   3.138   4.106   4.234 -0.4019 -1.0737 -0.0726
  249TIP3   OH2  685   1.874   4.493   2.836  0.1833 -0.0303  0.0479
  249TIP3    H1  686   1.919   4.558   2.782  1.1378 -1.3643 -0.8109
  249TIP3    H2  687   1.912   4.504   2.923  0.0872  0.8091 -0.0196
  250TIP3   OH2  688   3.804   3.827   1.598  0.2766 -0.1564 -0.0076
  250TIP3    H1  689   3.817   3.742   1.640  0.2430 -0.5532 -0.7885
  250TIP3    H2  690   3.865   3.826   1.524  0.7003  0.7385  0.3281
  251TIP3   OH2  691   0.678   2.968   2.218 -0.0503  0.6609 -0.1333
  251TIP3    H1  692   0.689   2.873   2.217 -0.3801  0.5606  2.2710
  251TIP3    H2  693   0.766   3.002   2.229 -0.0950  0.5521  0.6218
  252TIP3   OH2  694   2.247   1.911   2.991 -0.8636  0.0081  0.0025
  252TIP3    H1  695   2.335   1.874   2.987 -1.2094 -0.6124 -2.2671
  252TIP3    H2  696   2.261   2.005   3.004  0.1739  0.0648 -1.4000
  253TIP3   OH2  697   0.990   3.218   2.549 -0.0241 -0.7166  0.0912
  253TIP3    H1  698   0.993   3.126   2.526  0.4025 -1.1241  1.7207
  253TIP3    H2  699   0.897   3.237   2.560 -0.2302 -0.5100 -1.9382
  254TIP3   OH2  700   2.613   3.698   4.063 -0.0652 -0.6902  0.3429
  254TIP3    H1  701   2.683   3.747   4.019 -2.7676  3.5245  0.4791
  254TIP3    H2  702   2.600   3.620   4.009  1.1450  1.1009 -2.6271
  255TIP3   OH2  703   1.184   3.082   0.217 -0.6746 -0.0731  0.3968
  255TIP3    H1  704   1.100   3.115   0.184  0.8962  1.4571 -2.2204
  255TIP3    H2  705   1.198   3.001   0.169 -0.8481 -0.5533  1.1515
  256TIP3   OH2  706   4.033   2.151   3.655  0.4059  0.3980  0.3519
  256TIP3    H1  707   4.053   2.180   3.744  0.6923 -1.1424  0.7928
  256TIP3    H2  708   4.020   2.057   3.662 -1.1158  0.4832 -0.9785
  257TIP3   OH2  709   0.940   7.064   1.349  0.1155 -0.1421 -0.1165
  257TIP3    H1  710   0.896   6.982   1.368 -0.0127  0.1544  0.9058
  257TIP3    H2  711   0.938   7.112   1.432  0.2606  0.8523 -0.6823
  258TIP3   OH2  712   3.827   2.556   2.601  0.0858 -0.2159  0.5033
  258TIP3    H1  713   3.791   2.632   2.647 -0.3441 -0.4864  0.6209
  258TIP3    H2  714   3.921   2.568   2.605  0.0824 -0.6207  2.1196
  259TIP3   OH2  715   2.748   2.778   2.708  0.2079  0.5075 -0.5093
  259TIP3    H1  716   2.821   2.786   2.769  0.6042 -1.3684 -0.7028
  259TIP3    H2  717   2.750   2.860   2.658  0.7219  1.4675  1.0455
  260TIP3   OH2  718   0.674   1.183   1.771  0.6323 -0.5710 -0.0099
  260TIP3    H1  719   0.705   1.158   1.684  1.0747 -1.9746  0.5432
  260TIP3    H2  720   0.663   1.101   1.818 -0.6128  0.1073  0.9352
  261TIP3   OH2  721   3.339   1.237   0.817  0.2981  0.0187 -0.2745
  261TIP3    H1  722   3.345   1.200   0.905  0.1306 -0.7356 -0.5794
  261TIP3    H2  723   3.362   1.329   0.828  0.8517 -0.2104  0.4595
  262TIP3   OH2  724   4.326   1.045   1.694 -0.3476 -0.0122  0.1738
  262TIP3    H1  725   4.334   0.987   1.770  0.4108 -0.7395 -0.4531
  262TIP3    H2  726   4.305   1.131   1.731 -0.9760 -0.5724  1.1438
  263TIP3   OH2  727   3.358   1.169   1.968  0.3233  0.0740 -0.3339
  263TIP3    H1  728   3.412   1.218   2.029 -0.0666 -0.3039  0.3281
  263TIP3    H2  729   3.363   1.078   1.999 -3.0680  0.4352  1.5926
  264TIP3   OH2  730   4.026   2.528   4.575  0.4711  0.1323 -0.6120
  264TIP3    H1  731   4.081   2.459   4.611  1.1391  0.8692 -0.2077
  264TIP3    H2  732   3.946   2.483   4.549 -0.1506 -0.3918  2.0354
  265TIP3   OH2  733   3.955   1.220   2.446 -0.4662 -0.2165 -0.6086
  265TIP3    H1  734   3.947   1.126   2.436 -1.5415 -0.3951  1.5541
  265TIP3    H2  735   3.883   1.256   2.393 -1.9127 -0.7865  0.8956
  266TIP3   OH2  736   4.453   3.460   2.109  0.3149  0.1137  0.1118
  266TIP3    H1  737   4.374   3.481   2.060  0.4769 -0.7630 -0.5256
  266TIP3    H2  738   4.444   3.509   2.191 -0.5051  0.6478 -0.2935
  267TIP3   OH2  739   2.750   2.542   3.844  0.5054 -0.0570  0.2358
  267TIP3    H1  740   2.666   2.541   3.799 -0.4008 -0.2827  1.8995
  267TIP3    H2  741   2.748   2.622   3.896  0.0983 -1.4957  2.5046
  268TIP3   OH2  742   0.522   7.640   2.308 -0.0580 -0.2277 -0.5863
  268TIP3    H1  743   0.589   7.662   2.373 -0.6319 -2.1839  0.7142
  268TIP3    H2  744   0.445   7.615   2.359 -0.9112 -0.6285 -2.0307
  269TIP3   OH2  745   4.601   0.136   1.009 -0.0140  0.5629  0.0693
  269TIP3    H1  746   4.689   0.167   1.030  0.4516  1.0426 -2.5186
  269TIP3    H2  747   4.614   0.044   0.983 -0.0402  1.0991 -1.8817
  270TIP3   OH2  748   1.486   2.122   0.764 -0.1238  0.5563  0.1650
  270TIP3    H1  749   1.478   2.104   0.670  0.8053 -0.0292  0.1945
  270TIP3    H2  750   1.418   2.188   0.781 -1.6051 -0.7521 -0.5261
  271TIP3   OH2  751   1.332   7.405   5.679  0.1038 -0.2075 -0.1919
  271TIP3    H1  752   1.260   7.464   5.702  1.5821  0.7958  1.9769
  271TIP3    H2  753   1.393   7.460   5.630  1.0055 -0.1806  0.9502
  272TIP3   OH2  754   4.043   2.263   1.651 -0.2399 -0.0386 -0.3081
  272TIP3    H1  755   4.007   2.200   1.714  0.0612  1.9845  1.9305
  272TIP3    H2  756   3.967   2.316   1.624 -0.3896 -0.9601 -1.7778
  273TIP3   OH2  757   5.477   5.739   6.308  0.3631  0.2750 -0.6867
  273TIP3    H1  758   5.482   5.682   6.385  1.4887 -0.9588 -1.6466
  273TIP3    H2  759   5.513   5.823   6.338 -0.5404  0.2443  0.5155
  274TIP3   OH2  760   1.420   4.135   2.593 -0.1262 -0.3666  0.3383
  274TIP3    H1  761   1.430   4.040   2.584  0.5857 -0.3591  1.0116
  274TIP3    H2  762   1.401   4.149   2.686  0.3807  0.1992  0.3620
  275TIP3   OH2  763   3.265   1.562   3.687  0.2825  0.4534 -0.0995
  275TIP3    H1  764   3.323   1.510   3.742  0.0499  0.9630  0.6348
  275TIP3    H2  765   3.315   1.578   3.607 -0.2420 -2.2369 -0.9954
  276TIP3   OH2  766   1.885   4.487   1.487 -0.1350 -0.2265 -0.3149
  276TIP3    H1  767   1.798   4.468   1.453 -1.1930  1.0083  1.6042
  276TIP3    H2  768   1.909   4.409   1.537 -0.2221 -0.4829 -0.6696
  277TIP3   OH2  769   8.350   1.358   6.892 -0.1192  0.3333  0.3193
  277TIP3    H1  770   8.260   1.363   6.925  0.0166  0.3332  0.6958
  277TIP3    H2  771   8.348   1.405   6.809 -0.1705  1.4546  0.9500
  278TIP3   OH2  772   2.305   0.148   1.515 -0.2357  0.1995 -0.3861
  278TIP3    H1  773   2.299   0.070   1.459 -0.2389  0.1828 -0.3625
  278TIP3    H2  774   2.391   0.184   1.496  0.6565 -1.0391  1.2151
  279TIP3   OH2  775   2.592   3.667   2.280 -0.4653  0.2356 -0.0287
  279TIP3    H1  776   2.652   3.720   2.333  0.6419 -0.7781 -0.2444
  279TIP3    H2  777   2.526   3.729   2.250  0.2305  1.2945  0.5806
  280TIP3   OH2  778   1.203   1.704   1.296  0.3388 -0.2561 -0.1188
  280TIP3    H1  779   1.231   1.696   1.205  0.8027  0.5369 -0.0421
  280TIP3    H2  780   1.108   1.691   1.293  0.3741 -0.3931 -0.6879
  281TIP3   OH2  781   2.422   3.081   3.709  0.2738 -0.3584  0.3364
  281TIP3    H1  782   2.391   3.039   3.789 -0.9954  0.3021  0.2090
  281TIP3    H2  783   2.467   3.012   3.660  0.5488 -0.8977  1.3468
  282TIP3   OH2  784   2.416   2.388   0.270 -0.2905  0.2372  0.0210
  282TIP3    H1  785   2.321   2.379   0.258 -0.1477 -0.8963 -0.2977
  282TIP3    H2  786   2.454   2.349   0.192  0.4519  0.2419  0.3764
  283TIP3   OH2  787   4.190   2.913   3.434  0.6280 -0.1636 -0.3296
  283TIP3    H1  788   4.264   2.884   3.381  0.9524 -0.6934  0.4124
  283TIP3    H2  789   4.224   2.918   3.523 -0.2412 -0.4612  0.0227
  284TIP3   OH2  790   3.285   2.028   4.775  0.2238  0.1194  0.0575
  284TIP3    H1  791   3.211   2.055   4.830  0.6771 -0.3503  0.9066
  284TIP3    H2  792   3.246   2.012   4.689 -0.4742  0.9658  0.2070
  285TIP3   OH2  793   5.239   0.819   1.174  0.6664  0.1073 -0.2901
  285TIP3    H1  794   5.203   0.730   1.176  1.8869 -0.3859  0.5112
  285TIP3    H2  795   5.329   0.809   1.205  0.4842  1.7822  0.8776
  286TIP3   OH2  796   3.298   0.557   0.506 -0.0256 -0.2390  0.3008
  286TIP3    H1  797   3.312   0.568   0.412  1.0132  0.8303  0.5602
  286TIP3    H2  798   3.330   0.639   0.545 -3.6348  0.8099  1.3191
  287TIP3   OH2  799   0.526   7.409   0.190  0.0428 -0.0124  0.1642
  287TIP3    H1  800   0.546   7.336   0.132 -0.8556 -0.2551  0.1512
  287TIP3    H2  801   0.432   7.401   0.208 -0.0316  1.0378  0.2996
  288TIP3   OH2  802   5.352   0.453   2.892  0.0636 -0.2250  0.7046
  288TIP3    H1  803   5.430   0.505   2.911 -0.6062  0.9093  0.4284
  288TIP3    H2  804   5.376   0.400   2.816  0.6190  0.0103  0.7121
  289TIP3   OH2  805   2.900   1.568   1.799  0.1759 -0.0293 -0.1248
  289TIP3    H1  806   2.968   1.635   1.793  0.5492 -0.4157 -0.2683
  289TIP3    H2  807   2.949   1.485   1.804 -0.2934 -0.4916 -2.5071
  290TIP3   OH2  808   2.888   1.751   0.072 -0.7099 -0.5940 -0.1990
  290TIP3    H1  809   2.821   1.694   0.111 -1.4189  0.6585  0.4658
  290TIP3    H2  810   2.856   1.839   0.090  0.6433  0.0091 -0.7514
  291TIP3   OH2  811   5.916   0.632   1.050 -0.1947 -0.2264 -0.4233
  291TIP3    H1  812   5.947   0.680   0.974 -1.4954  0.2289 -0.6847
  291TIP3    H2  813   5.889   0.700   1.112 -1.5018 -0.6000 -0.5690
  292TIP3   OH2  814   3.614   4.150   3.115 -0.8028 -0.3597 -0.1798
  292TIP3    H1  815   3.587   4.229   3.162 -2.7178 -0.4504 -1.0775
  292TIP3    H2  816   3.551   4.083   3.142 -1.8803 -0.4477 -2.6994
  293TIP3   OH2  817   1.615   7.950   0.592  0.2906 -0.5694  0.0808
  293TIP3    H1  818   1.564   7.905   0.524 -0.5586  1.4229 -0.6378
  293TIP3    H2  819   1.557   8.019   0.624  1.6813  0.2225  0.9381
  294TIP3   OH2  820   5.002   2.432   1.341  0.2153  0.0970 -0.1826
  294TIP3    H1  821   5.095   2.413   1.325 -0.1564 -1.4818 -0.4955
  294TIP3    H2  822   4.955   2.366   1.290 -1.0724 -0.4314  1.6723
  295TIP3   OH2  823   4.397   0.036   1.164 -0.3059  0.2656 -0.5128
  295TIP3    H1  824   4.471   0.069   1.114  0.1419  0.1950  0.0936
  295TIP3    H2  825   4.347  -0.017   1.102 -0.6673  1.5272 -1.3152
  296TIP3   OH2  826   5.701   2.616   3.252  0.4474  0.1528 -0.0233
  296TIP3    H1  827   5.737   2.610   3.340 -1.9630 -0.3534  0.9786
  296TIP3    H2  828   5.611   2.646   3.265  0.1933  0.5269 -2.3550
  297TIP3   OH2  829   0.677   7.928   2.369 -0.1422 -0.5566 -0.1737
  297TIP3    H1  830   0.742   7.990   2.403 -1.0535  0.0483  0.4903
  297TIP3    H2  831   0.683   7.853   2.428  1.4374 -1.4071 -1.3786
  298TIP3   OH2  832   4.403   2.759   2.427  0.4571  0.1262  0.3348
  298TIP3    H1  833   4.326   2.702   2.428 -0.6485  1.5925  0.6501
  298TIP3    H2  834   4.415   2.784   2.519  0.6015  0.8137  0.1315
  299TIP3   OH2  835   5.472   0.862   3.827 -0.7148 -0.4478  0.0960
  299TIP3    H1  836   5.513   0.780   3.854 -0.0540 -0.8091 -1.8639
  299TIP3    H2  837   5.531   0.897   3.759 -2.4631  0.1789 -1.1348
  300TIP3   OH2  838   3.978   0.232   2.190  0.3845  0.5223 -0.2583
  300TIP3    H1  839   4.047   0.178   2.150 -0.7596 -2.3165  1.4842
  300TIP3    H2  840   4.020   0.273   2.265  0.1538 -1.3911  0.9411
  301TIP3   OH2  841   6.040   6.820   6.946  0.0902 -0.0457 -0.0080
  301TIP3    H1  842   5.996   6.736   6.928 -0.9126  0.8061 -1.6722
  301TIP3    H2  843   5.991   6.884   6.895  0.9211  1.5521  1.1717
  302TIP3   OH2  844   4.678   0.608   1.578 -0.3805  0.1947 -0.2820
  302TIP3    H1  845   4.754   0.662   1.556 -1.3993  1.3418 -1.0423
  302TIP3    H2  846   4.697   0.523   1.538  1.6437 -0.3185  1.6827
  303TIP3   OH2  847   6.411   0.577   0.654 -0.0705 -0.3694 -0.0786
  303TIP3    H1  848   6.393   0.516   0.725  1.1591 -0.2167  0.3716
  303TIP3    H2  849   6.507   0.579   0.647 -0.1962 -1.5895 -2.7672
  304TIP3   OH2  850   5.743   0.316   2.637  0.2956  0.1204  0.3640
  304TIP3    H1  851   5.775   0.358   2.716  1.0851  0.3916 -0.0958
  304TIP3    H2  852   5.802   0.346   2.568 -0.4101 -0.0830 -0.3336
  305TIP3   OH2  853   2.982   3.158   2.401 -0.6733 -0.1940  0.4056
  305TIP3    H1  854   3.064   3.143   2.449 -0.6155  0.9419  0.6910
  305TIP3    H2  855   2.939   3.228   2.450 -0.8984  0.5708 -0.8525
  306TIP3   OH2  856   3.620   3.435   3.042  0.1803  0.1813 -0.2579
  306TIP3    H1  857   3.590   3.425   2.952  0.5370  2.1012 -0.6088
  306TIP3    H2  858   3.695   3.376   3.049  1.9316  2.1085 -2.0917
  307TIP3   OH2  859   2.120   0.223   0.543 -0.1408  0.0954 -0.3543
  307TIP3    H1  860   2.090   0.261   0.461  1.2065  2.5866  0.2571
  307TIP3    H2  861   2.214   0.242   0.546 -0.1897  0.1522  1.8121
  308TIP3   OH2  862   3.586   2.591   3.947 -0.8832 -0.1181  0.0285
  308TIP3    H1  863   3.522   2.522   3.967 -0.9553  0.3419  1.4857
  308TIP3    H2  864   3.618   2.619   4.033 -0.5028  1.3434 -0.5722
  309TIP3   OH2  865   1.065   0.360   6.371  0.1651  0.2443 -0.1757
  309TIP3    H1  866   1.030   0.311   6.445  0.8784  2.4846  1.7150
  309TIP3    H2  867   0.988   0.385   6.320 -0.4232 -0.4096  0.3853
  310TIP3   OH2  868   0.994   7.609   2.124  0.2617 -0.5997 -0.0767
  310TIP3    H1  869   0.966   7.581   2.037  1.8193 -1.0498 -0.4452
  310TIP3    H2  870   0.980   7.704   2.124 -0.7740 -0.7516 -0.4239
  311TIP3   OH2  871   3.369   1.667   2.506 -0.0780 -0.1020  0.3526
  311TIP3    H1  872   3.444   1.678   2.564 -0.8458  0.3904  1.2856
  311TIP3    H2  873   3.293   1.674   2.565 -0.8257 -1.5924 -0.4119
  312TIP3   OH2  874   4.075   0.873   1.797  0.4059  0.0122 -0.1211
  312TIP3    H1  875   4.035   0.935   1.858  0.5728  0.5478 -0.5525
  312TIP3    H2  876   4.153   0.842   1.843  0.7785  0.7602 -0.2437
  313TIP3   OH2  877   5.008   0.141   2.472  0.1935 -0.3673  0.4361
  313TIP3    H1  878   5.101   0.161   2.466 -0.2316  1.4864 -0.0220
  313TIP3    H2  879   4.983   0.169   2.561 -0.2415  0.4854  0.0483
  314TIP3   OH2  880   4.883   0.840   0.293 -0.2155 -0.9881 -0.4937
  314TIP3    H1  881   4.872   0.809   0.204  0.2978  0.1031 -0.9423
  314TIP3    H2  882   4.794   0.862   0.322 -0.1745  0.5266 -1.4393
  315TIP3   OH2  883   5.054   2.575   4.180 -0.5576  0.7126  0.1310
  315TIP3    H1  884   5.012   2.523   4.111  1.1445  0.7286 -0.9598
  315TIP3    H2  885   5.016   2.543   4.261 -2.3318  0.4256 -0.7968
  316TIP3   OH2  886   2.393   6.305   1.252  0.4544 -0.2654 -0.0240
  316TIP3    H1  887   2.328   6.259   1.198 -0.4451  0.4761  0.4149
  316TIP3    H2  888   2.351   6.388   1.275  1.4925  0.1487  0.4174
  317TIP3   OH2  889   2.597   0.211   2.255 -0.2454  0.0551 -0.1766
  317TIP3    H1  890   2.583   0.149   2.326 -0.0467  2.5503  2.1100
  317TIP3    H2  891   2.657   0.166   2.195  0.3112 -1.7431  1.6870
  318TIP3   OH2  892   3.746   1.358   2.266  0.0788  0.9350 -0.1978
  318TIP3    H1  893   3.733   1.296   2.194 -0.2262 -1.0805  1.5191
  318TIP3    H2  894   3.659   1.392   2.285  0.1167  1.2565 -0.6016
  319TIP3   OH2  895   4.067   2.861   2.054  0.1147 -0.2862 -0.1986
  319TIP3    H1  896   4.069   2.786   2.114  0.2965 -2.2757 -2.6267
  319TIP3    H2  897   3.981   2.900   2.068 -0.8620 -2.2843 -0.4883
  320TIP3   OH2  898   3.900   2.060   1.446 -0.5024  0.0894 -0.1599
  320TIP3    H1  899   3.954   2.139   1.443  1.3346 -1.0945  0.6579
  320TIP3    H2  900   3.902   2.027   1.356 -0.3184  0.3555 -0.2561
  321TIP3   OH2  901   5.875   5.478   5.633 -0.2968 -0.2878 -0.6242
  321TIP3    H1  902   5.953   5.454   5.583 -0.2654  2.1006 -1.7820
  321TIP3    H2  903   5.909   5.535   5.703 -0.8094 -0.5406 -0.1709
  322TIP3   OH2  904   5.225   0.167   0.572  0.3821 -0.2547  0.2172
  322TIP3    H1  905   5.196   0.251   0.537  2.6673  0.9575  1.0808
  322TIP3    H2  906   5.216   0.106   0.499  2.6710  1.6651 -1.7810
  323TIP3   OH2  907   5.936   0.703   1.823  0.1642  0.7882  0.1117
  323TIP3    H1  908   5.934   0.630   1.886  1.8326  0.7942  0.2081
  323TIP3    H2  909   5.845   0.718   1.801 -0.3536 -0.0919  1.5431
  324TIP3   OH2  910   2.399   2.076   1.641 -0.2156  0.0423  0.2295
  324TIP3    H1  911   2.345   2.134   1.694 -0.4511 -1.0659  1.2394
  324TIP3    H2  912   2.448   2.134   1.584 -1.2364  1.1651  0.4719
  325TIP3   OH2  913   3.702   1.512   1.065 -0.4255 -0.0440  0.2955
  325TIP3    H1  914   3.676   1.585   1.121  1.5988  2.5327 -2.0136
  325TIP3    H2  915   3.629   1.502   1.004  0.0227  1.1959 -0.4561
  326TIP3   OH2  916   5.097   0.806   4.230  0.1656 -0.2227  0.5316
  326TIP3    H1  917   5.100   0.726   4.177  0.3952 -0.4733  0.9190
  326TIP3    H2  918   5.136   0.780   4.313 -0.5993  0.0519  0.9781
  327TIP3   OH2  919   2.923   2.195   2.367 -0.1001  0.0707  0.7349
  327TIP3    H1  920   3.005   2.207   2.320 -0.4065  0.0539  0.1892
  327TIP3    H2  921   2.939   2.123   2.427  0.6305  0.8026  1.4291
  328TIP3   OH2  922   3.354   3.209   3.432  0.5168 -0.4629  0.3196
  328TIP3    H1  923   3.440   3.201   3.475 -0.1837  0.4014  1.8864
  328TIP3    H2  924   3.362   3.287   3.378  0.7061 -0.3887  0.4527
  329TIP3   OH2  925   4.010   0.811   2.788 -0.1906 -0.0755  0.0226
  329TIP3    H1  926   4.057   0.868   2.849 -1.1708  0.9309 -0.1544
  329TIP3    H2  927   3.929   0.858   2.768  0.5856  0.1276 -2.9288
  330TIP3   OH2  928   4.595   6.313   6.550  0.0703  0.6280 -0.3692
  330TIP3    H1  929   4.571   6.405   6.545  0.8288  0.7921 -1.1617
  330TIP3    H2  930   4.689   6.312   6.533  0.0416 -0.3097 -0.5007
  331TIP3   OH2  931   3.523   2.330   0.210 -0.0870 -0.1523 -0.3603
  331TIP3    H1  932   3.504   2.372   0.126 -2.3674  0.1677  0.2804
  331TIP3    H2  933   3.578   2.392   0.257  2.7552 -1.1118 -2.2978
  332TIP3   OH2  934   7.242   5.118   6.183 -0.3869 -0.0484  0.5721
  332TIP3    H1  935   7.166   5.071   6.148 -0.6601  0.7974  0.0008
  332TIP3    H2  936   7.207   5.204   6.208  0.0492 -0.2356  1.8464
  333TIP3   OH2  937   3.309   3.535   0.586  0.2281 -0.2025 -0.1506
  333TIP3    H1  938   3.354   3.452   0.566  0.8867 -0.0157  0.5119
  333TIP3    H2  939   3.296   3.576   0.501 -1.4899 -1.6829 -0.6429
  334TIP3   OH2  940   3.166   2.844   0.426  0.1008 -0.7007 -0.0832
  334TIP3    H1  941   3.165   2.755   0.462 -0.7090 -0.4573  0.5126
  334TIP3    H2  942   3.109   2.894   0.485  0.9480  0.3286 -0.1136
  335TIP3   OH2  943   3.171   7.232   4.580 -0.2668 -0.2539  0.1469
  335TIP3    H1  944   3.222   7.196   4.652  0.9328 -0.4338 -0.7711
  335TIP3    H2  945   3.199   7.181   4.503  0.1978  1.5024 -0.8640
  336TIP3   OH2  946   4.676   0.274   5.030 -0.6061 -0.5500  0.0736
  336TIP3    H1  947   4.624   0.354   5.034  0.7319  0.3921 -0.6398
  336TIP3    H2  948   4.763   0.301   5.060 -0.2231 -1.8135  0.1196
  337TIP3   OH2  949   4.193   1.287   1.668  0.2686 -0.0500 -0.2288
  337TIP3    H1  950   4.205   1.285   1.573 -0.8382  0.0934 -0.3696
  337TIP3    H2  951   4.239   1.366   1.696  1.8454 -0.8651 -0.4662
  338TIP3   OH2  952   5.708   2.182   3.415  0.3801 -0.2896  0.2149
  338TIP3    H1  953   5.714   2.198   3.321  0.9476  0.2939  0.3529
  338TIP3    H2  954   5.744   2.094   3.426  3.0119  0.7698  0.2571
  339TIP3   OH2  955   2.481   2.050   1.234  0.0564 -0.0517 -0.2971
  339TIP3    H1  956   2.419   1.989   1.274  0.4890 -0.1511  0.2338
  339TIP3    H2  957   2.551   1.993   1.200  0.4338  0.1445  0.1495
  340TIP3   OH2  958   1.704   1.144   0.378 -0.0612 -0.1739  0.9759
  340TIP3    H1  959   1.796   1.166   0.397 -0.1990  1.0313  0.2633
  340TIP3    H2  960   1.659   1.159   0.462  0.1964  0.3436  1.0272
  341TIP3   OH2  961   4.252   6.724   5.899  0.0158  0.5139 -0.2037
  341TIP3    H1  962   4.176   6.777   5.924  0.1702 -0.4840  2.5401
  341TIP3    H2  963   4.288   6.694   5.982  1.0647 -2.3427 -1.6372
  342TIP3   OH2  964   5.587   0.827   2.289  0.4738 -0.5098  0.2012
  342TIP3    H1  965   5.614   0.828   2.197  1.3575 -0.3945  0.4536
  342TIP3    H2  966   5.558   0.917   2.306  0.0395 -0.6062 -0.0482
  343TIP3   OH2  967   4.996   1.148   3.733 -0.1671  0.3411 -0.2564
  343TIP3    H1  968   4.916   1.136   3.784  0.8551  0.2646  1.3628
  343TIP3    H2  969   4.967   1.196   3.655 -1.7041  0.8052  0.5667
  344TIP3   OH2  970   3.761   1.154   1.224 -0.6242  0.1102  0.2046
  344TIP3    H1  971   3.758   1.244   1.256 -0.9375 -0.7255  2.6209
  344TIP3    H2  972   3.829   1.112   1.277 -1.2939 -1.3754 -0.0969
  345TIP3   OH2  973   2.650   2.539   1.610  0.2039 -0.5681  0.3331
  345TIP3    H1  974   2.683   2.491   1.686  1.6089  1.1248  0.8104
  345TIP3    H2  975   2.596   2.609   1.647  1.6445  0.8293 -0.1902
  346TIP3   OH2  976   4.306   3.303   3.419 -0.0568 -0.2501 -0.0925
  346TIP3    H1  977   4.370   3.257   3.364 -0.0445  0.3568 -0.5856
  346TIP3    H2  978   4.301   3.391   3.382 -0.1244  0.1363  0.8226
  347TIP3   OH2  979   5.023   0.280   2.752  0.1817 -0.2834  0.1276
  347TIP3    H1  980   4.996   0.371   2.759  0.6646 -0.0318 -1.0983
  347TIP3    H2  981   5.099   0.273   2.810  0.9417  0.4273 -0.7606
  348TIP3   OH2  982   7.050   1.557   6.508 -0.6244 -0.5131 -0.1716
  348TIP3    H1  983   6.984   1.527   6.570 -2.2338  0.8987 -1.1860
  348TIP3    H2  984   7.029   1.511   6.426 -0.7180  0.3801 -0.6543
  349TIP3   OH2  985   5.142   3.050   1.577  0.7270 -0.4081  0.2569
  349TIP3    H1  986   5.109   3.117   1.517 -1.2132 -2.3785 -0.9558
  349TIP3    H2  987   5.152   3.096   1.661 -0.6437  1.3647 -0.5147
  350TIP3   OH2  988   2.144   4.053   1.075  0.0468  0.2933  0.0052
  350TIP3    H1  989   2.134   4.116   1.147  1.0464  1.0237 -0.4891
  350TIP3    H2  990   2.227   4.010   1.093 -0.6294 -0.8896  0.3282
  351TIP3   OH2  991   1.985  -0.004   1.442 -0.1134 -0.0586  0.5319
  351TIP3    H1  992   1.999   0.090   1.452  0.6620 -0.1528  0.3679
  351TIP3    H2  993   1.903  -0.021   1.489 -1.8328  1.1666 -1.9438
  352TIP3   OH2  994   5.923   1.505   3.573 -0.2922 -0.6610  0.7686
  352TIP3    H1  995   5.997   1.559   3.543  0.2915 -1.1140  1.3853
  352TIP3    H2  996   5.849   1.534   3.520  0.1321  0.4127  0.7585
  353TIP3   OH2  997   5.524   1.427   0.190 -0.3458  0.3446  0.3345
  353TIP3    H1  998   5.602   1.395   0.235 -0.9887 -0.3213  0.9896
  353TIP3    H2  999   5.532   1.522   0.193  0.6035  0.2776  0.1012
  354TIP3   OH2 1000   6.264   1.504   3.005  0.5276  0.9331  0.4848
  354TIP3    H1 1001   6.327   1.447   2.960 -0.8182 -0.8659  0.7945
  354TIP3    H2 1002   6.314   1.581   3.030  1.8377  0.9777 -2.1317
  355TIP3   OH2 1003   4.636   2.555   3.120  0.0579  0.2026 -0.1541
  355TIP3    H1 1004   4.724   2.554   3.083  0.7496 -0.1804  1.4695
  355TIP3    H2 1005   4.630   2.474   3.171 -1.0475  0.4701  0.1563
  356TIP3   OH2 1006   3.322   1.334   1.278 -0.1543 -0.3300  0.1215
  356TIP3    H1 1007   3.273   1.296   1.204 -2.0144 -1.2284  1.7766
  356TIP3    H2 1008   3.357   1.416   1.243 -1.1884 -0.6312 -1.7084
  357TIP3   OH2 1009   1.298   2.364   0.742  0.2041  0.1344 -0.1664
  357TIP3    H1 1010   1.328   2.443   0.698  0.8112  0.1008  0.1810
  357TIP3    H2 1011   1.243   2.396   0.814  0.3270  0.2346 -0.1175
  358TIP3   OH2 1012   4.090   1.362   0.253  0.0059  0.4824  0.5487
  358TIP3    H1 1013   4.080   1.309   0.332 -0.2539 -1.4083 -0.7077
  358TIP3    H2 1014   4.038   1.440   0.270 -0.6533 -0.2310  1.9497
  359TIP3   OH2 1015   1.687   3.216   4.233  0.1808  0.1697 -0.0071
  359TIP3    H1 1016   1.689   3.304   4.271  0.3158  0.5457 -0.8613
  359TIP3    H2 1017   1.613   3.173   4.274 -0.1800  0.8528  0.0638
  360TIP3   OH2 1018   4.470   3.643   2.357  0.0115  0.2423 -0.3847
  360TIP3    H1 1019   4.496   3.734   2.365 -0.0361  0.2750 -0.6058
  360TIP3    H2 1020   4.518   3.598   2.426  0.7648  0.2773 -0.8790
  361TIP3   OH2 1021   4.756   2.335   2.375 -1.0010  0.7774  0.4758
  361TIP3    H1 1022   4.671   2.341   2.333 -1.3562  0.5111  1.1584
  361TIP3    H2 1023   4.745   2.271   2.445  0.8530 -2.5858 -2.1073
  362TIP3   OH2 1024   4.595   5.808   6.950  0.4596 -0.3203 -0.3146
  362TIP3    H1 1025   4.547   5.843   6.875  1.4029 -1.7583 -1.6205
  362TIP3    H2 1026   4.686   5.807   6.922  0.6853 -2.0195  0.3787
  363TIP3   OH2 1027   5.335   0.672   3.276  0.2005  0.1961 -0.4470
  363TIP3    H1 1028   5.296   0.730   3.211 -1.0380  0.1350  0.2246
  363TIP3    H2 1029   5.413   0.718   3.306  0.1499  0.7406 -1.1457
  364TIP3   OH2 1030   3.155   0.228   1.028  0.4728  0.1705  0.0890
  364TIP3    H1 1031   3.229   0.169   1.039 -0.0888 -0.3752  1.0183
  364TIP3    H2 1032   3.104   0.190   0.956 -0.2181 -0.8392  1.0908
  365TIP3   OH2 1033   3.847   0.465   2.451  0.0385  0.4083 -0.2224
  365TIP3    H1 1034   3.768   0.485   2.401  1.2887  1.6074 -1.8301
  365TIP3    H2 1035   3.864   0.545   2.501  0.3562  0.2645 -0.0992
  366TIP3   OH2 1036   4.749   1.572   2.351 -0.4673 -0.0777 -0.0337
  366TIP3    H1 1037   4.734   1.533   2.265  0.0997  2.3571 -1.2630
  366TIP3    H2 1038   4.844   1.573   2.361 -0.5538 -2.1511  1.5180
  367TIP3   OH2 1039   4.245   0.859   0.057  0.5186 -0.2258 -0.9710
  367TIP3    H1 1040   4.244   0.848   0.152  1.0763  0.3472 -0.8956
  367TIP3    H2 1041   4.228   0.952   0.044 -1.2029 -0.5841 -1.4934
  368TIP3   OH2 1042   4.708   3.470   2.004 -0.6120 -0.0795  0.2188
  368TIP3    H1 1043   4.621   3.444   2.035 -0.0777  0.9857  2.6955
  368TIP3    H2 1044   4.761   3.391   2.013 -0.7554 -0.0973  0.9584
  369TIP3   OH2 1045   6.591   3.045   6.426 -0.3930  0.4958 -0.1565
  369TIP3    H1 1046   6.678   3.028   6.462 -0.5243 -1.5149 -0.7611
  369TIP3    H2 1047   6.535   3.059   6.503 -0.2100 -1.5193  0.3543
  370TIP3   OH2 1048   2.428   2.142   3.206 -0.2928 -0.2679  0.2153
  370TIP3    H1 1049   2.509   2.145   3.257  0.5644 -0.4770 -1.1379
  370TIP3    H2 1050   2.452   2.101   3.124 -1.8130 -0.4732 -0.1437
  371TIP3   OH2 1051   6.867   3.593   6.299  0.0270  0.1119  0.2999
  371TIP3    H1 1052   6.928   3.605   6.372 -0.6664 -0.6891  1.0206
  371TIP3    H2 1053   6.823   3.677   6.289  1.1712  0.6717 -0.1677
  372TIP3   OH2 1054   3.548   2.537   2.579 -0.1429  0.3659 -0.5605
  372TIP3    H1 1055   3.643   2.540   2.576 -0.1009  0.5937  0.5481
  372TIP3    H2 1056   3.522   2.490   2.500  0.9549 -0.7674 -0.2579
  373TIP3   OH2 1057   4.434   0.787   0.677  0.2274  0.2913  0.5282
  373TIP3    H1 1058   4.393   0.787   0.590  2.4108 -0.5246 -0.5444
  373TIP3    H2 1059   4.439   0.695   0.701  0.7330  0.4391  0.9891
  374TIP3   OH2 1060   2.022   1.749   0.850 -0.0451 -0.4607  0.3684
  374TIP3    H1 1061   2.071   1.802   0.787  1.5931 -1.3181  0.8823
  374TIP3    H2 1062   1.943   1.723   0.803  0.1447  0.6781 -0.6035
  375TIP3   OH2 1063   5.131   2.055   1.367  0.3924  0.0256  0.1135
  375TIP3    H1 1064   5.160   2.109   1.440 -0.1592  2.0281 -1.1294
  375TIP3    H2 1065   5.166   1.968   1.386  2.0320  1.0063  1.6888
  376TIP3   OH2 1066   3.731   0.993   2.234 -0.5788 -0.0047  0.4029
  376TIP3    H1 1067   3.748   0.950   2.150 -0.5807  0.5219  0.1291
  376TIP3    H2 1068   3.636   0.986   2.245 -0.4172 -1.3462  1.0607
  377TIP3   OH2 1069   2.127   2.057   0.768 -0.5656  0.0145 -0.2253
  377TIP3    H1 1070   2.050   2.114   0.776 -0.3487  0.4969 -1.5008
  377TIP3    H2 1071   2.127   2.030   0.676  0.0231 -1.0811  0.0916
  378TIP3   OH2 1072   4.279   3.413   1.650 -0.6512 -1.0139 -0.4737
  378TIP3    H1 1073   4.367   3.436   1.621 -0.8175  0.2857  0.0433
  378TIP3    H2 1074   4.225   3.421   1.571 -0.2345 -2.2852 -0.9028
  379TIP3   OH2 1075   2.966   1.148   1.418  0.6478  0.2269  0.6486
  379TIP3    H1 1076   2.965   1.074   1.358  1.4550  0.3772  0.4354
  379TIP3    H2 1077   2.973   1.110   1.505 -0.0441  0.0209  0.6121
  380TIP3   OH2 1078   2.712   2.982   1.297 -0.1457  0.0199 -0.1648
  380TIP3    H1 1079   2.653   3.055   1.312  0.7788  0.0800  3.5543
  380TIP3    H2 1080   2.777   2.988   1.367  1.2417 -3.0746 -1.0928
  381TIP3   OH2 1081   5.696   0.198   1.826  0.2071  0.0352  0.7142
  381TIP3    H1 1082   5.666   0.288   1.843  0.6241 -0.2266  3.0395
  381TIP3    H2 1083   5.647   0.145   1.889 -0.8070 -1.5371 -1.3307
  382TIP3   OH2 1084   2.859   7.040   3.419 -0.0981  0.4586  0.1142
  382TIP3    H1 1085   2.952   7.027   3.437 -0.3795  0.4731  1.7323
  382TIP3    H2 1086   2.815   6.989   3.487 -1.2925 -1.2965 -1.9487
  383TIP3   OH2 1087   2.284   4.688   6.246 -0.1121  0.1210  0.2977
  383TIP3    H1 1088   2.295   4.718   6.337  0.7244 -0.0053  0.2366
  383TIP3    H2 1089   2.373   4.686   6.210 -0.4555  0.2885 -0.5668
  384TIP3   OH2 1090   5.316   6.432   6.035 -0.3548  0.8901  0.1520
  384TIP3    H1 1091   5.221   6.432   6.033 -0.3484  0.9765 -0.1410
  384TIP3    H2 1092   5.339   6.448   6.127 -0.5929  3.4294 -0.1992
  385TIP3   OH2 1093   7.403   0.587   3.389 -0.5272 -0.4502 -0.1258
  385TIP3    H1 1094   7.343   0.604   3.462  0.4834  0.2846  0.5400
  385TIP3    H2 1095   7.420   0.493   3.394  0.7666 -0.1598  1.5730
  386TIP3   OH2 1096   6.936   5.542   6.476  0.2104 -0.2407 -0.6490
  386TIP3    H1 1097   6.894   5.527   6.561 -1.0961 -1.0435 -1.4093
  386TIP3    H2 1098   6.997   5.613   6.491 -0.5024  0.0743  0.8158
  387TIP3   OH2 1099   4.482   5.995   6.348  0.1422 -0.3087 -0.3023
  387TIP3    H1 1100   4.543   5.934   6.390  0.5364 -0.4052 -1.0052
  387TIP3    H2 1101   4.406   5.942   6.326  1.0797 -0.8923 -2.2378
  388TIP3   OH2 1102   3.288   1.400   0.035  0.0950  0.6240 -0.1534
  388TIP3    H1 1103   3.243   1.378   0.116 -0.5300  0.8063 -0.4491
  388TIP3    H2 1104   3.234   1.468  -0.005 -1.6009 -1.9920 -2.5100
  389TIP3   OH2 1105   5.555   4.367   6.691  0.2022 -0.5238  0.1258
  389TIP3    H1 1106   5.491   4.296   6.695  1.7089 -2.0006 -0.8838
  389TIP3    H2 1107   5.542   4.406   6.605 -0.0674 -0.1199  0.3502
  390TIP3   OH2 1108   4.465   2.375   3.624 -0.2937 -0.3751  0.7547
  390TIP3    H1 1109   4.407   2.374   3.700 -1.5939  1.7565 -0.1458
  390TIP3    H2 1110   4.408   2.402   3.551  1.6129  0.8569 -0.3270
  391TIP3   OH2 1111   2.614   1.457   0.892 -0.2652 -0.0894 -0.0620
  391TIP3    H1 1112   2.704   1.451   0.923  0.7220  2.4121 -2.1819
  391TIP3    H2 1113   2.582   1.540   0.926 -0.5135  0.7560 -2.2567
  392TIP3   OH2 1114   1.374   7.885   2.303 -0.2356 -0.1714 -0.0838
  392TIP3    H1 1115   1.441   7.855   2.365 -0.7926 -0.9950  0.1264
  392TIP3    H2 1116   1.325   7.806   2.281 -0.6090  0.2789 -0.8906
  393TIP3   OH2 1117   5.758   2.263   2.009 -0.0688  0.7133  0.1049
  393TIP3    H1 1118   5.809   2.244   1.931 -2.0665  1.9537 -1.5604
  393TIP3    H2 1119   5.719   2.179   2.033 -0.4888  0.5839 -1.0041
  394TIP3   OH2 1120   3.051   1.636   0.303  0.2381 -0.3059 -0.2914
  394TIP3    H1 1121   2.991   1.677   0.241  0.3252 -0.7962 -0.7066
  394TIP3    H2 1122   3.047   1.543   0.283  1.8586 -0.2566 -0.9889
  395TIP3   OH2 1123   4.423   2.151   3.295 -0.2698  0.5662 -0.2034
  395TIP3    H1 1124   4.467   2.132   3.378 -1.0899  0.1512  0.1324
  395TIP3    H2 1125   4.330   2.156   3.317 -0.4242  1.1989 -0.9647
  396TIP3   OH2 1126   2.985   2.023   2.072 -0.0706 -0.1236  0.2786
  396TIP3    H1 1127   3.061   2.019   2.129 -1.1258 -1.3313  1.6280
  396TIP3    H2 1128   3.010   1.973   1.994  0.3568 -0.9105  0.9166
  397TIP3   OH2 1129   5.138   6.168   6.167 -0.2982 -0.0648 -0.4464
  397TIP3    H1 1130   5.076   6.213   6.109 -0.6305 -0.9558 -0.7918
  397TIP3    H2 1131   5.187   6.110   6.109  0.7557  0.5186 -0.1456
  398TIP3   OH2 1132   6.032   2.291   1.452 -0.9776  0.0043 -0.6837
  398TIP3    H1 1133   6.084   2.293   1.533 -1.1301 -0.6535 -0.5657
  398TIP3    H2 1134   6.077   2.351   1.393  0.5352 -1.3514 -0.9429
  399TIP3   OH2 1135   2.812   3.429   3.662  0.0573  0.4197  0.0197
  399TIP3    H1 1136   2.789   3.520   3.679 -1.3692  0.1847 -0.6110
  399TIP3    H2 1137   2.728   3.383   3.658  0.7841 -1.0286  0.9149
  400TIP3   OH2 1138   3.029   2.849   2.356  0.3341  0.0343 -0.3286
  400TIP3    H1 1139   3.106   2.817   2.403  0.3411  0.1422 -0.2680
  400TIP3    H2 1140   2.996   2.921   2.409  0.1375 -0.0712 -0.3068
  401TIP3   OH2 1141   2.262   0.575   1.975 -0.1442 -0.3601  0.5908
  401TIP3    H1 1142   2.323   0.633   2.020  1.4321  0.0213 -1.9371
  401TIP3    H2 1143   2.277   0.488   2.013  2.9502 -0.5248 -0.9083
  402TIP3   OH2 1144   0.530   4.328   6.461  0.0515  0.1848  0.9005
  402TIP3    H1 1145   0.510   4.239   6.433  1.1447  0.5641 -1.1990
  402TIP3    H2 1146   0.612   4.321   6.509  1.1237  0.3081 -0.8914
  403TIP3   OH2 1147   1.360   0.919   2.184 -0.4439 -0.4895  0.5873
  403TIP3    H1 1148   1.348   0.827   2.209 -0.4171 -1.0022 -1.1501
  403TIP3    H2 1149   1.413   0.914   2.104 -1.1241  1.0072  0.0416
  404TIP3   OH2 1150   3.628   7.890   3.237  0.6688 -0.0803  0.4600
  404TIP3    H1 1151   3.541   7.919   3.266 -0.0156  0.4859 -2.0266
  404TIP3    H2 1152   3.617   7.798   3.216  0.1347  0.4067 -1.6014
  405TIP3   OH2 1153   2.283   1.494   0.335  0.5378  0.2505 -0.2223
  405TIP3    H1 1154   2.298   1.447   0.252  0.7327  0.4387 -0.2948
  405TIP3    H2 1155   2.367   1.489   0.380 -0.2089 -1.8262  0.9804
  406TIP3   OH2 1156   6.245   2.068   1.332 -0.4550  0.1185  0.6145
  406TIP3    H1 1157   6.332   2.029   1.339  0.2137  1.6081  0.8173
  406TIP3    H2 1158   6.258   2.144   1.276 -2.0177 -0.7372 -0.9694
  407TIP3   OH2 1159   3.336   2.342   2.297  0.3876 -0.2861 -0.0731
  407TIP3    H1 1160   3.364   2.429   2.268  0.2776  0.0260  0.7406
  407TIP3    H2 1161   3.366   2.283   2.228  0.5125  0.3899 -0.6055
  408TIP3   OH2 1162   5.854   3.424   1.975  0.2318  0.1923 -0.7723
  408TIP3    H1 1163   5.796   3.393   1.905  1.3644 -0.5063 -1.4189
  408TIP3    H2 1164   5.924   3.359   1.978  1.1315  1.1783 -0.2018
  409TIP3   OH2 1165   2.391   0.788   1.729 -0.2629  0.1867  0.1374
  409TIP3    H1 1166   2.309   0.738   1.737 -0.0662  0.0479  1.4341
  409TIP3    H2 1167   2.414   0.781   1.637 -1.5307 -0.0736 -0.1760
  410TIP3   OH2 1168   1.330   7.908   2.624  0.5209  0.1378  0.0172
  410TIP3    H1 1169   1.409   7.875   2.583  0.1838 -0.0874 -0.4557
  410TIP3    H2 1170   1.333   8.003   2.611 -0.4065 -0.1014 -1.9816
  411TIP3   OH2 1171   6.646   0.500   1.775 -0.4358 -0.1505 -0.1806
  411TIP3    H1 1172   6.679   0.537   1.693  0.3276 -0.7486 -0.1450
  411TIP3    H2 1173   6.725   0.472   1.822 -0.7773  1.2335  1.2673
  412TIP3   OH2 1174   4.281   8.008   0.979 -0.5400 -0.4365 -0.2723
  412TIP3    H1 1175   4.303   8.045   0.893  1.1430  0.7073  0.6303
  412TIP3    H2 1176   4.357   7.953   1.001 -0.5710 -0.0266  0.8761
  413TIP3   OH2 1177   4.142   1.518   1.179  0.1616 -0.0931 -0.1594
  413TIP3    H1 1178   4.121   1.427   1.163 -0.1283  0.1017 -0.9145
  413TIP3    H2 1179   4.214   1.516   1.242  1.1302 -0.8798 -1.2749
  414TIP3   OH2 1180   3.930   3.068   3.359 -0.1732  1.0767  0.0552
  414TIP3    H1 1181   4.016   3.026   3.351 -1.5365 -1.7763 -0.0746
  414TIP3    H2 1182   3.880   3.009   3.415 -1.7993  3.1399  0.8083
  415TIP3   OH2 1183   6.528   0.470   1.413  0.8668 -0.0512 -0.1213
  415TIP3    H1 1184   6.470   0.410   1.460  0.4102  0.6995  0.2942
  415TIP3    H2 1185   6.613   0.462   1.456  0.6864 -0.0605  0.2291
  416TIP3   OH2 1186   2.696   1.564   0.159  0.0605 -0.1083 -0.0875
  416TIP3    H1 1187   2.651   1.566   0.244 -0.3770 -0.1173 -0.3177
  416TIP3    H2 1188   2.671   1.480   0.121  1.5102 -0.8089  0.4455
  417TIP3   OH2 1189   4.541   2.330   1.534 -0.1180  0.3589  0.1289
  417TIP3    H1 1190   4.491   2.409   1.552  1.2761  0.4411  4.1008
  417TIP3    H2 1191   4.629   2.362   1.513  0.2863 -0.0828  1.1259
  418TIP3   OH2 1192   3.240   1.116   2.811  0.8000  0.2640 -0.3238
  418TIP3    H1 1193   3.176   1.171   2.856  0.5244  0.4052 -0.8821
  418TIP3    H2 1194   3.325   1.152   2.838  0.6224  1.1760 -0.9313
  419TIP3   OH2 1195   4.658   1.726   2.038 -0.4050 -0.1875 -0.2754
  419TIP3    H1 1196   4.685   1.635   2.052 -0.8878 -0.1350  1.0501
  419TIP3    H2 1197   4.578   1.736   2.089  0.1521  1.2399  0.3552
  420TIP3   OH2 1198   3.287   2.204   0.867 -0.2959 -0.0153  0.1064
  420TIP3    H1 1199   3.333   2.144   0.809  2.4423 -1.3728  3.5171
  420TIP3    H2 1200   3.217   2.152   0.905  0.6738 -0.4051  1.3623
  421TIP3   OH2 1201   3.460   3.068   3.133 -0.6409 -0.0506 -0.0350
  421TIP3    H1 1202   3.451   2.990   3.188 -3.0123 -0.6990 -1.2936
  421TIP3    H2 1203   3.455   3.141   3.195  1.2374 -0.8449  1.1032
  422TIP3   OH2 1204   5.711   5.124   6.324 -0.3981  0.2803  0.0670
  422TIP3    H1 1205   5.689   5.098   6.414  0.2449 -2.3568 -0.4835
  422TIP3    H2 1206   5.801   5.095   6.312 -1.0606 -1.0805 -1.9945
  423TIP3   OH2 1207   1.587   7.116   2.189  0.0519  0.1068  0.2118
  423TIP3    H1 1208   1.497   7.143   2.208  0.7126  1.3635  1.7114
  423TIP3    H2 1209   1.578   7.036   2.137 -1.9388  0.9151 -0.7372
  424TIP3   OH2 1210   4.820   3.010   3.442  0.4164  0.2186  0.2993
  424TIP3    H1 1211   4.900   3.051   3.409 -0.0727  0.2894 -0.8285
  424TIP3    H2 1212   4.761   3.084   3.458  0.1622  0.0810 -0.0061
  425TIP3   OH2 1213   4.634   2.299   3.234 -0.4161  0.1048  0.3200
  425TIP3    H1 1214   4.549   2.258   3.249 -0.0424 -0.6363  0.4247
  425TIP3    H2 1215   4.664   2.325   3.321  0.3428 -1.4013  0.5344
  426TIP3   OH2 1216   5.189   1.201   1.486 -0.1537  0.3004 -0.3899
  426TIP3    H1 1217   5.178   1.156   1.402 -0.4568  2.2201 -1.4172
  426TIP3    H2 1218   5.222   1.288   1.462  4.5470 -0.7005  1.7629
  427TIP3   OH2 1219   2.010   7.956   1.360  0.7309  0.3302 -0.0755
  427TIP3    H1 1220   2.059   7.946   1.441  0.9087 -0.7741 -0.3079
  427TIP3    H2 1221   1.951   8.029   1.376  1.0736  0.3981  0.8928
  428TIP3   OH2 1222   3.195   2.123   2.232 -0.4319 -0.1280 -0.3708
  428TIP3    H1 1223   3.227   2.204   2.270  0.5363 -0.6292 -0.1036
  428TIP3    H2 1224   3.241   2.054   2.279 -1.8062 -0.8706 -0.0783
  429TIP3   OH2 1225   3.079   3.441   2.943  0.4969 -0.4246 -0.5666
  429TIP3    H1 1226   3.012   3.441   3.012  1.1813  0.5610  0.1114
  429TIP3    H2 1227   3.100   3.348   2.930  2.2646 -0.5423  2.4598
  430TIP3   OH2 1228   5.423   2.669   3.392  0.2500  0.6145  0.4411
  430TIP3    H1 1229   5.467   2.599   3.440  0.5669 -0.3295 -1.1661
  430TIP3    H2 1230   5.354   2.624   3.343 -0.6633  1.6860  0.7510
  431TIP3   OH2 1231   4.769   5.348   1.001 -0.1389 -0.1764 -0.0709
  431TIP3    H1 1232   4.735   5.290   1.070  0.3728  0.4325  0.6940
  431TIP3    H2 1233   4.691   5.391   0.966 -0.4664 -0.9553 -0.2979
  432TIP3   OH2 1234   4.725   5.145   5.749 -0.4167  0.2078 -0.3165
  432TIP3    H1 1235   4.704   5.196   5.671 -4.1512 -1.1184 -0.2476
  432TIP3    H2 1236   4.720   5.207   5.821 -0.1125  0.7687 -0.7816
  433TIP3   OH2 1237   4.251   1.819   3.292  0.2512 -0.4181  0.3558
  433TIP3    H1 1238   4.228   1.727   3.280 -1.2271  0.0072 -0.3168
  433TIP3    H2 1239   4.231   1.837   3.384 -2.4210 -0.0225 -0.2476
  434TIP3   OH2 1240   5.275   1.423   3.183 -0.4653  0.2852  0.0521
  434TIP3    H1 1241   5.210   1.353   3.171  0.7437 -0.9378  0.5475
  434TIP3    H2 1242   5.318   1.431   3.098  0.0675 -0.2697  0.2626
  435TIP3   OH2 1243   4.597   0.054   3.455 -0.0311  0.4989  0.5109
  435TIP3    H1 1244   4.642   0.138   3.464 -1.1470  1.2970 -1.1943
  435TIP3    H2 1245   4.529   0.056   3.522 -0.8281  1.4686 -0.3221
  436TIP3   OH2 1246   4.781   0.187   3.141  0.6417 -0.8833 -0.1248
  436TIP3    H1 1247   4.695   0.189   3.101  0.6769  0.4832 -0.1309
  436TIP3    H2 1248   4.769   0.227   3.228  1.4805  0.3274 -0.5582
  437TIP3   OH2 1249   1.311   6.936   1.718 -0.1132  0.4072  0.1273
  437TIP3    H1 1250   1.286   7.028   1.720  0.4902  0.5806 -0.1741
  437TIP3    H2 1251   1.232   6.889   1.745 -0.5848  0.9747 -0.2507
  438TIP3   OH2 1252   0.550   0.154   0.335  0.0755  0.0918 -0.0472
  438TIP3    H1 1253   0.475   0.169   0.393 -0.3368  2.2033 -1.1016
  438TIP3    H2 1254   0.516   0.099   0.265 -0.3405  0.5670 -0.2161
  439TIP3   OH2 1255   5.405   2.800   1.906  0.0406  0.7444 -0.3469
  439TIP3    H1 1256   5.339   2.773   1.842  0.6259  0.5111 -0.8513
  439TIP3    H2 1257   5.360   2.866   1.959  0.0872  2.2057 -2.0699
  440TIP3   OH2 1258   5.702   0.505   2.323  0.0035  0.5015 -0.5008
  440TIP3    H1 1259   5.682   0.598   2.329 -1.5578  0.2690 -1.6245
  440TIP3    H2 1260   5.771   0.490   2.388  0.7118  2.5489 -0.7604
  441TIP3   OH2 1261   4.829   1.477   0.316 -0.2738 -0.1441  0.2310
  441TIP3    H1 1262   4.858   1.568   0.305  0.4060 -0.3529  0.2353
  441TIP3    H2 1263   4.783   1.476   0.400  0.3047  0.0570  0.5516
  442TIP3   OH2 1264   7.684   7.498   1.053 -0.4274  0.0460 -0.1769
  442TIP3    H1 1265   7.772   7.528   1.032  0.0637 -1.0104  0.3160
  442TIP3    H2 1266   7.625   7.559   1.007  0.5530  0.6992 -0.5711
  443TIP3   OH2 1267   4.090   1.242   1.206 -0.0963  0.3927 -0.1215
  443TIP3    H1 1268   4.064   1.190   1.282  3.6835 -0.4263  0.7004
  443TIP3    H2 1269   4.093   1.180   1.133  1.5237  0.0182  0.2396
  444TIP3   OH2 1270   2.915   3.158   2.809 -0.0783 -0.1969  0.3610
  444TIP3    H1 1271   2.982   3.164   2.878  0.4806 -2.9169  0.1046
  444TIP3    H2 1272   2.908   3.248   2.775  3.4221  0.1767  0.3942
  445TIP3   OH2 1273   2.252   2.565   1.082 -0.6024 -0.6480 -0.2638
  445TIP3    H1 1274   2.203   2.483   1.070 -3.4265  0.9531 -0.1638
  445TIP3    H2 1275   2.309   2.548   1.158 -1.8915 -2.1949  0.3890
  446TIP3   OH2 1276   2.006   1.175   1.425 -0.2248  0.7495  0.0851
  446TIP3    H1 1277   2.037   1.240   1.488  0.3276  0.8338 -0.2708
  446TIP3    H2 1278   2.044   1.092   1.455  0.0722  0.7960 -0.1483
  447TIP3   OH2 1279   5.712   1.878   1.233  0.4662  0.2366 -0.1035
  447TIP3    H1 1280   5.628   1.920   1.218 -0.7514 -1.9004  0.5913
  447TIP3    H2 1281   5.769   1.948   1.264 -0.9703  1.7527 -0.8564
  448TIP3   OH2 1282   3.753   4.470   2.169  0.4667 -0.2121 -0.4405
  448TIP3    H1 1283   3.702   4.451   2.090 -1.1750 -1.1868  0.8177
  448TIP3    H2 1284   3.692   4.517   2.227  1.2222 -0.6903  0.7723
  449TIP3   OH2 1285   3.083   6.017   1.548 -0.9627 -0.0590 -0.3097
  449TIP3    H1 1286   3.077   5.950   1.616  0.2012 -0.8371 -0.9592
  449TIP3    H2 1287   3.111   5.969   1.469 -2.0154  0.8712 -1.2718
  450TIP3   OH2 1288   2.545   1.757   0.936 -0.1685 -0.1831  0.0596
  450TIP3    H1 1289   2.633   1.793   0.947  0.2319 -0.5479 -1.7364
  450TIP3    H2 1290   2.487   1.833   0.937  0.5015  0.3876 -1.9857
  451TIP3   OH2 1291   3.479   0.869   0.323 -0.2687  0.1522 -0.4447
  451TIP3    H1 1292   3.400   0.840   0.368  0.0439 -0.5889 -0.3578
  451TIP3    H2 1293   3.480   0.964   0.335  0.4005 -0.1264  2.1229
  452TIP3   OH2 1294   5.668   0.061   2.731  0.3773  0.4396 -0.3928
  452TIP3    H1 1295   5.699   0.145   2.696 -0.2054  0.7108 -0.2567
  452TIP3    H2 1296   5.696   0.061   2.822 -1.4977  1.4359  0.2104
  453TIP3   OH2 1297   4.190   1.558   3.276 -0.1289 -0.2576  0.0283
  453TIP3    H1 1298   4.133   1.505   3.331 -1.7118  1.4096  0.0381
  453TIP3    H2 1299   4.272   1.508   3.270 -1.2133 -2.1668  0.8827
  454TIP3   OH2 1300   2.102   1.935   0.227 -0.3379  0.3736  0.3223
  454TIP3    H1 1301   2.078   1.843   0.242 -1.1109  0.9197  2.5748
  454TIP3    H2 1302   2.046   1.963   0.155  0.5211 -1.1460 -0.9948
  455TIP3   OH2 1303   2.838   2.441   0.813 -0.3727 -0.2032 -0.2494
  455TIP3    H1 1304   2.865   2.416   0.901 -2.6317 -0.1425  0.4887
  455TIP3    H2 1305   2.843   2.536   0.812 -2.2188 -0.0902  0.4540
  456TIP3   OH2 1306   4.029   0.785   0.986 -0.1360  0.1270  0.2777
  456TIP3    H1 1307   3.982   0.715   1.032 -0.4700 -0.4870 -0.9673
  456TIP3    H2 1308   4.006   0.773   0.894  0.3405  1.4777 -0.0334
  457TIP3   OH2 1309   6.070   0.424   1.167  0.0172 -0.3584  0.5641
  457TIP3    H1 1310   5.992   0.371   1.183  0.1796 -0.8430 -0.2124
  457TIP3    H2 1311   6.035   0.508   1.137 -0.2865  0.4878  3.1035
  458TIP3   OH2 1312   1.908   3.743   6.833  0.5183  0.0190  0.2326
  458TIP3    H1 1313   1.875   3.832   6.844  1.8356  0.4085  1.0154
  458TIP3    H2 1314   1.984   3.752   6.776 -1.4577 -1.0444 -2.6897
  459TIP3   OH2 1315   2.188   7.360   3.480  0.0398  0.0425  0.4827
  459TIP3    H1 1316   2.172   7.454   3.477  0.1585  0.0704  0.7166
  459TIP3    H2 1317   2.112   7.324   3.525  0.0585  0.0429  0.5145
  460TIP3   OH2 1318   5.290   0.244   1.637 -0.6006 -0.2980  0.1762
  460TIP3    H1 1319   5.376   0.230   1.597 -0.4328  0.5426  0.2182
  460TIP3    H2 1320   5.300   0.327   1.684 -0.5597 -1.6633  2.6222
  461TIP3   OH2 1321   4.816   0.700   2.964 -0.0306 -0.6985 -0.7749
  461TIP3    H1 1322   4.728   0.707   2.999  0.6128  0.6445  0.6145
  461TIP3    H2 1323   4.836   0.606   2.970 -0.7784 -0.7942  0.3576
  462TIP3   OH2 1324   1.755   3.223   0.783 -0.0688 -0.2323  0.2563
  462TIP3    H1 1325   1.695   3.296   0.768 -1.1689 -1.7962 -3.2973
  462TIP3    H2 1326   1.705   3.162   0.838 -0.4246  0.1048  0.3073
  463TIP3   OH2 1327   0.320   4.396   6.644  0.2902 -0.1580  0.0006
  463TIP3    H1 1328   0.358   4.363   6.563  1.1252  0.6497  0.0558
  463TIP3    H2 1329   0.365   4.349   6.714  0.7268  0.3272  0.0459
  464TIP3   OH2 1330   2.305   0.949   1.932 -0.2909  0.4373 -0.1307
  464TIP3    H1 1331   2.211   0.956   1.918 -0.2512  2.7846  0.5730
  464TIP3    H2 1332   2.337   0.899   1.856 -2.2805 -1.7661  0.4428
  465TIP3   OH2 1333   2.477   7.903   1.861  0.6177  0.2394  0.1789
  465TIP3    H1 1334   2.468   7.808   1.852 -0.7126  0.2751  0.9959
  465TIP3    H2 1335   2.569   7.920   1.841  1.1419 -1.3456  1.1500
  466TIP3   OH2 1336   4.477   1.013   3.578 -0.2242 -0.4615 -0.1552
  466TIP3    H1 1337   4.418   1.078   3.540 -1.3141 -1.3391 -0.0013
  466TIP3    H2 1338   4.523   1.060   3.648  1.1689  0.9332 -1.9664
  467TIP3   OH2 1339   3.850   2.650   1.388  0.0107  0.7535  0.2802
  467TIP3    H1 1340   3.915   2.719   1.399  0.0812  0.3952  2.3373
  467TIP3    H2 1341   3.883   2.596   1.316  1.2837  1.3639  0.4066
  468TIP3   OH2 1342   7.030   4.108   0.136 -0.7490  0.3157 -0.1560
  468TIP3    H1 1343   7.078   4.031   0.107 -0.0645 -0.6300  3.2780
  468TIP3    H2 1344   7.072   4.181   0.090  0.3689 -1.0626 -1.3686
  469TIP3   OH2 1345   3.212   6.979   2.312  0.6758  0.2000 -0.1219
  469TIP3    H1 1346   3.173   6.891   2.306  1.2971 -0.0131 -1.3128
  469TIP3    H2 1347   3.139   7.036   2.335  0.2947 -0.6591  0.8070
  470TIP3   OH2 1348   4.953   1.753   2.097  0.5631  0.0342 -0.1333
  470TIP3    H1 1349   4.872   1.802   2.112  0.9304  0.5751  0.1233
  470TIP3    H2 1350   4.968   1.706   2.179  1.3003  1.1152  0.3682
  471TIP3   OH2 1351   5.756   2.460   1.451 -0.1416 -0.2644  0.1878
  471TIP3    H1 1352   5.724   2.436   1.538  0.9630 -0.3346  0.5886
  471TIP3    H2 1353   5.849   2.479   1.464 -0.4007  1.6463 -0.6138
  472TIP3   OH2 1354   5.705   4.649   1.178 -0.8961  0.4106  0.1979
  472TIP3    H1 1355   5.724   4.741   1.195 -0.9323  0.4290  0.1413
  472TIP3    H2 1356   5.726   4.637   1.085 -0.9930  0.3895  0.1786
  473TIP3   OH2 1357   3.602   1.562   2.075 -0.0650  0.0341  0.3582
  473TIP3    H1 1358   3.535   1.496   2.092 -1.5594  1.3443 -0.3841
  473TIP3    H2 1359   3.666   1.517   2.019 -1.7148 -0.4290 -1.2109
  474TIP3   OH2 1360   6.775   0.800   0.445 -0.5301  0.4596  0.5663
  474TIP3    H1 1361   6.788   0.724   0.502 -0.2688  0.7639  0.9143
  474TIP3    H2 1362   6.839   0.787   0.375  1.3445  1.6723  1.9910
  475TIP3   OH2 1363   6.343   3.259   0.905 -1.1242 -0.2010 -0.5559
  475TIP3    H1 1364   6.394   3.279   0.826 -0.7509  1.1891  0.0108
  475TIP3    H2 1365   6.348   3.164   0.913  1.3050 -0.1209 -0.5966
  476TIP3   OH2 1366   2.961   7.521   1.284 -0.3852 -0.1595  0.1812
  476TIP3    H1 1367   3.010   7.441   1.302 -0.2290 -0.3327 -0.9856
  476TIP3    H2 1368   2.890   7.521   1.349  0.0748 -0.8418  0.6876
  477TIP3   OH2 1369   6.059   2.695   2.436 -0.1848  0.0524 -0.7278
  477TIP3    H1 1370   6.047   2.600   2.431 -0.0887 -0.1244  1.9362
  477TIP3    H2 1371   6.152   2.709   2.414  0.2888 -0.6646  0.7652
  478TIP3   OH2 1372   2.099   6.684   1.161 -0.0559 -0.5339 -0.5651
  478TIP3    H1 1373   2.140   6.749   1.218  2.5742 -1.2944 -1.5077
  478TIP3    H2 1374   2.023   6.729   1.124  1.4124  1.8453 -0.8002
  479TIP3   OH2 1375   0.022   4.093   6.595 -0.6723  0.3339  0.2086
  479TIP3    H1 1376   0.006   4.141   6.676 -1.6983  1.1682 -0.4632
  479TIP3    H2 1377   0.116   4.099   6.581 -0.7181  1.6461  0.4423
  480TIP3   OH2 1378   6.238   7.669   6.371 -0.4695 -0.2069  0.6433
  480TIP3    H1 1379   6.231   7.639   6.281 -0.5277 -0.4707  0.7371
  480TIP3    H2 1380   6.276   7.757   6.364  0.7223 -0.7322  0.4436
  481TIP3   OH2 1381   4.532   0.648   3.042 -0.3566 -0.0722 -0.2065
  481TIP3    H1 1382   4.447   0.609   3.020 -0.1725  1.0424 -3.1996
  481TIP3    H2 1383   4.511   0.738   3.067 -0.1077  0.0617 -0.4750
  482TIP3   OH2 1384   6.528   2.913   0.432  0.1123  0.2602  0.6769
  482TIP3    H1 1385   6.557   2.938   0.519  2.4238  0.2556 -0.0380
  482TIP3    H2 1386   6.489   2.992   0.396  0.3020  0.6222  1.2616
  483TIP3   OH2 1387   5.046   1.108   2.573  0.1488  0.4284  0.1904
  483TIP3    H1 1388   5.107   1.136   2.504  0.3293  0.6244  0.4286
  483TIP3    H2 1389   5.017   1.021   2.545 -0.0179  0.6358 -0.2877
  484TIP3   OH2 1390   5.508   0.357   2.199  0.2139 -0.0392  0.4663
  484TIP3    H1 1391   5.565   0.411   2.254  1.1707  0.4513 -0.9702
  484TIP3    H2 1392   5.508   0.271   2.242  1.1285  0.2678  1.1151
  485TIP3   OH2 1393   3.242   0.830   0.826 -0.3786  0.2243 -0.2962
  485TIP3    H1 1394   3.301   0.846   0.900 -0.5193  0.9659 -0.3383
  485TIP3    H2 1395   3.184   0.760   0.856  0.0412  0.0092  0.0224
  486TIP3   OH2 1396   4.628   0.874   0.393 -0.6004  0.1989  0.0107
  486TIP3    H1 1397   4.557   0.812   0.372 -1.1739  0.7461  0.3331
  486TIP3    H2 1398   4.677   0.831   0.463 -2.0151  0.8584  1.4226
  487TIP3   OH2 1399   3.899   1.501   1.707 -0.6507 -0.1740  0.0361
  487TIP3    H1 1400   3.942   1.469   1.628  0.1710  0.4668  0.2136
  487TIP3    H2 1401   3.929   1.592   1.716 -1.8690  0.2232  0.2909
  488TIP3   OH2 1402   6.232   2.749   0.021 -0.3849  0.2395 -0.3854
  488TIP3    H1 1403   6.155   2.774   0.072 -1.2830 -0.7135 -1.2552
  488TIP3    H2 1404   6.306   2.785   0.070 -1.3175  0.3922  0.9269
  489TIP3   OH2 1405   4.797   1.362   0.586 -0.1510  0.0360 -0.1896
  489TIP3    H1 1406   4.840   1.397   0.664  0.6347 -1.6086  0.1311
  489TIP3    H2 1407   4.844   1.281   0.566 -0.3945  0.3757 -2.3246
  490TIP3   OH2 1408   5.929   1.364   1.045 -0.4948 -0.5532  0.1756
  490TIP3    H1 1409   6.004   1.362   0.984 -1.2706 -0.4178 -0.7968
  490TIP3    H2 1410   5.967   1.393   1.128  0.0541  2.3026 -1.0125
  491TIP3   OH2 1411   6.505   3.277   0.669  0.2184  0.0724  0.0991
  491TIP3    H1 1412   6.528   3.334   0.595  1.1981 -0.5859 -0.1150
  491TIP3    H2 1413   6.524   3.188   0.637  0.3473 -0.2375  1.0320
  492TIP3   OH2 1414   2.165   7.917   3.257 -0.3644  0.1500 -0.0634
  492TIP3    H1 1415   2.250   7.941   3.296 -2.3314  0.2971  4.5200
  492TIP3    H2 1416   2.144   7.833   3.298 -2.6869  0.3837 -0.7385
  493TIP3   OH2 1417   6.515   2.241   1.893  0.0844  0.1522 -0.0053
  493TIP3    H1 1418   6.463   2.311   1.854 -2.0590 -1.3301  0.1382
  493TIP3    H2 1419   6.457   2.202   1.958  1.7398 -0.8997  0.8583
  494TIP3   OH2 1420   6.010   2.785   2.038  0.2023  0.0376  0.2683
  494TIP3    H1 1421   5.951   2.763   2.110 -0.0255 -0.5621 -0.0926
  494TIP3    H2 1422   5.955   2.828   1.974  0.7142  1.9738  1.1056
  495TIP3   OH2 1423   3.597   2.123   1.921 -0.1109  0.1772 -0.8555
  495TIP3    H1 1424   3.623   2.046   1.973 -1.5185 -0.1091 -0.5486
  495TIP3    H2 1425   3.556   2.182   1.985 -1.6653 -0.0848 -1.5999
  496TIP3   OH2 1426   5.722   0.901   1.235 -0.0966 -0.1171 -0.3015
  496TIP3    H1 1427   5.773   0.895   1.316 -0.4757 -0.3226 -0.0776
  496TIP3    H2 1428   5.727   0.993   1.211 -0.2029 -0.0038  0.0973
  497TIP3   OH2 1429   4.095   2.079   0.896 -0.1742 -0.2950  0.0508
  497TIP3    H1 1430   4.170   2.049   0.947 -0.8977 -2.3781 -0.0770
  497TIP3    H2 1431   4.134   2.113   0.815  0.6697 -0.8616  0.2080
  498TIP3   OH2 1432   4.984   1.452   1.270  0.2007 -0.3123 -0.3090
  498TIP3    H1 1433   4.914   1.387   1.265  0.2328 -0.3021 -0.9806
  498TIP3    H2 1434   4.938   1.535   1.285  0.1503 -0.4685  0.4090
  499TIP3   OH2 1435   3.962   1.530   1.430 -0.2322 -0.2332 -0.3818
  499TIP3    H1 1436   4.027   1.501   1.366 -0.1575  0.0034 -0.4142
  499TIP3    H2 1437   3.988   1.620   1.450  0.8226 -0.8838  1.3278
  500TIP3   OH2 1438   6.161   0.834   0.278  0.8728 -0.0920  0.2850
  500TIP3    H1 1439   6.168   0.749   0.322 -1.4257 -1.0054 -1.0257
  500TIP3    H2 1440   6.115   0.890   0.341 -0.5041 -0.7760 -0.1024
  501TIP3   OH2 1441   5.796   5.085   3.090 -0.1376  0.3039 -0.5825
  501TIP3    H1 1442   5.779   4.995   3.119  2.3197  0.2816  0.9134
  501TIP3    H2 1443   5.819   5.133   3.170  1.2559  1.5948 -1.7277
  502TIP3   OH2 1444   4.914   0.974   0.921  0.3084 -0.3189  0.1980
  502TIP3    H1 1445   4.869   0.890   0.925 -1.6135  0.7780  3.7203
  502TIP3    H2 1446   4.851   1.034   0.880  0.1180  0.3125  1.4059
  503TIP3   OH2 1447   3.258   3.268   0.173 -1.0292  0.0074  0.9805
  503TIP3    H1 1448   3.176   3.219   0.168 -1.8131  1.2835  1.2845
  503TIP3    H2 1449   3.326   3.201   0.159 -2.1307 -0.9356 -0.0176
  504TIP3   OH2 1450   5.020   2.475   2.249 -0.2490  0.0039 -0.4423
  504TIP3    H1 1451   5.010   2.406   2.315  1.7078  0.5655  0.4704
  504TIP3    H2 1452   5.092   2.444   2.193 -0.0175  0.8433 -0.6127
  505TIP3   OH2 1453   6.301   3.424   2.317 -0.4011  0.2997 -0.4973
  505TIP3    H1 1454   6.287   3.512   2.351  1.2283  0.3647  0.0675
  505TIP3    H2 1455   6.354   3.437   2.238  0.0404 -0.1866 -0.2839
  506TIP3   OH2 1456   7.309   2.183   2.093 -0.2151 -0.1657  0.4268
  506TIP3    H1 1457   7.342   2.202   2.005 -1.6227 -0.3179 -0.1517
  506TIP3    H2 1458   7.222   2.146   2.078  0.0170 -1.3192  1.8319
  507TIP3   OH2 1459   4.002   3.459   2.075  0.0631 -0.0207  0.0379
  507TIP3    H1 1460   4.096   3.474   2.080  0.1727 -1.0382  1.3441
  507TIP3    H2 1461   3.964   3.547   2.081  0.9038  0.3182  0.5783
  508TIP3   OH2 1462   5.059   1.792   1.847  0.3692  0.6130  0.1032
  508TIP3    H1 1463   4.986   1.789   1.784 -1.1681  0.0444  1.8636
  508TIP3    H2 1464   5.016   1.790   1.933  2.4767  0.4643  1.1704
  509TIP3   OH2 1465   7.160   1.208   1.648 -0.3699 -0.6240 -0.1887
  509TIP3    H1 1466   7.104   1.271   1.603  0.7777  1.6317  1.4086
  509TIP3    H2 1467   7.100   1.153   1.698 -1.2268  1.7770  1.5372
  510TIP3   OH2 1468   1.171   0.590   1.390  0.5192 -0.3458  0.2100
  510TIP3    H1 1469   1.234   0.649   1.431 -1.4672  0.7333  1.8616
  510TIP3    H2 1470   1.094   0.595   1.447 -1.8407  0.0318 -2.8620
  511TIP3   OH2 1471   4.082   1.190   3.327 -0.3404  0.8341  0.2778
  511TIP3    H1 1472   4.151   1.206   3.392 -1.4082 -0.3626  1.7269
  511TIP3    H2 1473   4.109   1.111   3.281  1.5071  2.8718 -2.2567
  512TIP3   OH2 1474   6.885   1.442   0.629  0.3930  0.3356 -0.1536
  512TIP3    H1 1475   6.851   1.528   0.656  0.9671  0.9338 -1.3250
  512TIP3    H2 1476   6.814   1.382   0.650  0.3462  0.9470  1.5652
  513TIP3   OH2 1477   6.116   2.284   0.620 -0.3212 -0.1800 -0.0200
  513TIP3    H1 1478   6.044   2.274   0.683 -0.4022  1.2934  0.1230
  513TIP3    H2 1479   6.187   2.321   0.671 -0.0194 -0.0227 -0.5569
  514TIP3   OH2 1480   2.263   7.909   2.832 -1.3469  0.1342 -0.2696
  514TIP3    H1 1481   2.265   7.998   2.868 -1.7369  0.2418 -0.5125
  514TIP3    H2 1482   2.330   7.862   2.880 -2.6404 -0.0368  1.4004
  515TIP3   OH2 1483   6.662   3.309   2.206 -0.3056  0.3483  0.3690
  515TIP3    H1 1484   6.596   3.285   2.270 -1.4374 -0.7138 -1.1445
  515TIP3    H2 1485   6.711   3.228   2.190  0.0065  0.6173 -0.0671
  516TIP3   OH2 1486   3.977   1.178   1.887 -0.1214  0.6393  0.0492
  516TIP3    H1 1487   3.973   1.241   1.959  0.9176 -1.3759  1.8968
  516TIP3    H2 1488   4.029   1.223   1.820  1.2470  1.4795  1.6343
  517TIP3   OH2 1489   6.006   0.638   2.692 -0.4403  0.5697 -0.6267
  517TIP3    H1 1490   5.989   0.716   2.745  0.3618  0.6123 -0.4216
  517TIP3    H2 1491   6.066   0.669   2.623 -1.1278  0.4161 -1.3021
  518TIP3   OH2 1492   0.847   5.661   6.286 -0.5315  0.0661 -0.2009
  518TIP3    H1 1493   0.821   5.748   6.255  1.6117  0.9328  0.3873
  518TIP3    H2 1494   0.854   5.670   6.381  0.5149 -0.5164 -0.2125
  519TIP3   OH2 1495   5.352   1.771   0.911  0.1734 -0.2303  0.3402
  519TIP3    H1 1496   5.365   1.712   0.837 -0.7659  0.2051 -0.1779
  519TIP3    H2 1497   5.257   1.779   0.919  0.2705 -0.2527  1.5784
  520TIP3   OH2 1498   5.968   4.315   1.205  0.3551 -0.1232  0.5174
  520TIP3    H1 1499   6.043   4.271   1.165  1.1833  0.9169  0.9142
  520TIP3    H2 1500   5.948   4.263   1.283  1.7646  0.5846  1.3625
  521TIP3   OH2 1501   7.364   3.811   6.436  0.1808  0.2086  0.4285
  521TIP3    H1 1502   7.377   3.853   6.351 -0.3463 -0.2072  0.1421
  521TIP3    H2 1503   7.292   3.859   6.476 -0.8968 -0.8576 -0.1943
  522TIP3   OH2 1504   5.362   0.486   1.774 -0.0423  0.2678 -0.8236
  522TIP3    H1 1505   5.294   0.534   1.726 -1.6757 -0.9408  0.2377
  522TIP3    H2 1506   5.375   0.536   1.854  0.0297  0.2926 -0.8511
  523TIP3   OH2 1507   0.968   4.066   6.841  0.4565 -0.6668  0.1557
  523TIP3    H1 1508   0.959   3.972   6.827 -0.1779 -0.7272  0.9288
  523TIP3    H2 1509   1.061   4.079   6.862  0.4630 -1.1690  0.4254
  524TIP3   OH2 1510   4.769   0.630   1.239 -0.1510 -0.2983  0.1949
  524TIP3    H1 1511   4.781   0.541   1.207 -1.1822 -1.1989  2.1769
  524TIP3    H2 1512   4.839   0.642   1.304 -0.1710  0.2444  0.1182
  525TIP3   OH2 1513   5.485   1.734   1.476  0.5335  0.6299  0.6523
  525TIP3    H1 1514   5.520   1.784   1.402  1.1436  0.5473  0.8802
  525TIP3    H2 1515   5.398   1.770   1.490  0.1993  0.2814 -0.4510
  526TIP3   OH2 1516   6.344   5.226   1.799 -0.3555  0.6679  0.2206
  526TIP3    H1 1517   6.408   5.205   1.731  0.2529  2.6914  0.1087
  526TIP3    H2 1518   6.310   5.312   1.774 -3.1491 -0.3691  0.2915
  527TIP3   OH2 1519   4.334   2.054   1.080 -0.8670 -0.8969 -0.3075
  527TIP3    H1 1520   4.286   2.097   1.151 -0.7602 -0.3231 -0.5781
  527TIP3    H2 1521   4.323   1.960   1.097 -4.4576 -0.8575 -1.9308
  528TIP3   OH2 1522   0.091   3.872   5.942  0.4121  0.4742  0.0036
  528TIP3    H1 1523   0.055   3.945   5.893 -1.0309  0.5802  1.1838
  528TIP3    H2 1524   0.015   3.824   5.975  1.3348 -0.2408  1.1692
  529TIP3   OH2 1525   6.370   0.963   1.970  0.3394  0.7278  0.0597
  529TIP3    H1 1526   6.443   0.907   1.945 -0.9633 -0.9921  0.0114
  529TIP3    H2 1527   6.292   0.915   1.942 -0.9460  1.1790  2.6675
  530TIP3   OH2 1528   6.517   1.323   1.923 -0.1055 -0.8656  0.0320
  530TIP3    H1 1529   6.494   1.398   1.868  0.1811 -1.8551 -1.4732
  530TIP3    H2 1530   6.612   1.324   1.927 -0.1450 -0.4882  0.9612
  531TIP3   OH2 1531   8.400   0.070   2.422 -0.0797  0.8473 -0.7409
  531TIP3    H1 1532   8.318   0.060   2.374  0.2473  2.0649 -1.5667
  531TIP3    H2 1533   8.401  -0.005   2.483 -2.0458  1.1259 -0.3240
  532TIP3   OH2 1534   5.690   1.423   2.590 -0.2045  0.3870 -0.3503
  532TIP3    H1 1535   5.784   1.415   2.609 -0.2791 -0.1485 -0.1919
  532TIP3    H2 1536   5.656   1.477   2.661 -0.5659 -1.9706  1.3527
  533TIP3   OH2 1537   6.172   1.941   2.929  0.0770 -0.3972 -0.3595
  533TIP3    H1 1538   6.238   1.936   2.999 -0.0351 -1.1568 -0.3067
  533TIP3    H2 1539   6.173   2.032   2.902  1.4336 -0.4815 -0.6181
  534TIP3   OH2 1540   3.145   6.178   3.935 -0.0408 -0.1549 -0.5081
  534TIP3    H1 1541   3.156   6.086   3.913  0.5828 -0.6601  1.7223
  534TIP3    H2 1542   3.055   6.198   3.911 -0.5745 -1.7120  0.1232
  535TIP3   OH2 1543   3.170   7.499   1.710 -0.3386 -0.3408  0.2482
  535TIP3    H1 1544   3.113   7.546   1.649  1.8055 -0.0830 -1.6432
  535TIP3    H2 1545   3.186   7.415   1.667  1.1247 -0.1948  0.4720
  536TIP3   OH2 1546   5.503   2.938   1.626  0.5823  0.1896  0.1141
  536TIP3    H1 1547   5.500   2.934   1.722  3.2641  0.8290  0.2699
  536TIP3    H2 1548   5.533   3.027   1.607  0.2161  0.0144 -1.3162
  537TIP3   OH2 1549   6.695   2.874   0.864 -0.3589 -0.3708 -0.1580
  537TIP3    H1 1550   6.743   2.797   0.832 -0.2020 -0.4642  0.2967
  537TIP3    H2 1551   6.751   2.909   0.934 -1.3147 -0.9162  0.8854
  538TIP3   OH2 1552   5.840   0.301   1.250 -0.2596 -0.1347 -0.3434
  538TIP3    H1 1553   5.892   0.274   1.326 -1.8448  2.1017  1.5719
  538TIP3    H2 1554   5.765   0.242   1.250 -0.1873 -0.2268 -0.2731
  539TIP3   OH2 1555   6.538   2.395   1.124 -0.0593 -0.1599 -0.2545
  539TIP3    H1 1556   6.548   2.428   1.213  0.3240  0.7287 -0.6266
  539TIP3    H2 1557   6.596   2.319   1.120 -0.9833 -0.9424  0.6170
  540TIP3   OH2 1558   4.361   0.659   1.158  0.3266  0.5012  0.2782
  540TIP3    H1 1559   4.338   0.658   1.251  0.9471 -0.2663  0.4205
  540TIP3    H2 1560   4.307   0.730   1.121 -1.0527 -0.1907  0.9255
  541TIP3   OH2 1561   6.249   3.769   6.279  0.0947 -0.2537 -0.3351
  541TIP3    H1 1562   6.204   3.753   6.362  0.9436 -0.3941  0.1067
  541TIP3    H2 1563   6.180   3.767   6.213 -0.3597 -1.8796  0.1672
  542TIP3   OH2 1564   4.478   1.544   1.077 -0.2637 -0.3890 -0.0726
  542TIP3    H1 1565   4.516   1.456   1.080 -1.2038 -0.8603 -1.2259
  542TIP3    H2 1566   4.432   1.554   1.160  0.8249 -0.5327  0.5491
  543TIP3   OH2 1567   2.886   8.024   0.350 -0.1701  0.0069 -0.5486
  543TIP3    H1 1568   2.970   8.055   0.382 -0.7115 -0.9978  1.9025
  543TIP3    H2 1569   2.907   7.942   0.305 -0.0047 -1.0376  1.3759
  544TIP3   OH2 1570   5.547   0.125   2.304 -0.1543  0.4860  0.7122
  544TIP3    H1 1571   5.636   0.152   2.324 -0.6574  0.8703  2.4608
  544TIP3    H2 1572   5.522   0.068   2.377 -1.6404  1.0744  0.6693
  545TIP3   OH2 1573   0.885   2.296   0.599 -0.6744  0.1422 -0.0167
  545TIP3    H1 1574   0.883   2.330   0.509  0.0342  1.1855  0.3535
  545TIP3    H2 1575   0.833   2.358   0.649  0.5050  0.6288  0.6369
  546TIP3   OH2 1576   4.036   2.659   0.942  0.4121 -0.4209  0.2615
  546TIP3    H1 1577   3.966   2.640   0.880 -0.1362  2.2901  0.0176
  546TIP3    H2 1578   4.113   2.677   0.888  0.3716  0.2077  0.4085
  547TIP3   OH2 1579   4.015   7.547   1.153  0.1613 -0.2438 -0.0765
  547TIP3    H1 1580   4.096   7.590   1.125 -0.1579  0.3433 -0.1302
  547TIP3    H2 1581   3.955   7.562   1.080 -0.3798  0.4334  0.4952
  548TIP3   OH2 1582   4.865   1.159   4.104  0.4890  0.2019 -0.7058
  548TIP3    H1 1583   4.840   1.105   4.178 -1.8516  1.2314 -0.6821
  548TIP3    H2 1584   4.846   1.105   4.027 -2.6191  1.1920 -0.7151
  549TIP3   OH2 1585   3.573   1.770   0.359 -0.5041  0.1345 -0.4804
  549TIP3    H1 1586   3.625   1.698   0.394 -0.0847  1.3844  1.5230
  549TIP3    H2 1587   3.483   1.751   0.389 -0.2699  0.8168  0.6726
  550TIP3   OH2 1588   3.816   2.872   1.752 -0.8801  0.1942  0.4152
  550TIP3    H1 1589   3.749   2.812   1.718 -1.2061  0.7987 -0.0021
  550TIP3    H2 1590   3.849   2.918   1.675 -0.6110  0.5382  0.7346
  551TIP3   OH2 1591   3.434   1.593   1.312  0.3016 -0.1792  0.6924
  551TIP3    H1 1592   3.392   1.653   1.251  1.6348  0.6005  0.5218
  551TIP3    H2 1593   3.438   1.641   1.395  1.5380  0.0466  0.5083
  552TIP3   OH2 1594   7.428   2.506   1.027 -0.0382  0.8871  0.2137
  552TIP3    H1 1595   7.467   2.432   0.981 -1.1100 -0.8388  1.9835
  552TIP3    H2 1596   7.367   2.545   0.964  1.9264  1.4577 -1.3649
  553TIP3   OH2 1597   4.769   2.002   1.937 -0.8536 -0.5351 -0.1188
  553TIP3    H1 1598   4.754   1.957   1.854 -1.9449 -0.6975  0.1480
  553TIP3    H2 1599   4.683   2.000   1.981  0.0008 -1.5395  1.5415
  554TIP3   OH2 1600   2.941   7.733   3.539  0.4102 -0.0677 -0.7112
  554TIP3    H1 1601   3.014   7.683   3.577 -0.1924 -0.3906  0.0162
  554TIP3    H2 1602   2.938   7.814   3.589 -0.7668 -0.7495  0.3314
  555TIP3   OH2 1603   4.811   6.067   6.950 -0.3946  0.2478 -0.3766
  555TIP3    H1 1604   4.844   6.101   6.867  0.9678  0.8372  0.3849
  555TIP3    H2 1605   4.767   6.142   6.991  0.4323  0.4383  0.1836
  556TIP3   OH2 1606   7.201   0.949   0.972 -0.4295  0.3050  0.3083
  556TIP3    H1 1607   7.243   0.995   0.900 -2.8311  2.2319  0.0866
  556TIP3    H2 1608   7.124   0.907   0.933 -1.5360  1.0488  1.6298
  557TIP3   OH2 1609   4.731   2.020   3.219 -0.1055  0.1932  0.3645
  557TIP3    H1 1610   4.745   1.975   3.301  2.2384  1.9202  0.9665
  557TIP3    H2 1611   4.659   2.081   3.236 -0.7462 -0.6411  0.6307
  558TIP3   OH2 1612   8.181   4.990   5.585 -0.5420 -0.2026 -0.2075
  558TIP3    H1 1613   8.088   4.975   5.601 -0.1837  0.5162  2.7311
  558TIP3    H2 1614   8.225   4.916   5.627  0.3185  0.4407  0.0276
  559TIP3   OH2 1615   6.396   0.983   0.601 -0.0428  0.3071 -0.7219
  559TIP3    H1 1616   6.392   0.897   0.559  0.3773  0.3060 -0.7621
  559TIP3    H2 1617   6.417   1.043   0.530  0.7154  0.2996 -0.5050
  560TIP3   OH2 1618   7.396   5.136   6.400  0.4142 -0.2064 -0.4313
  560TIP3    H1 1619   7.322   5.137   6.340 -1.3380  1.2306  1.7241
  560TIP3    H2 1620   7.370   5.076   6.470  3.0837 -3.1370 -1.7971
  561TIP3   OH2 1621   3.358   2.600   1.608 -0.1904 -0.1331 -0.2549
  561TIP3    H1 1622   3.338   2.605   1.514 -1.7424 -1.1921  0.0017
  561TIP3    H2 1623   3.273   2.588   1.650  0.4533  0.6517  1.3307
  562TIP3   OH2 1624   4.127   3.675   1.721 -0.0237  0.1390 -0.0673
  562TIP3    H1 1625   4.056   3.692   1.784  0.5710  1.0737  0.3562
  562TIP3    H2 1626   4.189   3.620   1.769  0.1288  0.3337 -0.0421
  563TIP3   OH2 1627   5.549   1.339   3.667 -0.0785  0.4696  0.0939
  563TIP3    H1 1628   5.458   1.338   3.698 -0.7879  2.3523 -1.8030
  563TIP3    H2 1629   5.545   1.299   3.580  1.0283  0.0695  0.2127
  564TIP3   OH2 1630   7.941   1.787   0.727  0.3427  0.2170 -0.3747
  564TIP3    H1 1631   8.021   1.794   0.674  0.8913 -0.2619  0.3773
  564TIP3    H2 1632   7.883   1.733   0.674  0.1070  1.4476 -1.4005
  565TIP3   OH2 1633   4.398   2.199   2.592 -0.1604  0.5058  0.3334
  565TIP3    H1 1634   4.420   2.123   2.646  0.4193 -0.6513 -1.5002
  565TIP3    H2 1635   4.302   2.203   2.596 -0.1322  0.3913  1.3794
  566TIP3   OH2 1636   5.637   0.224   3.738  0.1196 -0.5101  0.6336
  566TIP3    H1 1637   5.651   0.229   3.833  1.2599  0.1731  0.4352
  566TIP3    H2 1638   5.582   0.300   3.718  2.2002  0.9497  0.3457
  567TIP3   OH2 1639   5.445   0.586   2.009  0.8155  0.5314  0.1067
  567TIP3    H1 1640   5.464   0.510   2.065  1.4456  0.9649  0.4944
  567TIP3    H2 1641   5.523   0.641   2.018  1.1842  0.3211 -1.7014
  568TIP3   OH2 1642   1.956   6.771   6.597 -0.2440  0.0046 -0.1015
  568TIP3    H1 1643   1.931   6.845   6.651 -1.7339  0.6809 -1.6690
  568TIP3    H2 1644   1.923   6.793   6.509 -0.0921 -2.1779 -0.7366
  569TIP3   OH2 1645   5.645   1.386   3.125  0.2742  0.3566 -0.1793
  569TIP3    H1 1646   5.649   1.301   3.081  0.2323  0.3299 -0.1317
  569TIP3    H2 1647   5.558   1.420   3.102  0.6997  0.8632 -1.0738
  570TIP3   OH2 1648   7.333   5.070   4.866 -0.4642 -0.1603  0.0244
  570TIP3    H1 1649   7.327   4.995   4.926 -0.6944 -0.0312  0.1651
  570TIP3    H2 1650   7.242   5.093   4.848 -0.4082 -0.8478 -1.1970
  571TIP3   OH2 1651   3.669   1.776   1.518  0.2215 -0.4318  0.5123
  571TIP3    H1 1652   3.653   1.832   1.442 -0.4545  0.9959  1.6677
  571TIP3    H2 1653   3.764   1.763   1.519  0.7915  3.3328  1.9890
  572TIP3   OH2 1654   5.479   3.904   1.854  0.1681 -0.3351  0.4004
  572TIP3    H1 1655   5.487   3.837   1.786  1.0248  0.2658 -0.1147
  572TIP3    H2 1656   5.564   3.902   1.898  1.0138  1.9194 -1.0585
  573TIP3   OH2 1657   5.620   1.161   2.581 -0.0712 -1.0352  0.3111
  573TIP3    H1 1658   5.593   1.154   2.673 -1.5798 -0.1871 -0.0387
  573TIP3    H2 1659   5.638   1.254   2.568 -0.2754 -1.0838 -0.3528
  574TIP3   OH2 1660   3.868   0.955   2.474 -0.0359 -0.5416  0.4190
  574TIP3    H1 1661   3.815   0.965   2.553  0.7248  1.4945  0.7067
  574TIP3    H2 1662   3.808   0.971   2.402 -0.1705  0.2568  0.6971
  575TIP3   OH2 1663   5.791   0.920   2.090  0.0416 -0.2656  0.2973
  575TIP3    H1 1664   5.842   0.942   2.012 -1.6608 -0.5095 -0.9010
  575TIP3    H2 1665   5.804   0.994   2.149  2.8125 -0.8993  0.5464
  576TIP3   OH2 1666   0.736   1.555   2.984  0.5559  0.3436  0.6544
  576TIP3    H1 1667   0.745   1.527   2.892 -0.5307  1.8417  0.0695
  576TIP3    H2 1668   0.660   1.506   3.016  0.0643  0.8819  0.3213
  577TIP3   OH2 1669   6.091   2.145   1.984  0.4128  0.2729 -0.4046
  577TIP3    H1 1670   6.153   2.077   2.013  1.7426  1.7198  0.2003
  577TIP3    H2 1671   6.029   2.098   1.928  0.4570 -1.7351  1.1452
  578TIP3   OH2 1672   5.245   5.124   6.169 -0.1464 -0.2353  0.0889
  578TIP3    H1 1673   5.324   5.071   6.154 -0.1248 -0.1835  0.0205
  578TIP3    H2 1674   5.215   5.097   6.256 -0.2479 -0.5072 -0.0284
  579TIP3   OH2 1675   6.357   0.294   0.575 -0.0866  0.3868  0.1669
  579TIP3    H1 1676   6.314   0.350   0.639 -0.3239  2.0312 -1.3681
  579TIP3    H2 1677   6.378   0.214   0.622 -3.2153  0.2445  1.4335
  580TIP3   OH2 1678   7.713   0.620   3.240  0.2108 -0.3443 -0.0316
  580TIP3    H1 1679   7.791   0.580   3.200  0.4834 -0.1391  0.3005
  580TIP3    H2 1680   7.653   0.632   3.166  1.6862  2.3870 -0.8476
  581TIP3   OH2 1681   3.143   7.331   1.420 -0.2284 -0.0022  0.0146
  581TIP3    H1 1682   3.202   7.404   1.441 -0.7728  0.5829 -0.4708
  581TIP3    H2 1683   3.199   7.267   1.376  0.1522  0.3307  0.0061
  582TIP3   OH2 1684   7.310   1.585   4.101  0.4932  0.3589  0.6826
  582TIP3    H1 1685   7.362   1.511   4.070 -1.5024 -1.4535  1.4719
  582TIP3    H2 1686   7.373   1.644   4.142  2.4447  0.3114 -2.1500
  583TIP3   OH2 1687   7.810   1.624   1.864  0.2844  0.0692 -0.0933
  583TIP3    H1 1688   7.795   1.611   1.770  0.5827 -0.3923 -0.0767
  583TIP3    H2 1689   7.740   1.575   1.906  0.4765 -0.1792 -0.0633
  584TIP3   OH2 1690   5.103   7.018   1.950  0.0470 -0.7574 -0.1036
  584TIP3    H1 1691   5.099   7.073   2.028  3.2665  2.4408 -2.0807
  584TIP3    H2 1692   5.028   7.045   1.897 -1.1134 -1.6986  1.0130
  585TIP3   OH2 1693   5.192   0.564   1.327  0.2143  0.5581  0.3014
  585TIP3    H1 1694   5.140   0.558   1.246 -2.0324  0.1071  1.7430
  585TIP3    H2 1695   5.221   0.475   1.343 -0.4490  0.4028  0.6790
  586TIP3   OH2 1696   7.254   1.809   0.293 -0.2899  0.0397 -0.1113
  586TIP3    H1 1697   7.205   1.844   0.367 -0.7974  0.8552 -0.8366
  586TIP3    H2 1698   7.257   1.880   0.230  1.0908 -0.2855 -0.4313
  587TIP3   OH2 1699   5.502   0.880   0.808  0.1089  0.0077 -0.0595
  587TIP3    H1 1700   5.430   0.823   0.779 -0.2418  0.8623 -0.8890
  587TIP3    H2 1701   5.485   0.893   0.902  0.3910 -1.5286  0.2205
  588TIP3   OH2 1702   2.370   4.372   6.694 -0.0399  0.4053  0.2543
  588TIP3    H1 1703   2.429   4.447   6.698  0.8181 -0.2693  0.2117
  588TIP3    H2 1704   2.347   4.365   6.601  1.4678 -0.6163 -0.0454
  589TIP3   OH2 1705   5.404   0.862   0.054  0.1250 -0.4360  0.2306
  589TIP3    H1 1706   5.383   0.949   0.088 -2.4256 -0.3424 -1.4844
  589TIP3    H2 1707   5.499   0.862   0.046  0.1413  2.3283 -0.0550
  590TIP3   OH2 1708   5.748   2.593   2.039 -0.5589  0.8044  0.4441
  590TIP3    H1 1709   5.783   2.575   2.126 -1.9506 -0.3144  0.7850
  590TIP3    H2 1710   5.677   2.656   2.055 -2.0407 -0.8228  0.3402
  591TIP3   OH2 1711   4.951   4.405   2.434 -0.2108 -0.2528  0.2086
  591TIP3    H1 1712   4.945   4.312   2.414  1.1352 -0.6013  1.3266
  591TIP3    H2 1713   4.954   4.448   2.349  0.8810 -1.3600 -0.3278
  592TIP3   OH2 1714   7.081   0.031   2.387 -0.4335 -0.3795  0.2176
  592TIP3    H1 1715   7.107   0.057   2.299 -1.8417  1.5180  0.3425
  592TIP3    H2 1716   7.025  -0.046   2.374  0.4604 -0.9434 -0.4159
  593TIP3   OH2 1717   1.823   7.779   5.777 -0.1738 -0.3046  0.3315
  593TIP3    H1 1718   1.798   7.818   5.861  1.2747  1.1879  0.0853
  593TIP3    H2 1719   1.763   7.819   5.713  0.1399  0.1682  0.3364
  594TIP3   OH2 1720   4.887   2.522   2.986 -0.1684  0.4200 -0.0560
  594TIP3    H1 1721   4.906   2.453   2.922  1.3041 -0.3159  1.1555
  594TIP3    H2 1722   4.953   2.512   3.053  0.4135  3.3739 -0.0995
  595TIP3   OH2 1723   2.653   7.641   1.337  0.1129  0.2166  0.0185
  595TIP3    H1 1724   2.697   7.614   1.418  0.4734 -0.5587 -0.4340
  595TIP3    H2 1725   2.611   7.561   1.305 -0.1314  0.5528 -0.4977
  596TIP3   OH2 1726   5.140   4.244   1.285  0.1317  0.1053 -0.3227
  596TIP3    H1 1727   5.226   4.209   1.260  0.0192 -0.4650  0.0586
  596TIP3    H2 1728   5.077   4.185   1.244 -0.0506 -1.6344  2.3059
  597TIP3   OH2 1729   5.785   1.174   2.246 -0.3107 -0.2115 -0.3998
  597TIP3    H1 1730   5.712   1.225   2.210  0.8683  1.5105 -0.3748
  597TIP3    H2 1731   5.863   1.215   2.210  0.6638 -2.2902 -0.7294
  598TIP3   OH2 1732   6.882   0.418   1.929 -0.4229  0.1867 -0.3754
  598TIP3    H1 1733   6.932   0.489   1.967  0.5568 -1.5563  1.7038
  598TIP3    H2 1734   6.903   0.342   1.983  0.1911 -2.1861 -3.7483
  599TIP3   OH2 1735   0.201   4.178   6.083  0.4274 -0.2426 -0.4826
  599TIP3    H1 1736   0.125   4.218   6.125 -0.4554 -3.0042  0.6408
  599TIP3    H2 1737   0.221   4.236   6.010 -1.4708  1.6360  0.4224
  600TIP3   OH2 1738   4.649   0.881   2.479  0.2955 -0.7097  0.2481
  600TIP3    H1 1739   4.650   0.791   2.447  0.0274 -1.1078  1.3429
  600TIP3    H2 1740   4.685   0.876   2.568 -0.5036  0.1265  0.6324
  601TIP3   OH2 1741   0.103   3.372   1.828  0.4399  0.4683 -0.1662
  601TIP3    H1 1742   0.079   3.449   1.881  1.0147  0.3363  0.2981
  601TIP3    H2 1743   0.191   3.391   1.797 -0.4366  1.1761 -2.2830
  602TIP3   OH2 1744   4.786   1.288   1.339  0.0125  0.3710 -0.1983
  602TIP3    H1 1745   4.739   1.315   1.260  0.1294  1.5136  0.1077
  602TIP3    H2 1746   4.799   1.194   1.329  1.5540  0.7768 -2.3572
  603TIP3   OH2 1747   5.817   0.234   1.574  0.6172  0.1205 -0.1668
  603TIP3    H1 1748   5.886   0.298   1.559 -0.5127  1.0725 -1.4302
  603TIP3    H2 1749   5.810   0.229   1.670  1.6308  0.8734 -0.0478
  604TIP3   OH2 1750   6.278   2.035   0.504 -0.9884  0.5713 -0.3154
  604TIP3    H1 1751   6.234   1.951   0.514  0.4669 -0.1360  0.3421
  604TIP3    H2 1752   6.257   2.084   0.583 -1.0047  0.4296 -0.2332
  605TIP3   OH2 1753   4.229   1.450   2.214 -0.0053 -0.3765 -0.6114
  605TIP3    H1 1754   4.305   1.457   2.271 -0.3882  1.1742 -0.2855
  605TIP3    H2 1755   4.256   1.492   2.132 -0.7316  0.7903 -0.2626
  606TIP3   OH2 1756   4.445   0.105   1.597  0.5587  0.4113  0.3143
  606TIP3    H1 1757   4.464   0.180   1.540 -0.8563  1.2246  0.9005
  606TIP3    H2 1758   4.472   0.028   1.546 -0.1619  1.1744 -1.2262
  607TIP3   OH2 1759   5.618   0.548   0.536  0.3803 -0.5962 -0.1210
  607TIP3    H1 1760   5.565   0.473   0.509  0.3725 -0.2281 -1.1265
  607TIP3    H2 1761   5.694   0.546   0.478 -0.5517  1.3044 -1.4629
  608TIP3   OH2 1762   5.075   2.463   1.861 -0.0005  0.1263  0.3629
  608TIP3    H1 1763   5.034   2.391   1.910 -0.2948  0.2659  0.3259
  608TIP3    H2 1764   5.074   2.433   1.770  0.7217 -0.2147  0.4686
  609TIP3   OH2 1765   6.707   2.231   2.507 -0.3546  0.2244 -0.4232
  609TIP3    H1 1766   6.785   2.215   2.454 -0.1637  2.0755 -0.7473
  609TIP3    H2 1767   6.716   2.322   2.535 -1.1430 -0.2975  1.6387
  610TIP3   OH2 1768   6.843   2.622   2.316 -0.0111  0.4974  0.1010
  610TIP3    H1 1769   6.875   2.711   2.329 -1.3109  0.9561  0.2201
  610TIP3    H2 1770   6.918   2.567   2.337  1.1810  1.5870 -1.1438
  611TIP3   OH2 1771   4.365   1.133   2.582  0.4567 -0.1618  0.5068
  611TIP3    H1 1772   4.293   1.072   2.598 -0.1643  0.9444  2.1301
  611TIP3    H2 1773   4.359   1.154   2.489 -0.5380 -1.0433  0.3618
  612TIP3   OH2 1774   5.314   2.533   1.619  0.2763  0.6488  0.2238
  612TIP3    H1 1775   5.299   2.625   1.599  1.4193  0.8313  0.1659
  612TIP3    H2 1776   5.368   2.534   1.698  1.6022  0.0759 -0.6497
  613TIP3   OH2 1777   6.600   0.692   1.245  0.6644 -0.2351 -0.0331
  613TIP3    H1 1778   6.573   0.620   1.302  1.0675  0.6054  1.2181
  613TIP3    H2 1779   6.615   0.765   1.304  0.1366  0.9219 -1.3146
  614TIP3   OH2 1780   3.573   2.725   0.534  0.4174 -0.0297  0.0885
  614TIP3    H1 1781   3.489   2.690   0.566 -0.8756  1.5477 -1.4646
  614TIP3    H2 1782   3.592   2.798   0.594 -0.3273  0.8448 -0.7290
  615TIP3   OH2 1783   4.468   3.158   1.719  0.2007 -0.4342 -0.2733
  615TIP3    H1 1784   4.379   3.164   1.752 -0.3043 -0.5906 -1.5709
  615TIP3    H2 1785   4.458   3.151   1.624  1.6216  0.2405 -0.4815
  616TIP3   OH2 1786   5.530   1.472   1.378  0.4600 -0.8479  0.4176
  616TIP3    H1 1787   5.449   1.493   1.425 -0.3829  1.0637 -1.7391
  616TIP3    H2 1788   5.600   1.492   1.440 -0.6707 -0.0364  1.4605
  617TIP3   OH2 1789   4.708   0.802   0.847  0.4909  0.8688 -0.0581
  617TIP3    H1 1790   4.680   0.872   0.788 -0.9557  2.0400  1.9857
  617TIP3    H2 1791   4.627   0.767   0.883  1.3991  0.4844  1.6376
  618TIP3   OH2 1792   4.428   2.615   1.526  0.0197 -0.1272  0.2584
  618TIP3    H1 1793   4.446   2.692   1.580 -1.3727 -0.2789  0.9579
  618TIP3    H2 1794   4.342   2.584   1.557  0.6358 -2.0415  0.0922
  619TIP3   OH2 1795   5.219   3.527   2.869  0.1323  0.3595 -0.0865
  619TIP3    H1 1796   5.197   3.554   2.780 -0.8289  0.8563  0.2938
  619TIP3    H2 1797   5.293   3.583   2.893  3.6734 -3.1432 -2.3305
  620TIP3   OH2 1798   5.425   0.394   1.229 -0.0098 -0.1430 -0.9434
  620TIP3    H1 1799   5.410   0.361   1.140  0.0203 -1.7213 -0.3881
  620TIP3    H2 1800   5.507   0.442   1.224 -0.2238  0.1397 -1.8593
  621TIP3   OH2 1801   4.985   1.641   2.697 -0.3092 -0.6345 -0.2835
  621TIP3    H1 1802   5.004   1.709   2.632 -0.6243 -0.3527 -0.0841
  621TIP3    H2 1803   4.942   1.572   2.647 -3.3481  0.8724  0.1205
  622TIP3   OH2 1804   3.988   7.895   0.961 -0.6662  0.1081 -0.5030
  622TIP3    H1 1805   3.974   7.801   0.950  1.4124 -0.1154 -1.3952
  622TIP3    H2 1806   4.011   7.905   1.053  2.6847 -0.7727 -1.1758
  623TIP3   OH2 1807   3.445   0.084   0.370  0.2751  0.1811 -0.1974
  623TIP3    H1 1808   3.425   0.160   0.425 -3.1595  0.8236 -2.1960
  623TIP3    H2 1809   3.463   0.122   0.283 -1.8390 -1.2481 -1.3019
  624TIP3   OH2 1810   4.471   2.073   2.065  0.1314  0.0837 -0.5851
  624TIP3    H1 1811   4.441   1.988   2.097 -0.4623  0.3886 -0.3183
  624TIP3    H2 1812   4.512   2.114   2.141  1.8438 -0.5972 -1.1127
  625TIP3   OH2 1813   7.086   2.965   0.502 -0.9653 -0.5012 -0.7793
  625TIP3    H1 1814   7.077   3.044   0.449 -1.0222 -0.5735 -0.8772
  625TIP3    H2 1815   7.019   2.974   0.570  0.5796  0.6487  0.6111
  626TIP3   OH2 1816   0.518   4.353   6.833 -0.1378  0.6809  0.0665
  626TIP3    H1 1817   0.495   4.381   6.921  0.4336 -0.2693  0.5301
  626TIP3    H2 1818   0.613   4.366   6.828 -0.1030  0.3225 -0.2533
  627TIP3   OH2 1819   2.245   6.630   6.551 -0.0275  0.2727 -0.7870
  627TIP3    H1 1820   2.307   6.641   6.479 -0.1765  1.8687 -0.6846
  627TIP3    H2 1821   2.261   6.705   6.608 -2.8166  1.3410 -1.3285
  628TIP3   OH2 1822   6.967   4.298   1.556  0.1651 -0.1037 -0.0295
  628TIP3    H1 1823   7.018   4.328   1.632  2.7023 -1.8703 -0.9566
  628TIP3    H2 1824   7.016   4.223   1.523 -2.2719 -0.9117 -1.9289
  629TIP3   OH2 1825   6.849   1.788   1.598  0.5432  0.2124  0.1987
  629TIP3    H1 1826   6.762   1.781   1.635  1.0897  0.2999  1.5257
  629TIP3    H2 1827   6.904   1.731   1.652  1.9708  2.7944  1.5661
  630TIP3   OH2 1828   6.728   3.131   0.407 -0.2664 -0.2342  0.1575
  630TIP3    H1 1829   6.823   3.132   0.404 -0.1896 -0.7291  1.7454
  630TIP3    H2 1830   6.702   3.071   0.337  0.6533 -1.3609  0.7680
  631TIP3   OH2 1831   7.474   1.768   2.823 -0.6593 -0.3159 -0.0416
  631TIP3    H1 1832   7.406   1.704   2.846 -0.9922 -0.2976 -0.9343
  631TIP3    H2 1833   7.529   1.722   2.759 -1.4572  0.5949 -1.4107
  632TIP3   OH2 1834   0.817   2.734   3.003 -0.2243 -0.3852 -0.8493
  632TIP3    H1 1835   0.777   2.740   2.916 -1.6631  0.2512 -0.1668
  632TIP3    H2 1836   0.745   2.710   3.061  0.1518  1.7515  0.5557
  633TIP3   OH2 1837   6.657   2.310   0.036  0.1267 -0.0381 -0.2567
  633TIP3    H1 1838   6.735   2.305   0.092  0.6384 -1.8504 -1.0696
  633TIP3    H2 1839   6.652   2.402   0.010  2.5541 -0.0682 -0.9377
  634TIP3   OH2 1840   8.377   2.268   2.153  0.6482  0.5003  0.0689
  634TIP3    H1 1841   8.342   2.179   2.144  1.1832  0.1909  1.0164
  634TIP3    H2 1842   8.351   2.312   2.071 -0.6295 -0.1765  0.0860
  635TIP3   OH2 1843   0.882   2.812   1.711  0.7366  0.0268  0.1363
  635TIP3    H1 1844   0.825   2.838   1.784 -0.0069  0.3748 -0.5674
  635TIP3    H2 1845   0.844   2.855   1.635  1.5740 -0.2645 -0.4423
  636TIP3   OH2 1846   6.617   1.755   1.007 -0.1989  0.0314 -0.7096
  636TIP3    H1 1847   6.681   1.715   1.065 -0.1964  0.8529 -0.1455
  636TIP3    H2 1848   6.668   1.783   0.931 -0.1704 -0.8599 -1.0228
  637TIP3   OH2 1849   1.608   7.637   1.255 -0.2670  0.1306 -0.1805
  637TIP3    H1 1850   1.550   7.663   1.326 -0.6784 -1.5437  0.1302
  637TIP3    H2 1851   1.559   7.569   1.208  1.8076 -2.0302  0.6674
  638TIP3   OH2 1852   2.937   6.514   6.841  0.0695 -0.1129  0.3772
  638TIP3    H1 1853   2.959   6.473   6.757  0.8734  2.1602 -0.5684
  638TIP3    H2 1854   2.999   6.475   6.903 -0.3508 -1.6108 -0.1247
  639TIP3   OH2 1855   7.477   1.389   0.396 -0.6786 -0.0186  0.0806
  639TIP3    H1 1856   7.471   1.449   0.322  2.7037  1.1849  0.6548
  639TIP3    H2 1857   7.507   1.306   0.358 -1.1621 -0.0873 -0.1589
  640TIP3   OH2 1858   6.324   2.442   0.921  0.2101  0.4250  0.5161
  640TIP3    H1 1859   6.359   2.382   0.855 -0.9729 -0.6779  0.8673
  640TIP3    H2 1860   6.401   2.472   0.970  0.8781 -0.3527 -0.0455
  641TIP3   OH2 1861   8.288   2.196   1.654  0.4917 -0.2257 -0.2147
  641TIP3    H1 1862   8.358   2.138   1.624  0.3462 -0.4456 -0.1343
  641TIP3    H2 1863   8.247   2.148   1.727 -0.5022 -0.6368 -1.0237
  642TIP3   OH2 1864   7.491   2.043   3.071 -0.1310  0.4385  0.3328
  642TIP3    H1 1865   7.408   2.017   3.112 -0.2766 -1.3978 -1.0649
  642TIP3    H2 1866   7.558   2.002   3.125 -0.1340  1.3149  1.0280
  643TIP3   OH2 1867   5.628   1.879   2.293 -0.2566  0.2025 -0.0299
  643TIP3    H1 1868   5.561   1.811   2.283  0.4146 -0.5184  0.3814
  643TIP3    H2 1869   5.710   1.831   2.302  0.1545  1.0470  0.8113
  644TIP3   OH2 1870   6.104   1.587   0.895 -0.2670 -0.7008  0.4273
  644TIP3    H1 1871   6.132   1.496   0.882 -1.0645 -0.8647 -0.1595
  644TIP3    H2 1872   6.184   1.632   0.922 -0.2866 -1.9749  2.7069
  645TIP3   OH2 1873   4.382   0.156   5.985 -0.0415 -0.2661  0.0633
  645TIP3    H1 1874   4.325   0.088   5.949 -0.4313 -0.0577  0.2920
  645TIP3    H2 1875   4.397   0.129   6.076 -1.8613  1.0334  0.7668
  646TIP3   OH2 1876   4.928   1.901   2.555 -0.3700  0.0085 -0.3204
  646TIP3    H1 1877   5.000   1.862   2.504  0.1214  0.7530 -0.2022
  646TIP3    H2 1878   4.968   1.977   2.598 -0.8851 -0.3576  0.8271
  647TIP3   OH2 1879   0.693   2.532   3.355 -0.4845  0.4244 -0.7740
  647TIP3    H1 1880   0.632   2.603   3.336  2.6161  3.4123 -0.1740
  647TIP3    H2 1881   0.689   2.522   3.450  0.5743  1.3052 -0.6161
  648TIP3   OH2 1882   7.789   0.797   3.774 -0.8327  0.5502  0.2337
  648TIP3    H1 1883   7.795   0.745   3.854 -1.1370  0.5914  0.2840
  648TIP3    H2 1884   7.701   0.782   3.742 -0.5795  0.2194 -0.3110
  649TIP3   OH2 1885   8.301   2.979   3.374 -0.4055  0.4335 -0.2429
  649TIP3    H1 1886   8.372   3.038   3.349  0.2976  0.0142  0.7035
  649TIP3    H2 1887   8.253   3.026   3.441  1.0449 -0.6159  1.5943
  650TIP3   OH2 1888   0.583   2.332   1.771 -0.1029  0.2600 -0.2856
  650TIP3    H1 1889   0.621   2.409   1.729  3.8475  0.9455  4.1707
  650TIP3    H2 1890   0.654   2.267   1.770 -1.6690 -1.5063  0.6024
  651TIP3   OH2 1891   6.441   2.925   1.144  0.3716 -0.1079 -0.1764
  651TIP3    H1 1892   6.453   2.970   1.228 -2.8488 -0.1678  0.3839
  651TIP3    H2 1893   6.505   2.854   1.146 -0.9320 -1.2940  3.1132
  652TIP3   OH2 1894   6.017   3.474   1.440  0.4474  0.7123 -0.5694
  652TIP3    H1 1895   6.050   3.458   1.528  0.6779  0.8516 -0.6309
  652TIP3    H2 1896   5.922   3.467   1.448  0.5583 -1.1406 -0.7002
  653TIP3   OH2 1897   5.252   0.270   2.164 -0.1245  0.0284  0.0456
  653TIP3    H1 1898   5.320   0.335   2.146 -0.6478  0.8819  1.0724
  653TIP3    H2 1899   5.238   0.225   2.080 -0.2798  1.7394 -0.8612
  654TIP3   OH2 1900   1.671   5.419   5.245  0.0403 -0.2280  0.6084
  654TIP3    H1 1901   1.760   5.385   5.231 -0.6703 -1.9504  0.0978
  654TIP3    H2 1902   1.620   5.342   5.270 -1.7173  0.4007 -0.9316
  655TIP3   OH2 1903   0.812   6.302   5.693  0.3243 -0.5191 -0.1768
  655TIP3    H1 1904   0.779   6.252   5.768  1.6176 -0.1269  0.6860
  655TIP3    H2 1905   0.776   6.258   5.616 -0.7480 -1.1337  0.6645
  656TIP3   OH2 1906   0.494   2.511   1.960 -0.2745 -0.2832  0.6210
  656TIP3    H1 1907   0.479   2.464   2.041 -2.3054 -1.9419 -0.6637
  656TIP3    H2 1908   0.517   2.443   1.896  1.6721  1.0315 -0.1363
  657TIP3   OH2 1909   8.488   3.479   1.123 -0.7262 -0.2522 -0.4515
  657TIP3    H1 1910   8.508   3.472   1.216 -0.0135 -0.8735 -0.6488
  657TIP3    H2 1911   8.398   3.449   1.116 -0.5521 -0.8907 -0.0563
  658TIP3   OH2 1912   7.985   2.551   3.541  0.1589 -0.3592 -0.5188
  658TIP3    H1 1913   8.040   2.629   3.530  1.6960 -1.2737  0.3945
  658TIP3    H2 1914   8.008   2.494   3.468  1.5177 -1.3390  0.6266
  659TIP3   OH2 1915   6.629   3.210   1.324  0.1949 -0.4098  0.8825
  659TIP3    H1 1916   6.679   3.148   1.377  0.1344 -1.9819 -0.8598
  659TIP3    H2 1917   6.539   3.176   1.324  0.2195 -0.5147 -0.3277
  660TIP3   OH2 1918   5.390   4.142   2.107 -0.2089 -0.0174  0.4004
  660TIP3    H1 1919   5.463   4.194   2.141  0.2580  1.6696 -2.9976
  660TIP3    H2 1920   5.329   4.136   2.181  1.0938  2.8234  1.7828
  661TIP3   OH2 1921   0.910   7.506   6.362 -0.2516  0.0212  0.0387
  661TIP3    H1 1922   0.941   7.422   6.397 -2.9061 -0.9058  0.2274
  661TIP3    H2 1923   0.876   7.553   6.439  0.6115  1.0397 -0.1745
  662TIP3   OH2 1924   3.783   1.244   6.924 -0.3862 -0.7606 -0.1237
  662TIP3    H1 1925   3.748   1.326   6.888  0.4075 -0.0964  0.5872
  662TIP3    H2 1926   3.862   1.271   6.971 -0.4366 -1.8692  0.6028
  663TIP3   OH2 1927   1.192   2.772   1.240  0.3334 -0.5208 -0.8793
  663TIP3    H1 1928   1.119   2.824   1.206  0.2831  0.8291  1.2248
  663TIP3    H2 1929   1.154   2.688   1.263 -1.0501  0.9135  2.2679
  664TIP3   OH2 1930   7.939   2.520   2.796  0.3507  0.1864  0.0844
  664TIP3    H1 1931   7.947   2.590   2.861 -0.2367  0.1575  0.1918
  664TIP3    H2 1932   8.011   2.461   2.815 -0.6084 -0.5276  1.5788
  665TIP3   OH2 1933   0.843   3.122   1.817 -0.0950 -0.1731  0.0275
  665TIP3    H1 1934   0.918   3.063   1.817  0.6399  0.7519  0.2746
  665TIP3    H2 1935   0.767   3.065   1.802  0.6854 -1.0701 -0.5389
  666TIP3   OH2 1936   7.108   4.037   1.503  0.0731  0.0462 -0.3490
  666TIP3    H1 1937   7.172   3.982   1.548 -0.1851 -0.3178 -0.4203
  666TIP3    H2 1938   7.107   4.003   1.413  0.5009  0.6911 -0.6060
  667TIP3   OH2 1939   2.073   1.307   1.945 -0.3616 -0.0481 -0.6044
  667TIP3    H1 1940   2.081   1.366   1.870 -0.3829  0.0239 -0.5498
  667TIP3    H2 1941   1.980   1.287   1.950 -0.3870  0.1043 -0.4755
  668TIP3   OH2 1942   0.016   4.181   4.917  0.2417 -0.2626 -0.4569
  668TIP3    H1 1943  -0.042   4.239   4.966 -0.3099  0.3055 -1.7466
  668TIP3    H2 1944   0.097   4.231   4.909 -0.1580  0.2567 -1.3727
  669TIP3   OH2 1945   7.630   7.104   1.809  0.0081 -0.2994  0.7982
  669TIP3    H1 1946   7.601   7.177   1.864  0.2306 -0.3065  0.9237
  669TIP3    H2 1947   7.556   7.043   1.809  0.0338 -0.3310  1.1428
  670TIP3   OH2 1948   1.602   1.620   2.791 -0.3909 -0.4562  0.4345
  670TIP3    H1 1949   1.586   1.597   2.700 -1.2103 -1.8033  0.9066
  670TIP3    H2 1950   1.697   1.631   2.797 -0.4033  0.2821 -0.7231
  671TIP3   OH2 1951   3.127   5.647   0.905  0.1803 -0.2308 -0.4806
  671TIP3    H1 1952   3.058   5.638   0.971 -0.8536  0.0657 -1.5058
  671TIP3    H2 1953   3.138   5.559   0.871 -1.1186  0.0744 -1.7245
  672TIP3   OH2 1954   8.079   2.977   1.685 -0.0352  0.3136  0.4648
  672TIP3    H1 1955   8.071   2.920   1.609 -1.2831  0.6134  0.3628
  672TIP3    H2 1956   8.145   3.041   1.659  1.1744 -0.9096  0.4836
  673TIP3   OH2 1957   1.483   4.553   2.032 -0.4219 -0.0849  0.1560
  673TIP3    H1 1958   1.462   4.467   1.995 -1.3936 -0.2240  1.0156
  673TIP3    H2 1959   1.576   4.546   2.055 -1.0043 -1.6617  2.1822
  674TIP3   OH2 1960   5.997   3.174   1.932 -0.1362 -0.0675  0.0429
  674TIP3    H1 1961   5.946   3.095   1.946  0.2498 -0.4188 -0.5214
  674TIP3    H2 1962   6.047   3.157   1.852  0.4408  0.4907  0.2797
  675TIP3   OH2 1963   1.481   3.231   1.312 -0.1152 -0.1975  0.2855
  675TIP3    H1 1964   1.538   3.166   1.351 -1.3260 -1.9651 -0.8200
  675TIP3    H2 1965   1.472   3.204   1.220 -1.8751  0.6126  0.1876
  676TIP3   OH2 1966   7.769   2.798   1.436 -0.2814  0.6887  0.0158
  676TIP3    H1 1967   7.752   2.777   1.345  0.9778 -0.7067  0.0756
  676TIP3    H2 1968   7.750   2.892   1.444 -0.9159  0.6968 -1.5355
  677TIP3   OH2 1969   7.405   2.454   1.555  0.4570  0.1564 -0.4533
  677TIP3    H1 1970   7.461   2.530   1.573  0.3826  0.2507 -0.6181
  677TIP3    H2 1971   7.417   2.397   1.631  0.9515  0.0718 -0.5932
  678TIP3   OH2 1972   0.263   3.738   3.084 -0.7948 -0.4050 -0.2826
  678TIP3    H1 1973   0.231   3.710   3.169 -0.0111  0.6109  0.3560
  678TIP3    H2 1974   0.336   3.796   3.103 -0.3475 -0.4819 -1.6563
  679TIP3   OH2 1975   8.262   4.078   2.255 -0.4049 -0.1512 -0.2140
  679TIP3    H1 1976   8.300   4.141   2.195 -0.8928 -0.3442 -0.7396
  679TIP3    H2 1977   8.217   4.015   2.198 -1.0624 -0.2121  0.3610
  680TIP3   OH2 1978   0.799   3.220   3.353 -0.2269 -0.0050  0.5562
  680TIP3    H1 1979   0.750   3.297   3.324 -0.1619 -0.0437  0.3387
  680TIP3    H2 1980   0.744   3.181   3.421 -1.3629 -1.0452 -0.9085
  681TIP3   OH2 1981   7.549   3.082   2.717 -0.1764  0.3562 -0.5059
  681TIP3    H1 1982   7.578   2.993   2.735 -0.7717 -0.0093 -1.3180
  681TIP3    H2 1983   7.457   3.084   2.743  0.0214  0.9455  0.1859
  682TIP3   OH2 1984   1.383   2.484   2.840  0.2013  0.0559  0.5517
  682TIP3    H1 1985   1.442   2.409   2.838 -1.5675 -1.3509 -0.1077
  682TIP3    H2 1986   1.375   2.507   2.933 -0.9358 -1.9415  0.9597
  683TIP3   OH2 1987   8.451   3.417   3.381 -0.3436 -0.2141 -0.7596
  683TIP3    H1 1988   8.493   3.334   3.403 -0.0845  0.1448  0.1263
  683TIP3    H2 1989   8.471   3.431   3.289  1.4184 -0.0875 -0.3781
  684TIP3   OH2 1990   2.524   2.021   2.970 -0.2533  0.0463 -0.2921
  684TIP3    H1 1991   2.550   1.941   2.923 -1.1862 -0.0034 -0.7378
  684TIP3    H2 1992   2.583   2.089   2.937  0.8930 -0.5589  0.4683
  685TIP3   OH2 1993   1.779   1.566   1.188 -0.3709  0.0696  0.0125
  685TIP3    H1 1994   1.695   1.612   1.197  0.3933  1.9348 -1.9891
  685TIP3    H2 1995   1.827   1.617   1.123  1.7097 -1.8888 -0.0293
  686TIP3   OH2 1996   0.258   2.801   1.980  0.1668 -0.3818  0.4390
  686TIP3    H1 1997   0.333   2.750   1.950  0.7088  0.9440 -0.5032
  686TIP3    H2 1998   0.265   2.884   1.933 -1.4795  0.0387  0.9005
  687TIP3   OH2 1999   1.250   3.486   0.663  0.3043 -0.3956 -0.0037
  687TIP3    H1 2000   1.240   3.476   0.568 -0.2542  1.8182 -0.2163
  687TIP3    H2 2001   1.256   3.581   0.676  0.7963 -0.6976  2.1401
  688TIP3   OH2 2002   0.065   2.107   4.415 -1.1264  0.0654  0.1242
  688TIP3    H1 2003   0.046   2.036   4.353 -0.7143  0.2350 -0.2011
  688TIP3    H2 2004   0.123   2.068   4.480 -0.0376  0.3718 -0.6421
  689TIP3   OH2 2005   7.864   3.625   0.137 -0.1589 -0.0768  0.3853
  689TIP3    H1 2006   7.774   3.640   0.107 -1.0877 -0.6546  2.7020
  689TIP3    H2 2007   7.903   3.713   0.141 -0.7723  0.2269 -0.2337
  690TIP3   OH2 2008   7.747   2.642   1.835  0.1192 -0.2431  0.5819
  690TIP3    H1 2009   7.714   2.639   1.925 -1.9774  0.7097 -0.1278
  690TIP3    H2 2010   7.822   2.702   1.840 -1.7256  2.0937  1.2026
  691TIP3   OH2 2011   0.444   0.262   2.510 -0.4924 -0.0368  0.3909
  691TIP3    H1 2012   0.427   0.205   2.435 -1.0007 -1.9959  1.9747
  691TIP3    H2 2013   0.367   0.318   2.515 -2.3016 -2.5624  1.8175
  692TIP3   OH2 2014   2.237   2.192   3.005 -0.1943  0.3383  0.2150
  692TIP3    H1 2015   2.224   2.260   3.071  1.2523  1.0259 -0.1977
  692TIP3    H2 2016   2.324   2.209   2.969 -0.5959 -0.5753 -1.2427
  693TIP3   OH2 2017   0.457   3.256   0.511  0.2032  0.5882  0.0674
  693TIP3    H1 2018   0.508   3.175   0.499  1.0024  0.9139  1.2461
  693TIP3    H2 2019   0.372   3.227   0.544  1.2380  0.3669  2.6144
  694TIP3   OH2 2020   1.187   3.792   2.466 -0.3371  0.4621  0.0482
  694TIP3    H1 2021   1.283   3.797   2.469 -0.3081  1.9183 -2.3049
  694TIP3    H2 2022   1.158   3.882   2.454 -2.0396  0.0540  0.8572
  695TIP3   OH2 2023   2.121   0.972   3.426 -0.0984 -0.2971  1.0271
  695TIP3    H1 2024   2.115   0.892   3.478 -0.4171 -0.6100  0.5082
  695TIP3    H2 2025   2.180   0.950   3.354  0.7314  0.2840  1.5267
  696TIP3   OH2 2026   6.802   3.162   2.845 -0.3270 -0.1809 -0.2204
  696TIP3    H1 2027   6.847   3.118   2.772  0.1285 -0.5981  0.3079
  696TIP3    H2 2028   6.829   3.253   2.837  0.9683 -0.5082  0.3505
  697TIP3   OH2 2029   0.034   3.607   2.818  0.0932 -0.5395  0.0886
  697TIP3    H1 2030   0.031   3.583   2.725 -0.5904  0.6227 -0.2077
  697TIP3    H2 2031   0.082   3.536   2.860 -1.8489 -2.3802 -0.7313
  698TIP3   OH2 2032   1.441   1.764   1.593 -0.1754  0.1384 -0.3424
  698TIP3    H1 2033   1.452   1.703   1.520  0.7741 -1.0652  0.7596
  698TIP3    H2 2034   1.476   1.716   1.669  1.2701  2.3297  0.4331
  699TIP3   OH2 2035   8.410   4.285   2.165  0.3501 -0.2074  0.0410
  699TIP3    H1 2036   8.468   4.316   2.094  0.8394 -0.4942  0.3093
  699TIP3    H2 2037   8.424   4.347   2.236  1.3377 -1.0168  0.5824
  700TIP3   OH2 2038   7.723   2.812   0.278  0.0665  0.0998 -0.7315
  700TIP3    H1 2039   7.814   2.805   0.249  0.6890 -1.0862  1.4533
  700TIP3    H2 2040   7.714   2.903   0.307  1.2036 -0.3549  1.1114
  701TIP3   OH2 2041   8.379   4.419   4.441 -0.0818  0.3865 -0.0322
  701TIP3    H1 2042   8.381   4.457   4.529  0.1062 -1.0634  0.6019
  701TIP3    H2 2043   8.460   4.447   4.400 -0.3034  1.3065  0.1516
  702TIP3   OH2 2044   8.216   3.949   0.229  0.5117  0.3806  0.1712
  702TIP3    H1 2045   8.301   3.948   0.273  0.7462  1.5307 -0.2286
  702TIP3    H2 2046   8.204   4.040   0.203  0.3391 -0.2392 -2.0443
  703TIP3   OH2 2047   2.891   3.462   3.161 -0.3894  0.0397  0.4740
  703TIP3    H1 2048   2.810   3.413   3.170  0.8682 -2.0287  0.9979
  703TIP3    H2 2049   2.910   3.495   3.249  0.3626 -1.2040  0.7923
  704TIP3   OH2 2050   0.938   4.807   0.155  0.3564  0.4112  0.5779
  704TIP3    H1 2051   0.996   4.733   0.171 -1.4585 -0.8657  1.4318
  704TIP3    H2 2052   0.867   4.771   0.102  0.5044  2.0318 -0.7620
  705TIP3   OH2 2053   0.532   2.767   0.423  0.7664  0.0428 -0.1650
  705TIP3    H1 2054   0.569   2.732   0.342 -0.2910  0.0078 -0.6379
  705TIP3    H2 2055   0.596   2.744   0.490  2.4206  1.4310 -1.2137
  706TIP3   OH2 2056   1.699   3.934   1.381 -0.1759  0.3884 -0.8371
  706TIP3    H1 2057   1.719   3.899   1.468 -0.5070 -0.5759 -1.1329
  706TIP3    H2 2058   1.701   3.857   1.324  0.7973  1.1294 -1.8149
  707TIP3   OH2 2059   1.391   4.327   0.747  0.1315 -0.1318 -0.4082
  707TIP3    H1 2060   1.448   4.400   0.769  0.1669  0.3591 -2.0601
  707TIP3    H2 2061   1.302   4.362   0.756  0.1484  0.1237 -1.1883
  708TIP3   OH2 2062   0.853   3.636   1.564 -0.5763  0.4642  0.3055
  708TIP3    H1 2063   0.915   3.568   1.540  0.9935  0.4930  3.9341
  708TIP3    H2 2064   0.768   3.603   1.535  0.5657 -1.5971 -0.7792
  709TIP3   OH2 2065   1.953   3.192   0.423 -0.1648 -0.5105 -0.1674
  709TIP3    H1 2066   1.883   3.257   0.426  1.7084  1.6795 -1.6780
  709TIP3    H2 2067   1.998   3.201   0.507 -0.2016 -0.1547 -0.1834
  710TIP3   OH2 2068   3.920   3.344   2.632 -0.2200 -0.0588  0.7181
  710TIP3    H1 2069   3.937   3.310   2.719 -0.0276 -0.0497  0.6838
  710TIP3    H2 2070   3.996   3.317   2.580 -0.1367  0.2928  0.6556
  711TIP3   OH2 2071   4.543   7.006   6.360 -0.2100  0.1807 -0.4189
  711TIP3    H1 2072   4.480   6.958   6.305  0.6728 -0.1138 -1.1732
  711TIP3    H2 2073   4.582   7.070   6.301  1.4879 -0.8133 -0.3969
  712TIP3   OH2 2074   4.178   5.800   4.581 -0.0372  0.1935 -0.5674
  712TIP3    H1 2075   4.149   5.709   4.581  1.9766 -0.4839  1.2306
  712TIP3    H2 2076   4.103   5.849   4.614 -1.2485 -0.7396 -1.8458
  713TIP3   OH2 2077   0.383   1.543   5.989  0.2771  0.5093 -0.1029
  713TIP3    H1 2078   0.474   1.575   5.984  0.2966  0.2039 -2.1066
  713TIP3    H2 2079   0.389   1.450   5.966 -0.3863  0.1496  1.1153
  714TIP3   OH2 2080   1.245   3.446   2.506  0.4620 -0.0406  0.3488
  714TIP3    H1 2081   1.221   3.514   2.443 -0.1623 -1.0267 -0.4867
  714TIP3    H2 2082   1.341   3.446   2.506  0.4723  1.4010  0.9701
  715TIP3   OH2 2083   8.290   0.837   5.713 -0.5346  0.0865 -0.4752
  715TIP3    H1 2084   8.280   0.785   5.633 -0.5194  1.9485 -1.7129
  715TIP3    H2 2085   8.205   0.831   5.756 -0.5386 -0.9393 -0.6074
  716TIP3   OH2 2086   4.711   0.233   6.822  0.3016 -0.5570 -0.5228
  716TIP3    H1 2087   4.629   0.242   6.773 -1.1854 -0.8909  1.8465
  716TIP3    H2 2088   4.745   0.322   6.828 -0.3664 -0.2894 -0.6994
  717TIP3   OH2 2089   2.364   2.642   2.082 -0.2946  0.5432  0.2796
  717TIP3    H1 2090   2.276   2.674   2.099  0.0376  2.6473 -1.7375
  717TIP3    H2 2091   2.352   2.565   2.027 -0.8644  1.0483 -0.3088
  718TIP3   OH2 2092   3.530   4.574   5.815  0.2335 -0.2853 -0.4653
  718TIP3    H1 2093   3.542   4.484   5.847 -0.1783 -0.4751 -0.8398
  718TIP3    H2 2094   3.588   4.580   5.739  1.5900  0.3236  0.6069
  719TIP3   OH2 2095   2.495   6.038   2.427  0.0297  0.1173  0.3953
  719TIP3    H1 2096   2.557   5.965   2.430 -2.5865 -2.2330 -0.2364
  719TIP3    H2 2097   2.466   6.041   2.336 -2.5974 -0.4517  1.1696
  720TIP3   OH2 2098   1.628   4.982   1.989 -0.2445 -0.5933 -0.2950
  720TIP3    H1 2099   1.604   5.052   1.928 -0.3053  1.0086  1.5290
  720TIP3    H2 2100   1.579   4.906   1.958 -1.8131  0.6913 -1.0746
  721TIP3   OH2 2101   5.706   6.415   6.603  0.6165  0.1786 -0.0456
  721TIP3    H1 2102   5.657   6.488   6.642  1.4473  0.2209  0.9530
  721TIP3    H2 2103   5.661   6.397   6.521  0.1498  1.5546 -0.1103
  722TIP3   OH2 2104   8.009   0.359   6.887  0.1633 -0.5057  0.0427
  722TIP3    H1 2105   7.934   0.325   6.838 -0.3936 -0.2691  0.7180
  722TIP3    H2 2106   8.069   0.391   6.820 -0.8442  0.3369 -0.4621
  723TIP3   OH2 2107   2.791   0.845   1.558 -0.5803  0.5491  0.1496
  723TIP3    H1 2108   2.734   0.786   1.607 -2.7437  2.8063  0.5056
  723TIP3    H2 2109   2.824   0.907   1.623  0.1097  0.8918 -0.5063
  724TIP3   OH2 2110   3.529   3.355   1.636  0.5760 -0.6817  0.1405
  724TIP3    H1 2111   3.554   3.341   1.544 -1.5722 -1.3068 -0.3807
  724TIP3    H2 2112   3.511   3.268   1.670  0.8866 -0.4034  1.0210
  725TIP3   OH2 2113   0.366   3.531   0.774  0.3911  0.0240  0.0214
  725TIP3    H1 2114   0.315   3.452   0.793  0.7787 -0.2185  0.0543
  725TIP3    H2 2115   0.379   3.572   0.860  0.4690 -0.0454  0.0425
  726TIP3   OH2 2116   1.137   3.151   0.594 -0.4299 -0.2907 -0.3120
  726TIP3    H1 2117   1.122   3.064   0.631  0.9957  0.5934  2.5002
  726TIP3    H2 2118   1.229   3.151   0.568 -0.5522  0.2113 -0.7528
  727TIP3   OH2 2119   5.379   7.294   6.216  0.5641  0.2190 -0.5714
  727TIP3    H1 2120   5.337   7.235   6.154 -1.4709 -0.0975  1.0282
  727TIP3    H2 2121   5.457   7.247   6.245 -0.1857 -1.0216 -0.5182
  728TIP3   OH2 2122   7.806   4.766   4.627  0.1390  0.1030  0.5774
  728TIP3    H1 2123   7.847   4.711   4.694 -0.6837 -0.7576  0.3775
  728TIP3    H2 2124   7.728   4.801   4.669  0.2127  0.4441  0.4270
  729TIP3   OH2 2125   0.675   3.719   3.227  0.0138  0.3769  0.4118
  729TIP3    H1 2126   0.684   3.675   3.142 -1.8645 -2.2085  1.4691
  729TIP3    H2 2127   0.608   3.785   3.213 -0.8228 -0.5356  0.0411
  730TIP3   OH2 2128   0.975   3.765   0.901  0.1318  0.2848  0.3758
  730TIP3    H1 2129   0.998   3.681   0.860  0.4194  0.4097  0.2794
  730TIP3    H2 2130   0.952   3.742   0.991  2.1423  0.3432  0.9301
  731TIP3   OH2 2131   2.309   3.571   3.159  1.2642  0.5797 -0.1929
  731TIP3    H1 2132   2.325   3.485   3.118 -2.1602  0.5065 -1.4790
  731TIP3    H2 2133   2.305   3.552   3.252 -4.2310 -1.5808 -0.7141
  732TIP3   OH2 2134   2.036   4.051   0.187 -0.5854 -0.1354  0.4573
  732TIP3    H1 2135   2.129   4.051   0.208 -0.2541 -0.7555 -0.9011
  732TIP3    H2 2136   1.997   4.114   0.247  0.4351 -1.1333  2.2060
  733TIP3   OH2 2137   3.030   2.539   1.454 -0.1516 -0.3245 -0.7410
  733TIP3    H1 2138   2.975   2.484   1.510 -0.6213  2.2692  1.4836
  733TIP3    H2 2139   3.114   2.492   1.450 -0.4815 -1.1413  1.2371
  734TIP3   OH2 2140   7.008   3.771   2.164 -0.5742 -0.8221  0.8248
  734TIP3    H1 2141   7.010   3.860   2.199 -1.2819  0.0431 -1.2375
  734TIP3    H2 2142   7.018   3.715   2.240 -2.0240  0.9784  2.3928
  735TIP3   OH2 2143   0.103   3.749   0.988 -0.2915 -0.4155  0.5170
  735TIP3    H1 2144   0.047   3.690   1.038 -0.0918 -0.0051  1.2345
  735TIP3    H2 2145   0.168   3.780   1.052 -0.4974  0.7004  0.1976
  736TIP3   OH2 2146   0.986   4.974   4.209 -0.6044  0.3028  0.4646
  736TIP3    H1 2147   1.026   4.896   4.171 -1.1247  0.4253 -0.3531
  736TIP3    H2 2148   0.923   4.941   4.273  0.2762  0.0951  1.2366
  737TIP3   OH2 2149   1.033   1.667   1.942 -0.2848 -0.4121 -0.4470
  737TIP3    H1 2150   0.972   1.679   2.015 -1.9742 -0.5195 -1.7964
  737TIP3    H2 2151   1.027   1.574   1.920  1.2840 -0.6647  0.1837
  738TIP3   OH2 2152   5.744   6.971   5.917 -0.2486 -0.0630  0.1069
  738TIP3    H1 2153   5.829   6.929   5.904 -0.5282 -0.3983 -0.6629
  738TIP3    H2 2154   5.765   7.055   5.958  0.4503 -0.1646 -0.0448
  739TIP3   OH2 2155   2.456   4.797   2.490  0.3335 -0.5065 -0.2235
  739TIP3    H1 2156   2.537   4.788   2.540 -0.3128 -0.0528  0.9174
  739TIP3    H2 2157   2.408   4.716   2.507  0.4976 -0.7334 -0.8214
  740TIP3   OH2 2158   3.502   7.757   6.809 -0.3858 -0.3926 -0.0039
  740TIP3    H1 2159   3.533   7.809   6.883 -0.8014  0.6157 -0.5290
  740TIP3    H2 2160   3.558   7.784   6.736 -1.2214  0.0284 -0.4969
  741TIP3   OH2 2161   1.157   3.052   0.937 -0.1275  0.0684  0.1371
  741TIP3    H1 2162   1.193   3.135   0.904 -0.3390  0.7675  1.6052
  741TIP3    H2 2163   1.232   3.005   0.972  0.2049 -0.9703 -1.8691
  742TIP3   OH2 2164   2.389   3.138   0.114 -0.0800  0.3108 -0.1232
  742TIP3    H1 2165   2.397   3.086   0.194  0.1189  0.9590  0.2817
  742TIP3    H2 2166   2.477   3.173   0.099 -0.1088  0.1580 -0.6451
  743TIP3   OH2 2167   0.147   2.616   2.410 -0.4827  0.0409 -0.2487
  743TIP3    H1 2168   0.156   2.697   2.361  1.3901  0.0163  0.0418
  743TIP3    H2 2169   0.064   2.579   2.379  0.5609  0.1136 -3.2676
  744TIP3   OH2 2170   0.836   4.335   1.781  0.1970 -0.2120  0.0818
  744TIP3    H1 2171   0.777   4.393   1.733 -0.2890 -1.8014 -1.2995
  744TIP3    H2 2172   0.815   4.248   1.748  1.9086 -1.0190  1.0760
  745TIP3   OH2 2173   0.451   4.809   2.123 -0.1919 -0.2266 -0.5595
  745TIP3    H1 2174   0.470   4.753   2.198  1.2815 -0.9732 -1.4751
  745TIP3    H2 2175   0.359   4.792   2.103 -0.6592  0.1249  1.1811
  746TIP3   OH2 2176   2.735   3.143   1.613  0.0586 -0.2396  0.3445
  746TIP3    H1 2177   2.686   3.180   1.686 -0.1998  0.0063  0.0437
  746TIP3    H2 2178   2.826   3.166   1.631  0.0122 -0.3056  0.6632
  747TIP3   OH2 2179   4.526   2.124   2.337 -0.3541  0.0748 -0.0154
  747TIP3    H1 2180   4.562   2.173   2.411 -0.7679  0.1314  0.1482
  747TIP3    H2 2181   4.509   2.037   2.372  1.4915 -0.5439 -0.6134
  748TIP3   OH2 2182   2.212   2.214   1.785  0.1549  0.3697  0.0080
  748TIP3    H1 2183   2.195   2.181   1.874  1.8402  0.9424  0.5669
  748TIP3    H2 2184   2.141   2.276   1.769 -0.3297  0.0442  0.8352
  749TIP3   OH2 2185   1.702   2.088   1.837  0.1561 -0.0051  0.2864
  749TIP3    H1 2186   1.644   2.063   1.765 -0.3037 -0.4144  0.7930
  749TIP3    H2 2187   1.730   2.005   1.875 -0.4232  0.2113  1.2244
  750TIP3   OH2 2188   4.552   7.930   6.612 -0.1080 -0.1462 -0.6852
  750TIP3    H1 2189   4.598   7.852   6.580 -0.1449  0.3456 -1.9439
  750TIP3    H2 2190   4.484   7.896   6.670  0.1101 -1.0196 -0.9382
  751TIP3   OH2 2191   0.961   3.954   1.258 -0.5586  0.1294  0.3095
  751TIP3    H1 2192   0.903   3.966   1.183 -0.5698  0.3800  0.3556
  751TIP3    H2 2193   1.042   3.919   1.221 -0.9010 -0.6682  0.3045
  752TIP3   OH2 2194   0.081   2.265   1.582 -0.5021 -0.5075 -0.3541
  752TIP3    H1 2195   0.028   2.336   1.544 -0.1683  0.1422  0.3688
  752TIP3    H2 2196   0.172   2.293   1.567 -0.3705 -0.6350  0.1930
  753TIP3   OH2 2197   2.059   4.454   2.326  0.0934  0.3999 -0.1493
  753TIP3    H1 2198   1.980   4.410   2.296 -1.1831  0.3718  3.0315
  753TIP3    H2 2199   2.082   4.514   2.255 -1.0257 -1.7164 -2.3815
  754TIP3   OH2 2200   8.507   4.714   1.827  0.1085  0.1575  0.2504
  754TIP3    H1 2201   8.430   4.673   1.866 -1.1501  2.7152  0.5545
  754TIP3    H2 2202   8.511   4.677   1.738  0.7846 -2.8339  1.4597
  755TIP3   OH2 2203   2.903   4.625   2.059  0.3765 -0.4343 -0.3750
  755TIP3    H1 2204   2.957   4.546   2.066 -1.1117 -1.5530 -1.1866
  755TIP3    H2 2205   2.943   4.676   1.989  1.0826 -0.6792 -0.1501
  756TIP3   OH2 2206   1.961   3.791   2.461 -0.2684 -0.0159  0.0764
  756TIP3    H1 2207   1.887   3.848   2.485 -1.0010  0.1813 -2.5547
  756TIP3    H2 2208   2.012   3.783   2.542 -1.3808  2.5367  1.0803
  757TIP3   OH2 2209   2.824   2.041   0.658  0.5062  0.0954  0.4675
  757TIP3    H1 2210   2.863   1.983   0.594 -1.1124 -0.2869 -0.2059
  757TIP3    H2 2211   2.879   2.120   0.656 -0.1759  0.5785 -2.2722
  758TIP3   OH2 2212   1.798   1.914   0.521 -0.1434 -0.5166  0.3042
  758TIP3    H1 2213   1.892   1.934   0.514 -0.5030  0.7465 -1.6358
  758TIP3    H2 2214   1.756   2.000   0.520 -1.2818 -1.0256  2.3724
  759TIP3   OH2 2215   1.074   4.031   2.437 -0.6288 -0.5818  0.1495
  759TIP3    H1 2216   1.077   4.098   2.506 -0.0595 -0.7142  0.2549
  759TIP3    H2 2217   1.030   4.074   2.364  0.4052  0.1549 -0.0544
  760TIP3   OH2 2218   2.281   3.163   2.076  0.8142  0.6863 -0.2182
  760TIP3    H1 2219   2.250   3.091   2.021  1.9435  0.1886 -0.2267
  760TIP3    H2 2220   2.324   3.223   2.015  0.8597  0.8165 -0.0567
  761TIP3   OH2 2221   0.896   3.841   2.290  0.2264 -0.3605  0.1424
  761TIP3    H1 2222   0.907   3.746   2.293  0.2542 -0.4369 -1.7992
  761TIP3    H2 2223   0.973   3.872   2.243 -0.2497  0.5347 -0.0515
  762TIP3   OH2 2224   4.705   7.299   6.340  0.0099 -0.1495  0.4710
  762TIP3    H1 2225   4.668   7.315   6.427  3.7974  2.3114  1.7398
  762TIP3    H2 2226   4.679   7.375   6.288  0.3038 -0.1507  0.3199
  763TIP3   OH2 2227   1.091   4.255   1.175  0.1028  0.6568 -0.0831
  763TIP3    H1 2228   1.147   4.208   1.112 -0.8978  1.0104 -1.2634
  763TIP3    H2 2229   1.098   4.347   1.148 -0.8602  0.7273 -0.0977
  764TIP3   OH2 2230   2.830   7.773   6.731 -0.5863 -0.2326 -0.2992
  764TIP3    H1 2231   2.917   7.800   6.761 -1.1896  1.0648  0.3053
  764TIP3    H2 2232   2.773   7.793   6.805 -1.3362 -1.5289 -0.5137
  765TIP3   OH2 2233   2.973   4.569   1.588 -0.8645  0.2018  0.2107
  765TIP3    H1 2234   3.058   4.548   1.626 -1.1593  0.5958  1.1003
  765TIP3    H2 2235   2.980   4.661   1.562 -0.8701  0.1073 -0.1303
  766TIP3   OH2 2236   1.391   2.186   6.829  0.0984 -0.3269 -0.3873
  766TIP3    H1 2237   1.397   2.182   6.924  3.8255 -3.2484 -0.6263
  766TIP3    H2 2238   1.440   2.265   6.805  1.0577 -0.7801  0.0404
  767TIP3   OH2 2239   2.384   3.819   2.211 -0.1428 -0.3732 -0.0546
  767TIP3    H1 2240   2.353   3.742   2.163 -0.1079 -0.4068 -0.0238
  767TIP3    H2 2241   2.354   3.804   2.301  0.1090 -0.4893  0.0109
  768TIP3   OH2 2242   1.996   1.425   2.220  0.5714 -0.7354  0.1646
  768TIP3    H1 2243   2.019   1.370   2.295 -0.1584 -1.4418 -0.1186
  768TIP3    H2 2244   2.044   1.387   2.147 -0.2859 -1.2890 -0.1229
  769TIP3   OH2 2245   3.774   7.321   6.458  0.2014 -0.2403  0.4364
  769TIP3    H1 2246   3.791   7.399   6.511 -0.5591 -0.4442  0.9922
  769TIP3    H2 2247   3.822   7.337   6.376 -0.5330  1.1477  0.2481
  770TIP3   OH2 2248   2.178   2.873   2.346 -0.6354 -0.0543  0.0844
  770TIP3    H1 2249   2.162   2.856   2.253  1.2371 -0.6063 -0.1707
  770TIP3    H2 2250   2.247   2.939   2.346 -0.7232  0.0382  1.0831
  771TIP3   OH2 2251   6.276   2.960   0.920  0.2863 -0.0955  0.1280
  771TIP3    H1 2252   6.326   2.918   0.990 -1.3493 -1.1514  0.6624
  771TIP3    H2 2253   6.276   2.896   0.848 -0.7417 -0.3172  0.3197
  772TIP3   OH2 2254   1.829   2.317   2.119  0.2215  0.0165  0.4488
  772TIP3    H1 2255   1.848   2.231   2.155 -2.8290 -0.1876  1.7710
  772TIP3    H2 2256   1.819   2.374   2.196 -1.4243  0.6991 -0.2330
  773TIP3   OH2 2257   1.141   2.646   1.794  0.2039 -0.1784  0.1492
  773TIP3    H1 2258   1.069   2.655   1.856 -0.8418  1.6484 -1.2830
  773TIP3    H2 2259   1.201   2.717   1.817 -0.9243  1.4684 -1.8438
  774TIP3   OH2 2260   2.496   4.027   2.863 -0.0912 -0.0486  0.6792
  774TIP3    H1 2261   2.585   4.053   2.840 -0.0937 -3.1186 -3.2629
  774TIP3    H2 2262   2.507   3.949   2.917 -0.4155 -1.3474 -1.1251
  775TIP3   OH2 2263   1.434   1.309   6.443  0.0149  0.1932  0.1769
  775TIP3    H1 2264   1.368   1.360   6.489  0.1881  1.8752 -1.3949
  775TIP3    H2 2265   1.406   1.218   6.455 -1.4940  0.7725  1.1776
  776TIP3   OH2 2266   1.449   2.215   2.708 -0.1389 -0.0168  0.3547
  776TIP3    H1 2267   1.418   2.174   2.627  0.2515  0.1782  0.1088
  776TIP3    H2 2268   1.520   2.159   2.738  0.0070  0.1538  0.3297
  777TIP3   OH2 2269   1.535   4.598   0.838  0.0829  0.1691 -0.2537
  777TIP3    H1 2270   1.629   4.596   0.824  0.2625  1.1747  0.7952
  777TIP3    H2 2271   1.524   4.620   0.930 -1.1860  1.1507 -0.6136
  778TIP3   OH2 2272   7.712   3.632   3.840  0.2060 -0.1453 -0.2379
  778TIP3    H1 2273   7.632   3.609   3.794 -0.1767  1.1410 -0.2337
  778TIP3    H2 2274   7.756   3.548   3.856 -0.5752 -0.7522 -1.2456
  779TIP3   OH2 2275   0.845   2.402   0.331 -0.1663  0.5714  0.2157
  779TIP3    H1 2276   0.815   2.353   0.254  0.0728  0.9839 -0.1447
  779TIP3    H2 2277   0.798   2.485   0.325 -0.2402  0.5551  0.5867
  780TIP3   OH2 2278   1.005   4.115   1.958  0.7601  0.0082 -0.2065
  780TIP3    H1 2279   1.068   4.064   2.010  1.4111 -0.5437 -1.5280
  780TIP3    H2 2280   1.058   4.155   1.889 -0.3038 -0.2996 -1.2084
  781TIP3   OH2 2281   1.545   1.337   1.942 -0.4374 -0.1139  0.4480
  781TIP3    H1 2282   1.509   1.418   1.978  1.7112  0.7381  0.7649
  781TIP3    H2 2283   1.553   1.278   2.018 -0.5561 -0.0785  0.4880
  782TIP3   OH2 2284   2.289   3.524   1.336 -0.2540  0.1553 -0.5549
  782TIP3    H1 2285   2.287   3.613   1.372  0.9349 -0.1099  0.1862
  782TIP3    H2 2286   2.375   3.517   1.294 -0.0865 -0.8569 -0.0611
  783TIP3   OH2 2287   3.189   1.700   1.808 -0.1337 -0.3761  0.1280
  783TIP3    H1 2288   3.256   1.717   1.876 -0.8001  0.5912  0.5600
  783TIP3    H2 2289   3.216   1.618   1.768  2.0269  0.6240 -0.5445
  784TIP3   OH2 2290   1.715   5.727   0.355 -0.3483  0.1411 -0.0205
  784TIP3    H1 2291   1.767   5.710   0.277  0.4510  1.7876  0.1267
  784TIP3    H2 2292   1.770   5.699   0.428 -0.2589  0.5431  0.0648
  785TIP3   OH2 2293   0.374   3.962   0.401  0.2313 -0.1479  0.7895
  785TIP3    H1 2294   0.356   3.876   0.438  0.0682  0.3467  1.8841
  785TIP3    H2 2295   0.440   4.000   0.459  0.2703  0.4832  0.3434
  786TIP3   OH2 2296   3.444   5.268   4.649  0.1717 -0.3460 -0.4854
  786TIP3    H1 2297   3.384   5.295   4.579 -1.7011 -1.8871  0.4975
  786TIP3    H2 2298   3.398   5.197   4.694  1.1215  0.9512  2.6392
  787TIP3   OH2 2299   0.305   3.037   0.632  0.0582 -0.2486 -0.1424
  787TIP3    H1 2300   0.223   3.079   0.605 -0.2223  0.0170  1.0933
  787TIP3    H2 2301   0.297   2.947   0.603 -1.1748 -0.5161  0.9752
  788TIP3   OH2 2302   2.920   5.136   0.336  0.0244 -0.1868  0.1652
  788TIP3    H1 2303   2.990   5.141   0.401 -1.1791  1.9362  1.3290
  788TIP3    H2 2304   2.857   5.074   0.374  0.1876 -0.3504  0.1705
  789TIP3   OH2 2305   7.655   3.242   2.949 -0.7102  0.0812 -0.2770
  789TIP3    H1 2306   7.573   3.196   2.965  1.0037 -1.8343  3.7104
  789TIP3    H2 2307   7.709   3.179   2.901 -0.5818  0.3155 -0.4436
  790TIP3   OH2 2308   1.982   3.013   1.832  0.4325 -0.1701 -0.1525
  790TIP3    H1 2309   1.924   2.971   1.895 -1.3041 -0.5393 -1.9305
  790TIP3    H2 2310   1.935   3.093   1.805  1.6866  0.5995 -0.0922
  791TIP3   OH2 2311   3.938   3.213   2.911  0.7532  0.0647  0.1362
  791TIP3    H1 2312   3.887   3.171   2.981 -2.7887  0.2553 -2.1801
  791TIP3    H2 2313   3.962   3.299   2.947 -0.5735 -0.0378  1.3261
  792TIP3   OH2 2314   2.035   2.552   1.620  0.0568  0.1176  0.1305
  792TIP3    H1 2315   2.127   2.538   1.644 -0.0315 -0.4670  0.1530
  792TIP3    H2 2316   1.986   2.520   1.695 -0.1948 -0.7911 -0.4114
  793TIP3   OH2 2317   1.022   3.679   2.946  0.0355 -0.2532 -0.0248
  793TIP3    H1 2318   1.090   3.683   2.879  0.9347  1.3682  0.9325
  793TIP3    H2 2319   1.019   3.768   2.982 -0.8972 -0.9190  1.6029
  794TIP3   OH2 2320   3.810   5.627   2.347  0.0077  0.4398  0.1157
  794TIP3    H1 2321   3.785   5.583   2.428  0.6562  0.8377  0.5281
  794TIP3    H2 2322   3.830   5.555   2.286 -1.7024  0.1096 -0.0933
  795TIP3   OH2 2323   1.620   4.235   2.167  0.8557  0.0387 -0.5252
  795TIP3    H1 2324   1.641   4.151   2.126 -3.1838 -0.9569 -0.8244
  795TIP3    H2 2325   1.626   4.218   2.261  0.7168 -0.4133 -0.5957
  796TIP3   OH2 2326   2.096   2.756   1.198  0.6332 -0.0893  0.1951
  796TIP3    H1 2327   2.161   2.715   1.255  0.5572 -1.3519 -0.6215
  796TIP3    H2 2328   2.110   2.716   1.113 -0.3431  0.6105 -0.3000
  797TIP3   OH2 2329   1.622   3.073   1.698  0.3288 -0.1532 -0.4746
  797TIP3    H1 2330   1.670   3.153   1.722 -0.5458  0.0822  0.4809
  797TIP3    H2 2331   1.656   3.052   1.611  2.3481 -0.1201  0.2646
  798TIP3   OH2 2332   3.105   4.203   1.843  0.3338 -0.2551  0.0384
  798TIP3    H1 2333   3.168   4.132   1.859  0.3583 -0.5790 -1.4562
  798TIP3    H2 2334   3.020   4.163   1.858  0.4202 -0.1625  0.7937
  799TIP3   OH2 2335   1.221   5.213   2.689 -0.0337 -0.6057 -0.4388
  799TIP3    H1 2336   1.284   5.205   2.617 -0.3341 -2.2450 -0.5542
  799TIP3    H2 2337   1.259   5.279   2.747  1.3218 -0.8729 -0.9898
  800TIP3   OH2 2338   0.909   2.305   1.685  0.4508  0.0646 -0.2054
  800TIP3    H1 2339   0.905   2.400   1.669  0.1239 -0.0820 -0.9781
  800TIP3    H2 2340   0.960   2.271   1.612  0.7460 -0.3304  0.1891
  801TIP3   OH2 2341   1.716   4.958   1.400 -0.1170  0.0752  0.7069
  801TIP3    H1 2342   1.665   4.948   1.480 -1.1025  0.0963  0.0905
  801TIP3    H2 2343   1.802   4.990   1.430  0.5107 -2.6312  2.0098
  802TIP3   OH2 2344   1.016   3.433   1.528  0.1355  0.2173  0.1349
  802TIP3    H1 2345   1.032   3.356   1.473 -2.8115 -0.6622  0.4068
  802TIP3    H2 2346   1.078   3.424   1.600 -0.0828 -1.8640  0.1067
  803TIP3   OH2 2347   5.309   3.748   4.610  0.0484 -0.1062 -0.3645
  803TIP3    H1 2348   5.251   3.704   4.672  1.5380 -0.9712  0.4420
  803TIP3    H2 2349   5.376   3.788   4.665 -0.4036  1.8779 -1.2081
  804TIP3   OH2 2350   0.999   4.243   1.522 -0.0162 -0.1940  0.2919
  804TIP3    H1 2351   0.984   4.224   1.430  0.6892  1.1897 -0.1302
  804TIP3    H2 2352   0.918   4.216   1.566 -1.7059  2.2210 -1.2101
  805TIP3   OH2 2353   8.395   3.956   0.932  0.0705 -0.0139 -0.0520
  805TIP3    H1 2354   8.464   3.890   0.929  0.9830  0.7980  1.8592
  805TIP3    H2 2355   8.361   3.961   0.843  3.4151  0.5619 -1.3366
  806TIP3   OH2 2356   1.560   2.940   3.103 -0.6086  0.8003  0.2542
  806TIP3    H1 2357   1.469   2.921   3.078 -1.0029  1.4842  1.1479
  806TIP3    H2 2358   1.602   2.854   3.106 -1.2365  0.4742 -0.0978
  807TIP3   OH2 2359   0.506   4.241   3.689  0.2080  0.1354 -0.3426
  807TIP3    H1 2360   0.588   4.231   3.640  0.4125  1.3353 -0.2506
  807TIP3    H2 2361   0.445   4.181   3.646  1.6396 -2.1479  0.7211
  808TIP3   OH2 2362   7.958   3.887   0.166 -0.4819  0.0840 -0.3843
  808TIP3    H1 2363   8.051   3.909   0.170 -0.3137 -0.4508 -1.2984
  808TIP3    H2 2364   7.918   3.961   0.120 -0.4201  0.0174 -0.5431
  809TIP3   OH2 2365   0.385   5.153   2.609 -0.5314 -0.7335 -0.4481
  809TIP3    H1 2366   0.341   5.182   2.529  0.4260  0.5417 -0.5329
  809TIP3    H2 2367   0.441   5.081   2.580 -0.3076 -0.3844 -0.8891
  810TIP3   OH2 2368   2.305   5.345   1.327  0.0925 -0.0932 -0.0969
  810TIP3    H1 2369   2.384   5.324   1.277 -0.2544  0.4298 -0.8660
  810TIP3    H2 2370   2.289   5.267   1.380  1.1015 -0.2186  0.0437
  811TIP3   OH2 2371   3.857   3.197   2.107  0.1042  0.1360  0.0420
  811TIP3    H1 2372   3.832   3.244   2.187  1.1361  0.0522  0.4192
  811TIP3    H2 2373   3.916   3.257   2.061  0.7123 -0.4252  0.0833
  812TIP3   OH2 2374   1.361   2.173   1.546  0.4117 -0.0884  0.8401
  812TIP3    H1 2375   1.333   2.132   1.464  2.3798 -0.4967  0.3466
  812TIP3    H2 2376   1.370   2.100   1.607  0.8937 -0.0321  0.8399
  813TIP3   OH2 2377   2.649   5.729   0.063  0.2811  0.2068  0.2506
  813TIP3    H1 2378   2.676   5.647   0.022 -0.3491  0.4531 -0.6727
  813TIP3    H2 2379   2.554   5.733   0.050  0.0667  0.2975  1.7344
  814TIP3   OH2 2380   2.938   2.534   0.323 -0.1094 -0.4230 -0.5512
  814TIP3    H1 2381   2.988   2.525   0.404 -1.7283 -1.2498  0.3682
  814TIP3    H2 2382   2.933   2.629   0.310 -0.5110 -0.2574  0.7360
  815TIP3   OH2 2383   0.578   3.967   1.421 -0.0574  0.2625  0.5459
  815TIP3    H1 2384   0.572   4.040   1.360 -0.7597  0.6018  1.0178
  815TIP3    H2 2385   0.588   3.890   1.365  0.2383  0.6714  0.0337
  816TIP3   OH2 2386   1.391   4.059   0.666 -0.0194 -0.4665  0.0152
  816TIP3    H1 2387   1.315   4.042   0.722  1.3940 -0.7995  1.9026
  816TIP3    H2 2388   1.419   4.147   0.690 -0.9728  0.4307 -2.0943
  817TIP3   OH2 2389   3.669   1.881   2.068  0.0631  0.4792 -0.1097
  817TIP3    H1 2390   3.751   1.862   2.115 -0.0434 -0.4459 -0.2850
  817TIP3    H2 2391   3.601   1.869   2.134  0.0794  1.5189  0.1075
  818TIP3   OH2 2392   2.077   3.445   1.115  0.3213  0.0340 -0.1292
  818TIP3    H1 2393   2.111   3.502   1.185 -0.8467 -1.1246  1.4238
  818TIP3    H2 2394   2.127   3.471   1.037  0.8714  2.1350  0.8680
  819TIP3   OH2 2395   1.056   4.516   1.394  0.1706 -0.5702 -0.3633
  819TIP3    H1 2396   1.079   4.440   1.341 -0.9461  0.5810 -2.5745
  819TIP3    H2 2397   0.993   4.482   1.458 -0.6897 -1.4214 -1.6323
  820TIP3   OH2 2398   3.693   2.510   0.329 -0.8479  0.1556  0.0329
  820TIP3    H1 2399   3.657   2.560   0.402 -0.6902  2.0282 -1.1413
  820TIP3    H2 2400   3.758   2.568   0.289 -0.2809 -1.1851 -1.0463
  821TIP3   OH2 2401   3.942   1.618   1.009 -0.1572 -0.2093 -0.6867
  821TIP3    H1 2402   3.987   1.586   1.087 -1.9034  0.1997  0.5208
  821TIP3    H2 2403   3.871   1.556   0.995  1.3214 -1.4080 -3.1666
  822TIP3   OH2 2404   7.686   0.620   0.973 -0.0430  0.3838 -0.0725
  822TIP3    H1 2405   7.771   0.618   1.016  0.2402  0.3177 -0.6211
  822TIP3    H2 2406   7.622   0.617   1.044  0.4113 -1.6315  0.2823
  823TIP3   OH2 2407   2.664   4.821   2.647  0.3560  0.2561  0.3390
  823TIP3    H1 2408   2.730   4.760   2.614 -0.6164 -0.7597  0.2315
  823TIP3    H2 2409   2.714   4.895   2.681  1.4829  0.1367 -1.0295
  824TIP3   OH2 2410   0.640   3.131   1.465 -1.0772 -0.3913 -0.1058
  824TIP3    H1 2411   0.578   3.092   1.404 -3.0399  0.0002  1.5810
  824TIP3    H2 2412   0.590   3.144   1.545  1.0002  0.6151  1.0741
  825TIP3   OH2 2413   4.555   3.484   3.408  0.4164 -0.2272 -0.4783
  825TIP3    H1 2414   4.480   3.499   3.351  0.1660  2.4093  0.4767
  825TIP3    H2 2415   4.517   3.479   3.496  1.1711 -0.6653 -0.1737
  826TIP3   OH2 2416   2.617   3.891   0.322 -0.0608 -0.1414  0.0579
  826TIP3    H1 2417   2.611   3.806   0.366  1.7482 -0.6304 -0.6143
  826TIP3    H2 2418   2.547   3.889   0.257 -0.1120 -1.0801  0.1307
  827TIP3   OH2 2419   0.601   0.312   6.952 -0.1813 -0.2210  0.1604
  827TIP3    H1 2420   0.509   0.315   6.926 -0.4314 -0.9835  0.9326
  827TIP3    H2 2421   0.649   0.299   6.870 -0.7998 -0.3802 -0.1781
  828TIP3   OH2 2422   3.544   3.427   2.783 -0.5788 -0.5382 -0.3490
  828TIP3    H1 2423   3.621   3.462   2.737 -1.2223 -0.5429 -1.4501
  828TIP3    H2 2424   3.488   3.394   2.713 -0.9400 -1.8586  0.5488
  829TIP3   OH2 2425   7.424   3.646   1.802 -0.2091  0.6808  0.1102
  829TIP3    H1 2426   7.511   3.672   1.772 -0.3252  0.9143 -0.0287
  829TIP3    H2 2427   7.396   3.718   1.859 -0.2618  0.5515  0.2472
  830TIP3   OH2 2428   3.187   7.247   5.973  0.7729  0.1707  0.2444
  830TIP3    H1 2429   3.259   7.188   5.953  1.3716  0.4718  1.4861
  830TIP3    H2 2430   3.116   7.219   5.914  1.2985 -1.2858  0.2817
  831TIP3   OH2 2431   3.209   3.108   0.856 -0.3971 -0.2774  0.0781
  831TIP3    H1 2432   3.230   3.063   0.774  0.2760  0.2119 -0.0214
  831TIP3    H2 2433   3.123   3.073   0.881 -0.3426 -0.8590 -0.5281
  832TIP3   OH2 2434   3.418   5.063   0.125  0.3356  0.2508 -0.3694
  832TIP3    H1 2435   3.509   5.080   0.101  0.7729 -0.4272  0.7040
  832TIP3    H2 2436   3.383   5.010   0.053  0.8377  0.3899 -0.7146
  833TIP3   OH2 2437   1.228   3.632   2.061 -0.4408  0.3028 -0.2680
  833TIP3    H1 2438   1.260   3.565   2.000 -0.2402 -0.0452  0.2218
  833TIP3    H2 2439   1.305   3.683   2.084 -0.4566  0.2211 -0.0356
  834TIP3   OH2 2440   0.755   3.921   2.525 -0.6334  0.0206  0.2807
  834TIP3    H1 2441   0.714   3.835   2.530  0.1104 -0.4607 -1.5619
  834TIP3    H2 2442   0.819   3.913   2.455  1.4917  1.2266  2.0192
  835TIP3   OH2 2443   8.256   3.647   1.246 -0.3585 -0.6827  0.0141
  835TIP3    H1 2444   8.178   3.672   1.295 -0.0593  0.8837 -0.2963
  835TIP3    H2 2445   8.230   3.653   1.154  0.4490  0.9808 -0.1247
  836TIP3   OH2 2446   0.817   3.751   0.261 -0.4223 -0.1764  0.3152
  836TIP3    H1 2447   0.751   3.743   0.329 -0.7714 -1.3398 -0.1513
  836TIP3    H2 2448   0.897   3.718   0.300 -0.3358  0.3208  0.5618
  837TIP3   OH2 2449   1.550   2.188   1.212  0.2367 -0.5473 -0.0283
  837TIP3    H1 2450   1.553   2.093   1.219  0.1537 -0.5820 -0.4691
  837TIP3    H2 2451   1.569   2.206   1.120  2.9167 -0.0089  0.5828
  838TIP3   OH2 2452   1.952   4.296   1.675 -0.3853  0.3417  0.3680
  838TIP3    H1 2453   1.860   4.312   1.693 -0.0404  1.0119  1.5767
  838TIP3    H2 2454   1.952   4.226   1.609 -1.7884  1.5273 -0.9205
  839TIP3   OH2 2455   1.723   5.123   1.161 -0.2722  0.9302 -0.6188
  839TIP3    H1 2456   1.639   5.085   1.185 -0.0313 -1.1616 -2.9169
  839TIP3    H2 2457   1.773   5.123   1.242 -0.3370 -3.5823 -0.4485
  840TIP3   OH2 2458   1.652   4.636   1.680  0.2074  0.0261 -0.1930
  840TIP3    H1 2459   1.642   4.726   1.648  0.3052 -0.6563 -2.2635
  840TIP3    H2 2460   1.746   4.628   1.698 -0.1398  1.0091  2.1813
  841TIP3   OH2 2461   0.544   2.604   0.677 -0.0446  0.6947 -0.3397
  841TIP3    H1 2462   0.621   2.653   0.651  0.4166 -0.3779 -1.0738
  841TIP3    H2 2463   0.475   2.670   0.685  0.5961  1.4806 -1.1263
  842TIP3   OH2 2464   5.502   6.223   5.668  0.2295  0.3511 -0.2883
  842TIP3    H1 2465   5.580   6.200   5.617 -0.6075 -0.2335 -1.3328
  842TIP3    H2 2466   5.431   6.223   5.604 -0.5631  1.3489  0.5613
  843TIP3   OH2 2467   3.824   5.382   6.567 -0.1651 -0.2067 -0.4471
  843TIP3    H1 2468   3.851   5.473   6.553 -0.9422  0.3319  1.2671
  843TIP3    H2 2469   3.759   5.388   6.638 -0.3050 -2.0891 -0.3944
  844TIP3   OH2 2470   5.110   7.214   5.352  0.6162 -0.1484  0.0279
  844TIP3    H1 2471   5.148   7.152   5.289  0.0943 -0.0207 -0.4191
  844TIP3    H2 2472   5.175   7.219   5.422  1.4640  0.1243 -0.7569
  845TIP3   OH2 2473   4.598   7.827   5.439 -0.3803 -0.3466 -0.5896
  845TIP3    H1 2474   4.568   7.918   5.431  0.1829 -0.0609  0.4245
  845TIP3    H2 2475   4.673   7.822   5.380  1.3210  0.6481  1.4190
  846TIP3   OH2 2476   2.211   2.706   2.922 -0.0167  0.1377 -0.1324
  846TIP3    H1 2477   2.172   2.639   2.978 -0.4792  0.7493  0.2830
  846TIP3    H2 2478   2.146   2.776   2.919  1.6131  1.7942  1.7298
  847TIP3   OH2 2479   0.030   0.457   3.285  0.5348  0.2965  0.4025
  847TIP3    H1 2480   0.093   0.459   3.212  2.7888  1.5698  2.3015
  847TIP3    H2 2481   0.017   0.364   3.302  3.2986 -0.0355  1.0586
  848TIP3   OH2 2482   0.315   4.532   2.938 -0.6114  0.1950 -0.0157
  848TIP3    H1 2483   0.327   4.536   2.844 -1.4200 -1.4122 -0.2132
  848TIP3    H2 2484   0.237   4.476   2.950 -1.4415  1.6285  1.5406
  849TIP3   OH2 2485   2.715   4.385   2.518 -0.1010  0.5019 -0.3202
  849TIP3    H1 2486   2.724   4.443   2.593 -0.9333 -0.2351  0.3601
  849TIP3    H2 2487   2.769   4.425   2.450 -0.7736  2.1415  0.0862
  850TIP3   OH2 2488   7.412   6.080   5.678 -0.4590  0.0129  0.7656
  850TIP3    H1 2489   7.476   6.072   5.749  0.3941 -0.4883 -0.0543
  850TIP3    H2 2490   7.345   6.015   5.699  0.6521 -1.3398  0.2203
  851TIP3   OH2 2491   3.552   3.696   3.418 -0.1665  0.3614  0.0164
  851TIP3    H1 2492   3.532   3.728   3.330  1.0812  1.8036  0.2295
  851TIP3    H2 2493   3.599   3.615   3.403 -0.0099  0.5662 -0.6540
  852TIP3   OH2 2494   5.917   7.414   6.460  0.6758 -0.3220 -0.1353
  852TIP3    H1 2495   5.935   7.495   6.508  2.1137 -0.2414 -0.8001
  852TIP3    H2 2496   5.863   7.442   6.386 -0.1282 -0.2089  0.4776
  853TIP3   OH2 2497   2.393   0.610   6.193 -0.2202  0.2089 -0.5941
  853TIP3    H1 2498   2.329   0.571   6.254  0.5967 -1.2970 -0.6757
  853TIP3    H2 2499   2.434   0.535   6.150  2.8836  1.0418  0.7542
  854TIP3   OH2 2500   2.116   3.291   1.677 -0.0969 -0.3998 -0.4762
  854TIP3    H1 2501   2.155   3.248   1.602 -0.1887  0.6624 -1.1437
  854TIP3    H2 2502   2.124   3.385   1.658 -0.6769 -0.1341  0.5442
  855TIP3   OH2 2503   5.408   7.685   4.753  0.0270 -0.1362  0.7072
  855TIP3    H1 2504   5.365   7.675   4.668  0.2882  0.5504  0.4923
  855TIP3    H2 2505   5.500   7.704   4.732  0.1702 -0.3213  1.1458
  856TIP3   OH2 2506   5.029   5.861   6.356  0.2043  0.4457 -0.5014
  856TIP3    H1 2507   5.023   5.849   6.261 -1.4205  0.6937 -0.4518
  856TIP3    H2 2508   5.016   5.773   6.392  0.3531  0.4280 -0.4886
  857TIP3   OH2 2509   5.474   6.627   0.169 -0.5162  0.0550 -0.1098
  857TIP3    H1 2510   5.471   6.532   0.171  0.6549  0.0065 -0.0825
  857TIP3    H2 2511   5.543   6.650   0.232 -1.0889  0.9286  0.2041
  858TIP3   OH2 2512   1.188   3.608   1.131  0.1722  0.1400 -0.5806
  858TIP3    H1 2513   1.171   3.516   1.150  0.7897 -0.2470 -1.8023
  858TIP3    H2 2514   1.272   3.608   1.085  0.7040  1.4281  0.3738
  859TIP3   OH2 2515   6.476   6.454   5.805 -0.1167  0.1618 -0.0160
  859TIP3    H1 2516   6.446   6.427   5.892 -0.8810  1.2681  0.0795
  859TIP3    H2 2517   6.465   6.549   5.805 -0.0452  0.1761 -1.2974
  860TIP3   OH2 2518   3.630   0.703   0.863 -0.1040 -0.6150 -0.3123
  860TIP3    H1 2519   3.591   0.787   0.838  1.9919  0.4619 -0.0634
  860TIP3    H2 2520   3.675   0.721   0.945  1.2492 -1.7127 -0.7979
  861TIP3   OH2 2521   2.968   3.719   1.906 -0.3800  0.1789  0.0846
  861TIP3    H1 2522   3.036   3.773   1.865 -0.5256  0.0103 -0.3864
  861TIP3    H2 2523   2.996   3.710   1.997  0.7682 -0.7487 -0.3471
  862TIP3   OH2 2524   2.821   3.764   1.479 -0.8160  0.4200  0.2577
  862TIP3    H1 2525   2.897   3.811   1.514 -1.3834 -0.0056  2.1283
  862TIP3    H2 2526   2.794   3.814   1.402  1.4219  0.5099 -0.5008
  863TIP3   OH2 2527   5.153   7.450   5.911 -0.7815  0.1539  0.2772
  863TIP3    H1 2528   5.124   7.538   5.936  0.4217  0.3029  1.2390
  863TIP3    H2 2529   5.123   7.394   5.983  0.3278  0.1402  0.7457
  864TIP3   OH2 2530   3.036   1.928   1.801  0.1671 -0.0158  0.4862
  864TIP3    H1 2531   3.021   1.935   1.706  0.8295  0.8927  0.4392
  864TIP3    H2 2532   3.086   1.848   1.811  0.7248  0.2679 -0.0095
  865TIP3   OH2 2533   4.863   6.058   6.364  0.0351  0.5853  0.2082
  865TIP3    H1 2534   4.908   5.974   6.378 -1.2842  0.0506  1.2945
  865TIP3    H2 2535   4.793   6.037   6.302 -1.8274  0.3277  2.3216
  866TIP3   OH2 2536   6.075   6.581   5.296  0.0245  0.3816 -0.2364
  866TIP3    H1 2537   6.171   6.574   5.294 -0.1743 -2.6288 -1.2470
  866TIP3    H2 2538   6.058   6.673   5.276  2.6558  0.6259 -1.6229
  867TIP3   OH2 2539   1.230   0.109   6.313 -0.3372 -0.4918  0.0243
  867TIP3    H1 2540   1.198   0.061   6.389  0.4040 -0.4270  0.3869
  867TIP3    H2 2541   1.212   0.201   6.333  2.3935 -0.2105  1.4051
  868TIP3   OH2 2542   2.792   1.693   3.359 -0.4490 -0.0748  0.3779
  868TIP3    H1 2543   2.722   1.753   3.332 -0.8153 -0.6359  0.0796
  868TIP3    H2 2544   2.747   1.610   3.375 -0.0490 -0.0870  1.4752
  869TIP3   OH2 2545   3.736   1.400   1.340  0.2134  0.0527 -0.8048
  869TIP3    H1 2546   3.743   1.432   1.250  0.2015 -0.6448 -1.0589
  869TIP3    H2 2547   3.817   1.429   1.382 -0.2693  1.3149 -0.7376
  870TIP3   OH2 2548   1.513   1.854   0.329 -0.4428  0.0177 -0.2574
  870TIP3    H1 2549   1.488   1.925   0.388 -3.6920 -1.1739 -0.0613
  870TIP3    H2 2550   1.576   1.894   0.269 -0.3935  2.4278  1.3120
  871TIP3   OH2 2551   1.250   3.385   0.162 -0.5395 -0.1396 -0.0225
  871TIP3    H1 2552   1.255   3.386   0.257 -0.3909 -0.2918 -0.0278
  871TIP3    H2 2553   1.254   3.292   0.139  1.0191 -0.0215 -0.2628
  872TIP3   OH2 2554   0.882   0.067   6.749  0.7557  0.1112 -0.0095
  872TIP3    H1 2555   0.840   0.150   6.729 -0.5461 -0.8547 -1.3399
  872TIP3    H2 2556   0.822   0.024   6.810 -1.1412 -1.9986 -3.2009
  873TIP3   OH2 2557   2.727   4.108   2.421  0.2657  0.1785  0.1144
  873TIP3    H1 2558   2.808   4.093   2.371 -0.2226 -1.4616 -0.2205
  873TIP3    H2 2559   2.730   4.201   2.443  2.9040 -0.1185  1.2485
  874TIP3   OH2 2560   5.790   3.222   4.557  1.1386 -0.6545  0.4268
  874TIP3    H1 2561   5.773   3.266   4.640  1.6633  3.4200 -1.4774
  874TIP3    H2 2562   5.870   3.263   4.524  0.3197 -1.3079 -2.5712
  875TIP3   OH2 2563   3.831   3.125   1.568 -0.2394  0.9628 -0.0264
  875TIP3    H1 2564   3.808   3.155   1.656  1.7630 -1.2314  1.3216
  875TIP3    H2 2565   3.753   3.081   1.536 -0.2347 -0.3408  1.6722
  876TIP3   OH2 2566   8.434   1.488   5.814 -0.2160 -0.2204  0.4797
  876TIP3    H1 2567   8.510   1.503   5.870  0.6841 -0.9558 -0.5324
  876TIP3    H2 2568   8.435   1.560   5.751  0.0619 -0.6291  0.0143
  877TIP3   OH2 2569   7.239   6.414   5.513 -0.3231 -0.1963 -0.0376
  877TIP3    H1 2570   7.156   6.462   5.512 -0.3514 -0.2160  0.8057
  877TIP3    H2 2571   7.295   6.462   5.453 -0.4725  0.6886  0.5186
  878TIP3   OH2 2572   3.668   2.879   0.733 -0.7623 -0.2612 -0.1430
  878TIP3    H1 2573   3.662   2.879   0.828 -0.5811 -0.7564 -0.1337
  878TIP3    H2 2574   3.724   2.954   0.713 -1.2931  0.2057  0.1074
  879TIP3   OH2 2575   5.363   4.276   6.219 -0.3500  0.0935 -0.3752
  879TIP3    H1 2576   5.396   4.216   6.153  1.4763 -1.2710  1.6980
  879TIP3    H2 2577   5.326   4.349   6.169  0.4821 -1.1351 -2.8806
  880TIP3   OH2 2578   1.069   0.266   4.982  0.4635 -0.0967  0.3181
  880TIP3    H1 2579   1.045   0.262   5.075 -0.5634 -0.8352  0.0339
  880TIP3    H2 2580   1.164   0.268   4.982  0.4707 -0.0676  1.3953
  881TIP3   OH2 2581   3.432   4.711   1.160 -0.2182  0.3212 -0.1445
  881TIP3    H1 2582   3.339   4.730   1.167 -0.3420 -0.3581  0.1313
  881TIP3    H2 2583   3.436   4.618   1.139  0.3700  0.6120 -1.3552
  882TIP3   OH2 2584   4.190   3.648   1.182 -0.8191 -0.0751  0.3727
  882TIP3    H1 2585   4.228   3.561   1.173  2.0038  1.0089  1.0832
  882TIP3    H2 2586   4.112   3.647   1.128  1.4954 -1.7324 -3.1324
  883TIP3   OH2 2587   4.739   5.218   0.748 -0.2797 -0.2330 -0.2485
  883TIP3    H1 2588   4.773   5.279   0.683 -1.7041  0.1421 -0.6527
  883TIP3    H2 2589   4.783   5.243   0.830 -2.0707  2.4447 -0.0344
  884TIP3   OH2 2590   2.561   6.985   0.040 -0.1942 -0.3167 -0.5033
  884TIP3    H1 2591   2.554   7.049  -0.031 -4.8595  0.6375  0.6601
  884TIP3    H2 2592   2.505   6.912   0.012  0.1721 -1.1695  0.9484
  885TIP3   OH2 2593   4.988   3.854   0.999 -0.4019 -0.4928 -0.2858
  885TIP3    H1 2594   5.022   3.942   1.017  1.4972 -1.1523 -0.5543
  885TIP3    H2 2595   5.028   3.829   0.916 -1.2819 -1.4478 -0.4361
  886TIP3   OH2 2596   1.804   2.887   1.015  0.2880 -0.1692  0.0927
  886TIP3    H1 2597   1.815   2.795   0.992 -0.3833 -0.4097  0.7088
  886TIP3    H2 2598   1.863   2.934   0.956  2.4417 -1.1793  1.3779
  887TIP3   OH2 2599   3.351   2.734   0.893  0.0701 -0.8300  0.1896
  887TIP3    H1 2600   3.431   2.683   0.890  1.4165  1.2031  0.8153
  887TIP3    H2 2601   3.355   2.791   0.817 -0.9689 -0.9664  0.0175
  888TIP3   OH2 2602   3.252   2.852   1.400 -0.0405 -0.3183  0.4268
  888TIP3    H1 2603   3.158   2.869   1.391 -0.2249 -0.1591  2.5579
  888TIP3    H2 2604   3.269   2.783   1.336 -1.3089  0.6645 -1.0089
  889TIP3   OH2 2605   5.029   1.587   2.298  0.1228 -0.1153  0.1171
  889TIP3    H1 2606   5.085   1.642   2.353 -0.2885  0.8534 -0.4222
  889TIP3    H2 2607   5.089   1.523   2.259  1.0516  1.6071 -1.3271
  890TIP3   OH2 2608   3.275   4.212   1.573  0.5036  0.9094 -0.9260
  890TIP3    H1 2609   3.284   4.171   1.487 -0.0541 -0.0312 -0.5482
  890TIP3    H2 2610   3.206   4.162   1.616  0.1358  1.9663 -0.2696
  891TIP3   OH2 2611   2.980   3.408   0.322  0.1969 -0.3613  0.2497
  891TIP3    H1 2612   2.961   3.362   0.403 -0.8274 -0.5647 -0.0884
  891TIP3    H2 2613   2.999   3.339   0.258  0.1386 -0.2541  0.1139
  892TIP3   OH2 2614   3.506   4.343   1.348 -0.1267 -0.3990  0.3942
  892TIP3    H1 2615   3.504   4.248   1.338 -2.8610 -0.8048  3.7711
  892TIP3    H2 2616   3.563   4.359   1.423  0.3120  0.6455 -0.1457
  893TIP3   OH2 2617   8.090   7.791   4.468 -0.3214  0.0489 -0.8441
  893TIP3    H1 2618   8.140   7.709   4.469 -0.4994 -0.0794 -1.8472
  893TIP3    H2 2619   8.033   7.784   4.392 -1.6142  0.3616  0.0850
  894TIP3   OH2 2620   8.051   4.846   1.236 -0.3518 -0.4185 -0.7365
  894TIP3    H1 2621   8.008   4.894   1.164 -1.2838 -1.0149 -0.5831
  894TIP3    H2 2622   7.983   4.788   1.270  0.2418 -0.5227  0.2872
  895TIP3   OH2 2623   1.143   5.654   0.787 -0.0115 -0.6843  0.0616
  895TIP3    H1 2624   1.163   5.595   0.715 -0.8022  1.6276 -2.1415
  895TIP3    H2 2625   1.051   5.637   0.807 -0.5348  0.4630 -1.2692
  896TIP3   OH2 2626   4.412   2.861   3.286  0.5306 -0.3784 -0.6934
  896TIP3    H1 2627   4.457   2.791   3.332  0.2580  0.2920  0.6468
  896TIP3    H2 2628   4.463   2.876   3.207  1.3621 -1.1626 -0.3060
  897TIP3   OH2 2629   3.658   4.539   0.870  0.3756  0.0846  0.4261
  897TIP3    H1 2630   3.662   4.458   0.819 -1.0332  0.5856 -0.5137
  897TIP3    H2 2631   3.605   4.517   0.946  1.1095 -0.2201  0.8599
  898TIP3   OH2 2632   3.606   2.232   2.184 -0.2230 -0.3490 -0.0786
  898TIP3    H1 2633   3.611   2.195   2.272  0.9736  1.6150  0.7035
  898TIP3    H2 2634   3.573   2.321   2.197  2.1446  0.7446 -1.3730
  899TIP3   OH2 2635   6.023   6.658   5.571  0.0701  0.0408 -0.0977
  899TIP3    H1 2636   6.115   6.644   5.593  0.1998  0.1879 -0.5239
  899TIP3    H2 2637   6.002   6.587   5.510 -0.0912  0.0243 -0.0226
  900TIP3   OH2 2638   7.247   0.526   5.117  0.0598 -0.0923 -0.3933
  900TIP3    H1 2639   7.211   0.475   5.044 -0.6415  0.1546 -0.2281
  900TIP3    H2 2640   7.341   0.508   5.116 -0.3917 -2.6785  0.6918
  901TIP3   OH2 2641   3.554   2.147   1.325  0.5687 -0.2935 -0.2779
  901TIP3    H1 2642   3.579   2.213   1.390 -0.3269 -0.6145  0.3924
  901TIP3    H2 2643   3.502   2.196   1.261  1.7439  0.0950 -0.9498
  902TIP3   OH2 2644   7.301   7.593   4.938 -0.0341  0.2123 -0.3610
  902TIP3    H1 2645   7.377   7.641   4.908  0.1769 -0.8200 -1.5179
  902TIP3    H2 2646   7.324   7.566   5.028  1.7722 -1.6835 -1.3297
  903TIP3   OH2 2647   2.162   2.259   0.273  0.2169 -0.4657  0.1374
  903TIP3    H1 2648   2.163   2.247   0.368 -0.0620 -1.7830 -0.0123
  903TIP3    H2 2649   2.161   2.170   0.238 -0.3362  0.0145 -1.0952
  904TIP3   OH2 2650   2.192   4.253   2.737  0.3996 -0.4315 -0.4268
  904TIP3    H1 2651   2.271   4.305   2.743 -0.1778  0.5375 -1.0203
  904TIP3    H2 2652   2.137   4.300   2.673 -2.4816  1.3341  3.1650
  905TIP3   OH2 2653   3.584   2.439   1.422 -0.1670 -0.6049 -0.7817
  905TIP3    H1 2654   3.629   2.437   1.507 -1.7483 -0.8622  0.0642
  905TIP3    H2 2655   3.654   2.456   1.359  0.9323  0.3121  0.6353
  906TIP3   OH2 2656   2.941   2.322   1.662  0.1753 -0.1637 -0.2731
  906TIP3    H1 2657   2.955   2.416   1.675  1.0948 -0.5112  1.4338
  906TIP3    H2 2658   2.935   2.286   1.751 -0.1297 -1.7306 -0.9072
  907TIP3   OH2 2659   4.362   1.086   0.513  0.1641  0.2272  0.5697
  907TIP3    H1 2660   4.426   1.144   0.553 -1.6652  1.8323  1.2494
  907TIP3    H2 2661   4.383   1.087   0.420 -0.5151  2.9297  0.3950
  908TIP3   OH2 2662   4.541   6.026   4.832 -0.0493  0.1664  0.7029
  908TIP3    H1 2663   4.503   6.006   4.747  0.7305  2.1873 -0.1462
  908TIP3    H2 2664   4.479   6.087   4.872  0.0964  0.0172  1.1582
  909TIP3   OH2 2665   3.095   3.343   0.843 -0.2949 -0.2468  0.1135
  909TIP3    H1 2666   3.024   3.325   0.781 -0.7027  1.2307  0.1262
  909TIP3    H2 2667   3.148   3.263   0.843 -1.5192 -1.0767 -0.4851
  910TIP3   OH2 2668   5.512   7.208   5.918 -0.0568 -0.4305  0.3497
  910TIP3    H1 2669   5.539   7.186   5.829 -1.2103 -1.0596  0.1459
  910TIP3    H2 2670   5.593   7.235   5.962  0.4596  0.2686 -0.9957
  911TIP3   OH2 2671   4.103   4.658   1.318  0.1116  0.1245 -0.2735
  911TIP3    H1 2672   4.117   4.707   1.399  3.1179 -0.6511 -0.2526
  911TIP3    H2 2673   4.118   4.722   1.248 -0.4187  0.2946 -0.2337
  912TIP3   OH2 2674   2.835   1.037   0.262 -0.2891 -0.0360  0.2870
  912TIP3    H1 2675   2.892   1.017   0.188 -2.0075  1.2759 -1.4494
  912TIP3    H2 2676   2.890   1.025   0.339  2.0731  0.3240 -1.3003
  913TIP3   OH2 2677   3.779   3.395   1.448  0.8889  0.7239  0.2624
  913TIP3    H1 2678   3.793   3.306   1.480 -0.5724 -0.2242 -1.6393
  913TIP3    H2 2679   3.859   3.443   1.471  0.7453 -0.4317  3.4280
  914TIP3   OH2 2680   3.158   3.442   1.859  0.1590 -0.2362  0.0510
  914TIP3    H1 2681   3.183   3.444   1.952  0.1707  1.5921  0.0334
  914TIP3    H2 2682   3.067   3.472   1.858  0.1639 -0.2411 -0.5250
  915TIP3   OH2 2683   2.139   2.122   2.050 -0.0124  0.5379 -0.2911
  915TIP3    H1 2684   2.065   2.073   2.086  0.8130 -1.1553 -0.8626
  915TIP3    H2 2685   2.214   2.093   2.102  0.8983 -0.6864 -2.2470
  916TIP3   OH2 2686   3.440   4.893   2.448 -0.7398  0.5776 -0.1523
  916TIP3    H1 2687   3.430   4.987   2.436 -2.0398  0.4328 -0.2699
  916TIP3    H2 2688   3.509   4.868   2.386 -1.6451  1.1763 -1.4442
  917TIP3   OH2 2689   2.860   2.135   0.054  0.0607  0.2319 -0.2943
  917TIP3    H1 2690   2.862   2.231   0.052  0.5158  0.2634  1.0110
  917TIP3    H2 2691   2.781   2.111   0.006  0.9936  1.1846 -2.3912
  918TIP3   OH2 2692   2.885   3.898   2.258 -0.3972 -0.3343  0.3786
  918TIP3    H1 2693   2.976   3.916   2.234 -0.9146  2.3657  0.2591
  918TIP3    H2 2694   2.834   3.941   2.189 -1.7655 -1.8460  0.4370
  919TIP3   OH2 2695   3.017   2.701   1.225  0.3570 -0.3265  0.0011
  919TIP3    H1 2696   3.026   2.677   1.318 -2.1237 -1.1762  0.0419
  919TIP3    H2 2697   2.934   2.749   1.221  0.4070 -0.3735 -1.8132
  920TIP3   OH2 2698   6.115   6.031   6.178  0.5211 -0.0767  0.1261
  920TIP3    H1 2699   6.030   5.988   6.168  1.0395 -1.2052  0.5514
  920TIP3    H2 2700   6.178   5.959   6.175  1.5195  0.8316 -1.0264
  921TIP3   OH2 2701   0.889   2.879   0.205  0.4638  0.2785 -0.2145
  921TIP3    H1 2702   0.881   2.974   0.205 -1.4691  0.1642  1.0898
  921TIP3    H2 2703   0.876   2.854   0.296  4.0836 -1.0577  0.0132
  922TIP3   OH2 2704   6.437   6.669   6.074  0.0060 -0.3637  0.3588
  922TIP3    H1 2705   6.456   6.699   5.986  0.3454 -0.1661  0.5014
  922TIP3    H2 2706   6.517   6.686   6.124 -0.2588 -0.2796  0.7562
  923TIP3   OH2 2707   5.696   7.046   0.031  0.1589 -0.2924 -0.0915
  923TIP3    H1 2708   5.652   6.989  -0.032  0.6336 -0.8712  0.0980
  923TIP3    H2 2709   5.638   7.122   0.039  0.2648 -0.0522 -1.4862
  924TIP3   OH2 2710   3.933   4.892   3.004 -0.0946  0.0369 -0.2175
  924TIP3    H1 2711   3.894   4.830   2.942  0.2236  0.1413 -0.5201
  924TIP3    H2 2712   3.859   4.945   3.034  0.1677  1.7954 -2.5835
  925TIP3   OH2 2713   3.716   0.987   0.697 -0.0741 -0.0424  0.0652
  925TIP3    H1 2714   3.727   0.991   0.792 -0.2026  0.5567  0.0524
  925TIP3    H2 2715   3.771   0.913   0.670 -0.8905 -0.9097  0.7334
  926TIP3   OH2 2716   3.222   3.850   1.126 -0.1164 -0.3985  0.1335
  926TIP3    H1 2717   3.316   3.861   1.112 -0.4574  0.2580 -1.8019
  926TIP3    H2 2718   3.216   3.779   1.189  1.6766 -0.5309  0.1964
  927TIP3   OH2 2719   2.393   4.271   1.511  0.0932  0.4440 -0.0364
  927TIP3    H1 2720   2.411   4.355   1.552  0.7245  0.5092 -0.4432
  927TIP3    H2 2721   2.476   4.222   1.519 -0.2707 -0.1431  0.2150
  928TIP3   OH2 2722   0.531   0.618   6.466 -0.5957  0.5575 -0.1280
  928TIP3    H1 2723   0.484   0.669   6.400 -1.2206  1.2065  0.8009
  928TIP3    H2 2724   0.587   0.682   6.510 -1.5476  0.5070  1.1904
  929TIP3   OH2 2725   3.540   3.501   2.281 -0.4402 -0.0420 -0.0466
  929TIP3    H1 2726   3.605   3.540   2.339  1.0508 -0.5925 -1.3080
  929TIP3    H2 2727   3.456   3.535   2.313  0.5672  1.8195  0.7236
  930TIP3   OH2 2728   7.422   5.790   5.912 -0.2077  0.0173 -0.0029
  930TIP3    H1 2729   7.496   5.753   5.862 -0.3806  1.3888 -1.3204
  930TIP3    H2 2730   7.388   5.716   5.962  0.6670 -1.1553 -1.0969
  931TIP3   OH2 2731   3.528   4.882   1.352 -0.4493  0.1984 -0.4547
  931TIP3    H1 2732   3.581   4.821   1.403 -0.8635  0.2892  0.0941
  931TIP3    H2 2733   3.474   4.826   1.295  1.3223  0.1481 -2.1367
  932TIP3   OH2 2734   6.534   7.873   4.346  0.2244  0.2587  0.3743
  932TIP3    H1 2735   6.493   7.959   4.338 -0.7012 -0.1578  0.6773
  932TIP3    H2 2736   6.547   7.845   4.255 -1.3765 -0.1918  0.2734
  933TIP3   OH2 2737   0.406   3.942   0.997 -0.5402  0.1736 -0.0816
  933TIP3    H1 2738   0.422   3.994   0.918  0.7724 -0.4706 -0.2605
  933TIP3    H2 2739   0.337   3.989   1.043  0.0706  1.6623 -0.6326
  934TIP3   OH2 2740   3.922   1.612   0.395  0.1361 -0.4144  0.3114
  934TIP3    H1 2741   3.938   1.592   0.487 -1.6606 -0.0107  0.7307
  934TIP3    H2 2742   3.958   1.700   0.383  1.6388 -1.0261  0.2629
  935TIP3   OH2 2743   0.306   0.403   6.348  0.2788 -0.5878  0.1855
  935TIP3    H1 2744   0.399   0.380   6.357  0.6695  0.5921 -0.7234
  935TIP3    H2 2745   0.277   0.353   6.272  0.7517  0.7389 -0.8884
  936TIP3   OH2 2746   2.715   4.167   2.757  0.1134 -0.5474 -0.0225
  936TIP3    H1 2747   2.688   4.177   2.666  0.1549 -0.5358 -0.0336
  936TIP3    H2 2748   2.784   4.101   2.755  0.1287 -0.5323 -0.0023
  937TIP3   OH2 2749   4.533   1.632   2.507  0.1633 -0.6466 -0.0906
  937TIP3    H1 2750   4.600   1.604   2.445  1.5142 -0.1692  1.1274
  937TIP3    H2 2751   4.547   1.577   2.584 -1.6463 -1.4002 -0.2599
  938TIP3   OH2 2752   0.448   2.410   5.711  0.0144 -0.3183 -0.0610
  938TIP3    H1 2753   0.464   2.391   5.619  1.0728 -1.1531  0.2867
  938TIP3    H2 2754   0.536   2.425   5.748 -0.4123  0.1556  0.7737
  939TIP3   OH2 2755   4.178   3.696   2.265  0.0006  0.1531  0.1300
  939TIP3    H1 2756   4.199   3.786   2.239 -0.1312  0.9619  2.7026
  939TIP3    H2 2757   4.247   3.673   2.327 -0.3316 -1.3038 -0.0469
  940TIP3   OH2 2758   4.174   1.458   0.725 -0.3752  0.3406 -0.4074
  940TIP3    H1 2759   4.265   1.472   0.750 -0.5810 -0.0465  0.5787
  940TIP3    H2 2760   4.147   1.381   0.775 -1.8349  1.6109  0.8042
  941TIP3   OH2 2761   4.149   1.168   0.083  0.4788  0.1383  0.4889
  941TIP3    H1 2762   4.078   1.127   0.133  1.0985 -0.2050  1.1061
  941TIP3    H2 2763   4.150   1.259   0.114  1.0187 -0.1325  1.3058
  942TIP3   OH2 2764   6.005   7.257   6.015 -0.0119  0.0546  0.2254
  942TIP3    H1 2765   6.031   7.180   5.964  0.8306  0.1786  0.4577
  942TIP3    H2 2766   5.996   7.225   6.104 -1.1141 -0.0827  0.0652
  943TIP3   OH2 2767   2.069   5.357   2.069  0.0947 -0.2802  0.4625
  943TIP3    H1 2768   2.140   5.358   2.005  0.2628 -0.3146  0.6458
  943TIP3    H2 2769   2.079   5.274   2.114 -1.4589 -1.3081 -1.0472
  944TIP3   OH2 2770   3.520   6.046   5.627  0.4012  0.0540  0.0077
  944TIP3    H1 2771   3.543   6.054   5.535  1.4603  1.4963  0.3785
  944TIP3    H2 2772   3.598   6.075   5.674 -0.4057  0.1155  1.3517
  945TIP3   OH2 2773   1.627   4.558   3.613 -0.1634 -0.2118 -0.4365
  945TIP3    H1 2774   1.681   4.529   3.540  0.9943 -0.8107  0.6418
  945TIP3    H2 2775   1.671   4.524   3.691 -1.3061  0.5306  0.5568
  946TIP3   OH2 2776   1.032   0.301   5.266 -0.2230 -0.3560  0.3577
  946TIP3    H1 2777   0.992   0.239   5.328  0.9523 -0.7736  0.7015
  946TIP3    H2 2778   0.988   0.384   5.284 -1.4050 -0.9537  0.2889
  947TIP3   OH2 2779   0.706   4.522   0.512  0.3111  0.7709 -0.2607
  947TIP3    H1 2780   0.797   4.543   0.534 -0.6274  1.5395  3.3696
  947TIP3    H2 2781   0.691   4.436   0.552 -1.0826  1.5386  0.9389
  948TIP3   OH2 2782   2.353   1.558   1.473  0.2049  0.0562 -0.1428
  948TIP3    H1 2783   2.400   1.557   1.557  1.4188  2.0703 -0.7576
  948TIP3    H2 2784   2.422   1.559   1.407 -0.7372 -2.8717 -1.2586
  949TIP3   OH2 2785   1.894   4.762   2.212 -0.5631  0.0380  0.3204
  949TIP3    H1 2786   1.983   4.734   2.233 -0.3011  0.3542 -0.3675
  949TIP3    H2 2787   1.856   4.788   2.296  0.6236  1.7331  0.3442
  950TIP3   OH2 2788   2.696   3.767   0.654  0.2349 -0.3713  0.1167
  950TIP3    H1 2789   2.787   3.737   0.646  0.2707 -0.4199  0.7322
  950TIP3    H2 2790   2.652   3.696   0.701  0.6628  1.2105  2.9943
  951TIP3   OH2 2791   1.015   0.423   3.780  0.1931 -0.1274  0.0603
  951TIP3    H1 2792   1.069   0.427   3.859  0.5631 -1.2896 -0.1207
  951TIP3    H2 2793   1.042   0.499   3.729  3.0387 -1.6752 -0.8853
  952TIP3   OH2 2794   1.991   4.698   1.158 -0.3211  0.7897  0.2539
  952TIP3    H1 2795   2.083   4.716   1.177 -0.1393  0.2165 -0.0815
  952TIP3    H2 2796   1.955   4.667   1.242 -0.1010  0.5936  0.2775
  953TIP3   OH2 2797   7.863   0.368   6.294 -0.1207  0.2033 -0.5113
  953TIP3    H1 2798   7.951   0.407   6.297 -0.4982  1.0894 -0.8421
  953TIP3    H2 2799   7.810   0.432   6.247 -0.5811 -1.0452 -1.7289
  954TIP3   OH2 2800   1.811   1.695   6.486 -0.4126 -0.1282  1.1945
  954TIP3    H1 2801   1.899   1.710   6.452 -1.8590  1.1875 -2.2407
  954TIP3    H2 2802   1.804   1.601   6.496  1.3127 -0.2495  1.2338
  955TIP3   OH2 2803   0.756   3.250   0.368 -0.5880 -0.0842  0.2274
  955TIP3    H1 2804   0.709   3.330   0.391 -0.9914 -0.3064  0.1832
  955TIP3    H2 2805   0.702   3.179   0.406 -1.7338 -0.5240 -2.1474
  956TIP3   OH2 2806   6.253   7.537   5.837 -0.2066 -0.0340  0.0196
  956TIP3    H1 2807   6.234   7.487   5.757 -0.6417  1.3838 -0.7770
  956TIP3    H2 2808   6.348   7.528   5.848 -0.0809  0.0512 -0.8746
  957TIP3   OH2 2809   5.657   6.510   5.416 -0.3036  0.2662 -0.4833
  957TIP3    H1 2810   5.564   6.520   5.437 -0.6252 -2.3753 -0.4290
  957TIP3    H2 2811   5.661   6.513   5.320 -0.8079 -2.0440 -0.6022
  958TIP3   OH2 2812   8.277   5.230   2.417 -0.1038  0.3743  0.0962
  958TIP3    H1 2813   8.362   5.262   2.448 -0.3411  0.2577  0.8961
  958TIP3    H2 2814   8.226   5.217   2.497 -0.0998 -1.7517 -0.2353
  959TIP3   OH2 2815   7.135   7.460   5.522 -0.3889 -0.2173  0.3186
  959TIP3    H1 2816   7.145   7.554   5.512  0.5953 -0.2575  0.8605
  959TIP3    H2 2817   7.208   7.434   5.578  0.5547 -1.6083 -1.5153
  960TIP3   OH2 2818   3.202   3.736   2.404  0.4347  0.6610 -0.5263
  960TIP3    H1 2819   3.205   3.792   2.327 -0.0922  0.4487 -0.6987
  960TIP3    H2 2820   3.267   3.774   2.464  1.7448  0.1048 -1.5563
  961TIP3   OH2 2821   2.288   4.135   0.274  0.1857  0.1655 -0.3707
  961TIP3    H1 2822   2.351   4.201   0.244 -0.5771  1.2667  0.4018
  961TIP3    H2 2823   2.335   4.084   0.340  0.2731  0.9915  0.2092
  962TIP3   OH2 2824   2.171   4.020   1.559  0.5546 -0.2735  0.1758
  962TIP3    H1 2825   2.243   4.073   1.524 -0.0565 -0.5879 -1.6338
  962TIP3    H2 2826   2.096   4.044   1.504  0.1501 -2.6438 -0.3376
  963TIP3   OH2 2827   5.279   4.520   6.076  0.1183 -0.5936  0.1264
  963TIP3    H1 2828   5.292   4.601   6.026  0.6260 -0.6160  0.2172
  963TIP3    H2 2829   5.282   4.451   6.010  1.6218 -0.6899  0.2815
  964TIP3   OH2 2830   2.960   2.816   0.224 -0.4049 -0.0207  0.7978
  964TIP3    H1 2831   2.881   2.844   0.270 -0.1442  1.4685  0.3551
  964TIP3    H2 2832   3.031   2.868   0.263  0.1635 -0.4273  0.3203
  965TIP3   OH2 2833   4.071   1.063   0.989  0.0394  0.5672 -0.2317
  965TIP3    H1 2834   4.045   0.974   1.014  0.1818  0.2835 -1.0845
  965TIP3    H2 2835   4.121   1.052   0.908  0.3475  1.3934 -0.1613
  966TIP3   OH2 2836   2.945   5.611   0.234  0.1081 -0.4715 -0.0109
  966TIP3    H1 2837   2.885   5.541   0.208 -0.5857 -0.0512  0.4385
  966TIP3    H2 2838   2.889   5.678   0.272  0.8588 -0.0365  0.3481
  967TIP3   OH2 2839   0.873   3.376   1.012 -0.2480  0.2424  0.4467
  967TIP3    H1 2840   0.886   3.370   0.917  0.2750  0.8717  0.4781
  967TIP3    H2 2841   0.959   3.398   1.047 -0.7458  1.4314  0.9379
  968TIP3   OH2 2842   3.487   6.300   2.271 -0.4749  0.3217 -0.3394
  968TIP3    H1 2843   3.404   6.270   2.310  0.3680 -0.0190  1.2610
  968TIP3    H2 2844   3.520   6.365   2.333  1.1551 -0.6031 -0.1961
  969TIP3   OH2 2845   3.793   4.673   1.872  0.0019 -0.6125  0.1258
  969TIP3    H1 2846   3.815   4.744   1.932 -3.3067  1.2160 -0.7027
  969TIP3    H2 2847   3.842   4.694   1.792 -0.2215  0.2245  0.2007
  970TIP3   OH2 2848   3.055   4.422   2.930  0.0177  0.1135 -0.2712
  970TIP3    H1 2849   3.069   4.505   2.976  1.7829 -0.8265  0.9525
  970TIP3    H2 2850   3.101   4.432   2.847 -0.9631  0.8697 -0.7251
  971TIP3   OH2 2851   2.361   3.117   2.323 -0.4466  0.3893 -0.0298
  971TIP3    H1 2852   2.421   3.187   2.349 -0.5783  0.6508 -0.4469
  971TIP3    H2 2853   2.314   3.151   2.247 -1.6826  0.4856  0.7601
  972TIP3   OH2 2854   0.880   2.874   1.178 -0.3241  0.6078 -0.0456
  972TIP3    H1 2855   0.838   2.947   1.132 -1.7717  0.1202  0.4780
  972TIP3    H2 2856   0.815   2.845   1.242  1.2933  0.6228  1.6376
  973TIP3   OH2 2857   6.938   6.675   3.962  0.0023  0.4160  0.0912
  973TIP3    H1 2858   6.848   6.707   3.958 -0.2720 -0.2750  0.7257
  973TIP3    H2 2859   6.950   6.646   4.052  1.1326  1.2765  0.2276
  974TIP3   OH2 2860   4.424   6.065   1.342 -0.0874  0.1523  0.5129
  974TIP3    H1 2861   4.418   6.148   1.295  0.1628  0.1077  0.4013
  974TIP3    H2 2862   4.336   6.027   1.334 -0.3750  0.7007  1.1111
  975TIP3   OH2 2863   4.771   3.663   1.398 -0.6480  0.6745 -0.2747
  975TIP3    H1 2864   4.693   3.704   1.361 -1.8384 -0.7379  0.6035
  975TIP3    H2 2865   4.827   3.646   1.322 -1.8856  0.2698 -1.1161
  976TIP3   OH2 2866   6.404   6.215   6.561 -0.0311  0.3101  0.3161
  976TIP3    H1 2867   6.366   6.288   6.610  0.3725 -0.6063  2.0344
  976TIP3    H2 2868   6.347   6.141   6.580  0.6951 -0.2845  0.1992
  977TIP3   OH2 2869   1.625   1.774   6.861 -0.4441 -0.2553  0.1601
  977TIP3    H1 2870   1.537   1.798   6.891 -0.4586  1.8740 -1.4875
  977TIP3    H2 2871   1.611   1.701   6.802 -0.8926 -1.2336  1.4453
  978TIP3   OH2 2872   7.369   7.202   5.169 -0.6138 -0.1076  0.8058
  978TIP3    H1 2873   7.359   7.268   5.238  0.7821  0.6230  0.3308
  978TIP3    H2 2874   7.286   7.203   5.123 -0.7130  1.1117  0.9908
  979TIP3   OH2 2875   4.759   4.720   1.163 -0.4449 -0.0558 -0.5508
  979TIP3    H1 2876   4.851   4.705   1.141  0.2455  0.6416  1.7818
  979TIP3    H2 2877   4.736   4.801   1.118  0.0683 -0.2189 -1.1102
  980TIP3   OH2 2878   0.779   4.709   0.948  0.8417  0.3542  0.0489
  980TIP3    H1 2879   0.833   4.676   0.876  1.8890 -0.4779  1.2055
  980TIP3    H2 2880   0.690   4.709   0.913  1.0121 -2.3272 -0.4419
  981TIP3   OH2 2881   2.620   1.761   0.622 -0.2727 -0.3756  0.0396
  981TIP3    H1 2882   2.621   1.855   0.606  0.0283 -0.8544 -3.0203
  981TIP3    H2 2883   2.533   1.744   0.657 -0.9883  0.7926 -1.1095
  982TIP3   OH2 2884   3.629   4.015   0.467 -0.2104  0.2841 -0.0378
  982TIP3    H1 2885   3.650   4.014   0.374  2.1483  2.3407  0.4288
  982TIP3    H2 2886   3.543   4.056   0.472  0.6721  2.3400 -1.1559
  983TIP3   OH2 2887   5.386   6.166   6.534 -0.2006 -0.0402  0.1165
  983TIP3    H1 2888   5.313   6.110   6.508 -0.1334  0.1703 -0.5278
  983TIP3    H2 2889   5.406   6.217   6.456 -0.0779  0.6807  0.6207
  984TIP3   OH2 2890   3.484   3.802   1.136  0.2865  0.2906  0.2193
  984TIP3    H1 2891   3.545   3.734   1.166 -1.0067 -0.7390  0.5506
  984TIP3    H2 2892   3.502   3.877   1.192  0.5223 -0.3600  1.0234
  985TIP3   OH2 2893   4.681   2.872   1.857  0.5030  0.5167 -0.2530
  985TIP3    H1 2894   4.651   2.871   1.766 -1.2955 -0.5675  0.3275
  985TIP3    H2 2895   4.687   2.965   1.879 -3.2842  0.8111 -0.1670
  986TIP3   OH2 2896   3.250   3.755   3.142 -0.1569 -0.5507 -0.7114
  986TIP3    H1 2897   3.183   3.719   3.084 -1.2054 -0.2414  0.2942
  986TIP3    H2 2898   3.212   3.749   3.230  1.4195 -1.0328 -0.0378
  987TIP3   OH2 2899   2.355   4.720   0.714 -0.2766 -0.5202  0.4313
  987TIP3    H1 2900   2.271   4.698   0.754  0.3051 -1.7321  1.0094
  987TIP3    H2 2901   2.399   4.774   0.779 -0.0911 -0.9487  0.6648
  988TIP3   OH2 2902   3.077   3.772   0.893  0.6122  0.1926  0.5023
  988TIP3    H1 2903   3.119   3.700   0.846  1.7727 -0.0593  1.8849
  988TIP3    H2 2904   3.116   3.770   0.980 -1.4445  0.6991  1.4712
  989TIP3   OH2 2905   2.685   3.099   0.945 -0.5308 -0.0921 -0.0584
  989TIP3    H1 2906   2.633   3.023   0.920 -1.5303  0.2626  0.9278
  989TIP3    H2 2907   2.630   3.148   1.006  0.3674  1.0741 -0.1529
  990TIP3   OH2 2908   2.804   3.893   3.880 -0.2403  0.2154 -0.3799
  990TIP3    H1 2909   2.770   3.956   3.944 -1.3520 -0.2064 -0.5324
  990TIP3    H2 2910   2.890   3.869   3.913 -0.9238 -0.2333  1.1319
  991TIP3   OH2 2911   2.381   2.819   0.046  0.0160 -0.3296 -0.0554
  991TIP3    H1 2912   2.362   2.904   0.085 -1.4718  0.2868 -2.0064
  991TIP3    H2 2913   2.337   2.756   0.103 -1.1518  0.4473 -0.0733
  992TIP3   OH2 2914   4.751   3.615   2.758 -0.1806 -0.3297  0.3794
  992TIP3    H1 2915   4.683   3.584   2.698 -0.0182 -0.1676  0.1079
  992TIP3    H2 2916   4.829   3.566   2.733  0.0895  0.3189 -0.0839
  993TIP3   OH2 2917   3.818   2.133   0.967 -0.8430  0.2116 -0.4270
  993TIP3    H1 2918   3.897   2.095   0.927 -0.6600  0.7374 -0.5687
  993TIP3    H2 2919   3.772   2.058   1.005  1.9976  0.3470  3.6872
  994TIP3   OH2 2920   4.039   2.335   2.762  0.5733 -0.7695 -0.3491
  994TIP3    H1 2921   3.955   2.342   2.715 -0.5807 -0.8126  1.6630
  994TIP3    H2 2922   4.081   2.419   2.746 -2.1122  1.3024  2.7410
  995TIP3   OH2 2923   3.785   2.374   4.149  0.5717  0.3497 -0.4169
  995TIP3    H1 2924   3.795   2.369   4.244 -0.9761  3.9289  0.0162
  995TIP3    H2 2925   3.696   2.342   4.132 -0.5276  3.1918 -0.2097
  996TIP3   OH2 2926   4.112   4.479   2.361  0.2375 -0.2235 -0.0339
  996TIP3    H1 2927   4.068   4.407   2.406 -3.3891  1.1423 -1.2019
  996TIP3    H2 2928   4.110   4.453   2.268  3.8443 -1.0635  0.0366
  997TIP3   OH2 2929   3.370   0.896   1.664 -0.0532 -0.2110 -0.1812
  997TIP3    H1 2930   3.330   0.854   1.587  0.7143  0.8589 -1.1777
  997TIP3    H2 2931   3.347   0.988   1.657  0.0236 -0.0996  0.8854
  998TIP3   OH2 2932   1.322   0.752   6.347 -0.4022  0.1037  0.1427
  998TIP3    H1 2933   1.312   0.838   6.387 -2.3400  0.3422 -0.8177
  998TIP3    H2 2934   1.406   0.757   6.300  0.1104  1.0196  1.1361
  999TIP3   OH2 2935   2.240   2.321   1.465 -0.1025  0.3176 -0.4297
  999TIP3    H1 2936   2.273   2.386   1.528  0.2061 -0.4270  0.1785
  999TIP3    H2 2937   2.167   2.365   1.422  0.3776  1.2291 -0.3222
 1000TIP3   OH2 2938   1.339   1.051   6.963  0.4508  0.6807  0.0327
 1000TIP3    H1 2939   1.300   0.975   6.920 -0.8076  1.1329  0.3619
 1000TIP3    H2 2940   1.291   1.126   6.928 -0.5381  1.0653  2.1148
 1001TIP3   OH2 2941   3.285   2.639   0.204 -0.1608 -0.2287 -0.8064
 1001TIP3    H1 2942   3.247   2.710   0.153 -2.0288 -0.0716  0.7252
 1001TIP3    H2 2943   3.299   2.676   0.291  2.0456 -0.7682 -0.9148
 1002TIP3   OH2 2944   2.956   2.536   2.625  0.3553  0.4301  0.1192
 1002TIP3    H1 2945   2.926   2.524   2.715  2.2711  0.3568  0.7690
 1002TIP3    H2 2946   3.009   2.616   2.628  0.6268  0.2991 -0.8926
 1003TIP3   OH2 2947   5.077   4.738   1.282  0.1014  0.1390 -0.1688
 1003TIP3    H1 2948   5.154   4.793   1.293 -0.9217  1.5476 -0.0058
 1003TIP3    H2 2949   5.098   4.658   1.330  1.7099  0.2574 -0.6653
 1004TIP3   OH2 2950   4.351   5.656   1.920 -0.1091  0.2779  0.1796
 1004TIP3    H1 2951   4.392   5.742   1.929  0.6231 -0.1166  0.6439
 1004TIP3    H2 2952   4.314   5.638   2.006 -0.5997  0.2922 -0.0236
 1005TIP3   OH2 2953   5.434   7.725   5.143 -0.6756  0.5446 -0.1329
 1005TIP3    H1 2954   5.353   7.721   5.093  0.0353 -0.5297 -1.2444
 1005TIP3    H2 2955   5.497   7.674   5.091  0.3131  0.1178  1.4292
 1006TIP3   OH2 2956   5.230   4.552   1.710 -0.3542 -0.4228  0.0667
 1006TIP3    H1 2957   5.279   4.526   1.788 -0.3003  0.5824  0.3837
 1006TIP3    H2 2958   5.280   4.516   1.637  0.5515  0.0884  0.4143
 1007TIP3   OH2 2959   3.302   3.922   0.249 -0.1341 -0.2414  0.0328
 1007TIP3    H1 2960   3.281   3.963   0.166  1.6883 -1.6061 -1.1447
 1007TIP3    H2 2961   3.380   3.969   0.281 -1.2333  0.7367  1.3209
 1008TIP3   OH2 2962   5.414   7.980   6.193 -0.3494 -0.1325  0.4029
 1008TIP3    H1 2963   5.432   7.920   6.264 -0.2357 -1.7784 -0.9884
 1008TIP3    H2 2964   5.321   7.968   6.173  0.5437 -2.8883 -2.5517
 1009TIP3   OH2 2965   6.463   4.268   1.153  0.3059 -0.4269  0.1479
 1009TIP3    H1 2966   6.547   4.290   1.113 -0.2457 -0.6241 -1.1246
 1009TIP3    H2 2967   6.427   4.352   1.181  0.2603 -0.1870 -0.6264
 1010TIP3   OH2 2968   3.931   5.866   0.105 -0.0296 -0.2553 -0.4545
 1010TIP3    H1 2969   3.919   5.788   0.160 -1.9990 -0.4030 -1.0733
 1010TIP3    H2 2970   3.868   5.929   0.138  1.5606  1.1206  0.0405
 1011TIP3   OH2 2971   4.914   4.961   1.203 -0.0321 -0.2770  0.2932
 1011TIP3    H1 2972   4.954   4.881   1.237 -1.0458  0.0146  2.2603
 1011TIP3    H2 2973   4.950   5.031   1.258 -1.4661  0.2475  0.5899
 1012TIP3   OH2 2974   2.834   4.456   0.586 -0.0562  0.1770  0.1771
 1012TIP3    H1 2975   2.878   4.513   0.523  1.0670 -0.5091  0.3211
 1012TIP3    H2 2976   2.761   4.508   0.619  0.3965  1.1835 -0.3897
 1013TIP3   OH2 2977   3.657   1.866   1.267 -0.0517  0.3683  0.2971
 1013TIP3    H1 2978   3.574   1.876   1.219  0.0678 -0.1361 -0.0147
 1013TIP3    H2 2979   3.687   1.956   1.281  0.8088  0.4960 -2.1623
 1014TIP3   OH2 2980   2.610   0.708   0.112  0.0266 -0.1498 -0.1332
 1014TIP3    H1 2981   2.590   0.676   0.024 -1.6059 -1.1190  0.5536
 1014TIP3    H2 2982   2.545   0.778   0.127  0.7324  0.4724  0.0472
 1015TIP3   OH2 2983   6.197   7.924   6.089 -0.3912 -0.0626  0.3887
 1015TIP3    H1 2984   6.178   7.833   6.064  0.0942  0.0618 -0.4403
 1015TIP3    H2 2985   6.279   7.944   6.045  0.2954  0.2835  1.7975
 1016TIP3   OH2 2986   5.079   1.107   1.737  0.3708  0.4761 -0.3444
 1016TIP3    H1 2987   5.108   1.136   1.651 -0.3232 -1.7688 -1.3686
 1016TIP3    H2 2988   5.140   1.037   1.761 -1.0332 -0.7276 -0.2195
 1017TIP3   OH2 2989   3.478   3.989   2.263  0.2497  0.1339 -0.2435
 1017TIP3    H1 2990   3.394   3.953   2.232  0.5774  0.2512 -1.2946
 1017TIP3    H2 2991   3.465   4.003   2.357 -0.5453 -0.8743 -0.1909
 1018TIP3   OH2 2992   2.953   3.605   0.560  0.0189 -0.7950 -0.2420
 1018TIP3    H1 2993   2.928   3.516   0.584 -0.0839 -0.4116  1.1119
 1018TIP3    H2 2994   3.049   3.603   0.557 -0.0225 -1.2781 -1.5456
 1019TIP3   OH2 2995   2.430   2.644   1.275  0.5724  0.7154 -0.4378
 1019TIP3    H1 2996   2.444   2.702   1.350 -0.2911  0.6600 -0.2247
 1019TIP3    H2 2997   2.501   2.580   1.281  0.1085  0.2847  0.7557
 1020TIP3   OH2 2998   0.166   0.161   6.498  0.3052  0.6097  0.1483
 1020TIP3    H1 2999   0.171   0.246   6.454  0.7986  0.6231  0.2239
 1020TIP3    H2 3000   0.090   0.118   6.458 -1.3566  1.9944  1.7114
 1021TIP3   OH2 3001   5.687   6.622   6.275 -0.3609 -0.0086  0.1538
 1021TIP3    H1 3002   5.630   6.678   6.222  0.0454  0.6277  0.3916
 1021TIP3    H2 3003   5.633   6.545   6.295 -0.7015 -0.0060 -0.7263
 1022TIP3   OH2 3004   2.965   3.019   0.941  0.1028 -0.6468 -0.0324
 1022TIP3    H1 3005   2.874   3.040   0.921  0.3554 -0.5228 -1.0914
 1022TIP3    H2 3006   2.965   2.926   0.963 -0.2205 -0.7252 -0.3723
 1023TIP3   OH2 3007   2.474   4.278   0.920 -0.3279 -0.0238 -0.2639
 1023TIP3    H1 3008   2.381   4.269   0.902 -1.7259  5.5912  2.8363
 1023TIP3    H2 3009   2.482   4.267   1.015  1.6458  2.2704 -0.1079
 1024TIP3   OH2 3010   5.931   6.231   6.340 -0.0081 -0.1294  0.2705
 1024TIP3    H1 3011   5.913   6.205   6.431 -0.1314  0.9642  0.5653
 1024TIP3    H2 3012   5.999   6.169   6.311 -0.6221 -1.0742  0.7994
 1025TIP3   OH2 3013   3.064   1.988   0.229  0.1414 -0.2643  0.2586
 1025TIP3    H1 3014   3.000   2.052   0.199  2.0286  1.2096 -0.7853
 1025TIP3    H2 3015   3.078   1.930   0.153  0.1234 -0.5152  0.4450
 1026TIP3   OH2 3016   3.885   1.817   2.204  0.0074 -0.1688 -0.5026
 1026TIP3    H1 3017   3.913   1.734   2.241  1.2578 -0.7380 -2.6211
 1026TIP3    H2 3018   3.902   1.882   2.272  0.4882 -1.4317  0.5816
 1027TIP3   OH2 3019   3.238   2.585   0.517 -0.6359  0.0071  0.2377
 1027TIP3    H1 3020   3.158   2.586   0.571 -0.2962 -0.9958  0.7710
 1027TIP3    H2 3021   3.258   2.493   0.506  1.4131  0.2590  1.5363
 1028TIP3   OH2 3022   3.355   2.959   0.185  0.0112 -0.7333 -0.5904
 1028TIP3    H1 3023   3.310   2.917   0.259 -1.6967 -0.2425 -1.3240
 1028TIP3    H2 3024   3.316   2.918   0.108  0.2497  0.3006 -1.2557
 1029TIP3   OH2 3025   1.305   3.774   0.635 -0.3492 -0.0685  0.3139
 1029TIP3    H1 3026   1.334   3.866   0.637 -1.0257  0.1949 -1.0977
 1029TIP3    H2 3027   1.231   3.774   0.574 -1.0992 -1.3539  1.1938
 1030TIP3   OH2 3028   2.934   4.012   2.695 -0.1715  0.2557  0.9232
 1030TIP3    H1 3029   2.966   3.960   2.769 -0.7708 -1.4188  0.0277
 1030TIP3    H2 3030   2.927   3.949   2.623 -1.0264  1.5674 -0.1565
 1031TIP3   OH2 3031   2.629   3.233   0.403 -0.1751  0.8987 -0.5020
 1031TIP3    H1 3032   2.709   3.239   0.456  0.3907  0.0803 -1.2439
 1031TIP3    H2 3033   2.562   3.203   0.465  0.1295  1.4482  0.0948
 1032TIP3   OH2 3034   5.498   6.255   2.431 -0.0212 -0.2332  0.5241
 1032TIP3    H1 3035   5.470   6.343   2.407  1.2282  0.3435  1.1483
 1032TIP3    H2 3036   5.419   6.215   2.468 -0.8995  0.2149 -0.8104
 1033TIP3   OH2 3037   3.912   2.110   1.828  0.0089  0.1662  0.6650
 1033TIP3    H1 3038   3.887   2.018   1.839  1.3428 -0.3021 -0.1469
 1033TIP3    H2 3039   3.829   2.157   1.828 -0.6303 -0.9034  2.2674
 1034TIP3   OH2 3040   0.478   4.662   0.570 -0.0545 -0.2385 -0.1208
 1034TIP3    H1 3041   0.563   4.617   0.574  0.0529 -0.0207  0.1512
 1034TIP3    H2 3042   0.461   4.675   0.477  0.4524  0.1582 -0.1619
 1035TIP3   OH2 3043   1.680   1.431   6.491  0.0640 -0.8335 -0.2999
 1035TIP3    H1 3044   1.663   1.376   6.567  1.7186 -0.8323  0.0932
 1035TIP3    H2 3045   1.602   1.421   6.436  0.1681 -3.3245 -0.0756
 1036TIP3   OH2 3046   3.710   5.346   1.016  0.1091 -0.2123 -0.3723
 1036TIP3    H1 3047   3.644   5.294   0.970  1.7160 -1.2060 -1.5866
 1036TIP3    H2 3048   3.729   5.418   0.957  0.5803 -0.2842 -0.3113
 1037TIP3   OH2 3049   3.905   3.468   0.912 -0.2916  0.0290 -0.3229
 1037TIP3    H1 3050   3.876   3.420   0.990  1.1786  0.1328  0.3062
 1037TIP3    H2 3051   3.885   3.409   0.839 -0.4174 -0.6492  0.2529
 1038TIP3   OH2 3052   5.020   4.944   2.374  0.3447 -0.2058  0.1352
 1038TIP3    H1 3053   4.926   4.958   2.368  0.0126 -0.9335  3.1669
 1038TIP3    H2 3054   5.059   5.030   2.356 -0.9302  0.3349 -0.0510
 1039TIP3   OH2 3055   2.408   5.381   0.085 -0.6960  0.1107 -0.5156
 1039TIP3    H1 3056   2.371   5.296   0.107 -1.2619  0.5495  0.2593
 1039TIP3    H2 3057   2.400   5.433   0.165 -1.6760  1.3516 -1.3804
 1040TIP3   OH2 3058   0.897   3.579   0.674  0.6268 -0.1596 -0.1049
 1040TIP3    H1 3059   0.940   3.495   0.692  1.0459 -0.3161 -1.7725
 1040TIP3    H2 3060   0.820   3.578   0.730  1.4849 -0.9515  1.0904
 1041TIP3   OH2 3061   3.286   5.501   1.290 -0.7745  0.1491 -0.5524
 1041TIP3    H1 3062   3.344   5.472   1.219 -0.7118  1.1406 -0.9079
 1041TIP3    H2 3063   3.313   5.449   1.366 -0.4616 -0.5072 -1.1087
 1042TIP3   OH2 3064   5.143   4.608   5.714 -0.2067  0.2840  0.3230
 1042TIP3    H1 3065   5.188   4.678   5.667 -1.4548 -0.2602 -1.7692
 1042TIP3    H2 3066   5.210   4.541   5.727  0.5819  1.1772  0.8842
 1043TIP3   OH2 3067   8.090   5.336   6.504 -0.3466  0.1379 -0.4845
 1043TIP3    H1 3068   8.082   5.397   6.431 -2.3936  1.0849  0.5078
 1043TIP3    H2 3069   8.002   5.302   6.518  0.1826 -0.7039  0.9749
 1044TIP3   OH2 3070   2.745   2.737   1.152  0.6350 -0.0211 -0.5491
 1044TIP3    H1 3071   2.677   2.790   1.192  1.4884 -0.6026  1.7548
 1044TIP3    H2 3072   2.735   2.651   1.192  2.1941 -0.3354 -0.7890
 1045TIP3   OH2 3073   2.588   2.692   0.516  0.2652  0.2632  0.2291
 1045TIP3    H1 3074   2.582   2.738   0.600  1.6618 -2.2241  1.7570
 1045TIP3    H2 3075   2.518   2.627   0.519  0.3954  0.0865 -0.4861
 1046TIP3   OH2 3076   3.436   0.332   0.697  0.2272  0.4144 -0.0717
 1046TIP3    H1 3077   3.470   0.242   0.702 -0.5221  0.0022 -2.1582
 1046TIP3    H2 3078   3.342   0.321   0.684  0.0597  1.5146  0.2303
 1047TIP3   OH2 3079   3.812   1.117   0.925  0.4686 -0.0808 -0.3101
 1047TIP3    H1 3080   3.777   1.142   1.011  0.8636  1.0493 -0.4688
 1047TIP3    H2 3081   3.898   1.080   0.944  0.7154  0.5189 -0.2461
 1048TIP3   OH2 3082   4.413   0.544   1.654 -0.3974 -0.0996  0.0510
 1048TIP3    H1 3083   4.409   0.537   1.750 -0.6235 -0.0326  0.0475
 1048TIP3    H2 3084   4.506   0.534   1.633 -0.2774  0.4301  0.3225
 1049TIP3   OH2 3085   4.428   4.995   0.514  0.9554 -0.4309  0.0315
 1049TIP3    H1 3086   4.459   5.036   0.434 -0.0095  0.6900  0.2254
 1049TIP3    H2 3087   4.417   4.902   0.491  1.6253 -0.3063 -0.8365
 1050TIP3   OH2 3088   1.703   3.999   2.063  0.3325 -0.4269  0.1394
 1050TIP3    H1 3089   1.765   3.943   2.108  0.4732 -0.8252 -0.5458
 1050TIP3    H2 3090   1.675   3.949   1.986  1.3543  0.8819 -1.1320
 1051TIP3   OH2 3091   0.416   2.249   0.236 -0.6850 -0.0845  0.0678
 1051TIP3    H1 3092   0.414   2.154   0.226 -0.0143  0.0961 -1.9611
 1051TIP3    H2 3093   0.461   2.263   0.320  0.4619 -1.5322 -0.2842
 1052TIP3   OH2 3094   6.744   4.606   5.848 -0.2468 -0.7789  0.3781
 1052TIP3    H1 3095   6.747   4.532   5.788 -0.4522  0.5049 -1.2447
 1052TIP3    H2 3096   6.764   4.682   5.793 -0.2963  0.4012  1.9669
 1053TIP3   OH2 3097   1.564   1.427   5.932 -0.6949 -0.0294  0.4602
 1053TIP3    H1 3098   1.476   1.445   5.964 -1.8898 -3.6807 -0.5951
 1053TIP3    H2 3099   1.619   1.431   6.010 -2.1081  0.2196  1.4568
 1054TIP3   OH2 3100   6.027   3.047   0.965  0.6351 -0.0449 -0.1900
 1054TIP3    H1 3101   6.115   3.018   0.939  1.7007  2.9886 -0.1264
 1054TIP3    H2 3102   6.027   3.141   0.948 -3.5015 -0.3618 -2.6654
 1055TIP3   OH2 3103   0.700   1.959   0.841  0.0501 -0.4998  0.2343
 1055TIP3    H1 3104   0.687   1.865   0.838 -1.6521 -0.2670 -0.0378
 1055TIP3    H2 3105   0.688   1.988   0.751  2.3808 -0.2399 -0.0122
 1056TIP3   OH2 3106   4.540   3.492   2.619 -0.5919  0.2064 -0.2055
 1056TIP3    H1 3107   4.450   3.479   2.648 -0.0414 -0.4674  1.2364
 1056TIP3    H2 3108   4.560   3.415   2.566 -1.0771  0.6872 -1.1048
 1057TIP3   OH2 3109   0.057   0.730   6.539  0.5466  0.2758  0.0084
 1057TIP3    H1 3110  -0.016   0.751   6.480  0.2811 -1.2038 -0.1896
 1057TIP3    H2 3111   0.037   0.777   6.620  0.5592  1.7565 -0.8258
 1058TIP3   OH2 3112   2.781   2.262   3.148 -0.3008  0.0765  1.0027
 1058TIP3    H1 3113   2.874   2.283   3.137 -0.3879  0.0122  0.1241
 1058TIP3    H2 3114   2.781   2.184   3.204  0.1517  0.3477  1.3868
 1059TIP3   OH2 3115   2.527   4.405   1.817  0.2301  0.5755 -0.7585
 1059TIP3    H1 3116   2.459   4.364   1.869  1.2727  0.0259  0.1904
 1059TIP3    H2 3117   2.560   4.476   1.873  1.3602 -0.0252 -0.6507
 1060TIP3   OH2 3118   4.278   2.752   0.853 -0.0872  0.1443  0.5369
 1060TIP3    H1 3119   4.314   2.781   0.769 -0.8142  0.2562  0.2620
 1060TIP3    H2 3120   4.300   2.822   0.914  0.9391 -0.1940  0.5746
 1061TIP3   OH2 3121   4.429   6.787   6.747  0.5651 -0.3562  0.2007
 1061TIP3    H1 3122   4.505   6.803   6.691  0.8687 -0.4307  0.5903
 1061TIP3    H2 3123   4.448   6.835   6.828 -0.1079  0.1813  0.0411
 1062TIP3   OH2 3124   4.559   4.888   2.875  0.5752 -0.6178 -0.2637
 1062TIP3    H1 3125   4.483   4.929   2.835 -0.8708 -0.8358  2.1613
 1062TIP3    H2 3126   4.633   4.921   2.824 -0.7922  2.6745 -0.2815
 1063TIP3   OH2 3127   1.621   6.319   6.609 -0.4862  0.1597 -0.3276
 1063TIP3    H1 3128   1.690   6.368   6.564 -0.7511  0.2481 -0.6361
 1063TIP3    H2 3129   1.585   6.382   6.672  1.2856 -0.5764  1.5006
 1064TIP3   OH2 3130   5.085   4.083   0.855 -0.0409 -0.5971  0.3853
 1064TIP3    H1 3131   5.068   4.175   0.832 -0.0192 -0.3806  1.2285
 1064TIP3    H2 3132   5.017   4.034   0.808  0.8224 -0.2842 -1.2255
 1065TIP3   OH2 3133   6.260   5.801   6.202 -0.4801  0.0117 -0.0506
 1065TIP3    H1 3134   6.212   5.742   6.259 -0.0063 -0.1988  0.1272
 1065TIP3    H2 3135   6.352   5.785   6.221 -0.3439  0.8747  0.0713
 1066TIP3   OH2 3136   4.204   1.193   2.350  0.4928 -0.4099  0.1543
 1066TIP3    H1 3137   4.246   1.271   2.313  1.2019 -1.1043 -0.5064
 1066TIP3    H2 3138   4.121   1.225   2.385  1.6350  1.0295  1.6633
 1067TIP3   OH2 3139   2.137   1.021   6.810 -0.3441 -0.5139 -0.5104
 1067TIP3    H1 3140   2.178   0.977   6.885 -0.2708 -0.3543 -0.4575
 1067TIP3    H2 3141   2.156   1.114   6.823 -0.7794 -0.4311 -0.4514
 1068TIP3   OH2 3142   4.232   2.276   1.373 -0.0188 -0.6089  0.5446
 1068TIP3    H1 3143   4.274   2.362   1.374  1.6117 -1.3810  0.9636
 1068TIP3    H2 3144   4.141   2.293   1.396  0.2297  1.0285  0.3833
 1069TIP3   OH2 3145   5.077   1.864   0.898 -0.9720  0.1457 -0.2252
 1069TIP3    H1 3146   4.997   1.849   0.948 -1.8350  1.8137 -1.0628
 1069TIP3    H2 3147   5.069   1.954   0.866  0.4009 -0.2751 -1.8413
 1070TIP3   OH2 3148   4.165   5.952   0.383 -0.2919  0.1132 -0.0862
 1070TIP3    H1 3149   4.172   6.016   0.312  0.3943 -1.1987 -1.1962
 1070TIP3    H2 3150   4.081   5.973   0.425 -0.0949  1.7155 -0.4630
 1071TIP3   OH2 3151   7.577   5.189   2.757  0.1413 -0.3423  0.0924
 1071TIP3    H1 3152   7.531   5.272   2.772  0.6761 -0.2869  1.5862
 1071TIP3    H2 3153   7.510   5.122   2.771  0.5479 -0.2821  2.7234
 1072TIP3   OH2 3154   6.089   3.278   2.726  0.4377 -0.0974 -0.6763
 1072TIP3    H1 3155   6.143   3.199   2.717 -0.1475 -0.5585 -0.1437
 1072TIP3    H2 3156   6.009   3.248   2.768  1.0248  1.1279  1.4054
 1073TIP3   OH2 3157   4.659   4.902   1.428 -0.1326 -0.2339 -0.1051
 1073TIP3    H1 3158   4.681   4.867   1.341  0.3513  0.0219 -0.0863
 1073TIP3    H2 3159   4.663   4.827   1.486  0.7808 -0.1690 -0.0852
 1074TIP3   OH2 3160   3.124   3.471   2.142  0.5244  0.3298  0.3503
 1074TIP3    H1 3161   3.029   3.463   2.144  0.7276 -2.8271 -0.5233
 1074TIP3    H2 3162   3.152   3.454   2.232  0.4820 -2.2929 -0.1181
 1075TIP3   OH2 3163   3.053   2.166   1.468  0.0742  0.7872  0.2100
 1075TIP3    H1 3164   3.035   2.074   1.489  1.6826  0.3311 -0.3202
 1075TIP3    H2 3165   2.999   2.216   1.529 -1.6363 -0.5162 -0.2194
 1076TIP3   OH2 3166   3.123   4.077   1.052 -0.2931  0.2593 -0.6845
 1076TIP3    H1 3167   3.167   3.995   1.071 -0.6406  0.8500  3.0220
 1076TIP3    H2 3168   3.048   4.052   0.998  0.1714 -1.7285 -0.4449
 1077TIP3   OH2 3169   4.402   4.287   1.371  0.0790  0.4326 -0.1603
 1077TIP3    H1 3170   4.453   4.265   1.449  1.5921  2.1809 -0.6209
 1077TIP3    H2 3171   4.450   4.247   1.299 -0.3114  0.3682 -0.3867
 1078TIP3   OH2 3172   1.122   0.883   5.983 -0.2440 -0.0266  0.5371
 1078TIP3    H1 3173   1.149   0.801   6.025  0.1739 -0.3228 -0.2957
 1078TIP3    H2 3174   1.052   0.916   6.038  1.9755  0.8821  2.8927
 1079TIP3   OH2 3175   3.381   2.322   2.003 -0.0232 -0.0421 -0.5461
 1079TIP3    H1 3176   3.302   2.376   2.009 -1.0047 -1.3796 -1.1645
 1079TIP3    H2 3177   3.376   2.281   1.917  1.0258 -0.6429 -0.3350
 1080TIP3   OH2 3178   6.030   1.882   0.642 -0.2320 -0.4676  0.6588
 1080TIP3    H1 3179   6.002   1.974   0.636  0.1913 -0.2945  1.2634
 1080TIP3    H2 3180   6.007   1.856   0.731 -1.2272 -1.2473  0.1812
 1081TIP3   OH2 3181   7.851   5.547   2.691 -0.1014  0.9524 -1.0955
 1081TIP3    H1 3182   7.877   5.613   2.627  0.7512  1.6976 -0.0057
 1081TIP3    H2 3183   7.838   5.596   2.772 -1.9002  0.1230 -0.8681
 1082TIP3   OH2 3184   3.872   3.759   1.287 -0.0591 -0.3877  0.3703
 1082TIP3    H1 3185   3.899   3.727   1.201 -1.5803  0.5002 -0.4536
 1082TIP3    H2 3186   3.944   3.735   1.345  2.9856  2.7660 -1.9103
 1083TIP3   OH2 3187   2.768   2.727   2.003  0.2422 -0.0497 -0.0267
 1083TIP3    H1 3188   2.695   2.776   2.042 -0.1718 -1.2957  0.7780
 1083TIP3    H2 3189   2.846   2.774   2.031  0.0034 -1.4031  3.0150
 1084TIP3   OH2 3190   2.175   1.544   5.412 -0.3817  0.4949  0.2005
 1084TIP3    H1 3191   2.234   1.481   5.455 -1.6154 -1.7695 -1.3188
 1084TIP3    H2 3192   2.107   1.562   5.477 -0.2301 -0.0458  0.5107
 1085TIP3   OH2 3193   6.056   3.137   1.228  0.1217  0.1356  0.4063
 1085TIP3    H1 3194   6.031   3.118   1.138  0.7555  2.3605 -0.2698
 1085TIP3    H2 3195   6.121   3.206   1.221  1.6582 -1.0499  2.4853
 1086TIP3   OH2 3196   3.659   3.952   1.308 -0.6837  0.4047 -0.4437
 1086TIP3    H1 3197   3.640   3.986   1.395  2.2930  2.2424 -0.4193
 1086TIP3    H2 3198   3.736   3.896   1.320 -0.1556  0.7865 -1.9189
 1087TIP3   OH2 3199   4.553   3.885   0.692  0.6340  0.2339 -0.1341
 1087TIP3    H1 3200   4.465   3.867   0.726  0.4212  1.6955  0.1337
 1087TIP3    H2 3201   4.563   3.826   0.617  0.2790 -1.5121  1.1486
 1088TIP3   OH2 3202   6.957   2.719   0.578 -0.1146 -0.2089 -0.6323
 1088TIP3    H1 3203   7.032   2.753   0.626 -0.9128 -0.1076  0.5624
 1088TIP3    H2 3204   6.971   2.625   0.575 -0.0090 -0.2048 -0.2915
 1089TIP3   OH2 3205   3.124   4.299   0.291 -0.2206  0.2167 -0.1011
 1089TIP3    H1 3206   3.115   4.391   0.266 -1.9029 -0.1684 -0.9671
 1089TIP3    H2 3207   3.082   4.250   0.220 -0.1405 -1.1782  0.7858
 1090TIP3   OH2 3208   5.069   4.516   0.099 -0.2879 -0.5899 -0.0239
 1090TIP3    H1 3209   5.035   4.605   0.093 -0.0552 -0.4619  0.5553
 1090TIP3    H2 3210   5.122   4.505   0.020 -1.3431 -0.6514 -0.7343
 1091TIP3   OH2 3211   5.088   4.644   0.394  0.3111  0.2545  0.3397
 1091TIP3    H1 3212   5.104   4.632   0.301  0.6586  0.4524  0.3731
 1091TIP3    H2 3213   5.075   4.738   0.405  0.2384  0.2276  0.4845
 1092TIP3   OH2 3214   3.516   4.961   0.769 -0.4032 -0.0121 -0.1266
 1092TIP3    H1 3215   3.589   4.983   0.711 -0.3184 -0.5448 -0.2236
 1092TIP3    H2 3216   3.556   4.909   0.838 -0.2567  1.7550  1.1569
 1093TIP3   OH2 3217   4.921   4.675   0.898  0.1945  0.0203  0.0164
 1093TIP3    H1 3218   4.850   4.611   0.901 -0.0949  0.3586  0.4759
 1093TIP3    H2 3219   4.878   4.758   0.878  0.1534  0.6319  2.4308
 1094TIP3   OH2 3220   6.375   4.016   0.143  0.8134 -0.5098  0.0592
 1094TIP3    H1 3221   6.395   4.106   0.118  0.0561 -0.5300 -0.6297
 1094TIP3    H2 3222   6.300   3.991   0.089  1.0119 -1.5546  0.2442
 1095TIP3   OH2 3223   5.677   3.827   1.031 -0.2382 -0.3879 -0.1527
 1095TIP3    H1 3224   5.679   3.897   1.097 -0.2323 -0.3091 -0.2359
 1095TIP3    H2 3225   5.639   3.869   0.954  0.5289 -0.2514 -0.4579
 1096TIP3   OH2 3226   3.403   4.733   0.374 -0.2913  0.1655  0.2203
 1096TIP3    H1 3227   3.415   4.676   0.450 -0.8180 -0.1614  0.0595
 1096TIP3    H2 3228   3.424   4.678   0.299 -0.0920  0.3921  0.1077
 1097TIP3   OH2 3229   5.735   1.461   2.189  0.6748  0.4426 -0.0937
 1097TIP3    H1 3230   5.786   1.472   2.269 -0.8827  0.2334  0.9590
 1097TIP3    H2 3231   5.645   1.484   2.214 -0.1215 -1.1320 -1.3662
 1098TIP3   OH2 3232   3.480   2.358   1.699 -0.8994  0.3137  0.1187
 1098TIP3    H1 3233   3.452   2.447   1.679 -0.4551 -0.0849 -2.3590
 1098TIP3    H2 3234   3.564   2.369   1.744 -1.1420  1.1592  0.3770
 1099TIP3   OH2 3235   4.991   2.202   2.337  0.2413  0.5118 -0.2107
 1099TIP3    H1 3236   4.909   2.243   2.310 -0.8755 -1.1049  0.6052
 1099TIP3    H2 3237   4.975   2.176   2.428  2.9138  3.3272  1.1492
 1100TIP3   OH2 3238   4.604   2.139   1.123  0.0881 -0.3724 -0.1568
 1100TIP3    H1 3239   4.631   2.056   1.162  0.2775 -0.1289  0.2377
 1100TIP3    H2 3240   4.513   2.125   1.096 -0.5417 -0.0615  1.7542
 1101TIP3   OH2 3241   6.968   3.885   0.541 -0.6178  0.1407 -0.5274
 1101TIP3    H1 3242   6.910   3.855   0.470  1.2289 -0.5116 -1.8032
 1101TIP3    H2 3243   7.012   3.962   0.505 -1.1743  1.0241  0.6776
 1102TIP3   OH2 3244   3.315   2.506   1.341  0.2497 -0.8222 -0.1657
 1102TIP3    H1 3245   3.329   2.565   1.267 -1.8084 -1.1694 -0.8936
 1102TIP3    H2 3246   3.402   2.488   1.376  0.8102  4.5233  1.5827
 1103TIP3   OH2 3247   7.635   3.910   1.915 -0.3879 -0.2451 -0.3086
 1103TIP3    H1 3248   7.604   3.841   1.973 -0.6955  1.5611  1.7587
 1103TIP3    H2 3249   7.729   3.896   1.908 -0.0413  0.6347  2.2337
 1104TIP3   OH2 3250   4.165   2.641   1.599 -0.5060  0.3265 -0.1140
 1104TIP3    H1 3251   4.159   2.730   1.633 -3.1043 -0.1684  0.8418
 1104TIP3    H2 3252   4.083   2.599   1.626  0.0755 -1.9508 -1.7076
 1105TIP3   OH2 3253   4.412   2.800   2.695 -0.1324 -0.9393 -0.5145
 1105TIP3    H1 3254   4.355   2.849   2.754  1.3728  0.9956 -0.6424
 1105TIP3    H2 3255   4.439   2.723   2.746 -0.0023 -0.0353  0.7869
 1106TIP3   OH2 3256   3.224   2.390   0.130  0.4130 -0.5220 -0.6457
 1106TIP3    H1 3257   3.253   2.478   0.156  0.1778  0.2182 -2.7832
 1106TIP3    H2 3258   3.245   2.335   0.205  0.0154  1.4682  0.9661
 1107TIP3   OH2 3259   4.642   0.910   1.560 -0.7648  0.3559 -0.1804
 1107TIP3    H1 3260   4.622   0.901   1.654  0.9293  0.3549  0.1982
 1107TIP3    H2 3261   4.603   0.832   1.520 -0.8759 -0.0129  0.6320
 1108TIP3   OH2 3262   4.596   3.801   1.652  0.2260  0.7249 -0.0395
 1108TIP3    H1 3263   4.652   3.723   1.647  0.0676  0.5946  0.2359
 1108TIP3    H2 3264   4.545   3.789   1.732  0.4680  1.2874  0.2054
 1109TIP3   OH2 3265   4.730   3.137   1.820 -0.5612 -0.3731 -0.7699
 1109TIP3    H1 3266   4.761   3.123   1.731 -0.4476 -0.1965 -0.7579
 1109TIP3    H2 3267   4.636   3.156   1.810 -0.1705  1.5404 -1.0203
 1110TIP3   OH2 3268   7.315   3.182   0.497 -0.0744  0.5165 -0.1021
 1110TIP3    H1 3269   7.397   3.226   0.519  1.6578 -2.2322 -0.9129
 1110TIP3    H2 3270   7.251   3.253   0.492  2.1251  2.6540  1.0467
 1111TIP3   OH2 3271   1.367   1.911   6.496  0.1923  0.2057  0.4339
 1111TIP3    H1 3272   1.274   1.927   6.482 -0.2266 -2.6206 -0.4471
 1111TIP3    H2 3273   1.372   1.874   6.584  0.3839 -0.2603  0.2305
 1112TIP3   OH2 3274   8.472   0.111   6.291 -0.0343  0.1218 -0.1744
 1112TIP3    H1 3275   8.522   0.038   6.255  0.9257 -0.3514  1.9749
 1112TIP3    H2 3276   8.380   0.085   6.280  0.2896 -1.4153  0.5000
 1113TIP3   OH2 3277   5.793   6.979   6.869  0.8504 -0.7462  0.0985
 1113TIP3    H1 3278   5.758   6.994   6.781 -0.9737 -1.3426  0.7008
 1113TIP3    H2 3279   5.725   6.928   6.913  1.3020  0.4203  2.1851
 1114TIP3   OH2 3280   5.831   3.464   1.133 -0.2522  0.0836 -0.6723
 1114TIP3    H1 3281   5.832   3.375   1.100  0.6634 -0.4820  0.8214
 1114TIP3    H2 3282   5.899   3.509   1.084 -1.4572  0.2825 -2.2153
 1115TIP3   OH2 3283   5.634   4.921   0.969  0.2195  0.3577  0.1599
 1115TIP3    H1 3284   5.669   4.845   0.922 -2.1683  0.0308 -1.1716
 1115TIP3    H2 3285   5.539   4.913   0.960 -0.1673  2.0894  2.2773
 1116TIP3   OH2 3286   4.600   0.809   1.147 -0.6907  0.1932 -0.1395
 1116TIP3    H1 3287   4.671   0.745   1.142 -0.1975  0.7036  0.2321
 1116TIP3    H2 3288   4.521   0.757   1.139 -0.2846 -0.4372 -0.1247
 1117TIP3   OH2 3289   4.296   1.014   2.172 -0.2876  0.3325  0.3364
 1117TIP3    H1 3290   4.255   1.075   2.232 -0.8473 -0.5335  0.8523
 1117TIP3    H2 3291   4.265   0.928   2.201  1.1633 -0.2657  0.1766
 1118TIP3   OH2 3292   5.462   1.918   1.142 -0.2056 -0.4456  0.8455
 1118TIP3    H1 3293   5.388   1.870   1.178 -0.1841 -1.7760 -0.8518
 1118TIP3    H2 3294   5.443   1.928   1.049  0.3863  1.7571  0.9314
 1119TIP3   OH2 3295   6.128   1.558   1.702 -0.7998  0.1934 -0.5924
 1119TIP3    H1 3296   6.094   1.524   1.784 -0.3941 -0.5173 -0.7227
 1119TIP3    H2 3297   6.117   1.487   1.639 -0.4100  0.4638 -0.9733
 1120TIP3   OH2 3298   5.460   4.802   0.014 -0.0663  0.0100 -0.7559
 1120TIP3    H1 3299   5.490   4.735   0.075  1.0237  1.6840  0.5559
 1120TIP3    H2 3300   5.366   4.810   0.032  0.1395  0.0783  0.3035
 1121TIP3   OH2 3301   3.608   3.922   0.927  0.1973  0.3151 -0.1715
 1121TIP3    H1 3302   3.568   3.886   1.006  0.2972 -2.0570 -1.1539
 1121TIP3    H2 3303   3.534   3.952   0.874  0.0525  0.6743  0.2286
 1122TIP3   OH2 3304   6.557   5.287   1.977  0.1126 -0.6334 -0.3357
 1122TIP3    H1 3305   6.503   5.357   2.016  0.8610  0.0612 -0.5245
 1122TIP3    H2 3306   6.494   5.222   1.947 -0.5300 -0.8091  1.3092
 1123TIP3   OH2 3307   4.051   1.186   0.727 -0.0726 -0.0106 -0.6858
 1123TIP3    H1 3308   3.960   1.194   0.757  0.4969 -1.1102  1.4494
 1123TIP3    H2 3309   4.046   1.197   0.632 -2.3588  0.5431 -0.5335
 1124TIP3   OH2 3310   4.515   5.910   1.077 -0.0698 -0.4784 -0.4071
 1124TIP3    H1 3311   4.504   5.897   1.171  0.0599 -1.7493 -0.5583
 1124TIP3    H2 3312   4.446   5.971   1.052 -0.8076 -1.0066  0.3231
 1125TIP3   OH2 3313   6.759   6.495   1.613  0.4861  0.0993 -0.0218
 1125TIP3    H1 3314   6.696   6.425   1.633  0.0441  0.7731  1.0009
 1125TIP3    H2 3315   6.706   6.574   1.604  0.8331  0.0510 -2.6479
 1126TIP3   OH2 3316   3.396   1.412   6.033 -0.1325  0.2602  0.1646
 1126TIP3    H1 3317   3.314   1.405   6.082  0.6069 -2.2130  1.1179
 1126TIP3    H2 3318   3.462   1.433   6.099  0.5362 -1.0618 -0.0769
 1127TIP3   OH2 3319   2.473   1.973   5.961  0.1559  0.1924 -0.0482
 1127TIP3    H1 3320   2.503   1.926   6.039 -0.4231 -1.2661 -0.6811
 1127TIP3    H2 3321   2.520   1.931   5.888 -1.4898 -0.4374 -0.7821
 1128TIP3   OH2 3322   4.632   2.815   1.156 -0.1004  0.5999  0.1675
 1128TIP3    H1 3323   4.538   2.833   1.154  0.1229  1.8075  0.2979
 1128TIP3    H2 3324   4.641   2.742   1.217 -0.8672  1.0820  0.8687
 1129TIP3   OH2 3325   2.451   1.788   5.351 -0.2917 -0.6789  0.4936
 1129TIP3    H1 3326   2.378   1.831   5.307 -0.7011 -0.4218  1.4178
 1129TIP3    H2 3327   2.466   1.841   5.429  0.5906 -0.9926  0.5426
 1130TIP3   OH2 3328   3.836   4.191   2.272  0.0087  0.4840 -0.5058
 1130TIP3    H1 3329   3.915   4.177   2.219 -0.0895  0.0392 -0.5350
 1130TIP3    H2 3330   3.765   4.195   2.209 -0.1941 -0.7059 -0.3687
 1131TIP3   OH2 3331   1.508   2.648   6.234 -0.1588 -0.2963  0.6715
 1131TIP3    H1 3332   1.592   2.605   6.218  1.0383  1.4970  1.8422
 1131TIP3    H2 3333   1.445   2.577   6.242  1.0733 -1.6394 -1.1896
 1132TIP3   OH2 3334   6.145   2.511   1.259 -0.4560 -0.1074 -0.5661
 1132TIP3    H1 3335   6.097   2.520   1.176  0.2050  0.5247 -0.8862
 1132TIP3    H2 3336   6.172   2.600   1.281  0.0764 -0.3815 -0.0966
 1133TIP3   OH2 3337   2.775   3.926   1.264 -0.2093  0.0799 -0.1701
 1133TIP3    H1 3338   2.805   4.016   1.255 -0.6166  0.0204 -2.3660
 1133TIP3    H2 3339   2.791   3.886   1.178 -0.1635 -1.9033  0.7295
 1134TIP3   OH2 3340   5.348   5.606   0.528  0.1787 -0.1407 -0.5977
 1134TIP3    H1 3341   5.322   5.683   0.579  0.1283 -0.9791  0.6732
 1134TIP3    H2 3342   5.319   5.532   0.581  1.0894 -1.0428 -1.3524
 1135TIP3   OH2 3343   5.199   0.658   1.616  0.2757  0.1557 -0.6371
 1135TIP3    H1 3344   5.226   0.635   1.527 -1.3232 -0.0055 -1.0974
 1135TIP3    H2 3345   5.173   0.750   1.611  1.1849  0.4459 -0.0936
 1136TIP3   OH2 3346   6.485   4.276   1.767  0.3632  0.2103  0.4006
 1136TIP3    H1 3347   6.557   4.340   1.768 -2.1229  3.0886  0.9779
 1136TIP3    H2 3348   6.434   4.296   1.846 -1.9968 -0.6804 -0.8643
 1137TIP3   OH2 3349   3.893   3.712   2.130  0.1393  0.9261  0.0081
 1137TIP3    H1 3350   3.972   3.724   2.182  0.4097  0.9874 -0.4145
 1137TIP3    H2 3351   3.823   3.752   2.181  0.3060  0.4796  0.5900
 1138TIP3   OH2 3352   3.305   1.690   0.382  0.0895 -0.2341  0.3185
 1138TIP3    H1 3353   3.225   1.659   0.340 -1.1148  1.1241  1.5682
 1138TIP3    H2 3354   3.276   1.728   0.465  1.8153  1.8433  0.0322
 1139TIP3   OH2 3355   6.278   2.195   0.111 -0.4144 -0.1298  0.7247
 1139TIP3    H1 3356   6.289   2.233   0.199 -0.7382  0.3274  0.5721
 1139TIP3    H2 3357   6.203   2.136   0.120 -0.6497  0.1610  0.6792
 1140TIP3   OH2 3358   5.252   2.787   1.521  0.4142  0.0443  0.1411
 1140TIP3    H1 3359   5.220   2.854   1.580  0.1971  0.0457  0.0242
 1140TIP3    H2 3360   5.178   2.770   1.462  1.1675  1.2058 -1.1506
 1141TIP3   OH2 3361   6.940   1.073   1.380  0.4939 -0.0205  0.4364
 1141TIP3    H1 3362   6.982   1.018   1.446 -1.8470 -0.6674  1.4432
 1141TIP3    H2 3363   6.952   1.163   1.412  0.5946 -0.2461  1.0344
 1142TIP3   OH2 3364   3.153   2.516   1.994 -0.4428  0.3876 -0.1443
 1142TIP3    H1 3365   3.213   2.590   1.996  0.1940 -0.0410 -2.6338
 1142TIP3    H2 3366   3.103   2.524   2.075  0.0353  3.1713 -0.0897
 1143TIP3   OH2 3367   2.949   2.260   0.596 -0.4191  0.4621  0.1195
 1143TIP3    H1 3368   2.885   2.308   0.542 -1.1103 -0.2371  0.3108
 1143TIP3    H2 3369   2.948   2.305   0.680  0.0955  1.0818 -0.2000
 1144TIP3   OH2 3370   0.180   1.767   6.941 -0.7297 -0.0748 -0.1605
 1144TIP3    H1 3371   0.167   1.712   6.864 -0.5359 -0.2210 -0.0888
 1144TIP3    H2 3372   0.140   1.718   7.012 -1.1672  0.1958 -0.2227
 1145TIP3   OH2 3373   2.877   4.348   2.176 -0.4638  0.3569  0.1867
 1145TIP3    H1 3374   2.971   4.331   2.178 -0.4310  0.5217  0.0745
 1145TIP3    H2 3375   2.840   4.274   2.129 -0.6878 -1.0530  2.5187
 1146TIP3   OH2 3376   4.801   5.367   0.518  0.5329 -0.1567  0.1200
 1146TIP3    H1 3377   4.738   5.395   0.452 -0.9908  1.2463  2.0958
 1146TIP3    H2 3378   4.838   5.448   0.553 -0.4566 -0.7217  2.6171
 1147TIP3   OH2 3379   5.232   5.248   1.727  0.5250  0.3225  0.3056
 1147TIP3    H1 3380   5.164   5.181   1.732 -0.8501  1.5463 -1.0818
 1147TIP3    H2 3381   5.314   5.202   1.746 -0.3023 -1.8602 -1.2483
 1148TIP3   OH2 3382   4.162   3.178   2.756 -0.2494 -0.0832  0.6262
 1148TIP3    H1 3383   4.185   3.119   2.685 -1.5236  0.3910 -0.2068
 1148TIP3    H2 3384   4.102   3.128   2.811 -1.8566  0.6373 -0.4455
 1149TIP3   OH2 3385   6.440   6.264   4.637 -0.2610 -0.3303  0.2054
 1149TIP3    H1 3386   6.525   6.292   4.601  0.3960 -0.3784  1.7034
 1149TIP3    H2 3387   6.461   6.225   4.721 -1.7461 -0.6784  0.4249
 1150TIP3   OH2 3388   5.185   4.645   1.012 -0.4237  0.1103  0.0131
 1150TIP3    H1 3389   5.107   4.668   0.962 -0.0289 -0.6539 -0.9742
 1150TIP3    H2 3390   5.162   4.665   1.103 -1.0019  1.9387 -0.5055
 1151TIP3   OH2 3391   5.979   6.416   1.707  0.2353 -0.2958  0.7464
 1151TIP3    H1 3392   5.933   6.495   1.678  0.6189 -0.7297 -1.0848
 1151TIP3    H2 3393   5.910   6.350   1.714  0.3237 -0.5187 -0.4202
 1152TIP3   OH2 3394   4.815   2.859   1.457  0.5968  0.5586 -0.0191
 1152TIP3    H1 3395   4.785   2.770   1.440  0.0292  0.3757  1.8223
 1152TIP3    H2 3396   4.862   2.885   1.378  0.8244 -1.4021 -0.5394
 1153TIP3   OH2 3397   7.595   2.791   0.933 -0.1907 -0.3684  0.2220
 1153TIP3    H1 3398   7.575   2.704   0.968 -0.3358  0.1702  1.5201
 1153TIP3    H2 3399   7.639   2.774   0.850 -3.1437 -1.6424 -1.1731
 1154TIP3   OH2 3400   4.440   5.779   1.310 -0.2352 -0.0820 -0.2585
 1154TIP3    H1 3401   4.485   5.731   1.380  0.3290 -2.4037 -2.1703
 1154TIP3    H2 3402   4.361   5.813   1.352  2.3939  2.7670  2.7808
 1155TIP3   OH2 3403   3.551   0.078   0.778  0.6521 -0.5853  0.1215
 1155TIP3    H1 3404   3.543   0.006   0.715 -0.2361 -0.6259  0.2757
 1155TIP3    H2 3405   3.645   0.084   0.796  0.9287 -0.4616 -1.3342
 1156TIP3   OH2 3406   2.157   2.459   0.074  0.3310 -0.3225  0.6909
 1156TIP3    H1 3407   2.080   2.447   0.019  0.3260  0.6863  0.4639
 1156TIP3    H2 3408   2.145   2.396   0.146 -1.5747  0.9867  1.5813
 1157TIP3   OH2 3409   2.456   1.805   0.230 -0.1746  0.2634 -0.0446
 1157TIP3    H1 3410   2.532   1.847   0.270 -0.5090  0.6729  0.1652
 1157TIP3    H2 3411   2.384   1.824   0.290 -0.7409  1.1253 -0.9783
 1158TIP3   OH2 3412   6.381   3.888   0.389  0.2074  0.3590  0.6880
 1158TIP3    H1 3413   6.362   3.807   0.341  2.1239 -0.8190  1.8905
 1158TIP3    H2 3414   6.378   3.956   0.322  0.4659 -0.9569 -0.6918
 1159TIP3   OH2 3415   4.723   4.071   1.779 -1.0394  0.0133  0.0606
 1159TIP3    H1 3416   4.765   4.014   1.714 -0.5232 -1.7278  1.8440
 1159TIP3    H2 3417   4.713   4.014   1.856 -1.7165  1.9955  1.4569
 1160TIP3   OH2 3418   4.463   1.105   1.449  0.9749  0.0285 -0.8064
 1160TIP3    H1 3419   4.550   1.106   1.488  1.1170  0.1017 -1.1264
 1160TIP3    H2 3420   4.403   1.094   1.523  1.1585  1.6775 -0.4046
 1161TIP3   OH2 3421   4.698   0.857   1.889  1.0996 -0.0962  0.4664
 1161TIP3    H1 3422   4.622   0.816   1.931 -0.5354  1.6784 -0.6504
 1161TIP3    H2 3423   4.716   0.934   1.944  1.8880 -0.3318  0.5399
 1162TIP3   OH2 3424   5.878   4.067   0.946 -0.4411  0.1269  0.0173
 1162TIP3    H1 3425   5.833   4.134   0.895 -1.8429 -0.4897  0.4052
 1162TIP3    H2 3426   5.811   4.034   1.006  0.0832 -1.9678 -0.4984
 1163TIP3   OH2 3427   4.201   3.955   2.161 -0.0257 -0.1497 -0.2995
 1163TIP3    H1 3428   4.114   3.995   2.164  0.0539  0.0627 -0.7437
 1163TIP3    H2 3429   4.248   4.004   2.094 -0.4467 -1.9843 -2.0019
 1164TIP3   OH2 3430   2.535   3.734   1.427  0.1950 -0.6506  0.3127
 1164TIP3    H1 3431   2.525   3.816   1.379 -1.6518 -0.0638  1.6530
 1164TIP3    H2 3432   2.625   3.736   1.460  0.2650  0.6940  0.0678
 1165TIP3   OH2 3433   3.456   1.888   1.675  0.6142  0.1120 -0.6173
 1165TIP3    H1 3434   3.433   1.849   1.590  0.5235 -1.2375  0.0205
 1165TIP3    H2 3435   3.448   1.816   1.738  0.3020  1.2051  0.6067
 1166TIP3   OH2 3436   7.166   3.081   1.160 -0.3355  0.3824 -0.4640
 1166TIP3    H1 3437   7.138   3.156   1.211  1.5552  0.5390  0.3501
 1166TIP3    H2 3438   7.202   3.020   1.224  0.8516  0.0289 -1.4473
 1167TIP3   OH2 3439   5.265   6.420   0.773  0.3431  0.2395  0.2620
 1167TIP3    H1 3440   5.254   6.338   0.821 -0.4469  0.8432  1.1340
 1167TIP3    H2 3441   5.178   6.459   0.771  0.2449 -0.0038 -2.1279
 1168TIP3   OH2 3442   3.846   2.277   2.554 -0.1245  0.7128 -0.0886
 1168TIP3    H1 3443   3.815   2.366   2.568  1.1998  1.0780  0.6351
 1168TIP3    H2 3444   3.896   2.282   2.472  2.4010  1.3127  1.4399
 1169TIP3   OH2 3445   3.447   1.111   3.977  0.2756 -0.2023 -0.3482
 1169TIP3    H1 3446   3.528   1.111   3.927  0.0973 -1.9879 -0.6529
 1169TIP3    H2 3447   3.474   1.093   4.067  0.5281  2.3931  0.1509
 1170TIP3   OH2 3448   4.892   4.179   1.136 -0.0268 -0.6985  0.2643
 1170TIP3    H1 3449   4.860   4.267   1.157  0.9934 -0.1519 -0.4374
 1170TIP3    H2 3450   4.866   4.165   1.045 -2.8799 -2.3623  1.2689
 1171TIP3   OH2 3451   6.846   4.364   1.283  0.1463 -0.2378 -0.6773
 1171TIP3    H1 3452   6.797   4.435   1.324 -0.1799 -1.8745  1.8520
 1171TIP3    H2 3453   6.927   4.358   1.334  0.3496 -1.4079 -1.1167
 1172TIP3   OH2 3454   4.054   3.883   0.809  0.0846 -0.1021  0.0705
 1172TIP3    H1 3455   4.040   3.973   0.840  1.5147  0.3472 -0.5207
 1172TIP3    H2 3456   3.987   3.870   0.742  1.0646  1.2222 -1.1985
 1173TIP3   OH2 3457   5.227   4.894   1.596  0.2212 -0.2865 -0.2326
 1173TIP3    H1 3458   5.264   4.842   1.524  1.0128  1.1480 -0.8841
 1173TIP3    H2 3459   5.279   4.869   1.672  0.4077 -0.6682 -0.4808
 1174TIP3   OH2 3460   4.168   3.277   1.853  0.0590  0.2488  0.2001
 1174TIP3    H1 3461   4.128   3.339   1.914 -3.4955  0.4459 -2.2192
 1174TIP3    H2 3462   4.205   3.332   1.784 -1.7486 -0.2411 -1.1683
 1175TIP3   OH2 3463   4.756   3.693   2.154 -0.1265 -0.0299  0.1611
 1175TIP3    H1 3464   4.737   3.648   2.237 -1.0281 -0.2882 -0.1738
 1175TIP3    H2 3465   4.747   3.625   2.087 -1.7308  0.6716 -0.3762
 1176TIP3   OH2 3466   6.312   5.041   0.276 -0.1004 -0.2335  0.0568
 1176TIP3    H1 3467   6.225   5.011   0.248  0.2382  0.1104 -1.4105
 1176TIP3    H2 3468   6.362   5.048   0.194  0.8706  0.9806  0.7474
 1177TIP3   OH2 3469   5.340   4.885   0.954 -0.0805 -0.3798 -0.2347
 1177TIP3    H1 3470   5.313   4.799   0.922  0.1457 -0.1622 -1.0204
 1177TIP3    H2 3471   5.286   4.947   0.906  2.1041  0.0896 -2.2070
 1178TIP3   OH2 3472   0.860   6.725   6.864  0.0519 -0.2210 -0.2232
 1178TIP3    H1 3473   0.777   6.738   6.908  0.7555 -1.7499  1.6166
 1178TIP3    H2 3474   0.901   6.651   6.910  0.9849 -1.6189 -3.1724
 1179TIP3   OH2 3475   5.245   5.350   1.243  0.3062  0.0524 -0.6317
 1179TIP3    H1 3476   5.237   5.423   1.304  1.6246  0.5879 -1.1035
 1179TIP3    H2 3477   5.225   5.272   1.296  0.7302  0.5806  0.3094
 1180TIP3   OH2 3478   5.081   4.490   2.675  0.4279  0.4338  0.4711
 1180TIP3    H1 3479   5.035   4.426   2.729 -1.5430  1.1780 -0.2687
 1180TIP3    H2 3480   5.044   4.479   2.587  2.2136  0.5534 -0.3371
 1181TIP3   OH2 3481   7.499   4.522   0.832 -0.5699  0.9462  0.4559
 1181TIP3    H1 3482   7.414   4.546   0.795 -0.5721  0.5851  0.2167
 1181TIP3    H2 3483   7.478   4.466   0.907 -0.5390  0.7616  0.3260
 1182TIP3   OH2 3484   4.972   1.230   1.087 -0.2573 -0.3148  0.1969
 1182TIP3    H1 3485   4.973   1.142   1.048  1.3340  0.5911 -1.9148
 1182TIP3    H2 3486   5.057   1.237   1.131  0.4483  0.8678 -1.3226
 1183TIP3   OH2 3487   8.359   0.339   6.812  0.1423  0.1560 -0.6125
 1183TIP3    H1 3488   8.438   0.356   6.863 -1.1108  0.3260  1.3104
 1183TIP3    H2 3489   8.388   0.281   6.742  2.0434  0.5313 -0.1607
 1184TIP3   OH2 3490   2.768   3.672   2.982 -0.0869 -0.5901  0.4549
 1184TIP3    H1 3491   2.797   3.581   2.975 -1.2091 -0.8822 -0.7152
 1184TIP3    H2 3492   2.842   3.718   3.021  1.1912 -1.6667 -0.6268
 1185TIP3   OH2 3493   4.499   4.184   0.788  0.6395  0.3672  0.1216
 1185TIP3    H1 3494   4.475   4.224   0.704  0.5486  0.0567 -0.0021
 1185TIP3    H2 3495   4.510   4.091   0.767  1.6657  0.4610  0.2300
 1186TIP3   OH2 3496   2.478   3.492   1.122 -0.4995  0.3927  0.2294
 1186TIP3    H1 3497   2.518   3.565   1.170  1.1179 -0.2376 -0.1336
 1186TIP3    H2 3498   2.437   3.534   1.046  0.2246  0.9534  0.1417
 1187TIP3   OH2 3499   4.557   6.055   3.059 -0.7576  0.2562 -0.1239
 1187TIP3    H1 3500   4.625   6.097   3.006 -0.5681 -0.3675 -0.3865
 1187TIP3    H2 3501   4.605   6.018   3.134 -0.3827 -2.4389 -1.6142
 1188TIP3   OH2 3502   8.078   5.472   1.753  0.3283  0.2310  0.6442
 1188TIP3    H1 3503   8.128   5.503   1.828  0.5134  1.1822  0.1303
 1188TIP3    H2 3504   8.138   5.480   1.679 -0.6436  1.6312 -0.0194
 1189TIP3   OH2 3505   3.920   4.310   1.533  0.2046 -0.1640 -0.3364
 1189TIP3    H1 3506   3.990   4.359   1.489 -0.2588 -1.4505 -2.5455
 1189TIP3    H2 3507   3.947   4.218   1.526 -0.9932 -0.5570  0.1240
 1190TIP3   OH2 3508   3.268   3.247   0.446 -0.1729 -0.1160  0.3362
 1190TIP3    H1 3509   3.263   3.274   0.354  0.6977 -0.7958  0.0806
 1190TIP3    H2 3510   3.179   3.225   0.470 -0.8238  2.3180  0.3465
 1191TIP3   OH2 3511   2.233   1.552   5.118  0.1622  0.2040 -0.3997
 1191TIP3    H1 3512   2.199   1.463   5.117  0.9497 -0.0892 -1.8815
 1191TIP3    H2 3513   2.211   1.585   5.205 -0.1400 -1.4269  0.1550
 1192TIP3   OH2 3514   3.469   0.397   6.359  0.7105 -0.3370 -0.1599
 1192TIP3    H1 3515   3.565   0.400   6.366  0.6912 -0.8527  0.3944
 1192TIP3    H2 3516   3.438   0.431   6.443  0.4171 -0.9891  0.0024
 1193TIP3   OH2 3517   0.984   0.575   6.627 -0.0683 -0.0247 -0.0999
 1193TIP3    H1 3518   0.896   0.545   6.603 -0.3058  1.0506 -0.5672
 1193TIP3    H2 3519   1.003   0.647   6.567  0.7256  0.4099  0.6541
 1194TIP3   OH2 3520   2.748   1.383   6.054  0.1844  0.3630 -0.2779
 1194TIP3    H1 3521   2.776   1.293   6.039 -0.5219 -0.1142  1.0886
 1194TIP3    H2 3522   2.733   1.419   5.967  1.9906 -0.3472 -0.8903
 1195TIP3   OH2 3523   5.843   3.153   1.407  0.4567  0.0299  0.0454
 1195TIP3    H1 3524   5.898   3.162   1.329 -0.2298  0.8088 -0.3566
 1195TIP3    H2 3525   5.873   3.222   1.466 -1.1637  1.5390 -0.8383
 1196TIP3   OH2 3526   3.403   2.440   0.773 -0.5570  0.0230  0.3483
 1196TIP3    H1 3527   3.347   2.363   0.783  0.7740 -1.0654 -0.4284
 1196TIP3    H2 3528   3.434   2.436   0.683  0.5986  0.7269  0.7006
 1197TIP3   OH2 3529   3.411   1.993   0.713 -0.2984 -0.4197  0.4823
 1197TIP3    H1 3530   3.469   1.933   0.761  0.1762 -0.3653 -0.0156
 1197TIP3    H2 3531   3.458   2.011   0.632 -1.6000 -1.3910 -0.5105
 1198TIP3   OH2 3532   2.429   0.999   6.301 -0.2317  0.2689 -0.4068
 1198TIP3    H1 3533   2.343   1.032   6.277 -0.8531 -0.5115  0.7047
 1198TIP3    H2 3534   2.436   0.915   6.255 -0.1390  0.2448 -0.3494
 1199TIP3   OH2 3535   4.902   1.341   3.513 -0.0887  0.2108 -0.5665
 1199TIP3    H1 3536   4.808   1.339   3.496 -0.7429 -2.5255  2.7519
 1199TIP3    H2 3537   4.917   1.424   3.557 -1.0333  0.4999 -0.7926
 1200TIP3   OH2 3538   5.196   0.795   0.877  0.1739  0.9574  0.0014
 1200TIP3    H1 3539   5.196   0.831   0.966  1.2890  1.7733 -0.3197
 1200TIP3    H2 3540   5.195   0.872   0.820 -2.7207  0.4183 -0.7195
 1201TIP3   OH2 3541   2.105   3.292   0.715 -0.0402  0.3480  0.4401
 1201TIP3    H1 3542   2.121   3.206   0.675 -1.2108 -0.4932  1.7423
 1201TIP3    H2 3543   2.175   3.302   0.780 -0.3903  0.0177  0.8659
 1202TIP3   OH2 3544   2.459   3.152   0.596  0.1609  0.4083 -0.0258
 1202TIP3    H1 3545   2.486   3.215   0.663  2.5167 -0.8926  0.2663
 1202TIP3    H2 3546   2.407   3.087   0.643  1.6886 -0.4221  0.5471
 1203TIP3   OH2 3547   5.292   1.247   3.733 -0.1254  0.5362  0.9108
 1203TIP3    H1 3548   5.306   1.176   3.796 -0.2675  0.5787  0.9888
 1203TIP3    H2 3549   5.207   1.229   3.695  0.0871  0.3443  0.5168
 1204TIP3   OH2 3550   4.452   2.211   1.785 -0.9302 -0.4758  0.1343
 1204TIP3    H1 3551   4.492   2.258   1.711 -2.1606  2.7860  1.4224
 1204TIP3    H2 3552   4.525   2.166   1.827  0.4315  0.7288 -0.8734
 1205TIP3   OH2 3553   6.155   2.323   1.706 -0.6159  0.2610  0.2733
 1205TIP3    H1 3554   6.157   2.242   1.755  0.0907  1.3853  2.1437
 1205TIP3    H2 3555   6.172   2.392   1.771  2.0547  1.6483 -1.7751
 1206TIP3   OH2 3556   5.799   4.915   1.183  0.0952 -0.5380 -0.4130
 1206TIP3    H1 3557   5.736   4.942   1.116  0.6420 -1.1283 -1.1777
 1206TIP3    H2 3558   5.864   4.986   1.183 -0.2041 -0.2620 -0.1054
 1207TIP3   OH2 3559   8.153   5.122   0.146  1.1960 -0.0570 -0.2660
 1207TIP3    H1 3560   8.168   5.126   0.051  1.4594  2.9960 -0.1620
 1207TIP3    H2 3561   8.062   5.096   0.155  1.6073 -1.9665 -1.3005
 1208TIP3   OH2 3562   1.305   6.719   5.848  0.3801  0.1831 -0.0507
 1208TIP3    H1 3563   1.258   6.635   5.846  1.7047 -0.5747 -0.4047
 1208TIP3    H2 3564   1.328   6.732   5.940 -2.4292  1.6814  0.5004
 1209TIP3   OH2 3565   4.248   3.006   1.346  0.1044 -0.1706 -0.3660
 1209TIP3    H1 3566   4.190   3.066   1.392 -0.8736  0.4296 -2.3306
 1209TIP3    H2 3567   4.336   3.041   1.361 -0.4277  1.5723 -1.2151
 1210TIP3   OH2 3568   7.099   5.960   1.135  0.3650  0.0160  0.7288
 1210TIP3    H1 3569   7.046   6.036   1.111 -0.1374 -0.0562  1.5900
 1210TIP3    H2 3570   7.056   5.886   1.092  0.0187  0.0181  1.0724
 1211TIP3   OH2 3571   6.120   4.172   0.631  0.8130 -0.1285 -0.2967
 1211TIP3    H1 3572   6.123   4.207   0.720  0.1231  1.0464 -0.7238
 1211TIP3    H2 3573   6.192   4.109   0.628  1.8672  0.9831  0.6098
 1212TIP3   OH2 3574   2.702   0.929   6.724 -0.1420  0.6004  0.1762
 1212TIP3    H1 3575   2.670   0.873   6.795  1.3592  0.7542  0.9958
 1212TIP3    H2 3576   2.768   0.875   6.679 -3.3488 -0.7475 -3.1900
 1213TIP3   OH2 3577   6.800   4.669   2.573  0.3281 -0.0904 -0.0025
 1213TIP3    H1 3578   6.844   4.696   2.654 -0.3967 -0.9129  0.6928
 1213TIP3    H2 3579   6.732   4.608   2.603  0.6021 -1.0626 -1.3164
 1214TIP3   OH2 3580   4.225   4.594   2.077  0.1328  0.3530 -0.2022
 1214TIP3    H1 3581   4.195   4.672   2.030  0.1510  0.8414  0.5734
 1214TIP3    H2 3582   4.153   4.532   2.070 -1.6010  1.8952  2.5647
 1215TIP3   OH2 3583   5.433   7.677   1.859  0.0608  0.1252  0.0494
 1215TIP3    H1 3584   5.521   7.715   1.851  0.6883 -1.5296 -1.5137
 1215TIP3    H2 3585   5.444   7.605   1.921 -0.3825  0.4904  0.5460
 1216TIP3   OH2 3586   7.285   4.778   0.506 -0.1707  0.4443 -0.3028
 1216TIP3    H1 3587   7.282   4.830   0.586 -0.5604  1.1284 -0.7659
 1216TIP3    H2 3588   7.193   4.766   0.482 -0.0506  0.2705 -0.6734
 1217TIP3   OH2 3589   3.824   0.941   5.941  0.1131  0.5508  0.1386
 1217TIP3    H1 3590   3.880   0.975   6.011  1.1665  0.4920 -0.6657
 1217TIP3    H2 3591   3.735   0.956   5.973  0.5553 -1.1248  2.2922
 1218TIP3   OH2 3592   7.394   4.632   1.599 -0.3978  0.1716  0.0912
 1218TIP3    H1 3593   7.458   4.704   1.604 -0.0196 -0.2310  1.3298
 1218TIP3    H2 3594   7.415   4.577   1.675 -2.3330  0.1390  0.6163
 1219TIP3   OH2 3595   4.281   3.871   3.012 -0.1279  0.4285 -0.1434
 1219TIP3    H1 3596   4.202   3.894   2.964  0.3640 -1.7859 -2.1533
 1219TIP3    H2 3597   4.351   3.876   2.946  0.7469 -1.5198  0.5890
 1220TIP3   OH2 3598   6.833   5.086   1.604  0.4147  0.0582 -0.2169
 1220TIP3    H1 3599   6.821   4.991   1.596 -1.9465  0.2425  0.8620
 1220TIP3    H2 3600   6.854   5.099   1.697 -0.4738  0.7150 -0.1109
 1221TIP3   OH2 3601   4.921   3.585   1.185 -0.0448  0.4091 -0.4047
 1221TIP3    H1 3602   4.968   3.506   1.212 -0.3223 -0.0299 -1.1949
 1221TIP3    H2 3603   4.971   3.618   1.111  0.1384  1.0531 -0.0011
 1222TIP3   OH2 3604   4.884   2.125   6.472  0.0024 -0.6209  0.2605
 1222TIP3    H1 3605   4.879   2.048   6.529  1.7951 -1.4514 -0.6567
 1222TIP3    H2 3606   4.879   2.089   6.384 -1.7309  0.5655 -0.1333
 1223TIP3   OH2 3607   4.960   2.196   1.971 -0.4414 -0.3300 -0.7475
 1223TIP3    H1 3608   5.042   2.167   2.012 -0.4107  0.8318  0.0497
 1223TIP3    H2 3609   4.913   2.115   1.953 -1.2305 -0.8888  3.2017
 1224TIP3   OH2 3610   5.300   0.031   6.085 -0.0568 -0.2465  0.3994
 1224TIP3    H1 3611   5.223   0.085   6.100 -0.3978 -0.4619 -0.5249
 1224TIP3    H2 3612   5.284  -0.049   6.135 -0.2078 -0.0860  0.6067
 1225TIP3   OH2 3613   7.758   5.083   2.583 -0.0180 -0.6629  0.5617
 1225TIP3    H1 3614   7.800   5.167   2.562 -1.0717 -0.2076  0.2906
 1225TIP3    H2 3615   7.687   5.106   2.643 -0.4427 -1.3463  0.3213
 1226TIP3   OH2 3616   2.195   7.230   5.452  0.0212  0.0274  0.4653
 1226TIP3    H1 3617   2.200   7.215   5.546  0.3606  1.6386  0.7277
 1226TIP3    H2 3618   2.150   7.315   5.444  3.1882  1.6633 -0.6563
 1227TIP3   OH2 3619   4.357   0.588   5.507  0.3507 -0.5433  0.2614
 1227TIP3    H1 3620   4.332   0.510   5.555  1.1259  0.3466  2.1638
 1227TIP3    H2 3621   4.312   0.660   5.552 -0.1616  0.1462 -1.3094
 1228TIP3   OH2 3622   7.305   4.497   0.508 -0.0249 -0.7802 -0.5656
 1228TIP3    H1 3623   7.286   4.495   0.414 -1.5697  0.1359 -0.2793
 1228TIP3    H2 3624   7.304   4.590   0.531  3.2383 -0.7715 -0.1846
 1229TIP3   OH2 3625   5.489   4.626   0.217  0.0722  0.5886  0.8002
 1229TIP3    H1 3626   5.469   4.681   0.293 -3.3749  1.2133 -0.4741
 1229TIP3    H2 3627   5.447   4.542   0.237 -0.2809  0.5438 -0.1476
 1230TIP3   OH2 3628   7.938   2.806   0.632  0.6913 -0.1349 -0.5314
 1230TIP3    H1 3629   7.903   2.717   0.633  0.8091 -0.1750  0.6898
 1230TIP3    H2 3630   8.017   2.800   0.579  1.0324 -0.8853  0.0584
 1231TIP3   OH2 3631   6.855   3.693   0.178  0.3322  0.0762 -0.3501
 1231TIP3    H1 3632   6.946   3.669   0.191 -0.0117 -0.7789  0.5555
 1231TIP3    H2 3633   6.821   3.626   0.118  0.0973 -0.0807 -0.0446
 1232TIP3   OH2 3634   1.866   7.232   5.636 -0.0762 -0.4875 -0.1645
 1232TIP3    H1 3635   1.815   7.263   5.561  0.0096 -1.3431 -0.5908
 1232TIP3    H2 3636   1.929   7.170   5.597 -0.3957 -1.3515  0.6797
 1233TIP3   OH2 3637   2.761   7.080   6.043  0.1028  1.1014  0.1018
 1233TIP3    H1 3638   2.837   7.072   6.102 -1.5023  0.3559  2.1344
 1233TIP3    H2 3639   2.686   7.055   6.098 -1.4000 -0.0568 -2.4222
 1234TIP3   OH2 3640   4.590   1.709   0.804  0.1012 -0.8990 -0.1778
 1234TIP3    H1 3641   4.652   1.781   0.793  0.0746 -1.0493 -1.4248
 1234TIP3    H2 3642   4.618   1.665   0.885 -0.3855  0.9863  1.0482
 1235TIP3   OH2 3643   7.245   2.651   1.176 -0.0115 -0.4925  1.0105
 1235TIP3    H1 3644   7.314   2.587   1.160 -0.9479 -1.3567  0.3206
 1235TIP3    H2 3645   7.164   2.605   1.154 -0.8098  0.5077  1.7782
 1236TIP3   OH2 3646   4.712   1.902   5.140  0.2090  0.1138  0.0659
 1236TIP3    H1 3647   4.745   1.984   5.102  0.6216 -0.6058 -1.1310
 1236TIP3    H2 3648   4.639   1.878   5.083 -0.2408 -0.0949  0.7239
 1237TIP3   OH2 3649   1.084   0.539   6.900  0.3218  0.6919  0.2755
 1237TIP3    H1 3650   1.177   0.548   6.881  0.2539  0.8399  0.0110
 1237TIP3    H2 3651   1.041   0.550   6.815 -0.0583  2.6201  0.6821
 1238TIP3   OH2 3652   6.887   3.688   1.906  0.1309 -0.2430 -0.0550
 1238TIP3    H1 3653   6.923   3.602   1.889  0.8107  0.0108  0.0966
 1238TIP3    H2 3654   6.931   3.718   1.985  0.8326  0.7624 -0.8037
 1239TIP3   OH2 3655   2.850   0.410   6.027 -0.1700 -1.0425 -0.3855
 1239TIP3    H1 3656   2.813   0.381   5.943 -1.9356 -0.2635  0.0966
 1239TIP3    H2 3657   2.862   0.504   6.017 -1.2204 -0.8038  0.5368
 1240TIP3   OH2 3658   8.296   2.874   0.967  0.7004  0.0384  0.8567
 1240TIP3    H1 3659   8.305   2.882   0.872 -0.3918  0.2930  0.7697
 1240TIP3    H2 3660   8.267   2.784   0.980 -2.3276  0.9398  0.6960
 1241TIP3   OH2 3661   5.946   2.273   0.840  0.1727  0.4935 -0.2364
 1241TIP3    H1 3662   5.929   2.220   0.919 -0.1633  0.8850 -0.0405
 1241TIP3    H2 3663   5.878   2.340   0.843  0.2628  0.6035 -0.7796
 1242TIP3   OH2 3664   0.651   5.288   2.211  0.3640 -0.7245 -0.0376
 1242TIP3    H1 3665   0.636   5.319   2.300  0.6563 -1.8675  0.4184
 1242TIP3    H2 3666   0.563   5.282   2.172  0.3997  1.8896 -0.5607
 1243TIP3   OH2 3667   3.205   6.596   6.184  0.4559 -0.4944 -0.3177
 1243TIP3    H1 3668   3.246   6.664   6.237  1.9900 -1.2853 -0.4310
 1243TIP3    H2 3669   3.278   6.538   6.160 -0.6723 -1.6754 -0.9598
 1244TIP3   OH2 3670   8.026   7.110   0.735  0.7189  0.3828 -0.1592
 1244TIP3    H1 3671   8.001   7.051   0.807  0.3916 -0.4443 -0.9363
 1244TIP3    H2 3672   7.969   7.185   0.744 -0.9025 -0.7348 -0.9082
 1245TIP3   OH2 3673   2.770   7.043   5.061  0.0184  0.2843 -0.3582
 1245TIP3    H1 3674   2.752   7.081   4.975 -0.0234 -0.5431 -0.7183
 1245TIP3    H2 3675   2.862   7.019   5.058  0.8610  3.0583  0.9271
 1246TIP3   OH2 3676   2.912   3.081   2.001 -0.7605  0.1396  0.0019
 1246TIP3    H1 3677   2.965   3.002   2.007  0.1413  0.7065 -0.3968
 1246TIP3    H2 3678   2.825   3.054   2.030 -0.2571 -0.8044  0.6539
 1247TIP3   OH2 3679   7.957   2.158   1.599 -0.2925  0.2580 -0.0738
 1247TIP3    H1 3680   7.958   2.240   1.549 -1.0795  1.0966  1.2393
 1247TIP3    H2 3681   7.927   2.184   1.686 -0.0501 -1.3579  0.5058
 1248TIP3   OH2 3682   0.730   5.728   1.871 -0.7447 -0.1129 -0.0850
 1248TIP3    H1 3683   0.724   5.824   1.877 -1.0571 -0.0349 -1.4990
 1248TIP3    H2 3684   0.649   5.702   1.828 -0.6250 -1.0133  0.2390
 1249TIP3   OH2 3685   2.122   4.968   3.662 -0.1938  0.2028 -0.0746
 1249TIP3    H1 3686   2.148   5.061   3.660  0.2505  0.0633 -1.3392
 1249TIP3    H2 3687   2.118   4.943   3.570  1.4446 -1.5280  0.2994
 1250TIP3   OH2 3688   6.115   3.745   6.513  0.1278  0.0978 -0.0730
 1250TIP3    H1 3689   6.087   3.677   6.575  0.0765  0.0044 -0.1989
 1250TIP3    H2 3690   6.033   3.780   6.477  0.1988 -0.7284 -1.0356
 1251TIP3   OH2 3691   7.717   4.132   2.406 -0.1049 -0.0614  0.2702
 1251TIP3    H1 3692   7.731   4.058   2.347 -1.4870 -0.2445  0.1421
 1251TIP3    H2 3693   7.689   4.092   2.489  0.6567  0.2445  0.6756
 1252TIP3   OH2 3694   7.811   5.056   0.163  0.2014  0.3009  0.4291
 1252TIP3    H1 3695   7.768   5.140   0.178 -1.0288 -0.1606 -0.4193
 1252TIP3    H2 3696   7.792   5.005   0.242  0.4164  0.5936  0.6729
 1253TIP3   OH2 3697   6.909   4.814   2.824 -0.1512  0.7656  0.1146
 1253TIP3    H1 3698   7.005   4.812   2.821 -0.1007  0.9193  1.4270
 1253TIP3    H2 3699   6.887   4.782   2.911 -1.3194  0.2148 -0.3794
 1254TIP3   OH2 3700   7.613   5.702   3.206 -0.4690 -0.3401 -0.3104
 1254TIP3    H1 3701   7.574   5.629   3.159 -0.7419 -0.4145  0.0201
 1254TIP3    H2 3702   7.547   5.724   3.273  0.4377 -1.0343  0.8237
 1255TIP3   OH2 3703   8.171   3.146   0.806  0.6274 -0.0919 -1.0566
 1255TIP3    H1 3704   8.113   3.184   0.741  0.1831 -1.0497 -1.2384
 1255TIP3    H2 3705   8.224   3.083   0.756 -0.0502 -1.1846 -0.4162
 1256TIP3   OH2 3706   1.695   2.475   1.914 -0.3063 -0.3827  0.3516
 1256TIP3    H1 3707   1.727   2.402   1.967  0.2248 -0.8117 -0.5485
 1256TIP3    H2 3708   1.666   2.434   1.832 -4.5921 -0.2286  1.6584
 1257TIP3   OH2 3709   8.452   6.826   0.306  0.0854 -0.5019  0.6069
 1257TIP3    H1 3710   8.368   6.865   0.281  0.1622 -0.7940 -0.1330
 1257TIP3    H2 3711   8.437   6.791   0.394 -0.1409  0.7137  1.0594
 1258TIP3   OH2 3712   1.102   6.089   0.461 -0.4168  0.0373 -0.1890
 1258TIP3    H1 3713   1.149   6.019   0.507 -0.3367  1.1143  1.4066
 1258TIP3    H2 3714   1.172   6.146   0.427 -0.5247  0.8193  0.8819
 1259TIP3   OH2 3715   8.379   4.334   3.524  0.2022 -0.0607  0.1277
 1259TIP3    H1 3716   8.326   4.290   3.457  0.8301 -0.8030  0.1082
 1259TIP3    H2 3717   8.430   4.398   3.475 -0.8205  0.7905  0.1749
 1260TIP3   OH2 3718   0.418   6.102   0.676 -0.3446 -0.4731 -0.3442
 1260TIP3    H1 3719   0.430   6.009   0.694  1.0213 -0.2633 -0.0626
 1260TIP3    H2 3720   0.328   6.121   0.704  0.1704 -1.1759  1.9567
 1261TIP3   OH2 3721   7.544   3.987   1.663 -0.0269 -0.3564  0.2903
 1261TIP3    H1 3722   7.561   3.943   1.746 -0.5971  0.7786  1.0110
 1261TIP3    H2 3723   7.597   4.067   1.667  1.6046 -1.3206 -1.3306
 1262TIP3   OH2 3724   7.848   4.976   1.046 -0.6537  0.1248  0.7086
 1262TIP3    H1 3725   7.815   4.896   1.005 -0.4116  0.9986 -1.2524
 1262TIP3    H2 3726   7.769   5.025   1.070 -0.8071 -0.7946  2.1726
 1263TIP3   OH2 3727   7.954   5.421   2.181 -0.0935 -0.3147 -0.2207
 1263TIP3    H1 3728   7.933   5.513   2.162  1.0727  0.1401  0.6565
 1263TIP3    H2 3729   7.882   5.390   2.235  0.1909  0.4889  0.6258
 1264TIP3   OH2 3730   4.709   3.830   6.710  1.0467 -0.1221  0.1278
 1264TIP3    H1 3731   4.782   3.825   6.649  0.6547  3.8052 -0.8012
 1264TIP3    H2 3732   4.742   3.884   6.782 -0.4344  0.3372  0.4776
 1265TIP3   OH2 3733   7.699   4.304   2.175 -0.4727  0.1304 -0.7426
 1265TIP3    H1 3734   7.739   4.255   2.246  0.1734  2.0497  0.2602
 1265TIP3    H2 3735   7.656   4.378   2.218 -3.5791 -0.9092 -1.9791
 1266TIP3   OH2 3736   7.473   3.568   3.214  0.2286  0.2051  0.9264
 1266TIP3    H1 3737   7.409   3.556   3.144  1.3250  1.2895 -0.2831
 1266TIP3    H2 3738   7.425   3.615   3.282 -1.1058 -1.6721  1.3205
 1267TIP3   OH2 3739   2.402   4.103   2.440  0.2940  0.2532 -0.2591
 1267TIP3    H1 3740   2.491   4.086   2.408  0.9379 -0.7123  1.9270
 1267TIP3    H2 3741   2.365   4.016   2.455 -0.6539  0.6648 -0.1825
 1268TIP3   OH2 3742   7.020   5.800   1.523  0.1016  0.1407  0.2865
 1268TIP3    H1 3743   6.958   5.747   1.572  0.0185 -0.7821 -0.7772
 1268TIP3    H2 3744   7.106   5.774   1.556  0.0025  0.1480  0.5456
 1269TIP3   OH2 3745   4.784   0.508   6.871 -0.3208  0.4260  0.8616
 1269TIP3    H1 3746   4.773   0.592   6.915  1.2973  0.3248  1.5070
 1269TIP3    H2 3747   4.809   0.531   6.781  0.1985  0.6562  1.0579
 1270TIP3   OH2 3748   0.522   3.187   3.493 -0.0486  0.0096 -0.2913
 1270TIP3    H1 3749   0.533   3.098   3.459 -0.2692 -0.1751  0.1156
 1270TIP3    H2 3750   0.427   3.201   3.494 -0.2151 -0.9307  2.6160
 1271TIP3   OH2 3751   5.146   5.646   1.974 -0.3546  0.4855 -0.0514
 1271TIP3    H1 3752   5.226   5.690   2.002 -0.0493 -0.1223  0.0420
 1271TIP3    H2 3753   5.168   5.608   1.889 -0.8948  1.2655 -0.5537
 1272TIP3   OH2 3754   6.882   4.356   2.721 -0.2814 -0.0603 -0.1217
 1272TIP3    H1 3755   6.861   4.263   2.726  1.3929 -0.3961  1.2170
 1272TIP3    H2 3756   6.797   4.400   2.718 -1.0880 -1.5995 -0.3542
 1273TIP3   OH2 3757   0.772   4.520   2.320 -0.0784 -0.0463  0.1065
 1273TIP3    H1 3758   0.799   4.451   2.259  0.1144  0.4626 -0.3897
 1273TIP3    H2 3759   0.801   4.489   2.406  1.8108  0.3454 -0.3714
 1274TIP3   OH2 3760   5.420   1.801   1.809  0.4372  0.2592  0.0552
 1274TIP3    H1 3761   5.489   1.799   1.743  0.3114 -0.9568 -0.0535
 1274TIP3    H2 3762   5.465   1.789   1.892  0.3579 -0.6049 -0.0218
 1275TIP3   OH2 3763   0.559   6.789   1.421 -0.1716 -0.1504  0.2508
 1275TIP3    H1 3764   0.612   6.812   1.344  1.4387 -0.0027  1.3634
 1275TIP3    H2 3765   0.623   6.782   1.492 -1.6237 -0.3622  1.5623
 1276TIP3   OH2 3766   1.230   6.357   2.772 -0.1666 -0.6868 -0.5888
 1276TIP3    H1 3767   1.175   6.416   2.823 -0.3977 -1.8101  0.4870
 1276TIP3    H2 3768   1.193   6.270   2.787  1.7235 -1.4287 -0.0813
 1277TIP3   OH2 3769   2.355   4.627   1.603  0.1280 -0.3614 -0.1383
 1277TIP3    H1 3770   2.295   4.598   1.671 -1.0166  1.8169 -0.1836
 1277TIP3    H2 3771   2.437   4.581   1.622 -1.2436 -2.6007  0.5005
 1278TIP3   OH2 3772   5.951   4.967   2.065 -0.0823 -0.5702 -0.3022
 1278TIP3    H1 3773   5.972   4.899   2.001 -1.6034 -0.3011 -1.1055
 1278TIP3    H2 3774   5.870   4.937   2.105 -0.8118  0.8232 -0.7332
 1279TIP3   OH2 3775   6.327   5.927   3.169 -0.4735  0.2494  0.5334
 1279TIP3    H1 3776   6.288   6.007   3.205 -2.4545 -0.4492  0.0024
 1279TIP3    H2 3777   6.308   5.860   3.234 -0.2054 -0.1236  0.2267
 1280TIP3   OH2 3778   1.839   4.895   0.735 -0.6507 -0.0428 -0.2993
 1280TIP3    H1 3779   1.920   4.933   0.769 -1.7287  1.1273  1.0537
 1280TIP3    H2 3780   1.866   4.839   0.663  1.3419  0.4586  0.0495
 1281TIP3   OH2 3781   0.219   4.052   2.183 -0.8194 -0.2505  0.3326
 1281TIP3    H1 3782   0.313   4.067   2.185 -1.0317  1.6880 -1.7918
 1281TIP3    H2 3783   0.185   4.100   2.259 -0.2378  0.3490  0.2176
 1282TIP3   OH2 3784   1.254   3.262   2.218  0.0682  0.2779 -0.2638
 1282TIP3    H1 3785   1.178   3.320   2.216 -1.0071 -1.1578 -2.1132
 1282TIP3    H2 3786   1.264   3.238   2.311 -0.9897  1.3940  0.1473
 1283TIP3   OH2 3787   8.232   3.574   3.413  0.2502  0.2564 -0.0106
 1283TIP3    H1 3788   8.307   3.514   3.413  0.0120 -0.0473  0.5951
 1283TIP3    H2 3789   8.187   3.557   3.330  0.6299  0.1609 -0.1973
 1284TIP3   OH2 3790   2.853   7.072   6.854  0.1859 -0.0910 -0.2490
 1284TIP3    H1 3791   2.777   7.112   6.896  0.5249  1.7414 -1.3031
 1284TIP3    H2 3792   2.817   7.004   6.797 -0.5836  0.1283 -0.0244
 1285TIP3   OH2 3793   7.631   4.763   1.310  0.3382  0.0821  0.5827
 1285TIP3    H1 3794   7.697   4.795   1.372 -0.1950  0.4131  0.9851
 1285TIP3    H2 3795   7.573   4.838   1.297 -0.2848 -0.3874  0.6684
 1286TIP3   OH2 3796   7.882   4.168   3.940 -0.5668  0.4280 -0.1438
 1286TIP3    H1 3797   7.934   4.231   3.890  0.7365 -0.4088  0.1358
 1286TIP3    H2 3798   7.873   4.093   3.881  0.7942 -0.4765  0.7765
 1287TIP3   OH2 3799   5.860   7.403   1.582  0.3124 -0.5487 -0.1178
 1287TIP3    H1 3800   5.847   7.460   1.658  2.4236 -0.5147  0.2421
 1287TIP3    H2 3801   5.947   7.427   1.549 -0.6125 -0.5021 -2.6105
 1288TIP3   OH2 3802   2.635   5.661   1.310 -0.0160 -0.1163  0.1991
 1288TIP3    H1 3803   2.689   5.740   1.315  1.8840 -1.2978 -0.7176
 1288TIP3    H2 3804   2.550   5.691   1.277  0.1694  1.7510  1.3512
 1289TIP3   OH2 3805   8.208   6.960   0.336  0.1279 -0.2219  0.0178
 1289TIP3    H1 3806   8.146   6.895   0.371 -0.0862 -1.1007 -1.8999
 1289TIP3    H2 3807   8.187   7.041   0.383 -0.1950 -1.3237  1.8131
 1290TIP3   OH2 3808   0.842   5.080   0.968  0.1128 -0.0946 -0.4361
 1290TIP3    H1 3809   0.892   5.160   0.952  1.2932 -0.5846  0.7371
 1290TIP3    H2 3810   0.846   5.032   0.886 -0.2150  0.8361 -1.0063
 1291TIP3   OH2 3811   7.284   1.611   6.646 -0.3329  0.1000 -0.3414
 1291TIP3    H1 3812   7.199   1.596   6.604  0.7391 -2.1944 -1.7861
 1291TIP3    H2 3813   7.272   1.579   6.735 -1.6219  1.8475  0.1393
 1292TIP3   OH2 3814   7.722   4.603   5.725  0.4892  0.4391 -0.4808
 1292TIP3    H1 3815   7.783   4.656   5.775  0.6384  1.1124 -1.3743
 1292TIP3    H2 3816   7.776   4.534   5.686  0.2894 -0.4074  0.7068
 1293TIP3   OH2 3817   1.728   5.346   2.562 -0.9860 -0.4044  0.2376
 1293TIP3    H1 3818   1.780   5.337   2.642  1.2656  0.6501 -1.0391
 1293TIP3    H2 3819   1.682   5.428   2.572 -0.9152 -0.4060  0.5781
 1294TIP3   OH2 3820   1.854   5.099   0.115 -0.1557 -0.4585  0.3443
 1294TIP3    H1 3821   1.909   5.088   0.193  2.1919 -0.1509 -1.2168
 1294TIP3    H2 3822   1.786   5.032   0.124  0.1315 -0.4769  2.6055
 1295TIP3   OH2 3823   0.149   4.872   1.008  0.3246  0.0177 -0.4721
 1295TIP3    H1 3824   0.179   4.853   0.919  1.4244  0.6396 -0.2459
 1295TIP3    H2 3825   0.182   4.960   1.026  2.0122 -0.9637  1.3695
 1296TIP3   OH2 3826   3.839   7.620   6.409 -0.1201  0.0390 -0.3615
 1296TIP3    H1 3827   3.896   7.574   6.470 -0.8412 -0.0319  0.2585
 1296TIP3    H2 3828   3.900   7.662   6.348  0.5502 -1.8913 -1.0760
 1297TIP3   OH2 3829   0.942   6.559   1.225 -0.7517  0.1902 -0.0933
 1297TIP3    H1 3830   0.921   6.553   1.132 -3.7390  0.3974  0.5088
 1297TIP3    H2 3831   0.918   6.474   1.261  1.4369 -0.2712  0.3152
 1298TIP3   OH2 3832   1.133   5.522   1.487 -0.1569 -0.5635  0.3705
 1298TIP3    H1 3833   1.147   5.616   1.490 -3.0340 -0.0846 -0.1330
 1298TIP3    H2 3834   1.071   5.504   1.557  1.8699 -2.4239  1.7680
 1299TIP3   OH2 3835   7.718   5.659   2.408 -0.6956  0.0610 -0.0633
 1299TIP3    H1 3836   7.698   5.643   2.315 -2.5235 -0.7965  0.4548
 1299TIP3    H2 3837   7.639   5.701   2.443  0.4831  1.5854  0.8191
 1300TIP3   OH2 3838   6.462   3.376   0.161 -0.5053  0.4672 -0.9189
 1300TIP3    H1 3839   6.513   3.376   0.242 -0.3503  0.1771 -1.0158
 1300TIP3    H2 3840   6.427   3.465   0.155  0.1803  0.7418 -0.9666
 1301TIP3   OH2 3841   2.047   6.887   0.624  0.6374  0.4740  0.6371
 1301TIP3    H1 3842   1.955   6.887   0.600  0.9867  1.5685 -0.7483
 1301TIP3    H2 3843   2.047   6.892   0.720 -0.7501 -1.9543  0.7894
 1302TIP3   OH2 3844   4.265   7.851   5.614 -0.2696 -0.5598  0.0143
 1302TIP3    H1 3845   4.178   7.857   5.574  0.7797 -0.6636 -2.3705
 1302TIP3    H2 3846   4.300   7.940   5.606 -0.2293 -0.4547  1.2152
 1303TIP3   OH2 3847   1.092   4.702   2.472 -0.3938 -0.2345  0.8815
 1303TIP3    H1 3848   1.136   4.776   2.430 -1.1395  0.5651  1.4795
 1303TIP3    H2 3849   1.010   4.692   2.424 -1.2782  0.7218  2.1616
 1304TIP3   OH2 3850   1.002   6.498   0.947  0.8225  0.8924  0.8524
 1304TIP3    H1 3851   0.916   6.458   0.940  1.3464 -0.4641  2.0408
 1304TIP3    H2 3852   1.035   6.499   0.856  1.8783 -3.8679  1.0448
 1305TIP3   OH2 3853   1.144   5.200   1.796 -0.0049  0.0888  0.3038
 1305TIP3    H1 3854   1.096   5.122   1.769 -1.1578  1.1142 -0.6809
 1305TIP3    H2 3855   1.234   5.183   1.770 -0.6314 -0.0457 -1.8566
 1306TIP3   OH2 3856   6.857   4.023   0.850  0.3573  0.6465 -0.4875
 1306TIP3    H1 3857   6.801   3.947   0.829 -0.1727  0.7585  0.5011
 1306TIP3    H2 3858   6.802   4.099   0.831  0.5838  0.7762 -0.6283
 1307TIP3   OH2 3859   2.286   7.261   6.636 -0.8879 -0.2801  0.1418
 1307TIP3    H1 3860   2.210   7.262   6.577 -1.1408 -0.2278  0.4647
 1307TIP3    H2 3861   2.357   7.297   6.585 -1.9622  3.2560  1.0299
 1308TIP3   OH2 3862   2.704  -0.021   1.003  0.1870  1.2185  0.2089
 1308TIP3    H1 3863   2.757   0.034   1.061  2.1347  0.2288 -0.5822
 1308TIP3    H2 3864   2.714   0.018   0.916  0.5218  0.3828 -0.1340
 1309TIP3   OH2 3865   6.974   3.129   5.513 -0.1367 -0.2610 -0.2300
 1309TIP3    H1 3866   7.031   3.095   5.444 -1.0610  0.3323 -1.2951
 1309TIP3    H2 3867   6.892   3.081   5.502 -0.6068  0.5262 -0.1436
 1310TIP3   OH2 3868   1.442   6.024   0.636  0.3841 -0.3490 -0.0981
 1310TIP3    H1 3869   1.412   6.010   0.547  0.3773 -1.3517  0.0580
 1310TIP3    H2 3870   1.490   5.944   0.659  0.6062  0.0004  0.7057
 1311TIP3   OH2 3871   1.336   6.053   1.507  0.3309 -0.2526  0.1791
 1311TIP3    H1 3872   1.370   6.133   1.468  0.8933 -0.2269  0.7230
 1311TIP3    H2 3873   1.352   6.063   1.601 -1.7758  0.0662  0.5450
 1312TIP3   OH2 3874   2.175   4.795   0.431  0.2550 -0.4404  0.0325
 1312TIP3    H1 3875   2.210   4.858   0.494 -1.3493  0.9433 -0.4182
 1312TIP3    H2 3876   2.253   4.756   0.391  1.2783 -0.2162  1.7502
 1313TIP3   OH2 3877   1.566   5.295   0.183 -0.1462  0.2305  0.2296
 1313TIP3    H1 3878   1.533   5.205   0.186  0.1532  0.0852 -0.7406
 1313TIP3    H2 3879   1.607   5.307   0.269  0.5116 -0.8365  0.0848
 1314TIP3   OH2 3880   2.642   4.445   1.374  0.4680 -0.1992  0.5204
 1314TIP3    H1 3881   2.641   4.507   1.447 -0.2762 -1.3752  1.5197
 1314TIP3    H2 3882   2.726   4.462   1.330  0.3990  1.3147  0.9363
 1315TIP3   OH2 3883   4.716   7.261   5.981  0.0298  0.2349  0.5841
 1315TIP3    H1 3884   4.797   7.288   5.939 -0.5644  0.1660 -0.6297
 1315TIP3    H2 3885   4.693   7.333   6.040  1.1625  0.0843  1.2295
 1316TIP3   OH2 3886   6.275   1.146   5.593 -0.3370  0.5627  0.3841
 1316TIP3    H1 3887   6.296   1.120   5.682  0.2944 -0.7486 -0.1248
 1316TIP3    H2 3888   6.187   1.111   5.578 -0.4831  0.8697  0.5244
 1317TIP3   OH2 3889   1.760   6.824   0.586 -0.7794 -0.4613  0.1620
 1317TIP3    H1 3890   1.696   6.847   0.519 -0.5433 -1.6900 -0.5012
 1317TIP3    H2 3891   1.721   6.855   0.668 -1.6014  0.0003 -0.4011
 1318TIP3   OH2 3892   4.306   2.330   5.848  0.2244 -0.5454 -0.3437
 1318TIP3    H1 3893   4.279   2.421   5.862 -0.7151 -0.2240 -3.7954
 1318TIP3    H2 3894   4.394   2.336   5.811 -0.6972 -0.9011 -2.6593
 1319TIP3   OH2 3895   7.978   4.683   3.582  0.2175  0.1671 -0.1555
 1319TIP3    H1 3896   7.931   4.719   3.507 -2.7107 -0.2270  1.4559
 1319TIP3    H2 3897   7.997   4.593   3.557  1.1920  0.6627 -1.2725
 1320TIP3   OH2 3898   4.831   2.042   6.872 -0.4164  0.5310 -0.3141
 1320TIP3    H1 3899   4.775   2.035   6.794  0.4451  1.6058 -1.0481
 1320TIP3    H2 3900   4.893   2.112   6.850  1.2952 -0.7301  0.4334
 1321TIP3   OH2 3901   0.465   5.236   3.189  0.2815  0.0529 -0.2534
 1321TIP3    H1 3902   0.451   5.317   3.238 -0.9856  0.1416 -0.7509
 1321TIP3    H2 3903   0.560   5.225   3.189  0.4546  1.3757  0.0871
 1322TIP3   OH2 3904   6.481   1.971   6.893  0.1701  0.1385  0.0319
 1322TIP3    H1 3905   6.443   1.950   6.978  0.9647 -3.3993 -0.4212
 1322TIP3    H2 3906   6.411   1.955   6.830  0.4277  0.0224 -0.2256
 1323TIP3   OH2 3907   8.312   1.519   5.558  0.5195 -0.2906  0.3364
 1323TIP3    H1 3908   8.226   1.495   5.590 -0.1103  2.1767  0.5991
 1323TIP3    H2 3909   8.297   1.547   5.468  1.1027 -0.1986  0.2660
 1324TIP3   OH2 3910   1.139   5.393   1.032 -0.1918  0.5763 -0.4030
 1324TIP3    H1 3911   1.128   5.488   1.033 -0.8090  0.5409 -1.9220
 1324TIP3    H2 3912   1.072   5.362   0.970 -0.7560 -0.9499  0.9449
 1325TIP3   OH2 3913   4.824   0.761   5.523 -0.2528 -0.1184  0.5536
 1325TIP3    H1 3914   4.747   0.724   5.567 -1.2357  1.8816  0.5489
 1325TIP3    H2 3915   4.794   0.844   5.487  1.8308  0.5471  0.2829
 1326TIP3   OH2 3916   7.485   4.994   1.294  0.3173  0.5706 -0.3344
 1326TIP3    H1 3917   7.390   4.999   1.289  0.3071  0.3249 -0.3806
 1326TIP3    H2 3918   7.504   4.999   1.388  0.1089 -1.9355 -0.1291
 1327TIP3   OH2 3919   6.360   2.948   6.263 -0.1699  0.3843 -1.1170
 1327TIP3    H1 3920   6.361   2.861   6.302 -1.2844 -0.8227 -3.6824
 1327TIP3    H2 3921   6.418   3.000   6.319 -1.1859 -1.4111  1.7234
 1328TIP3   OH2 3922   7.914   1.555   4.769 -0.1212  0.3871  0.0671
 1328TIP3    H1 3923   7.982   1.488   4.761 -1.4034 -0.9221 -0.0501
 1328TIP3    H2 3924   7.913   1.599   4.683 -1.2854 -1.4207 -0.8722
 1329TIP3   OH2 3925   0.842   6.784   1.372 -0.5476 -0.4652  0.0034
 1329TIP3    H1 3926   0.800   6.805   1.288  0.2064 -0.8799 -0.4914
 1329TIP3    H2 3927   0.901   6.711   1.351  2.4219  1.8268  0.1169
 1330TIP3   OH2 3928   3.986   5.547   1.539  0.4428 -0.6010  0.1630
 1330TIP3    H1 3929   4.056   5.584   1.593  0.2658 -1.7979  1.2312
 1330TIP3    H2 3930   3.907   5.557   1.591  0.1309 -0.9847 -0.2291
 1331TIP3   OH2 3931   1.396   4.965   0.861  0.0223 -0.7402  0.2040
 1331TIP3    H1 3932   1.374   4.911   0.785 -0.2802 -1.2636  0.6568
 1331TIP3    H2 3933   1.486   4.940   0.883  0.0863 -0.6377  0.0589
 1332TIP3   OH2 3934   1.932   5.210   0.806  0.1106  0.4208 -0.1891
 1332TIP3    H1 3935   1.986   5.133   0.826  2.5377  1.8406 -0.9601
 1332TIP3    H2 3936   1.982   5.283   0.841 -2.2965  1.6576  0.7525
 1333TIP3   OH2 3937   0.588   6.976   3.689  0.4130  0.5378  0.2779
 1333TIP3    H1 3938   0.532   6.900   3.676 -0.5580  1.4766 -1.1310
 1333TIP3    H2 3939   0.677   6.941   3.681  0.0631 -0.8984  2.2482
 1334TIP3   OH2 3940   2.529   4.825   2.907 -0.0825  0.1209  0.3063
 1334TIP3    H1 3941   2.528   4.908   2.858 -2.3937  0.2227  0.4487
 1334TIP3    H2 3942   2.574   4.764   2.849 -0.5932  0.8603 -0.8938
 1335TIP3   OH2 3943   1.612   4.983   2.265  0.1628  0.2243  0.0757
 1335TIP3    H1 3944   1.615   4.954   2.174  1.1825  0.2889  0.0741
 1335TIP3    H2 3945   1.678   5.053   2.269  0.4044 -0.0468  0.9465
 1336TIP3   OH2 3946   0.796   3.298   1.333 -0.1585 -0.3784  0.0234
 1336TIP3    H1 3947   0.752   3.327   1.253 -0.4864  0.3909  0.4857
 1336TIP3    H2 3948   0.735   3.235   1.372  0.0449 -0.8280 -0.3821
 1337TIP3   OH2 3949   8.058   2.769   6.875  0.2858  0.5425  0.0355
 1337TIP3    H1 3950   7.985   2.829   6.892  0.8980  0.9667  1.1886
 1337TIP3    H2 3951   8.060   2.761   6.780  1.2976  3.7949 -0.2940
 1338TIP3   OH2 3952   1.239   4.266   1.668 -0.1903  0.1620 -0.3093
 1338TIP3    H1 3953   1.180   4.305   1.604 -1.1051 -0.6490  0.0267
 1338TIP3    H2 3954   1.214   4.173   1.671 -0.3372  0.2319  1.3972
 1339TIP3   OH2 3955   2.351   7.947   6.408  0.4549  0.5739 -0.2659
 1339TIP3    H1 3956   2.318   7.889   6.339 -0.8914 -2.7353  2.9668
 1339TIP3    H2 3957   2.444   7.957   6.389 -0.3738  1.8558 -3.9527
 1340TIP3   OH2 3958   8.284   1.031   5.941 -0.2521  0.0204 -0.2050
 1340TIP3    H1 3959   8.319   0.964   5.883  0.3454  0.6749 -0.5987
 1340TIP3    H2 3960   8.258   1.102   5.883 -1.9708 -0.3331  0.1066
 1341TIP3   OH2 3961   8.297   1.612   6.684 -0.2122 -0.3870 -0.5052
 1341TIP3    H1 3962   8.269   1.540   6.627  0.2728 -2.0766  1.3472
 1341TIP3    H2 3963   8.391   1.599   6.693  0.1304  1.4002 -1.3881
 1342TIP3   OH2 3964   7.874   1.023   5.651  0.4884  0.4668  0.0664
 1342TIP3    H1 3965   7.921   1.091   5.603  0.4564  0.9880  0.7659
 1342TIP3    H2 3966   7.875   0.947   5.593  0.7416  0.9891 -0.6153
 1343TIP3   OH2 3967   0.025   5.442   2.315  0.1227  0.1758  0.0835
 1343TIP3    H1 3968   0.120   5.438   2.309  0.2298  1.6105  0.6518
 1343TIP3    H2 3969   0.007   5.455   2.408 -0.6609 -0.6950  0.0642
 1344TIP3   OH2 3970   8.391   3.590   1.869 -0.2166  0.3351  0.2232
 1344TIP3    H1 3971   8.359   3.577   1.958 -2.1847 -0.0443 -0.5311
 1344TIP3    H2 3972   8.356   3.675   1.842 -2.4014 -1.0029 -1.3511
 1345TIP3   OH2 3973   0.089   4.637   1.405 -0.4636 -0.5219 -0.3831
 1345TIP3    H1 3974   0.138   4.711   1.369 -0.0637 -0.1820  0.8686
 1345TIP3    H2 3975   0.026   4.615   1.336 -0.6479  1.0281 -0.7200
 1346TIP3   OH2 3976   7.150   1.129   6.362  0.3754 -0.1815  0.4600
 1346TIP3    H1 3977   7.218   1.103   6.423  1.0048 -0.5996 -0.4146
 1346TIP3    H2 3978   7.082   1.062   6.372  0.2062  0.0911  1.1419
 1347TIP3   OH2 3979   7.980   4.381   0.849 -0.3443  0.5177 -0.0625
 1347TIP3    H1 3980   7.935   4.307   0.809  1.8935 -0.7622 -0.3073
 1347TIP3    H2 3981   7.972   4.452   0.785 -1.1865  0.0277 -0.5094
 1348TIP3   OH2 3982   0.685   5.193   0.583 -0.5457 -0.4552  0.1048
 1348TIP3    H1 3983   0.617   5.129   0.562  0.5752 -2.1159  1.4381
 1348TIP3    H2 3984   0.728   5.211   0.499 -2.1333  0.0590 -0.6152
 1349TIP3   OH2 3985   8.376   4.665   1.176  0.1366 -0.0849 -0.4527
 1349TIP3    H1 3986   8.321   4.610   1.120 -1.5060  1.0136  0.0383
 1349TIP3    H2 3987   8.374   4.751   1.135  1.0154  0.1051 -0.1003
 1350TIP3   OH2 3988   5.990   3.718   5.620  0.4481  1.2004 -0.2080
 1350TIP3    H1 3989   5.897   3.728   5.602  0.7503  1.0563 -1.9704
 1350TIP3    H2 3990   6.030   3.794   5.576  1.3621  0.0744 -1.3392
 1351TIP3   OH2 3991   0.593   5.050   2.820  0.5364 -0.0047 -0.0349
 1351TIP3    H1 3992   0.535   4.991   2.869  0.3528  0.9932  0.9644
 1351TIP3    H2 3993   0.542   5.075   2.743  1.0386 -2.0407 -1.0746
 1352TIP3   OH2 3994   1.537   5.334   0.719  0.4188  0.3682  0.2747
 1352TIP3    H1 3995   1.554   5.355   0.627  1.1126 -0.1490  0.2812
 1352TIP3    H2 3996   1.471   5.264   0.716  0.6361  0.1682  0.1625
 1353TIP3   OH2 3997   1.631   8.004   6.215 -0.1269 -0.3098  1.0974
 1353TIP3    H1 3998   1.673   7.952   6.146 -1.2652 -0.1613  0.2810
 1353TIP3    H2 3999   1.567   7.946   6.254 -1.3379  0.4262  0.2446
 1354TIP3   OH2 4000   7.283   0.787   6.865  0.0628  0.2974 -0.5219
 1354TIP3    H1 4001   7.328   0.755   6.786  0.6548 -1.7894  0.6294
 1354TIP3    H2 4002   7.351   0.830   6.916 -0.5301  2.5848 -1.5898
 1355TIP3   OH2 4003   6.497   1.443   5.790 -0.2514 -0.6011  0.3353
 1355TIP3    H1 4004   6.580   1.436   5.743 -0.2402  0.1653  0.2208
 1355TIP3    H2 4005   6.496   1.368   5.849  0.8626 -0.2190  0.8654
 1356TIP3   OH2 4006   0.921   4.562   0.738 -0.9279 -0.1556  0.0177
 1356TIP3    H1 4007   1.004   4.605   0.759 -0.7669 -1.2873  1.7780
 1356TIP3    H2 4008   0.947   4.481   0.692 -1.1711  0.7048 -1.6931
 1357TIP3   OH2 4009   1.315   4.953   1.994  0.0456  0.0200 -0.3676
 1357TIP3    H1 4010   1.350   4.872   1.957  0.1742  0.2068 -0.6510
 1357TIP3    H2 4011   1.242   4.977   1.936  0.1301  0.2123 -0.3940
 1358TIP3   OH2 4012   3.818   7.850   6.182 -0.0367  0.0221 -0.5120
 1358TIP3    H1 4013   3.792   7.930   6.136  1.0753  0.5272 -0.2937
 1358TIP3    H2 4014   3.743   7.791   6.172 -1.2806  1.4407  0.1732
 1359TIP3   OH2 4015   1.743   4.489   1.199 -0.2194 -0.5090 -0.0124
 1359TIP3    H1 4016   1.766   4.576   1.167  1.5930 -0.9615  0.0156
 1359TIP3    H2 4017   1.673   4.505   1.263  0.1196  0.9293  0.0232
 1360TIP3   OH2 4018   6.298   1.709   6.440  0.1113  0.3042  0.2628
 1360TIP3    H1 4019   6.300   1.654   6.362 -0.7646 -0.7667  0.9840
 1360TIP3    H2 4020   6.371   1.679   6.493  2.2547  2.7132 -1.2467
 1361TIP3   OH2 4021   8.194   4.345   1.962  0.3088  0.1884 -0.2305
 1361TIP3    H1 4022   8.156   4.257   1.959  0.6923  0.0304 -0.4050
 1361TIP3    H2 4023   8.213   4.359   2.055 -2.5025  1.2645  0.2485
 1362TIP3   OH2 4024   1.342   6.092   1.789 -0.5666  0.0669 -0.5302
 1362TIP3    H1 4025   1.407   6.026   1.810 -0.7106 -0.3472 -1.3440
 1362TIP3    H2 4026   1.295   6.107   1.871 -0.2786 -0.5566 -0.2498
 1363TIP3   OH2 4027   4.064   6.711   1.171  0.2843 -0.0624 -0.7515
 1363TIP3    H1 4028   4.051   6.701   1.266  1.1410 -1.2040 -0.7468
 1363TIP3    H2 4029   4.122   6.640   1.147  0.5382  0.5680 -2.0534
 1364TIP3   OH2 4030   2.405   4.775   0.223  0.2830  0.2191 -0.1902
 1364TIP3    H1 4031   2.441   4.862   0.208  0.2466  0.1307 -0.7979
 1364TIP3    H2 4032   2.481   4.721   0.245  0.3255  0.3677  0.0309
 1365TIP3   OH2 4033   2.058   4.674   3.159  0.7766  0.0801  0.1114
 1365TIP3    H1 4034   2.089   4.584   3.171  1.2855  0.3356  0.7823
 1365TIP3    H2 4035   2.119   4.713   3.097 -0.5916 -0.6049 -1.7014
 1366TIP3   OH2 4036   7.389   2.634   6.625  0.3149  0.0956 -0.1478
 1366TIP3    H1 4037   7.459   2.569   6.632  0.2071  0.0044  0.0703
 1366TIP3    H2 4038   7.418   2.707   6.680  1.2988  1.0039 -1.8293
 1367TIP3   OH2 4039   1.153   5.332   2.017  0.0962  0.1843  0.2320
 1367TIP3    H1 4040   1.162   5.281   1.937  0.3320  1.5742 -0.6457
 1367TIP3    H2 4041   1.077   5.388   2.001 -0.4239 -0.1854  1.3585
 1368TIP3   OH2 4042   0.125   1.247   6.742 -0.3694 -0.1033  0.3795
 1368TIP3    H1 4043   0.183   1.319   6.766 -1.3630  0.9845 -0.3820
 1368TIP3    H2 4044   0.092   1.214   6.826  1.3496 -0.7654  0.8194
 1369TIP3   OH2 4045   7.124   3.719   0.925  0.1509 -0.1061  0.3501
 1369TIP3    H1 4046   7.181   3.646   0.900  2.4714  1.2410  1.5160
 1369TIP3    H2 4047   7.184   3.784   0.962 -2.3354  0.6596  3.2371
 1370TIP3   OH2 4048   5.915   5.298   0.428 -0.1298 -0.0263  0.0229
 1370TIP3    H1 4049   5.830   5.341   0.435  0.0455 -0.0966  3.0645
 1370TIP3    H2 4050   5.948   5.323   0.341 -2.5772  1.2017 -0.5810
 1371TIP3   OH2 4051   2.223   7.255   0.267 -0.3089 -0.0392 -0.4055
 1371TIP3    H1 4052   2.262   7.298   0.191 -0.0200 -0.4244 -0.4739
 1371TIP3    H2 4053   2.231   7.161   0.249  0.3433 -0.1417  0.3879
 1372TIP3   OH2 4054   1.065   5.027   0.653 -0.0600 -0.0898 -0.2050
 1372TIP3    H1 4055   1.091   4.939   0.680  0.9865 -0.2810 -1.6982
 1372TIP3    H2 4056   0.977   5.016   0.617 -0.7234 -0.1537  1.3993
 1373TIP3   OH2 4057   6.553   7.236   4.804  0.2738 -0.9445  0.4304
 1373TIP3    H1 4058   6.648   7.239   4.796  0.4529 -3.4408  1.1760
 1373TIP3    H2 4059   6.536   7.210   4.894 -1.0959 -1.0993  0.1490
 1374TIP3   OH2 4060   7.573   1.231   6.700 -0.3015  0.1167 -0.0679
 1374TIP3    H1 4061   7.495   1.249   6.753 -0.4028  0.3946 -0.3060
 1374TIP3    H2 4062   7.561   1.284   6.622  1.0484  1.6574  0.7410
 1375TIP3   OH2 4063   2.047   6.021   3.068 -0.2218 -0.2789  0.5792
 1375TIP3    H1 4064   2.046   5.926   3.056  0.9523 -0.4973  2.0017
 1375TIP3    H2 4065   2.005   6.034   3.153 -1.8892  0.6260 -0.3612
 1376TIP3   OH2 4066   8.321   3.852   3.923 -0.4748  0.0037  0.3198
 1376TIP3    H1 4067   8.239   3.876   3.880 -0.7364 -2.1140 -0.4218
 1376TIP3    H2 4068   8.327   3.757   3.912  2.0025  0.1066  0.5088
 1377TIP3   OH2 4069   0.399   4.132   0.776  0.8089  0.1031  0.1074
 1377TIP3    H1 4070   0.413   4.224   0.754  1.3280  0.2047  0.8404
 1377TIP3    H2 4071   0.454   4.084   0.714  0.5210  0.2867 -0.2901
 1378TIP3   OH2 4072   3.191   3.978   2.236  0.3356 -0.2975 -0.0194
 1378TIP3    H1 4073   3.207   3.980   2.142  2.1113 -0.1331  0.2767
 1378TIP3    H2 4074   3.182   4.070   2.260 -1.1374 -0.3854 -0.1820
 1379TIP3   OH2 4075   7.915   1.787   6.499 -0.0787  0.0037 -0.2148
 1379TIP3    H1 4076   7.945   1.704   6.535 -1.9047 -0.9251 -0.7932
 1379TIP3    H2 4077   7.912   1.846   6.575  0.6527 -0.6059  0.2966
 1380TIP3   OH2 4078   2.951   5.885   2.271  0.3085 -0.1110  0.6025
 1380TIP3    H1 4079   2.948   5.792   2.293  1.1275 -0.0814  0.8711
 1380TIP3    H2 4080   3.002   5.889   2.190 -0.6451  0.0058  0.0028
 1381TIP3   OH2 4081   8.142   1.153   6.640  0.0715  0.0300  0.2398
 1381TIP3    H1 4082   8.064   1.207   6.648  1.3353  1.9765 -0.3501
 1381TIP3    H2 4083   8.129   1.103   6.559 -1.6412 -1.4896  1.4192
 1382TIP3   OH2 4084   3.801   3.261   6.327  0.2279  0.1613  0.1670
 1382TIP3    H1 4085   3.785   3.325   6.257  0.0769  0.3753  0.3949
 1382TIP3    H2 4086   3.756   3.182   6.298 -3.1690  1.3910  1.7860
 1383TIP3   OH2 4087   1.384   0.059   1.156 -0.1120 -0.4294 -0.0131
 1383TIP3    H1 4088   1.461   0.023   1.113 -0.3871  0.6487 -1.4731
 1383TIP3    H2 4089   1.313  -0.002   1.135 -0.1939 -0.0348 -0.9169
 1384TIP3   OH2 4090   4.021   7.056   1.641 -0.3351 -0.1259 -0.5361
 1384TIP3    H1 4091   3.959   7.040   1.570 -0.6875 -0.7544 -0.0902
 1384TIP3    H2 4092   3.989   7.002   1.713  0.6767 -0.3746 -0.2681
 1385TIP3   OH2 4093   0.600   7.789   0.036  0.2414 -0.1401 -0.0162
 1385TIP3    H1 4094   0.535   7.758   0.099 -0.6104  2.8936  0.7015
 1385TIP3    H2 4095   0.666   7.834   0.090  0.0348  1.5948 -1.1742
 1386TIP3   OH2 4096   0.915   6.286   2.042  0.2224 -0.1270  0.1878
 1386TIP3    H1 4097   0.894   6.236   2.121 -0.0399 -0.0425  0.1735
 1386TIP3    H2 4098   0.832   6.290   1.994  0.4606 -0.4387 -0.2400
 1387TIP3   OH2 4099   4.201   6.513   0.733 -0.0015 -0.3031  0.2178
 1387TIP3    H1 4100   4.175   6.573   0.663 -0.8239 -2.0604 -0.9929
 1387TIP3    H2 4101   4.274   6.558   0.776  0.2696  0.9697 -1.5030
 1388TIP3   OH2 4102   6.178   2.055   6.708  0.2137 -0.4111 -0.4960
 1388TIP3    H1 4103   6.101   2.022   6.662 -0.8742  1.8709 -0.3309
 1388TIP3    H2 4104   6.163   2.032   6.800  0.1609 -0.7514 -0.5886
 1389TIP3   OH2 4105   1.818   5.356   1.557 -0.1130 -0.4583  0.6303
 1389TIP3    H1 4106   1.833   5.367   1.651 -0.9986 -2.4650  1.0434
 1389TIP3    H2 4107   1.905   5.337   1.521  0.4069  1.4437  0.8592
 1390TIP3   OH2 4108   3.260   6.217   2.405  0.1407 -0.8785  0.1381
 1390TIP3    H1 4109   3.174   6.205   2.365  0.7146 -1.6572 -0.8866
 1390TIP3    H2 4110   3.249   6.289   2.467 -1.3336 -1.2110  0.2663
 1391TIP3   OH2 4111   1.696   5.521   3.224 -1.0985  0.1734 -0.4271
 1391TIP3    H1 4112   1.773   5.472   3.193 -0.2987  1.0367  0.1548
 1391TIP3    H2 4113   1.666   5.472   3.301  0.7953  1.5612  1.2461
 1392TIP3   OH2 4114   1.934   4.634   3.399  0.5571 -0.2004 -0.5710
 1392TIP3    H1 4115   1.866   4.571   3.373 -1.2508  1.0186  1.0640
 1392TIP3    H2 4116   1.973   4.662   3.316 -1.5431 -0.2729 -1.6226
 1393TIP3   OH2 4117   7.996   4.638   1.800 -0.4140  0.2482  0.4252
 1393TIP3    H1 4118   7.994   4.623   1.705  0.0153  0.5095  0.3732
 1393TIP3    H2 4119   8.021   4.730   1.809  0.0314  0.0898  0.8032
 1394TIP3   OH2 4120   2.963   4.300   0.852  0.1652 -0.2125 -0.3468
 1394TIP3    H1 4121   2.973   4.326   0.761 -1.7106 -0.7326 -0.7236
 1394TIP3    H2 4122   3.007   4.216   0.858  0.4261 -0.1054 -0.7391
 1395TIP3   OH2 4123   3.086   5.078   0.545  0.2440  0.0497  0.2589
 1395TIP3    H1 4124   3.106   5.165   0.578  1.5528  0.1762 -0.8257
 1395TIP3    H2 4125   3.146   5.066   0.471  0.6830 -2.0963  0.9272
 1396TIP3   OH2 4126   2.071   4.244   3.212 -0.1019 -0.4147 -0.0122
 1396TIP3    H1 4127   2.116   4.329   3.204  0.7018 -0.9738 -1.8695
 1396TIP3    H2 4128   2.056   4.217   3.121 -1.4683 -1.6853  0.5774
 1397TIP3   OH2 4129   2.480   5.965   0.425 -0.1080 -0.2471 -0.4486
 1397TIP3    H1 4130   2.537   6.025   0.473 -1.8890 -0.8267  2.4384
 1397TIP3    H2 4131   2.525   5.880   0.430 -0.0122 -0.1908 -0.3521
 1398TIP3   OH2 4132   7.749   0.423   6.707  0.3775  0.6504  0.3350
 1398TIP3    H1 4133   7.660   0.429   6.671  0.2573  0.4349  0.6035
 1398TIP3    H2 4134   7.745   0.355   6.773  0.6113  1.0272  0.7424
 1399TIP3   OH2 4135   0.075   5.920   0.810  0.0720 -0.5039 -0.0544
 1399TIP3    H1 4136   0.096   5.867   0.733 -0.3461 -0.6501 -0.0695
 1399TIP3    H2 4137  -0.003   5.969   0.785 -0.2133 -0.7414  0.3639
 1400TIP3   OH2 4138   4.543   2.628   3.426 -0.4919 -0.2235  0.8571
 1400TIP3    H1 4139   4.625   2.582   3.409 -0.1025  0.3566  1.1699
 1400TIP3    H2 4140   4.565   2.694   3.492 -1.2997 -0.3612  1.2820
 1401TIP3   OH2 4141   5.960   2.211   6.848 -0.2476  0.0966  0.6996
 1401TIP3    H1 4142   5.997   2.128   6.879 -2.2652 -1.2680 -0.4172
 1401TIP3    H2 4143   5.868   2.207   6.873 -0.8644  1.0050 -1.3554
 1402TIP3   OH2 4144   0.489   3.358   2.528  0.1190 -0.0830 -0.0486
 1402TIP3    H1 4145   0.507   3.402   2.611 -1.0827 -0.6755  0.5363
 1402TIP3    H2 4146   0.503   3.425   2.461 -1.0568  1.0038  0.7847
 1403TIP3   OH2 4147   1.231   4.966   2.785 -0.0688 -0.2420 -0.4337
 1403TIP3    H1 4148   1.147   4.972   2.831 -0.6267 -0.4269 -1.4071
 1403TIP3    H2 4149   1.257   5.058   2.772 -0.4396 -0.1754 -0.7053
 1404TIP3   OH2 4150   0.282   5.340   0.844 -0.0685 -0.0304  0.2074
 1404TIP3    H1 4151   0.226   5.289   0.903 -0.3688 -2.1875 -1.8439
 1404TIP3    H2 4152   0.241   5.427   0.842 -1.9418 -0.8650  0.6387
 1405TIP3   OH2 4153   3.139   5.978   0.190  0.5148 -0.0301  0.3719
 1405TIP3    H1 4154   3.086   5.944   0.117  0.4507  1.1916 -0.1671
 1405TIP3    H2 4155   3.214   5.919   0.195 -0.0981 -0.8494  0.1213
 1406TIP3   OH2 4156   6.421   0.266   1.555 -0.1122  0.3100 -0.4752
 1406TIP3    H1 4157   6.486   0.197   1.568 -0.3357  0.0273 -0.8420
 1406TIP3    H2 4158   6.338   0.220   1.545 -0.0064  0.5107 -2.5140
 1407TIP3   OH2 4159   2.316   5.554   0.284  0.1041  0.3681  0.1424
 1407TIP3    H1 4160   2.334   5.493   0.355  1.6949 -0.0716 -0.6274
 1407TIP3    H2 4161   2.314   5.640   0.325 -1.2124 -0.0868  1.0765
 1408TIP3   OH2 4162   1.519   4.287   1.915  0.0222  0.4047  0.3668
 1408TIP3    H1 4163   1.473   4.203   1.904 -1.3422  1.1637  0.2334
 1408TIP3    H2 4164   1.558   4.281   2.002  1.4154 -1.0690 -0.3139
 1409TIP3   OH2 4165   3.026   6.236   0.146  0.0205  0.4168 -0.0556
 1409TIP3    H1 4166   2.941   6.247   0.190 -0.6647  0.0559 -1.2382
 1409TIP3    H2 4167   3.053   6.147   0.169 -1.2267 -0.4568 -1.8036
 1410TIP3   OH2 4168   4.639   1.545   6.172 -0.0620  0.0261 -0.1238
 1410TIP3    H1 4169   4.589   1.470   6.140 -0.7135  0.1359  0.6169
 1410TIP3    H2 4170   4.725   1.536   6.131  0.0049 -1.3579  0.3018
 1411TIP3   OH2 4171   3.050   6.830   0.536 -0.1168  0.3858 -0.2053
 1411TIP3    H1 4172   3.096   6.795   0.460  1.3319  1.9509 -0.0602
 1411TIP3    H2 4173   2.958   6.831   0.510 -0.1244 -2.7878 -0.4856
 1412TIP3   OH2 4174   1.696   4.382   1.732  0.0668 -0.3774 -0.6839
 1412TIP3    H1 4175   1.660   4.464   1.700 -0.7285 -0.8642 -1.0622
 1412TIP3    H2 4176   1.637   4.357   1.804  1.0142 -0.0029  0.2344
 1413TIP3   OH2 4177   1.222   5.166   0.202 -0.0508 -0.5243 -0.1045
 1413TIP3    H1 4178   1.218   5.228   0.130 -0.4928 -0.5263 -0.0845
 1413TIP3    H2 4179   1.238   5.220   0.280 -0.1980 -0.4570 -0.1200
 1414TIP3   OH2 4180   1.120   3.911   2.146  0.1465  0.9023 -0.3096
 1414TIP3    H1 4181   1.162   3.825   2.143 -1.0073  0.3679 -1.6945
 1414TIP3    H2 4182   1.192   3.972   2.163  1.2967 -0.1260 -1.3807
 1415TIP3   OH2 4183   0.323   6.449   1.131 -0.3105  0.8342 -0.0474
 1415TIP3    H1 4184   0.381   6.405   1.193 -1.3285  0.2867  0.5172
 1415TIP3    H2 4185   0.241   6.400   1.135 -0.7805  1.5374 -0.9268
 1416TIP3   OH2 4186   0.966   5.065   0.110 -0.1494 -0.4509 -0.2701
 1416TIP3    H1 4187   1.061   5.058   0.112 -0.0218  1.2298  0.4123
 1416TIP3    H2 4188   0.935   4.978   0.135  1.2504  0.0318  3.5576
 1417TIP3   OH2 4189   6.757   4.885   1.228 -0.2327  0.0279  0.3689
 1417TIP3    H1 4190   6.798   4.809   1.187  0.4907 -0.4238  1.9013
 1417TIP3    H2 4191   6.663   4.863   1.229 -0.1281 -0.4459 -0.0242
 1418TIP3   OH2 4192   8.331   5.320   0.738  0.2018  0.3816 -0.2373
 1418TIP3    H1 4193   8.335   5.368   0.655  0.4369  1.6745  0.5044
 1418TIP3    H2 4194   8.420   5.325   0.773  0.3655 -1.1048 -0.4152
 1419TIP3   OH2 4195   1.474   5.203   2.553  0.4353  0.1047  0.4195
 1419TIP3    H1 4196   1.561   5.189   2.590  0.3003 -0.9489  0.3468
 1419TIP3    H2 4197   1.490   5.227   2.462  0.6687  0.4073  0.5394
 1420TIP3   OH2 4198   5.354   7.056   6.081  0.2666  0.3954  0.6551
 1420TIP3    H1 4199   5.415   7.103   6.024  1.2538 -2.1288 -0.4276
 1420TIP3    H2 4200   5.337   6.974   6.036 -2.6875  0.3455  1.7369
 1421TIP3   OH2 4201   7.085   4.092   0.402 -0.1818  0.4314 -0.0588
 1421TIP3    H1 4202   7.070   4.104   0.309 -1.6854  1.5189  0.3099
 1421TIP3    H2 4203   7.180   4.081   0.410 -0.2216 -1.8528 -1.9362
 1422TIP3   OH2 4204   4.028   6.157   2.869  0.1346  0.0099  0.0861
 1422TIP3    H1 4205   3.982   6.192   2.945 -2.5865  2.2024 -2.4403
 1422TIP3    H2 4206   4.121   6.165   2.891 -0.5845  1.6359  2.6985
 1423TIP3   OH2 4207   2.672   2.868   1.716  0.8549 -0.2173  0.7544
 1423TIP3    H1 4208   2.710   2.951   1.745  1.2216  0.0967 -0.5949
 1423TIP3    H2 4209   2.716   2.849   1.633 -0.6154 -0.7832  0.0865
 1424TIP3   OH2 4210   1.414   5.450   1.500 -0.5490 -0.4183 -0.6173
 1424TIP3    H1 4211   1.475   5.490   1.439 -1.1327  1.8122  0.2091
 1424TIP3    H2 4212   1.335   5.502   1.493 -0.8820 -0.5749  1.4614
 1425TIP3   OH2 4213   1.550   4.199   1.469 -0.0732 -0.5190  0.5091
 1425TIP3    H1 4214   1.468   4.152   1.479  1.4601 -3.4131  0.0507
 1425TIP3    H2 4215   1.613   4.151   1.523  1.3937  1.4529  0.6360
 1426TIP3   OH2 4216   3.443   5.154   2.380 -0.0087 -0.0220  0.3578
 1426TIP3    H1 4217   3.538   5.167   2.375 -0.2667  1.2477 -1.2849
 1426TIP3    H2 4218   3.414   5.150   2.289 -1.4057 -1.4753  0.8371
 1427TIP3   OH2 4219   3.594   7.726   6.459  0.5067  0.0482 -0.4083
 1427TIP3    H1 4220   3.662   7.662   6.440 -1.9682 -4.2184  4.0367
 1427TIP3    H2 4221   3.619   7.766   6.542 -0.0655  1.8786 -1.0848
 1428TIP3   OH2 4222   7.668   2.985   0.038  0.5214  0.7947  0.2338
 1428TIP3    H1 4223   7.720   2.918  -0.007  0.1493  0.2227  0.6508
 1428TIP3    H2 4224   7.683   2.969   0.131 -0.8444  0.2689  0.3692
 1429TIP3   OH2 4225   1.163   6.328   1.370 -0.1285  0.2453 -0.5161
 1429TIP3    H1 4226   1.183   6.316   1.277  0.3403 -1.6179 -0.1850
 1429TIP3    H2 4227   1.068   6.343   1.371 -0.0518  0.8685 -1.3300
 1430TIP3   OH2 4228   0.991   6.030   1.635  0.1208  0.3596 -0.1069
 1430TIP3    H1 4229   0.988   5.941   1.669 -0.5498  0.9651  1.4854
 1430TIP3    H2 4230   0.958   6.023   1.545  0.6344 -1.0767 -0.1896
 1431TIP3   OH2 4231   0.607   3.495   2.112 -0.6879  0.8294 -0.3306
 1431TIP3    H1 4232   0.669   3.424   2.121 -0.7675  1.1318  3.0797
 1431TIP3    H2 4233   0.658   3.567   2.075  0.0549 -0.1044 -1.1378
 1432TIP3   OH2 4234   1.980   4.987   1.492 -0.2298 -0.3603  0.4444
 1432TIP3    H1 4235   2.011   4.897   1.482 -2.2369 -1.0349 -0.1029
 1432TIP3    H2 4236   2.001   5.010   1.583  2.4197 -0.5045 -0.0996
 1433TIP3   OH2 4237   0.514   3.672   1.030 -0.1443 -0.0328  0.1879
 1433TIP3    H1 4238   0.570   3.686   1.106  1.0214 -1.9492 -0.2971
 1433TIP3    H2 4239   0.489   3.761   1.003  0.0039  0.7028  2.3405
 1434TIP3   OH2 4240   2.077   4.156   0.595  0.0785  0.0213  0.1492
 1434TIP3    H1 4241   2.154   4.143   0.539 -0.0681  0.1380 -0.0776
 1434TIP3    H2 4242   2.103   4.119   0.679 -0.1880 -1.4015 -0.3832
 1435TIP3   OH2 4243   2.380   5.266   0.944 -0.6733 -0.4651  0.3700
 1435TIP3    H1 4244   2.422   5.349   0.969 -0.8891 -0.6960  1.5320
 1435TIP3    H2 4245   2.452   5.212   0.910 -0.5683  0.2725 -0.6048
 1436TIP3   OH2 4246   0.546   0.315   6.211 -0.8457 -0.8548 -0.4492
 1436TIP3    H1 4247   0.530   0.350   6.124  1.5789 -1.8765 -1.3499
 1436TIP3    H2 4248   0.490   0.238   6.217 -2.1414  0.0630 -0.5038
 1437TIP3   OH2 4249   3.315   7.618   6.388 -0.3750  0.6580 -0.1340
 1437TIP3    H1 4250   3.310   7.523   6.391 -2.1493  0.7554  2.0924
 1437TIP3    H2 4251   3.404   7.639   6.413 -0.3029 -0.3943  0.4988
 1438TIP3   OH2 4252   7.415   6.311   5.212 -0.0698 -0.1365 -0.4798
 1438TIP3    H1 4253   7.429   6.295   5.306  1.1381 -0.2671 -0.6794
 1438TIP3    H2 4254   7.351   6.245   5.185 -1.0874  0.4474  0.4370
 1439TIP3   OH2 4255   1.566   4.475   1.465  0.2913 -0.0531  0.3276
 1439TIP3    H1 4256   1.554   4.523   1.547  0.2505 -0.5488  0.6102
 1439TIP3    H2 4257   1.556   4.383   1.489  4.0431 -0.5115  0.4971
 1440TIP3   OH2 4258   0.033   3.976   0.571  0.0548 -0.0134  0.0663
 1440TIP3    H1 4259   0.085   3.931   0.638 -0.2293  0.2577  0.4709
 1440TIP3    H2 4260   0.075   4.061   0.561 -0.2387  0.1588  0.3029
 1441TIP3   OH2 4261   3.882   7.642   6.822  0.4569 -0.4950  0.3359
 1441TIP3    H1 4262   3.830   7.612   6.897  0.5480 -1.8106 -0.1159
 1441TIP3    H2 4263   3.922   7.562   6.787 -0.1340  0.0084 -1.5445
 1442TIP3   OH2 4264   0.991   4.409   0.513  0.6860  0.0301  0.1099
 1442TIP3    H1 4265   1.021   4.498   0.492 -0.6145 -0.1866 -3.0628
 1442TIP3    H2 4266   1.062   4.352   0.483  0.0275 -0.1385 -1.1863
 1443TIP3   OH2 4267   1.824   3.923   2.729  0.5584  0.2863 -0.6334
 1443TIP3    H1 4268   1.894   3.858   2.731  0.6201  0.3359 -1.2429
 1443TIP3    H2 4269   1.851   3.986   2.662  1.0009  1.5057  0.6532
 1444TIP3   OH2 4270   0.999   4.897   1.156  0.5248  0.1540  0.8062
 1444TIP3    H1 4271   0.952   4.975   1.127 -2.4788 -0.9043  2.6218
 1444TIP3    H2 4272   0.988   4.835   1.085 -0.6386  0.0071  1.1019
 1445TIP3   OH2 4273   7.751   4.407   2.695  0.6130  0.3499 -0.0992
 1445TIP3    H1 4274   7.832   4.380   2.651 -0.7598 -0.4405 -2.1721
 1445TIP3    H2 4275   7.749   4.354   2.775  2.2889  0.6179  0.1543
 1446TIP3   OH2 4276   0.199   3.860   2.832 -0.2767 -0.1529  0.5161
 1446TIP3    H1 4277   0.148   3.797   2.782 -0.0905  1.0228 -1.2250
 1446TIP3    H2 4278   0.220   3.815   2.914  0.7381 -2.7288 -1.0952
 1447TIP3   OH2 4279   7.406   2.679   1.927  0.3694  0.7646 -0.0523
 1447TIP3    H1 4280   7.362   2.733   1.861 -0.6472  2.7087  2.1459
 1447TIP3    H2 4281   7.475   2.735   1.962  2.5794 -1.1535 -1.2136
 1448TIP3   OH2 4282   2.816   6.107   0.462  0.2205  0.5475  0.3025
 1448TIP3    H1 4283   2.821   6.124   0.368  0.0882  0.9895  0.3735
 1448TIP3    H2 4284   2.739   6.156   0.491  1.8468  2.6499  1.1368
 1449TIP3   OH2 4285   0.265   3.220   6.007  0.4946 -0.0852  0.2909
 1449TIP3    H1 4286   0.353   3.184   6.011  0.5541  0.0341  0.0782
 1449TIP3    H2 4287   0.274   3.309   6.041  0.6889  0.3509 -0.8690
 1450TIP3   OH2 4288   0.086   0.145   6.789  0.7419  0.3186  0.7685
 1450TIP3    H1 4289   0.165   0.197   6.774  1.6961 -0.8177  1.6940
 1450TIP3    H2 4290   0.102   0.064   6.741  0.1421  0.0806  0.9737
 1451TIP3   OH2 4291   0.642   5.877   0.968  0.8140 -0.0081  0.0636
 1451TIP3    H1 4292   0.672   5.892   0.879  2.0384 -0.2232  0.4276
 1451TIP3    H2 4293   0.546   5.883   0.963  0.9541  1.6897 -0.9430
 1452TIP3   OH2 4294   1.815   3.058   4.032 -0.0660 -0.4776  0.0908
 1452TIP3    H1 4295   1.739   3.051   3.973 -0.1983  1.3144  0.0117
 1452TIP3    H2 4296   1.784   3.114   4.103  1.2042  0.3515  0.0002
 1453TIP3   OH2 4297   0.899   5.889   0.450 -0.1426  0.1242 -0.0850
 1453TIP3    H1 4298   0.936   5.803   0.430 -1.1698 -0.5999  1.0599
 1453TIP3    H2 4299   0.973   5.949   0.447  0.6096 -0.8287 -0.7356
 1454TIP3   OH2 4300   4.413   7.111   6.819 -0.2549  0.1871  0.2120
 1454TIP3    H1 4301   4.399   7.028   6.865 -0.5319  0.3308  0.3920
 1454TIP3    H2 4302   4.365   7.100   6.737  0.3835 -0.1339 -0.1216
 1455TIP3   OH2 4303   3.044   4.505   1.012 -0.4494 -0.0717  0.4390
 1455TIP3    H1 4304   3.017   4.427   0.963 -0.5175 -0.6666  1.4075
 1455TIP3    H2 4305   3.139   4.498   1.018 -0.5734 -0.8383  1.7553
 1456TIP3   OH2 4306   4.556   5.479   0.881 -0.5417  0.0174  0.7211
 1456TIP3    H1 4307   4.510   5.482   0.796 -1.3504 -1.4404  1.0777
 1456TIP3    H2 4308   4.509   5.412   0.931  0.7993 -0.1407  1.8105
 1457TIP3   OH2 4309   1.104   0.028   6.552 -0.0409 -0.1711 -0.3810
 1457TIP3    H1 4310   1.153   0.060   6.628  0.2652  0.1212 -0.6990
 1457TIP3    H2 4311   1.016   0.013   6.585 -0.0686  0.5558 -0.1157
 1458TIP3   OH2 4312   5.662   4.646   2.374  0.4880 -0.2403 -0.3685
 1458TIP3    H1 4313   5.633   4.626   2.463  1.1755 -1.0029 -0.3198
 1458TIP3    H2 4314   5.625   4.576   2.320  1.5176 -0.7508 -0.4269
 1459TIP3   OH2 4315   5.343   5.900   0.835  0.4776  0.0112 -0.1733
 1459TIP3    H1 4316   5.281   5.866   0.770 -0.7779  2.6188 -0.3783
 1459TIP3    H2 4317   5.355   5.827   0.896 -0.9962 -1.3114 -1.4063
 1460TIP3   OH2 4318   8.372   1.930   6.389  0.1816  0.1898  0.4954
 1460TIP3    H1 4319   8.282   1.921   6.356 -0.9271  3.5559  2.3744
 1460TIP3    H2 4320   8.424   1.951   6.312 -1.2432  1.4269 -0.1579
 1461TIP3   OH2 4321   5.347   4.054   2.429  0.0340  0.4503  0.2797
 1461TIP3    H1 4322   5.420   4.040   2.490  1.0621 -0.4836 -1.1489
 1461TIP3    H2 4323   5.272   4.013   2.473  0.8709 -0.6339  0.7382
 1462TIP3   OH2 4324   1.794   3.750   0.233 -0.3221  0.0895  0.6851
 1462TIP3    H1 4325   1.799   3.811   0.160  0.9219 -0.5808  0.2016
 1462TIP3    H2 4326   1.883   3.717   0.244 -0.9219 -1.4607  1.0918
 1463TIP3   OH2 4327   2.792   6.879   0.430 -0.2891  0.2878 -0.0885
 1463TIP3    H1 4328   2.736   6.834   0.493 -1.0232 -0.2158 -1.0963
 1463TIP3    H2 4329   2.743   6.958   0.406  0.3646  0.9109  0.6025
 1464TIP3   OH2 4330   4.148   6.492   1.552  0.8461 -0.0563 -0.2187
 1464TIP3    H1 4331   4.082   6.437   1.510  0.0450 -0.0107  0.9457
 1464TIP3    H2 4332   4.144   6.575   1.506  1.4813 -0.7032 -1.4489
 1465TIP3   OH2 4333   6.517   6.163   6.309  0.5212 -0.3219  0.4395
 1465TIP3    H1 4334   6.476   6.171   6.396 -0.3807 -1.0461  0.0853
 1465TIP3    H2 4335   6.505   6.249   6.269  1.8176  0.3324  1.4003
 1466TIP3   OH2 4336   0.284   1.952   6.641  0.3673 -0.0616  0.6573
 1466TIP3    H1 4337   0.331   1.877   6.678 -0.1571 -0.4804  0.4807
 1466TIP3    H2 4338   0.267   1.928   6.550  0.3497  0.3498  0.5478
 1467TIP3   OH2 4339   2.956   5.703   1.151 -0.2792 -0.1740  0.1341
 1467TIP3    H1 4340   2.901   5.776   1.122  0.5657  0.5932  0.4159
 1467TIP3    H2 4341   2.964   5.716   1.245  0.6716 -0.0719  0.0404
 1468TIP3   OH2 4342   5.221   5.915   1.145 -0.1976 -0.4192  0.6753
 1468TIP3    H1 4343   5.260   5.829   1.128  1.5514 -0.0257  2.5647
 1468TIP3    H2 4344   5.295   5.975   1.150 -1.2814  0.9282  0.9559
 1469TIP3   OH2 4345   7.506   4.867   0.361 -0.5768  0.3204  0.1595
 1469TIP3    H1 4346   7.472   4.956   0.375 -0.6495  0.5196 -1.2826
 1469TIP3    H2 4347   7.430   4.810   0.375 -0.7600  0.5531  0.1183
 1470TIP3   OH2 4348   1.139   1.145   6.539 -0.5107  0.0616 -0.1738
 1470TIP3    H1 4349   1.151   1.232   6.578 -1.9694  0.1908  0.0374
 1470TIP3    H2 4350   1.048   1.145   6.509 -0.3300 -1.1679 -0.7487
 1471TIP3   OH2 4351   0.829   1.878   4.841  0.1451 -0.5984  0.4981
 1471TIP3    H1 4352   0.799   1.969   4.837  0.0554 -0.5282  2.1384
 1471TIP3    H2 4353   0.770   1.830   4.782  0.2871  0.4223 -0.4917
 1472TIP3   OH2 4354   4.485   6.111   0.166 -0.2379  0.5268  0.2414
 1472TIP3    H1 4355   4.487   6.048   0.095 -0.6415  0.6439  0.1240
 1472TIP3    H2 4356   4.392   6.132   0.177 -0.2534 -0.0806  1.3178
 1473TIP3   OH2 4357   5.259   4.998   2.113  0.3723 -0.2849 -0.4777
 1473TIP3    H1 4358   5.346   5.018   2.148  0.4558  0.3989 -1.0579
 1473TIP3    H2 4359   5.232   4.919   2.159  0.2527  0.8789  1.5180
 1474TIP3   OH2 4360   3.323   5.456   1.567 -0.3499  0.1092  0.2751
 1474TIP3    H1 4361   3.386   5.528   1.575 -0.7612  0.4223  0.7134
 1474TIP3    H2 4362   3.372   5.386   1.524  0.8968 -0.3469  2.3639
 1475TIP3   OH2 4363   4.420   7.422   0.707  0.2084  0.3191 -0.7379
 1475TIP3    H1 4364   4.512   7.431   0.683  0.3087 -2.5343 -1.6126
 1475TIP3    H2 4365   4.376   7.401   0.625 -0.3537 -3.6002  0.4240
 1476TIP3   OH2 4366   2.891   1.314   6.842 -0.0358 -0.4395  0.0749
 1476TIP3    H1 4367   2.953   1.374   6.801  2.1450 -2.7158 -0.0938
 1476TIP3    H2 4368   2.904   1.231   6.795 -0.6416 -1.9163  2.4422
 1477TIP3   OH2 4369   5.302   5.674   0.242  0.5945  0.7359 -0.3933
 1477TIP3    H1 4370   5.337   5.763   0.237  1.0697  0.5240 -0.9583
 1477TIP3    H2 4371   5.314   5.648   0.333 -1.5679  2.0565  0.3029
 1478TIP3   OH2 4372   1.330   0.256   5.433 -0.0531 -0.0652 -0.2745
 1478TIP3    H1 4373   1.360   0.316   5.502  0.7556 -1.1569  0.3336
 1478TIP3    H2 4374   1.383   0.280   5.357 -0.2149  0.4413 -0.2359
 1479TIP3   OH2 4375   6.345   0.225   6.823 -0.7294  0.6933 -0.4641
 1479TIP3    H1 4376   6.251   0.211   6.812 -1.1449  2.6452  0.4492
 1479TIP3    H2 4377   6.353   0.281   6.900  1.1505  0.9769 -0.8269
 1480TIP3   OH2 4378   1.607   1.496   6.800  0.0034  0.5290 -0.1591
 1480TIP3    H1 4379   1.658   1.423   6.766 -2.0869 -0.9911 -0.1259
 1480TIP3    H2 4380   1.665   1.537   6.865  2.0996  0.4053 -1.9094
 1481TIP3   OH2 4381   1.476   4.263   2.949  0.0398  0.1421 -0.6111
 1481TIP3    H1 4382   1.507   4.324   2.882 -0.4752  0.5324 -0.4931
 1481TIP3    H2 4383   1.382   4.281   2.957 -0.0303 -0.3621 -0.2627
 1482TIP3   OH2 4384   3.164   5.472   0.166 -0.3037  0.1618  0.4295
 1482TIP3    H1 4385   3.083   5.506   0.204 -0.1082  1.8538 -0.6294
 1482TIP3    H2 4386   3.226   5.469   0.240 -1.0876 -0.4349  1.0749
 1483TIP3   OH2 4387   5.028   4.777   0.122 -0.2673 -0.2035  0.1682
 1483TIP3    H1 4388   5.104   4.826   0.090  1.3074 -2.0369  0.9939
 1483TIP3    H2 4389   4.995   4.829   0.195 -1.2648  1.8076 -1.6573
 1484TIP3   OH2 4390   2.277   3.041   1.828  0.1872  0.1675  0.7923
 1484TIP3    H1 4391   2.247   3.123   1.788 -0.9758 -0.8253 -0.4434
 1484TIP3    H2 4392   2.203   2.981   1.819  1.8198 -1.7509 -0.5354
 1485TIP3   OH2 4393   2.650   6.362   1.587  0.0752  0.7730  0.0676
 1485TIP3    H1 4394   2.659   6.440   1.533  0.2659  0.9044  0.2910
 1485TIP3    H2 4395   2.697   6.382   1.668 -0.7934  0.8260  0.5591
 1486TIP3   OH2 4396   8.424   2.201   6.436  0.3044 -0.1772 -0.0336
 1486TIP3    H1 4397   8.368   2.209   6.359  0.0414 -1.2027  0.0463
 1486TIP3    H2 4398   8.425   2.108   6.456 -0.5673  0.1909  1.8965
 1487TIP3   OH2 4399   2.720   5.456   2.125  0.0426 -0.1145  0.0825
 1487TIP3    H1 4400   2.732   5.519   2.053 -0.3811  2.8806  2.5317
 1487TIP3    H2 4401   2.807   5.447   2.163 -0.0350 -0.4725  0.1714
 1488TIP3   OH2 4402   4.339   4.487   1.793 -0.4029 -0.3854  0.7259
 1488TIP3    H1 4403   4.275   4.537   1.742  1.5325  0.2890 -1.1336
 1488TIP3    H2 4404   4.325   4.514   1.884 -1.1070  1.5843  0.0412
 1489TIP3   OH2 4405   1.885   5.418   0.365  0.1395 -0.2447 -0.1392
 1489TIP3    H1 4406   1.900   5.454   0.278  1.3623  1.8373  0.9055
 1489TIP3    H2 4407   1.929   5.479   0.425 -0.7999 -1.5529  1.9508
 1490TIP3   OH2 4408   5.956   2.591   6.579 -0.3012 -0.3985  0.1496
 1490TIP3    H1 4409   6.023   2.641   6.625 -1.6806 -1.0294  3.0019
 1490TIP3    H2 4410   5.974   2.500   6.604 -1.9616 -0.6046  0.6581
 1491TIP3   OH2 4411   2.447   5.051   0.300 -0.3131  0.0818 -0.1627
 1491TIP3    H1 4412   2.396   5.130   0.281  0.3188  0.1277 -1.6967
 1491TIP3    H2 4413   2.423   5.028   0.390 -1.3485  1.3778 -0.1001
 1492TIP3   OH2 4414   2.956   4.980   2.049  0.0324 -0.2445 -0.0145
 1492TIP3    H1 4415   2.864   4.963   2.066 -0.3756  1.4189 -0.3992
 1492TIP3    H2 4416   2.972   4.943   1.962 -0.2664 -0.5627  0.0682
 1493TIP3   OH2 4417   3.856   6.256   0.645  0.0326  0.1807  0.1174
 1493TIP3    H1 4418   3.938   6.213   0.620  0.0636  0.2646  0.0769
 1493TIP3    H2 4419   3.865   6.346   0.614 -0.9769 -0.3832 -1.8645
 1494TIP3   OH2 4420   0.153   4.026   0.827 -0.1363 -0.0707 -0.4328
 1494TIP3    H1 4421   0.240   4.063   0.808  0.1092 -0.7351 -0.6204
 1494TIP3    H2 4422   0.139   4.044   0.920  0.7803 -1.1123 -0.0734
 1495TIP3   OH2 4423   1.471   4.606   0.564  0.1631 -0.0998  0.1952
 1495TIP3    H1 4424   1.495   4.573   0.651  2.0875 -0.1360 -0.3339
 1495TIP3    H2 4425   1.509   4.543   0.503 -1.5243 -0.2954 -0.6865
 1496TIP3   OH2 4426   2.211   4.191   0.841 -0.0279 -0.0022 -0.1867
 1496TIP3    H1 4427   2.174   4.173   0.927 -1.9078  0.0457 -0.9631
 1496TIP3    H2 4428   2.232   4.105   0.805  0.0510 -0.0646  0.0060
 1497TIP3   OH2 4429   4.467   4.499   0.755  0.0869 -0.6715 -0.0717
 1497TIP3    H1 4430   4.459   4.407   0.729 -0.1231 -0.1319 -2.0598
 1497TIP3    H2 4431   4.379   4.526   0.779  0.2545 -1.1429  1.0879
 1498TIP3   OH2 4432   2.620   4.725  -0.012 -0.2755 -0.5563 -0.5617
 1498TIP3    H1 4433   2.626   4.685   0.075 -1.1032 -0.3113 -0.3901
 1498TIP3    H2 4434   2.574   4.807   0.003  2.9410  1.3405 -0.6210
 1499TIP3   OH2 4435   4.246   6.735   2.701 -0.6578  0.1907 -0.4385
 1499TIP3    H1 4436   4.338   6.745   2.678 -0.7526 -0.4223 -1.0962
 1499TIP3    H2 4437   4.220   6.821   2.735  0.2067  0.3043 -0.0581
 1500TIP3   OH2 4438   0.579   1.545   6.859  0.1074  0.2402 -0.2603
 1500TIP3    H1 4439   0.663   1.574   6.894 -0.7313  1.5114  0.7513
 1500TIP3    H2 4440   0.602   1.485   6.788  1.8563  1.1761 -0.5139
 1501TIP3   OH2 4441   3.704   6.427   1.600  0.0945  0.3883 -0.1647
 1501TIP3    H1 4442   3.792   6.446   1.633  0.8234 -0.8823 -1.3407
 1501TIP3    H2 4443   3.652   6.410   1.679  0.8098  1.5366  0.5547
 1502TIP3   OH2 4444   8.363   2.305   6.885 -0.1910 -0.6545  0.0615
 1502TIP3    H1 4445   8.414   2.346   6.815 -0.1263 -0.5648  0.1622
 1502TIP3    H2 4446   8.301   2.372   6.913 -1.0673 -1.0950 -0.7714
 1503TIP3   OH2 4447   7.230   7.850   5.204  0.2678 -0.1059 -0.1517
 1503TIP3    H1 4448   7.260   7.891   5.122 -2.0943  0.5684 -0.7191
 1503TIP3    H2 4449   7.152   7.801   5.179 -0.1784 -0.3203  1.6063
 1504TIP3   OH2 4450   6.721   4.268   0.773  0.3477  0.9942 -0.1172
 1504TIP3    H1 4451   6.766   4.328   0.714  1.2741 -1.0513 -1.5645
 1504TIP3    H2 4452   6.660   4.220   0.717  0.5423 -0.2943  0.7468
 1505TIP3   OH2 4453   4.560   3.348   2.955 -0.1485  0.0298  0.4123
 1505TIP3    H1 4454   4.482   3.294   2.962 -0.4258  0.0094 -2.1253
 1505TIP3    H2 4455   4.531   3.424   2.903  1.4642  0.0826 -0.4287
 1506TIP3   OH2 4456   1.607   4.931   1.651  0.0012  0.3252  0.1458
 1506TIP3    H1 4457   1.627   5.009   1.702 -0.8005 -0.0531  1.0582
 1506TIP3    H2 4458   1.513   4.918   1.663  0.2099 -1.0424  0.3732
 1507TIP3   OH2 4459   1.742   2.499   6.151  0.3170 -0.1505 -0.4910
 1507TIP3    H1 4460   1.829   2.538   6.141  1.1521 -1.8772 -0.2446
 1507TIP3    H2 4461   1.730   2.447   6.072 -0.5002  0.0998 -0.5305
 1508TIP3   OH2 4462   1.559   1.663   5.798 -0.3369 -0.3286 -0.1800
 1508TIP3    H1 4463   1.644   1.707   5.793 -0.5354 -0.0216 -0.9305
 1508TIP3    H2 4464   1.579   1.576   5.832  0.0171  0.4406  1.6133
 1509TIP3   OH2 4465   2.633   3.278   1.826  0.4572 -0.2670 -0.0960
 1509TIP3    H1 4466   2.547   3.316   1.847  0.5950 -0.3887  0.7161
 1509TIP3    H2 4467   2.696   3.342   1.859  0.6859 -0.8470  0.6011
 1510TIP3   OH2 4468   1.259   1.709   6.786  0.3990 -0.0811 -0.1225
 1510TIP3    H1 4469   1.270   1.627   6.834 -0.7467 -0.4642 -0.4862
 1510TIP3    H2 4470   1.279   1.777   6.850  0.3445 -0.6203  0.4756
 1511TIP3   OH2 4471   1.084   0.857   6.875 -0.4215  0.1184 -0.0131
 1511TIP3    H1 4472   1.086   0.855   6.779 -0.4747 -1.1723 -0.0067
 1511TIP3    H2 4473   0.991   0.865   6.897 -0.4323  0.1492 -0.0698
 1512TIP3   OH2 4474   7.233   5.840   5.719  0.2937 -0.3082  0.5086
 1512TIP3    H1 4475   7.141   5.831   5.747  0.1766 -0.4015  0.0910
 1512TIP3    H2 4476   7.283   5.801   5.791 -0.0570 -1.4527  0.1439
 1513TIP3   OH2 4477   0.150   1.725   5.891  0.2207 -0.4933 -0.5095
 1513TIP3    H1 4478   0.183   1.811   5.864  0.6119  0.0873  1.6626
 1513TIP3    H2 4479   0.215   1.663   5.860  0.1949  0.0420 -1.6599
 1514TIP3   OH2 4480   3.931   6.840   0.053 -0.4085  0.0923 -0.1975
 1514TIP3    H1 4481   4.020   6.846   0.020 -0.3858  1.0522  0.0319
 1514TIP3    H2 4482   3.878   6.819  -0.024 -0.0947  0.3303 -0.4745
 1515TIP3   OH2 4483   1.227   3.813   6.166 -0.2141  0.8003 -0.3745
 1515TIP3    H1 4484   1.245   3.906   6.155 -0.2499  0.7332 -0.9950
 1515TIP3    H2 4485   1.231   3.799   6.261  1.8509  1.0132 -0.4103
 1516TIP3   OH2 4486   2.130   0.686   5.392 -0.3757 -0.4545  0.7615
 1516TIP3    H1 4487   2.064   0.736   5.441 -0.7054 -2.7069  2.7333
 1516TIP3    H2 4488   2.173   0.632   5.459  0.5489 -2.1366 -1.1433
 1517TIP3   OH2 4489   1.196   0.591   5.875 -0.0699  0.2676 -0.1816
 1517TIP3    H1 4490   1.243   0.522   5.829  0.5238  1.1837 -0.9845
 1517TIP3    H2 4491   1.167   0.551   5.957  2.0538 -0.3392  0.2888
 1518TIP3   OH2 4492   3.947   4.353   0.302  0.1098  0.1421  0.3233
 1518TIP3    H1 4493   3.873   4.413   0.294  0.9576  0.9478 -1.7965
 1518TIP3    H2 4494   4.009   4.399   0.358 -1.2803 -0.8623  2.7547
 1519TIP3   OH2 4495   4.589   5.600   0.095 -0.0998 -0.2119 -0.0683
 1519TIP3    H1 4496   4.588   5.637   0.184 -1.9706  0.8020 -0.4862
 1519TIP3    H2 4497   4.555   5.670   0.039  2.1597 -0.4272 -1.7864
 1520TIP3   OH2 4498   4.918   6.262   1.473  0.8810  0.4178 -0.2695
 1520TIP3    H1 4499   4.830   6.261   1.434  0.9733  0.9446 -0.5021
 1520TIP3    H2 4500   4.959   6.340   1.435  0.4870  1.7491  1.9689
 1521TIP3   OH2 4501   3.251   3.564   0.829  0.2122  0.1248 -0.2215
 1521TIP3    H1 4502   3.283   3.569   0.739  2.0889 -3.2667  0.1470
 1521TIP3    H2 4503   3.208   3.479   0.834 -1.3686  1.0025  1.6466
 1522TIP3   OH2 4504   1.950   5.298   1.253  0.2669 -0.4443  0.2315
 1522TIP3    H1 4505   1.912   5.382   1.229  1.8990  0.3437  0.3983
 1522TIP3    H2 4506   1.989   5.313   1.339 -1.1775 -1.9188  1.1824
 1523TIP3   OH2 4507   0.370   4.531   1.674  0.1253 -0.5579  0.1296
 1523TIP3    H1 4508   0.330   4.617   1.684 -0.2755 -0.7362  0.0857
 1523TIP3    H2 4509   0.295   4.471   1.667  0.3760 -0.5438 -3.3546
 1524TIP3   OH2 4510   3.298   5.805   1.249 -0.2017  0.0704  0.1863
 1524TIP3    H1 4511   3.389   5.776   1.242 -0.0329  1.0180 -2.1580
 1524TIP3    H2 4512   3.258   5.744   1.310  1.7183 -1.0965  0.3306
 1525TIP3   OH2 4513   2.594   5.038   1.518  0.0045  0.2825  0.0289
 1525TIP3    H1 4514   2.627   4.980   1.587  0.0100  0.4814  0.1963
 1525TIP3    H2 4515   2.658   5.109   1.514 -0.2897  0.5578  0.2030
 1526TIP3   OH2 4516   2.777   5.871   1.614 -0.1162 -0.2571  0.1671
 1526TIP3    H1 4517   2.816   5.870   1.527 -0.2690  1.2698  0.0758
 1526TIP3    H2 4518   2.811   5.792   1.656  2.2319  0.4498 -0.3031
 1527TIP3   OH2 4519   2.744   2.424   0.466 -0.3471  0.2593 -0.2320
 1527TIP3    H1 4520   2.716   2.501   0.515  0.2673  0.6186 -0.4378
 1527TIP3    H2 4521   2.800   2.458   0.397  2.1597 -0.5755  1.3207
 1528TIP3   OH2 4522   3.094   3.604   0.138  0.4188 -0.3270  0.0103
 1528TIP3    H1 4523   3.053   3.678   0.093  1.2041  1.8857  2.7618
 1528TIP3    H2 4524   3.023   3.561   0.185  0.3835  0.3251  0.5619
 1529TIP3   OH2 4525   8.313   2.345   5.971  0.5431  0.2618  0.4335
 1529TIP3    H1 4526   8.405   2.327   5.989  1.1062  0.8354 -1.7549
 1529TIP3    H2 4527   8.290   2.286   5.900 -0.8585 -0.0254  1.0995
 1530TIP3   OH2 4528   3.399   7.023   0.842  0.1065 -0.1617 -0.0568
 1530TIP3    H1 4529   3.411   6.980   0.757 -1.0176  0.8122 -0.7107
 1530TIP3    H2 4530   3.305   7.021   0.857  0.3281 -0.6842  1.3717
 1531TIP3   OH2 4531   0.538   2.408   6.521 -0.9104  0.0090 -0.1460
 1531TIP3    H1 4532   0.512   2.456   6.599 -1.7754  0.3918 -0.6668
 1531TIP3    H2 4533   0.456   2.389   6.476 -0.3401  0.7322 -1.5091
 1532TIP3   OH2 4534   2.598   6.489   0.307  0.0218  0.2587 -0.1448
 1532TIP3    H1 4535   2.637   6.555   0.250  1.1372 -0.1776  0.0969
 1532TIP3    H2 4536   2.506   6.515   0.314  0.5218  1.9856  0.2409
 1533TIP3   OH2 4537   2.515   7.458   1.916 -0.1180 -0.3811 -0.2592
 1533TIP3    H1 4538   2.454   7.385   1.917 -0.9148  0.2417 -1.6394
 1533TIP3    H2 4539   2.466   7.532   1.951  0.5926 -0.4301  0.8605
 1534TIP3   OH2 4540   1.819   2.109   1.096 -0.1064  0.0325 -0.1473
 1534TIP3    H1 4541   1.772   2.166   1.035 -0.5098 -0.5939 -0.4330
 1534TIP3    H2 4542   1.791   2.021   1.072  0.0500 -0.2451  0.6805
 1535TIP3   OH2 4543   1.688   7.200   0.090 -0.5597 -0.2273  0.4094
 1535TIP3    H1 4544   1.606   7.164   0.056 -0.8146  1.0852 -0.3864
 1535TIP3    H2 4545   1.756   7.155   0.041 -0.8655  0.0254 -0.2496
 1536TIP3   OH2 4546   3.881   7.926   6.445 -0.0888  0.1658 -0.2333
 1536TIP3    H1 4547   3.819   7.860   6.475 -2.1073  1.5613 -1.2014
 1536TIP3    H2 4548   3.885   7.913   6.350  0.2593  0.8009 -0.3072
 1537TIP3   OH2 4549   1.406   5.443   2.024  0.0891  0.2098  0.1418
 1537TIP3    H1 4550   1.467   5.430   2.096  0.3209 -1.1628 -0.2895
 1537TIP3    H2 4551   1.330   5.389   2.047  0.4301 -0.7506 -0.9402
 1538TIP3   OH2 4552   3.457   2.074   0.119 -0.7394  0.7415 -0.1756
 1538TIP3    H1 4553   3.524   2.011   0.094 -1.4473  0.2833 -0.9800
 1538TIP3    H2 4554   3.502   2.138   0.174  0.1229 -0.1091  0.1102
 1539TIP3   OH2 4555   1.320   3.536   6.020 -0.2945 -0.2091 -0.0408
 1539TIP3    H1 4556   1.271   3.454   6.031  1.4116 -1.3680 -0.8281
 1539TIP3    H2 4557   1.350   3.558   6.108 -0.5129 -0.5733  0.1264
 1540TIP3   OH2 4558   3.707   4.859   2.345 -0.4072  0.1032  0.0870
 1540TIP3    H1 4559   3.774   4.836   2.281 -1.3498 -0.3768 -0.7549
 1540TIP3    H2 4560   3.707   4.785   2.407 -0.2214  0.0614  0.0373
 1541TIP3   OH2 4561   8.443   3.623   6.394 -0.2849  0.0712 -0.3247
 1541TIP3    H1 4562   8.423   3.558   6.326 -0.0793  0.4205 -0.7211
 1541TIP3    H2 4563   8.358   3.663   6.414 -0.6225 -1.2022  0.8390
 1542TIP3   OH2 4564   3.395   0.649   5.627 -1.0550 -0.6461 -0.2847
 1542TIP3    H1 4565   3.425   0.572   5.675 -0.1430  0.1968  0.5187
 1542TIP3    H2 4566   3.322   0.682   5.679 -1.9437 -1.4015 -1.0395
 1543TIP3   OH2 4567   0.502   2.974   6.905 -0.0826  0.3776  0.3502
 1543TIP3    H1 4568   0.494   2.935   6.992 -1.4535  1.3570  0.6751
 1543TIP3    H2 4569   0.446   3.051   6.908 -0.6488  0.0742 -1.6113
 1544TIP3   OH2 4570   3.260   0.677   0.266  0.0944 -0.3275 -0.4938
 1544TIP3    H1 4571   3.245   0.767   0.236 -0.2927  0.2478  1.3647
 1544TIP3    H2 4572   3.200   0.624   0.213 -1.1353  0.7558 -0.2145
 1545TIP3   OH2 4573   2.384   2.945   0.337 -0.0008 -0.0948  0.1143
 1545TIP3    H1 4574   2.303   2.903   0.366 -1.0427  1.6070 -0.2323
 1545TIP3    H2 4575   2.400   3.014   0.402  0.5169  0.3503 -0.4763
 1546TIP3   OH2 4576   2.543   7.363   0.215 -0.0925  0.0044 -0.4675
 1546TIP3    H1 4577   2.512   7.331   0.300  0.5292 -0.0505 -0.2567
 1546TIP3    H2 4578   2.466   7.402   0.175 -0.1340  1.0979  0.6332
 1547TIP3   OH2 4579   7.696   1.594   6.649 -0.0185 -0.2991 -0.4232
 1547TIP3    H1 4580   7.646   1.614   6.728  0.9786  0.1524  0.0899
 1547TIP3    H2 4581   7.772   1.546   6.680  2.8207  3.8551 -0.5527
 1548TIP3   OH2 4582   3.017   7.146   0.505 -0.1841  0.5391  0.2469
 1548TIP3    H1 4583   2.993   7.203   0.432 -1.4788 -0.0835  0.1750
 1548TIP3    H2 4584   2.962   7.069   0.494  0.2199  0.0799  1.4086
 1549TIP3   OH2 4585   7.522   4.027   6.845  0.4913  0.5228 -0.0127
 1549TIP3    H1 4586   7.594   3.970   6.871  1.2706  0.9007 -1.3313
 1549TIP3    H2 4587   7.549   4.064   6.761 -0.7751  1.4820 -0.0133
 1550TIP3   OH2 4588   4.289   6.785   2.291 -0.1216 -0.2171 -0.5864
 1550TIP3    H1 4589   4.286   6.881   2.291 -0.7418 -0.2352 -0.3345
 1550TIP3    H2 4590   4.382   6.764   2.285  0.0210  0.4037 -0.5708
 1551TIP3   OH2 4591   3.874   6.514   0.542  0.5200  0.0013  0.6044
 1551TIP3    H1 4592   3.785   6.517   0.506  0.8997  0.2334 -0.3430
 1551TIP3    H2 4593   3.881   6.594   0.594  0.3925  0.3209  0.1388
 1552TIP3   OH2 4594   2.031   4.883   0.214  0.3828 -0.0384  0.1527
 1552TIP3    H1 4595   2.058   4.857   0.303 -0.6729 -3.2137 -0.3814
 1552TIP3    H2 4596   2.110   4.872   0.161  0.5080 -0.0518  0.3423
 1553TIP3   OH2 4597   2.728   7.220   1.213 -0.1399  0.3950 -0.1257
 1553TIP3    H1 4598   2.787   7.174   1.153 -0.7835 -0.0867 -0.3968
 1553TIP3    H2 4599   2.782   7.236   1.291 -0.1232 -1.5517  0.3020
 1554TIP3   OH2 4600   1.585   1.957   6.054  0.1816  0.1001  0.8030
 1554TIP3    H1 4601   1.669   1.915   6.069  0.1435  0.4642  2.1313
 1554TIP3    H2 4602   1.523   1.884   6.042  0.6467 -0.1691  0.0656
 1555TIP3   OH2 4603   0.162   3.794   0.174  0.1323  0.2033 -0.1220
 1555TIP3    H1 4604   0.164   3.714   0.122  1.4576 -0.7619  1.3695
 1555TIP3    H2 4605   0.231   3.782   0.240 -3.2255  0.1955  3.5943
 1556TIP3   OH2 4606   5.526   6.036   0.647  0.0218  0.1775 -0.3421
 1556TIP3    H1 4607   5.470   5.968   0.686 -1.5776  0.2931 -2.3276
 1556TIP3    H2 4608   5.588   5.987   0.593  0.9599  0.1207  0.7907
 1557TIP3   OH2 4609   7.996   0.411   6.586  0.0553  0.0005  0.1456
 1557TIP3    H1 4610   8.064   0.446   6.644 -0.4105 -2.1015  2.0328
 1557TIP3    H2 4611   7.914   0.432   6.629 -0.4507  1.1295 -1.3295
 1558TIP3   OH2 4612   4.684   7.704   6.569 -0.0296 -0.3736  0.2578
 1558TIP3    H1 4613   4.755   7.663   6.520 -1.0056 -0.2511 -1.3053
 1558TIP3    H2 4614   4.620   7.634   6.583 -1.8041  0.5871 -2.6143
 1559TIP3   OH2 4615   4.285   4.233   2.152  0.5650 -0.7171 -0.1710
 1559TIP3    H1 4616   4.352   4.188   2.101  1.4745 -0.2334  0.6061
 1559TIP3    H2 4617   4.238   4.162   2.196 -0.4400 -1.1685 -1.9030
 1560TIP3   OH2 4618   3.099   4.106   1.379 -0.3327  0.2046  0.5288
 1560TIP3    H1 4619   3.061   4.089   1.293 -2.2014 -0.5521  1.4806
 1560TIP3    H2 4620   3.048   4.180   1.413  0.7916  0.8886  0.7445
 1561TIP3   OH2 4621   8.334   0.698   6.343 -0.1298  0.0708 -0.0102
 1561TIP3    H1 4622   8.265   0.634   6.323  0.8076 -0.2269 -2.3755
 1561TIP3    H2 4623   8.324   0.766   6.276  1.7149  0.1575 -0.2070
 1562TIP3   OH2 4624   4.611   4.734   0.643  0.2694  0.4163  0.0776
 1562TIP3    H1 4625   4.548   4.667   0.672  2.3736 -0.6597  2.3476
 1562TIP3    H2 4626   4.623   4.790   0.720  1.6455  0.9800 -0.5315
 1563TIP3   OH2 4627   3.003   2.872   2.872 -0.3989 -0.1187  0.0558
 1563TIP3    H1 4628   3.007   2.968   2.877 -1.1062 -0.0125 -1.3175
 1563TIP3    H2 4629   3.009   2.844   2.963 -2.0752  1.3188  0.6510
 1564TIP3   OH2 4630   3.218   4.440   1.958  0.9697  0.1582  0.1967
 1564TIP3    H1 4631   3.170   4.392   1.890 -2.2507  0.4999  2.0864
 1564TIP3    H2 4632   3.253   4.372   2.016 -0.1638 -0.0448  0.6615
 1565TIP3   OH2 4633   3.047   4.139   3.020 -0.5075 -0.8204  0.0606
 1565TIP3    H1 4634   3.070   4.065   2.963  1.8371 -1.5916  1.9579
 1565TIP3    H2 4635   3.095   4.213   2.984 -1.7479 -0.5042 -0.9929
 1566TIP3   OH2 4636   1.717   6.281   1.402 -0.0590  0.2020  0.0251
 1566TIP3    H1 4637   1.679   6.273   1.490 -1.7618  0.7651 -0.6229
 1566TIP3    H2 4638   1.777   6.355   1.408  0.3544 -0.1991  0.8851
 1567TIP3   OH2 4639   4.688   3.950   2.028  0.0428  0.1044  0.4395
 1567TIP3    H1 4640   4.679   4.008   2.103 -0.6604  0.8840 -0.2372
 1567TIP3    H2 4641   4.739   3.876   2.060 -0.1774  0.4793  1.6510
 1568TIP3   OH2 4642   4.962   7.365   6.346  0.1090 -0.5344  0.0185
 1568TIP3    H1 4643   4.972   7.304   6.419  0.2483 -1.2901 -0.6246
 1568TIP3    H2 4644   4.884   7.335   6.300  0.3553 -0.4202 -0.4811
 1569TIP3   OH2 4645   2.448   6.990   3.299  0.3436  0.0861 -0.4819
 1569TIP3    H1 4646   2.448   6.959   3.209  0.7698  0.9165 -0.7757
 1569TIP3    H2 4647   2.362   7.029   3.312 -0.1532 -1.1062 -0.1460
 1570TIP3   OH2 4648   3.415   5.443   1.063 -0.5218  0.2158  0.2448
 1570TIP3    H1 4649   3.358   5.432   0.987 -0.1522  1.7112 -0.2669
 1570TIP3    H2 4650   3.469   5.363   1.064 -0.2208  0.3726 -1.3293
 1571TIP3   OH2 4651   4.512   7.589   6.377  0.5953  0.0983  0.2275
 1571TIP3    H1 4652   4.550   7.549   6.298 -0.6303 -0.1972 -0.2348
 1571TIP3    H2 4653   4.447   7.525   6.406  0.8074  0.3598  1.2996
 1572TIP3   OH2 4654   3.945   5.659   0.300  0.1107  0.1446 -0.5506
 1572TIP3    H1 4655   3.887   5.600   0.348 -0.3151 -0.0521 -1.2943
 1572TIP3    H2 4656   4.032   5.619   0.308 -0.3026 -1.0577 -1.7570
 1573TIP3   OH2 4657   0.230   4.358   0.286 -1.1951  0.0218 -0.2382
 1573TIP3    H1 4658   0.303   4.410   0.254  0.0241  0.1182  2.5330
 1573TIP3    H2 4659   0.230   4.280   0.231 -0.9074  1.3884 -2.2184
 1574TIP3   OH2 4660   0.988   1.971   6.801  0.5119 -0.6259 -0.2062
 1574TIP3    H1 4661   0.899   2.004   6.814  0.2975 -0.7124 -1.4551
 1574TIP3    H2 4662   1.018   1.949   6.890 -0.8151 -0.8765  0.1911
 1575TIP3   OH2 4663   2.728   7.101   0.251 -0.0286 -0.5656 -0.1019
 1575TIP3    H1 4664   2.658   7.162   0.276  0.5010  0.0119 -0.0329
 1575TIP3    H2 4665   2.704   7.072   0.163 -0.6640 -0.8172  0.1508
 1576TIP3   OH2 4666   0.832   1.563   6.960  0.5609 -0.3028  0.3352
 1576TIP3    H1 4667   0.878   1.621   6.901  0.3860 -0.9004 -0.3922
 1576TIP3    H2 4668   0.860   1.475   6.936 -2.2131 -0.8210 -1.2696
 1577TIP3   OH2 4669   3.819   5.347   0.065 -0.2559 -0.4785  0.0368
 1577TIP3    H1 4670   3.910   5.336   0.039 -0.3012  1.3300 -1.0002
 1577TIP3    H2 4671   3.801   5.274   0.124  1.9407 -0.6859  0.4716
 1578TIP3   OH2 4672   2.266   5.779   0.446 -0.1450  0.1191  0.0276
 1578TIP3    H1 4673   2.346   5.831   0.445  0.2965 -0.5495 -0.9293
 1578TIP3    H2 4674   2.195   5.843   0.456  0.3324  0.9949 -1.9793
 1579TIP3   OH2 4675   0.764   1.051   6.704 -0.6496 -0.4464  0.4941
 1579TIP3    H1 4676   0.797   1.024   6.790  0.3011  1.2543  0.6897
 1579TIP3    H2 4677   0.688   1.105   6.723  0.2024  0.8309  0.3343
 1580TIP3   OH2 4678   3.179   4.836   1.264  0.1630  0.7866  0.2285
 1580TIP3    H1 4679   3.220   4.921   1.243 -1.2055  1.2839 -0.5234
 1580TIP3    H2 4680   3.086   4.849   1.243  0.1071 -1.2080 -0.8195
 1581TIP3   OH2 4681   2.207   2.705   6.260 -0.0758  0.0947  0.2068
 1581TIP3    H1 4682   2.249   2.765   6.198  1.1642 -1.5754 -0.6098
 1581TIP3    H2 4683   2.279   2.664   6.307 -0.7580 -2.3483 -0.7698
 1582TIP3   OH2 4684   6.546   4.006   1.107 -0.1090 -0.2895 -0.5194
 1582TIP3    H1 4685   6.635   4.038   1.127  0.3083 -0.9330 -1.3175
 1582TIP3    H2 4686   6.488   4.076   1.136  0.6918  0.3513 -0.4576
 1583TIP3   OH2 4687   0.645   0.812   6.623 -0.4164 -0.4583 -0.0617
 1583TIP3    H1 4688   0.674   0.900   6.647  0.4448 -0.5221 -0.8651
 1583TIP3    H2 4689   0.663   0.759   6.701  1.5303 -0.4751 -0.5058
 1584TIP3   OH2 4690   4.045   4.009   1.496  0.4091 -0.2390  0.1042
 1584TIP3    H1 4691   4.036   4.000   1.401  0.3905 -0.8705  0.1647
 1584TIP3    H2 4692   4.139   4.021   1.509  0.6152 -1.7230  0.1223
 1585TIP3   OH2 4693   5.245   6.555   6.922 -0.1733 -0.0722  0.2786
 1585TIP3    H1 4694   5.287   6.474   6.893  0.6931  0.3594  0.3082
 1585TIP3    H2 4695   5.157   6.529   6.948 -0.3515 -0.7830 -0.9932
 1586TIP3   OH2 4696   3.492   4.573   2.265  0.1549 -0.5369  0.5530
 1586TIP3    H1 4697   3.421   4.623   2.224 -0.1010 -1.1771  0.2074
 1586TIP3    H2 4698   3.473   4.577   2.359 -0.2506 -0.5652  0.4743
 1587TIP3   OH2 4699   2.000   5.969   0.415  0.0844  0.3245 -0.5189
 1587TIP3    H1 4700   1.918   6.018   0.426  0.2776  0.9395 -1.7219
 1587TIP3    H2 4701   1.975   5.893   0.362  0.0013 -0.2981  0.4053
 1588TIP3   OH2 4702   0.843   5.692   1.368 -0.0302 -0.4561 -1.0990
 1588TIP3    H1 4703   0.855   5.693   1.463  1.0160  1.7697 -1.2325
 1588TIP3    H2 4704   0.877   5.606   1.341 -0.1574 -1.0347  0.4998
 1589TIP3   OH2 4705   2.219   5.176   0.133 -0.2859  0.5458  0.0825
 1589TIP3    H1 4706   2.205   5.096   0.083  1.4641 -0.0971  0.5651
 1589TIP3    H2 4707   2.141   5.185   0.187 -0.4379 -0.9014  0.1144
 1590TIP3   OH2 4708   4.728   2.584   1.860 -0.4755  0.2179 -0.3837
 1590TIP3    H1 4709   4.766   2.580   1.948  0.6403  0.2042 -0.8586
 1590TIP3    H2 4710   4.706   2.676   1.847  0.3026  0.3897 -0.4843
 1591TIP3   OH2 4711   2.597   6.281   0.519 -0.2303  0.1397 -0.3846
 1591TIP3    H1 4712   2.504   6.302   0.527  0.0188  1.9604 -1.7574
 1591TIP3    H2 4713   2.633   6.354   0.468  2.1886  0.1094  1.1868
 1592TIP3   OH2 4714   0.285   1.437   6.442  0.2401 -0.0415 -0.0668
 1592TIP3    H1 4715   0.248   1.480   6.365 -0.6075  0.8810  0.8351
 1592TIP3    H2 4716   0.318   1.509   6.496  2.4432 -0.7904 -0.3721
 1593TIP3   OH2 4717   5.960   1.814   0.885 -0.6094  0.0525  0.1759
 1593TIP3    H1 4718   5.865   1.801   0.891 -0.8093  2.0076  1.8064
 1593TIP3    H2 4719   5.997   1.736   0.926 -1.5012 -0.7308 -0.4712
 1594TIP3   OH2 4720   6.077   7.296   5.747 -0.1692  0.3132  0.1113
 1594TIP3    H1 4721   5.983   7.310   5.750 -0.1147  0.6157  0.4689
 1594TIP3    H2 4722   6.105   7.292   5.838  0.0938 -0.2790  0.0050
 1595TIP3   OH2 4723   2.641   1.354   6.725 -0.0663  0.3696 -0.7997
 1595TIP3    H1 4724   2.677   1.382   6.641  0.8624 -1.4717 -1.0464
 1595TIP3    H2 4725   2.713   1.364   6.787  0.1892 -1.1445 -0.8390
 1596TIP3   OH2 4726   7.965   0.291   5.599 -0.0246 -0.2636 -0.1717
 1596TIP3    H1 4727   8.028   0.308   5.668 -0.8959  0.2510  0.5083
 1596TIP3    H2 4728   8.009   0.230   5.540  1.5623  1.0427 -0.3625
 1597TIP3   OH2 4729   6.257   2.404   6.142 -0.8007  0.3807  0.0128
 1597TIP3    H1 4730   6.302   2.320   6.146  0.1599  0.8699 -0.3287
 1597TIP3    H2 4731   6.225   2.419   6.231  0.5590  0.4859  0.4862
 1598TIP3   OH2 4732   1.605   7.190   0.460 -0.0217 -0.3393  0.3399
 1598TIP3    H1 4733   1.554   7.118   0.497 -0.4905  0.0626  0.4877
 1598TIP3    H2 4734   1.644   7.154   0.381 -0.1117 -0.8092  0.5104
 1599TIP3   OH2 4735   1.077   2.491   6.753  0.3035  0.4434  0.1056
 1599TIP3    H1 4736   1.087   2.400   6.725  0.3074  0.4951 -0.0589
 1599TIP3    H2 4737   1.144   2.503   6.821  0.2795  0.3145  0.1524
 1600TIP3   OH2 4738   7.296   2.541   4.664  0.3483  0.0300 -0.2825
 1600TIP3    H1 4739   7.229   2.504   4.606  0.4397 -0.6540  0.0383
 1600TIP3    H2 4740   7.256   2.538   4.751  0.9975 -0.9016 -0.0039
 1601TIP3   OH2 4741   2.925   4.312   1.496  0.1560  0.0884  0.2899
 1601TIP3    H1 4742   2.843   4.273   1.529  0.0531  1.0660  1.2265
 1601TIP3    H2 4743   2.942   4.384   1.556  0.1503  1.7207 -1.6289
 1602TIP3   OH2 4744   7.148   2.749   3.859 -0.3351  0.1705  0.4374
 1602TIP3    H1 4745   7.101   2.686   3.804  0.6225 -0.1049 -0.0773
 1602TIP3    H2 4746   7.191   2.695   3.926  0.3010  0.3028  0.1330
 1603TIP3   OH2 4747   5.597   7.212   6.336  0.0079 -0.1977  0.1820
 1603TIP3    H1 4748   5.596   7.125   6.295 -1.6226 -0.4733  0.7855
 1603TIP3    H2 4749   5.645   7.199   6.418  2.7983  0.2356 -1.3336
 1604TIP3   OH2 4750   5.203   7.761   5.487 -0.0834  0.5741 -0.5534
 1604TIP3    H1 4751   5.120   7.749   5.534 -1.0886 -0.8556 -2.6101
 1604TIP3    H2 4752   5.189   7.839   5.433  0.5218  1.3033  0.3212
 1605TIP3   OH2 4753   3.141   0.704   6.549  0.1249  0.4364 -0.2170
 1605TIP3    H1 4754   3.235   0.699   6.565 -0.3865  0.8432  3.5442
 1605TIP3    H2 4755   3.120   0.624   6.500  2.4725  0.6243 -1.5836
 1606TIP3   OH2 4756   7.607   0.425   5.972 -0.4434 -0.5271 -0.2164
 1606TIP3    H1 4757   7.608   0.494   5.906 -0.6955 -0.0667  0.2564
 1606TIP3    H2 4758   7.526   0.377   5.955 -2.6933  2.1502  2.3449
 1607TIP3   OH2 4759   0.183   0.036   5.716 -0.3840 -0.6963  0.0843
 1607TIP3    H1 4760   0.251   0.097   5.687  2.5211 -4.1444 -0.6161
 1607TIP3    H2 4761   0.211   0.009   5.803 -2.2179 -0.3155  0.8215
 1608TIP3   OH2 4762   0.847   1.506   6.190 -0.2834  0.0031 -0.3569
 1608TIP3    H1 4763   0.903   1.437   6.226 -2.8032 -2.3216 -0.7430
 1608TIP3    H2 4764   0.771   1.508   6.248 -0.4758  2.1643 -0.6430
 1609TIP3   OH2 4765   0.034   0.903   6.771 -0.2385 -0.7145  0.1028
 1609TIP3    H1 4766   0.027   0.873   6.861  1.1916  1.2304  0.8895
 1609TIP3    H2 4767  -0.024   0.979   6.767 -0.4637 -0.9195 -0.6864
 1610TIP3   OH2 4768   3.407   3.621   2.637  0.4539 -0.1193 -0.7813
 1610TIP3    H1 4769   3.394   3.716   2.635  0.8163 -0.0700 -0.8671
 1610TIP3    H2 4770   3.475   3.609   2.703 -0.1598 -0.3874 -0.1903
 1611TIP3   OH2 4771   1.019   2.246   5.794 -0.4190  0.2760 -0.2113
 1611TIP3    H1 4772   0.959   2.191   5.744 -0.8529 -0.4915  1.1426
 1611TIP3    H2 4773   0.966   2.285   5.863  0.7901 -1.1732  1.6044
 1612TIP3   OH2 4774   0.775   3.014   6.888 -0.2346  0.4576  0.6172
 1612TIP3    H1 4775   0.689   3.016   6.846  0.4695  0.3039 -0.8835
 1612TIP3    H2 4776   0.769   3.079   6.958 -1.4018  0.8295  0.1861
 1613TIP3   OH2 4777   2.083   2.795   0.682 -0.0501  0.7095  0.5759
 1613TIP3    H1 4778   1.997   2.757   0.701  0.1251  0.4439  0.8510
 1613TIP3    H2 4779   2.123   2.808   0.768  0.3801  0.3687  0.4303
 1614TIP3   OH2 4780   8.117   2.158   6.396  0.2705 -0.1849 -0.1824
 1614TIP3    H1 4781   8.148   2.108   6.320 -0.4529  0.3442 -0.8271
 1614TIP3    H2 4782   8.027   2.129   6.408  0.4451 -0.4021  0.5870
 1615TIP3   OH2 4783   2.821   4.345   0.211 -0.2388  0.0395 -0.8388
 1615TIP3    H1 4784   2.770   4.423   0.229 -0.1524  0.0572 -0.6703
 1615TIP3    H2 4785   2.805   4.287   0.286  0.2170  0.1638 -0.6431
 1616TIP3   OH2 4786   6.008   4.240   2.627  0.2780 -0.6757 -0.6107
 1616TIP3    H1 4787   6.030   4.263   2.537  0.1737  1.4867 -0.1191
 1616TIP3    H2 4788   5.960   4.158   2.620  3.6588 -2.6401 -2.1788
 1617TIP3   OH2 4789   7.112   0.038   1.676 -0.4358 -0.0146  0.6191
 1617TIP3    H1 4790   7.117   0.119   1.625  0.7209 -0.1134  0.5837
 1617TIP3    H2 4791   7.070  -0.024   1.616  0.6763 -0.0559 -0.1284
 1618TIP3   OH2 4792   5.718   4.980   1.554  0.1087  0.1650  0.6392
 1618TIP3    H1 4793   5.682   4.897   1.523 -0.9379  0.4485  1.0670
 1618TIP3    H2 4794   5.667   5.046   1.508  1.4046  0.5795 -0.2304
 1619TIP3   OH2 4795   6.698   1.283   6.603 -0.5661  0.1518 -0.3571
 1619TIP3    H1 4796   6.632   1.337   6.559  0.9592  1.8148 -0.6348
 1619TIP3    H2 4797   6.732   1.227   6.533 -1.1632 -0.2108 -0.3639
 1620TIP3   OH2 4798   1.322   2.478   5.465  0.8180 -0.4703  0.0857
 1620TIP3    H1 4799   1.266   2.542   5.508  0.0735 -2.0483  1.5212
 1620TIP3    H2 4800   1.328   2.508   5.374 -0.0726  1.2377  0.5832
 1621TIP3   OH2 4801   1.083   1.812   4.730  0.1204 -0.4625  0.6197
 1621TIP3    H1 4802   1.076   1.753   4.655  1.2121  1.2167 -0.8782
 1621TIP3    H2 4803   0.993   1.838   4.748 -0.1694 -0.9609 -0.0700
 1622TIP3   OH2 4804   3.767   0.167   6.737 -0.7467 -0.2857  0.2965
 1622TIP3    H1 4805   3.828   0.240   6.739 -1.3163  0.2362 -0.8423
 1622TIP3    H2 4806   3.788   0.120   6.656 -2.0803  0.1078 -0.2937
 1623TIP3   OH2 4807   4.543   3.723   1.265  0.2222  0.7998 -0.2791
 1623TIP3    H1 4808   4.544   3.699   1.173 -0.2134 -1.8477  0.3537
 1623TIP3    H2 4809   4.454   3.754   1.281 -0.4877 -1.1948 -0.2036
 1624TIP3   OH2 4810   1.859   5.093   5.740  0.0739 -0.6947 -0.1714
 1624TIP3    H1 4811   1.828   5.110   5.828 -2.5247  2.0956 -1.5322
 1624TIP3    H2 4812   1.950   5.123   5.740 -0.2972  0.4686  1.2149
 1625TIP3   OH2 4813   4.179   5.757   2.259 -0.2295 -0.3073 -0.0824
 1625TIP3    H1 4814   4.218   5.726   2.341 -1.3721 -0.5039  0.4056
 1625TIP3    H2 4815   4.249   5.806   2.216  0.0838  0.6727  1.4870
 1626TIP3   OH2 4816   2.102   2.509   6.708 -0.2748 -0.2198  0.0285
 1626TIP3    H1 4817   2.165   2.572   6.742  0.4922 -1.8172  1.6003
 1626TIP3    H2 4818   2.049   2.484   6.784 -2.1113  0.2738 -1.0522
 1627TIP3   OH2 4819   4.399   6.607   1.528  0.1508  0.0948  1.4784
 1627TIP3    H1 4820   4.336   6.537   1.549  1.3717 -1.7901 -0.8707
 1627TIP3    H2 4821   4.475   6.587   1.582  0.6403 -0.6419  0.5328
 1628TIP3   OH2 4822   2.687   2.096   6.187 -0.6448 -0.3803  0.1152
 1628TIP3    H1 4823   2.594   2.116   6.192 -1.0650 -1.7623 -1.7733
 1628TIP3    H2 4824   2.698   2.019   6.243 -0.6544 -0.2941  0.2363
 1629TIP3   OH2 4825   8.100   3.427   6.240 -0.1183 -0.0201  0.3866
 1629TIP3    H1 4826   8.117   3.352   6.296  0.8711  0.4096  0.6737
 1629TIP3    H2 4827   8.184   3.443   6.195 -0.8439 -0.2632 -1.0878
 1630TIP3   OH2 4828   5.022   5.741   3.703 -0.0584 -0.1490  0.0837
 1630TIP3    H1 4829   5.089   5.803   3.674 -0.6634  0.3066 -0.3507
 1630TIP3    H2 4830   5.065   5.656   3.698  0.1861  0.0327 -1.1790
 1631TIP3   OH2 4831   4.592   4.389   1.894 -0.5143  0.2004 -0.2271
 1631TIP3    H1 4832   4.560   4.380   1.983  1.3751  0.5191  0.5083
 1631TIP3    H2 4833   4.532   4.336   1.841 -0.0588 -2.2193  1.6044
 1632TIP3   OH2 4834   1.523   0.870   6.692  0.1568  0.2123 -0.9316
 1632TIP3    H1 4835   1.583   0.825   6.632  1.6511  2.2408 -0.9866
 1632TIP3    H2 4836   1.580   0.924   6.746 -1.4708  0.6941  0.3147
 1633TIP3   OH2 4837   2.175   3.757   5.400 -0.1595 -0.0990  0.0357
 1633TIP3    H1 4838   2.186   3.846   5.368 -0.8281  0.1119  0.3742
 1633TIP3    H2 4839   2.080   3.744   5.402 -0.0857 -0.5586  0.6931
 1634TIP3   OH2 4840   4.944   6.411   0.546  0.1086  0.1363  0.4294
 1634TIP3    H1 4841   4.887   6.462   0.603  0.9342  0.6862  0.7720
 1634TIP3    H2 4842   4.909   6.322   0.550 -1.0384  0.5709  0.2138
 1635TIP3   OH2 4843   0.507   1.079   6.518 -0.0538  0.0711  0.1423
 1635TIP3    H1 4844   0.514   0.993   6.478  0.0431 -0.6872  1.7281
 1635TIP3    H2 4845   0.422   1.078   6.562  1.3633 -0.4942  2.9927
 1636TIP3   OH2 4846   2.874   5.083   1.407 -0.0941 -0.4212 -0.0877
 1636TIP3    H1 4847   2.878   5.174   1.377  0.1561 -0.4915 -0.2767
 1636TIP3    H2 4848   2.868   5.032   1.326  0.0315 -0.5832  0.0056
 1637TIP3   OH2 4849   4.372   7.014   1.971  0.1507  0.3990  0.0832
 1637TIP3    H1 4850   4.361   7.026   1.877  0.0894 -1.4701 -0.1609
 1637TIP3    H2 4851   4.334   7.094   2.009 -0.7888  0.7036 -1.4216
 1638TIP3   OH2 4852   2.277   0.090   5.012  0.2287 -0.4051 -0.0188
 1638TIP3    H1 4853   2.293   0.136   4.929  0.0573 -2.9491 -1.5206
 1638TIP3    H2 4854   2.255   0.160   5.074  1.5951  1.6792 -1.7878
 1639TIP3   OH2 4855   0.804   2.414   5.029 -0.0960  0.4070 -0.0199
 1639TIP3    H1 4856   0.898   2.411   5.042 -0.2595 -2.4034  0.7332
 1639TIP3    H2 4857   0.767   2.413   5.118 -0.8596 -0.0968 -0.3357
 1640TIP3   OH2 4858   2.781   5.342   0.220 -0.1979  0.4309 -0.1311
 1640TIP3    H1 4859   2.753   5.321   0.132 -0.9176  0.0466  0.1870
 1640TIP3    H2 4860   2.829   5.265   0.250  0.1231  0.5954 -0.2178
 1641TIP3   OH2 4861   4.050   6.745   1.453 -0.1111 -0.4634  0.9421
 1641TIP3    H1 4862   4.023   6.833   1.426 -1.5836 -0.9432  0.7804
 1641TIP3    H2 4863   3.982   6.717   1.515 -0.0395 -1.7716  0.4456
 1642TIP3   OH2 4864   4.781   6.836   2.705  0.2368  0.1427 -0.1422
 1642TIP3    H1 4865   4.829   6.903   2.655  0.8759  0.0824  0.3772
 1642TIP3    H2 4866   4.811   6.753   2.668  2.8811 -0.0270  2.1767
 1643TIP3   OH2 4867   8.183   0.523   6.747 -0.0591  0.2177 -0.6977
 1643TIP3    H1 4868   8.206   0.611   6.777 -0.1296 -0.1521  0.4495
 1643TIP3    H2 4869   8.248   0.466   6.788 -0.5445 -0.3611 -0.7260
 1644TIP3   OH2 4870   1.410   1.424   4.749  0.3589 -0.2578 -0.1138
 1644TIP3    H1 4871   1.463   1.356   4.708  1.0203  1.6581 -2.6019
 1644TIP3    H2 4872   1.330   1.428   4.696  0.2946  0.8340  0.0523
 1645TIP3   OH2 4873   1.590   3.624   6.615  0.2155 -0.2726 -0.1155
 1645TIP3    H1 4874   1.519   3.674   6.573 -0.3811 -1.7556 -0.9154
 1645TIP3    H2 4875   1.669   3.656   6.571 -0.1153  0.2446 -0.3525
 1646TIP3   OH2 4876   3.682   5.014   1.811 -0.3192  0.7658  0.0124
 1646TIP3    H1 4877   3.717   4.978   1.730 -1.1508  1.9533 -0.8919
 1646TIP3    H2 4878   3.600   5.055   1.785  0.2827  2.7328  1.1243
 1647TIP3   OH2 4879   1.336   6.695   0.846  0.2014 -0.0294 -0.1607
 1647TIP3    H1 4880   1.317   6.603   0.830  0.2919 -0.1819  0.5954
 1647TIP3    H2 4881   1.378   6.697   0.932  0.3598  0.6981 -0.2463
 1648TIP3   OH2 4882   3.056   2.825   5.515 -0.4619 -0.0921  0.6267
 1648TIP3    H1 4883   3.081   2.738   5.484 -1.9611  0.1983 -1.4173
 1648TIP3    H2 4884   3.020   2.809   5.602 -1.8607 -1.6851 -0.2202
 1649TIP3   OH2 4885   6.581   3.774   1.241 -0.1423  0.3698  0.2751
 1649TIP3    H1 4886   6.536   3.856   1.218 -1.4793 -0.4649 -0.1418
 1649TIP3    H2 4887   6.652   3.801   1.298 -1.1974  1.7279  0.9833
 1650TIP3   OH2 4888   4.431   4.056   1.988 -0.0617  0.3223 -0.6031
 1650TIP3    H1 4889   4.517   4.015   1.995  0.0874  0.7078 -0.1748
 1650TIP3    H2 4890   4.414   4.060   1.894  0.0382 -0.4782 -0.6577
 1651TIP3   OH2 4891   4.085   5.893   1.662  0.2058  0.0580  0.1197
 1651TIP3    H1 4892   4.043   5.860   1.742 -1.3460 -0.1444 -0.7613
 1651TIP3    H2 4893   4.123   5.978   1.688  1.0275 -0.6991  1.4457
 1652TIP3   OH2 4894   7.678   0.860   1.916  0.1838 -0.0036  0.2954
 1652TIP3    H1 4895   7.736   0.906   1.856  0.4670 -0.2776  0.3588
 1652TIP3    H2 4896   7.639   0.790   1.863 -1.8628  1.5783 -0.3809
 1653TIP3   OH2 4897   6.204   6.290   0.469 -0.2162 -0.5358 -0.3072
 1653TIP3    H1 4898   6.222   6.331   0.384 -1.0026  4.6693  1.8544
 1653TIP3    H2 4899   6.291   6.278   0.508 -0.0491  0.2800 -0.4270
 1654TIP3   OH2 4900   4.540   4.266   2.526 -0.2712 -0.4100 -0.2167
 1654TIP3    H1 4901   4.604   4.305   2.585  0.2840 -0.8134 -0.5457
 1654TIP3    H2 4902   4.478   4.337   2.507  0.5319  0.2033 -0.5289
 1655TIP3   OH2 4903   3.859   4.536   1.343 -0.2167 -0.0769  0.3820
 1655TIP3    H1 4904   3.874   4.487   1.263  0.6053  2.0892 -0.8421
 1655TIP3    H2 4905   3.944   4.576   1.363 -0.1929 -1.2370  2.8030
 1656TIP3   OH2 4906   5.211   4.957   0.051  0.0750 -0.1453  0.0789
 1656TIP3    H1 4907   5.248   5.001  -0.026  1.7650 -1.5370  0.0616
 1656TIP3    H2 4908   5.205   5.025   0.118  0.5499  0.6069 -0.6347
 1657TIP3   OH2 4909   5.936   6.387   3.562 -0.0789  0.3326 -0.1838
 1657TIP3    H1 4910   5.851   6.431   3.569  0.2078  0.7100  0.9934
 1657TIP3    H2 4911   5.988   6.423   3.633  1.1262  0.1956 -0.9778
 1658TIP3   OH2 4912   3.471   5.185   0.933 -0.2329  0.0810 -0.3800
 1658TIP3    H1 4913   3.389   5.218   0.895 -0.3412 -1.3385 -1.4204
 1658TIP3    H2 4914   3.491   5.107   0.882  1.4141  0.0237  0.3238
 1659TIP3   OH2 4915   2.110   2.419   6.462  0.4061 -0.0620  0.0172
 1659TIP3    H1 4916   2.128   2.457   6.548  1.3595 -0.6760  0.1042
 1659TIP3    H2 4917   2.025   2.454   6.436  0.5308  0.8230  0.8163
 1660TIP3   OH2 4918   5.516   7.187   1.536 -0.2697 -0.2048  0.5300
 1660TIP3    H1 4919   5.464   7.138   1.601 -1.5771 -2.3016 -1.9901
 1660TIP3    H2 4920   5.588   7.128   1.515 -0.6614 -0.1604 -0.9644
 1661TIP3   OH2 4921   5.169   6.169   0.623 -0.3607 -0.6682  0.1092
 1661TIP3    H1 4922   5.184   6.260   0.598  0.6222 -1.2995 -1.6702
 1661TIP3    H2 4923   5.255   6.138   0.654 -1.0401 -0.5566  2.1526
 1662TIP3   OH2 4924   5.905   7.786   1.218  0.1661 -0.4537  0.3006
 1662TIP3    H1 4925   5.946   7.743   1.143  0.3901 -0.9832  0.7181
 1662TIP3    H2 4926   5.841   7.722   1.250 -2.1334  0.9758 -1.2899
 1663TIP3   OH2 4927   4.235   3.606   2.003  0.7903  0.1377  0.0039
 1663TIP3    H1 4928   4.311   3.657   1.975  0.3477  0.8298  0.0622
 1663TIP3    H2 4929   4.216   3.639   2.091  1.1564 -0.8706  0.4785
 1664TIP3   OH2 4930   4.770   4.269   0.886 -0.3016  0.1918  0.2964
 1664TIP3    H1 4931   4.731   4.349   0.922  0.5001  1.3610 -1.3657
 1664TIP3    H2 4932   4.698   4.225   0.842 -0.5588  0.4326  0.4726
 1665TIP3   OH2 4933   4.307   5.454   1.266 -0.2693 -0.2781  0.0386
 1665TIP3    H1 4934   4.365   5.504   1.324 -0.1380 -1.3042  0.7896
 1665TIP3    H2 4935   4.237   5.515   1.245 -0.8431 -0.2033  2.0796
 1666TIP3   OH2 4936   5.330   6.868   0.294 -0.0986  0.4975  0.1201
 1666TIP3    H1 4937   5.374   6.950   0.315  0.1076 -0.4023  3.4580
 1666TIP3    H2 4938   5.401   6.804   0.284 -0.3790  0.2337 -0.2546
 1667TIP3   OH2 4939   4.864   2.013   1.413 -0.3448 -0.0639 -0.1272
 1667TIP3    H1 4940   4.829   2.052   1.494  0.0016 -0.0564  0.0198
 1667TIP3    H2 4941   4.957   2.032   1.416  0.0467 -1.9850  0.5648
 1668TIP3   OH2 4942   6.192   5.701   0.286  0.1156  0.7454  0.3801
 1668TIP3    H1 4943   6.213   5.794   0.290  0.8057  0.6019  0.0564
 1668TIP3    H2 4944   6.096   5.698   0.284  0.0524  1.3979  1.7769
 1669TIP3   OH2 4945   3.568   7.737   1.741  0.2393 -0.3528 -0.0775
 1669TIP3    H1 4946   3.646   7.765   1.788 -0.5100  1.3268  0.1862
 1669TIP3    H2 4947   3.594   7.654   1.700  1.9673 -0.1110  0.4739
 1670TIP3   OH2 4948   4.179   4.436   1.494  0.2087  0.3179  0.0569
 1670TIP3    H1 4949   4.142   4.498   1.431 -0.2464  0.6591  0.6526
 1670TIP3    H2 4950   4.246   4.389   1.445  0.3787  1.1044 -0.4696
 1671TIP3   OH2 4951   3.919   6.576   0.241 -0.1479 -0.4533  0.3687
 1671TIP3    H1 4952   3.915   6.652   0.182  1.8400 -0.1210  0.6282
 1671TIP3    H2 4953   3.829   6.563   0.270 -1.5169 -1.5796 -3.9604
 1672TIP3   OH2 4954   4.119   6.531   0.018  0.5557 -0.7266  0.1568
 1672TIP3    H1 4955   4.089   6.621   0.006  0.6009 -0.7696 -0.2965
 1672TIP3    H2 4956   4.088   6.506   0.105  0.4382 -0.3160  0.2324
 1673TIP3   OH2 4957   1.126   7.013   6.287  0.4543 -0.3669  0.5686
 1673TIP3    H1 4958   1.100   6.952   6.356 -0.4029  0.3818  0.9128
 1673TIP3    H2 4959   1.142   6.957   6.211 -0.4792 -1.0083  0.8351
 1674TIP3   OH2 4960   6.253   6.295   1.624 -0.5679  0.3586  0.5554
 1674TIP3    H1 4961   6.177   6.341   1.658  1.0532  2.2093  1.8329
 1674TIP3    H2 4962   6.243   6.205   1.654 -2.4613  0.4682  0.2853
 1675TIP3   OH2 4963   8.207   0.310   6.178 -0.2345 -0.1354  0.1749
 1675TIP3    H1 4964   8.165   0.244   6.124  1.7674 -2.3355  1.1685
 1675TIP3    H2 4965   8.182   0.287   6.268  0.7554  0.2257  0.5571
 1676TIP3   OH2 4966   5.151   5.775   0.664  0.6852  0.3382  0.6985
 1676TIP3    H1 4967   5.116   5.744   0.748 -0.4258 -0.8464 -0.2036
 1676TIP3    H2 4968   5.074   5.789   0.609  1.3534  1.9230  0.1228
 1677TIP3   OH2 4969   4.152   6.286   0.626  0.4836  0.0523  0.1102
 1677TIP3    H1 4970   4.168   6.346   0.699  3.8859 -1.0503  0.3924
 1677TIP3    H2 4971   4.168   6.340   0.547 -1.7656  0.8675  0.1904
 1678TIP3   OH2 4972   7.489   2.033   1.021 -0.1101  0.3901  0.0098
 1678TIP3    H1 4973   7.435   1.963   1.057 -0.9071  1.3189  0.6591
 1678TIP3    H2 4974   7.578   2.000   1.026 -0.5692 -0.9826 -0.6525
 1679TIP3   OH2 4975   8.470   5.715   1.839 -0.1334 -0.3558 -0.0245
 1679TIP3    H1 4976   8.447   5.623   1.851 -1.2496  0.1093  1.6134
 1679TIP3    H2 4977   8.412   5.762   1.899 -0.0301  1.4673 -1.3141
 1680TIP3   OH2 4978   8.005   1.971   6.662 -0.0221 -0.5735 -0.4873
 1680TIP3    H1 4979   8.094   1.937   6.651 -0.2119 -1.3203  0.2312
 1680TIP3    H2 4980   7.985   1.955   6.754 -0.4809  0.6098 -0.3754
 1681TIP3   OH2 4981   3.606   6.214   1.435 -0.2143 -0.2225  0.2596
 1681TIP3    H1 4982   3.665   6.169   1.374 -0.3853  0.9146 -0.7584
 1681TIP3    H2 4983   3.650   6.296   1.456 -0.6204 -0.1611  0.8965
 1682TIP3   OH2 4984   3.958   2.025   6.046 -0.4222  0.1241  0.1358
 1682TIP3    H1 4985   3.952   1.942   5.998 -0.3898 -0.0806  0.4870
 1682TIP3    H2 4986   3.995   2.001   6.131  1.2041  0.7445 -0.3848
 1683TIP3   OH2 4987   6.125   4.315   6.708  0.3932 -0.1679  0.6920
 1683TIP3    H1 4988   6.154   4.235   6.664  0.5256 -1.0462  2.3317
 1683TIP3    H2 4989   6.137   4.297   6.801 -0.2609  1.5007  1.1211
 1684TIP3   OH2 4990   0.044   5.645   1.403  0.2003 -0.0325  0.4431
 1684TIP3    H1 4991   0.109   5.710   1.430  0.2190  1.0042 -1.9567
 1684TIP3    H2 4992   0.088   5.561   1.412  1.4992  0.5862 -0.0964
 1685TIP3   OH2 4993   7.797   3.540   6.790 -0.0608  0.3499 -0.6280
 1685TIP3    H1 4994   7.724   3.532   6.728  0.6395 -0.9897 -1.3020
 1685TIP3    H2 4995   7.864   3.482   6.755  0.0591 -1.0642  1.7992
 1686TIP3   OH2 4996   2.832   7.772   3.039  0.3424  0.2731  0.1936
 1686TIP3    H1 4997   2.882   7.693   3.062 -0.0589 -0.2663 -0.7710
 1686TIP3    H2 4998   2.753   7.739   2.996 -0.6782  1.1353  1.3657
 1687TIP3   OH2 4999   0.571   5.151   1.029 -0.0838 -0.1880  0.1363
 1687TIP3    H1 5000   0.556   5.227   0.973 -1.3838 -1.1348 -0.8542
 1687TIP3    H2 5001   0.659   5.121   1.006  0.2085  0.6787  0.1146
 1688TIP3   OH2 5002   0.215   3.821   6.559  0.6327  0.3064 -0.8816
 1688TIP3    H1 5003   0.122   3.800   6.549  0.1773  0.8147  1.9025
 1688TIP3    H2 5004   0.260   3.762   6.498 -1.4324 -0.6998 -1.4637
 1689TIP3   OH2 5005   5.577   1.568   2.775 -0.5006 -0.0967 -0.4386
 1689TIP3    H1 5006   5.514   1.625   2.731 -0.9826  0.4339  0.9049
 1689TIP3    H2 5007   5.527   1.526   2.845  0.7279  0.6714  0.9300
 1690TIP3   OH2 5008   8.458   7.172   1.161 -0.3677 -0.0161  0.1921
 1690TIP3    H1 5009   8.410   7.229   1.220  0.6670  0.3733  0.6651
 1690TIP3    H2 5010   8.390   7.122   1.115 -1.2330  0.9125  0.4548
 1691TIP3   OH2 5011   1.697   7.309   2.020 -0.0647  0.3602  0.0130
 1691TIP3    H1 5012   1.651   7.390   2.037  0.2580  0.3380  0.9798
 1691TIP3    H2 5013   1.652   7.243   2.072  2.0258  0.6325  2.2365
 1692TIP3   OH2 5014   0.134   7.714   0.960 -0.0527  0.3618 -0.3448
 1692TIP3    H1 5015   0.192   7.773   0.912  0.9801 -1.2998 -1.1756
 1692TIP3    H2 5016   0.066   7.691   0.895 -0.5517  0.7498  0.0313
 1693TIP3   OH2 5017   1.812   7.549   3.048 -0.0660 -0.3010 -0.1945
 1693TIP3    H1 5018   1.717   7.555   3.037  0.0875  2.0878 -0.5483
 1693TIP3    H2 5019   1.835   7.627   3.098  1.7913 -0.5301 -0.6518
 1694TIP3   OH2 5020   0.736   7.210   1.563  1.3826 -0.1177 -0.6403
 1694TIP3    H1 5021   0.658   7.209   1.618  1.7134  1.7130 -0.1067
 1694TIP3    H2 5022   0.703   7.197   1.474  0.5555 -0.2549 -0.3155
 1695TIP3   OH2 5023   6.266   1.727   6.808  0.3941  0.1305  0.0758
 1695TIP3    H1 5024   6.232   1.758   6.892 -0.7174  1.4032 -0.8329
 1695TIP3    H2 5025   6.188   1.707   6.756  1.0423  1.2355 -1.3566
 1696TIP3   OH2 5026   2.966   5.338   0.828  0.1362  0.2752  0.1326
 1696TIP3    H1 5027   2.889   5.309   0.877 -0.1428 -1.6690 -1.4074
 1696TIP3    H2 5028   2.931   5.396   0.760 -0.2124 -1.9911 -1.6733
 1697TIP3   OH2 5029   2.385   6.551   1.884  0.3524  0.0000  0.7764
 1697TIP3    H1 5030   2.396   6.582   1.794 -0.6986  0.3184  0.7428
 1697TIP3    H2 5031   2.469   6.513   1.907 -0.0641 -2.2418 -1.1766
 1698TIP3   OH2 5032   1.410   6.309   2.041  0.5721 -0.0290 -0.1964
 1698TIP3    H1 5033   1.478   6.355   2.090  0.1554  1.0516 -0.6095
 1698TIP3    H2 5034   1.444   6.220   2.031  1.3313  0.1440  0.7389
 1699TIP3   OH2 5035   3.659   0.157   1.201  0.1833 -0.0034  0.6402
 1699TIP3    H1 5036   3.744   0.131   1.165 -1.0737 -1.4738 -1.4034
 1699TIP3    H2 5037   3.637   0.086   1.261  0.5664  0.5867  1.4915
 1700TIP3   OH2 5038   5.500   0.521   0.871  0.4753  0.7555 -0.2205
 1700TIP3    H1 5039   5.584   0.557   0.841  0.6182  1.5935  1.1662
 1700TIP3    H2 5040   5.524   0.458   0.939  0.1631 -1.3332 -1.9714
 1701TIP3   OH2 5041   1.296   6.787   0.574  0.6494 -0.2155  0.6751
 1701TIP3    H1 5042   1.324   6.757   0.660  0.6905  0.9990  1.0945
 1701TIP3    H2 5043   1.210   6.747   0.561  1.0579 -1.1691  0.8658
 1702TIP3   OH2 5044   1.978   7.348   2.089 -0.1026 -0.3628 -0.2457
 1702TIP3    H1 5045   1.986   7.404   2.011 -0.0612 -3.5599 -2.6576
 1702TIP3    H2 5046   1.893   7.305   2.079 -0.5781 -0.0328  2.0719
 1703TIP3   OH2 5047   6.861   1.779   5.709  0.0026  0.5648 -0.8258
 1703TIP3    H1 5048   6.841   1.773   5.803 -1.4051  2.1559 -1.0083
 1703TIP3    H2 5049   6.952   1.750   5.702  0.0071  0.0989  0.9915
 1704TIP3   OH2 5050   6.373   0.873   5.215 -0.1596  0.0431  0.6652
 1704TIP3    H1 5051   6.311   0.831   5.275  0.4946 -0.1274  1.2259
 1704TIP3    H2 5052   6.425   0.931   5.271 -0.7470  1.2709 -0.0271
 1705TIP3   OH2 5053   2.932   0.052   0.258  0.1188 -0.0615 -0.0227
 1705TIP3    H1 5054   2.988   0.041   0.181  0.3180 -2.2021  0.4032
 1705TIP3    H2 5055   2.983   0.110   0.315  0.4563  0.6390 -1.0087
 1706TIP3   OH2 5056   4.296   2.393   6.844  0.1091  0.2637  0.1623
 1706TIP3    H1 5057   4.348   2.355   6.915  0.8994  0.0747 -0.5137
 1706TIP3    H2 5058   4.344   2.473   6.820 -1.1316  1.2950  1.0595
 1707TIP3   OH2 5059   7.309   1.943   6.609 -0.1076 -0.7701 -0.1687
 1707TIP3    H1 5060   7.221   1.910   6.588 -0.4149 -0.8950  1.2238
 1707TIP3    H2 5061   7.364   1.865   6.613  0.0746 -0.6863 -1.0931
 1708TIP3   OH2 5062   2.627   6.958   2.724  0.7304 -0.2028  0.3049
 1708TIP3    H1 5063   2.719   6.957   2.750  1.0488  1.0308 -0.7464
 1708TIP3    H2 5064   2.582   6.999   2.798  1.3635  1.4390 -0.1927
 1709TIP3   OH2 5065   3.038   5.480   1.625  0.0474 -0.4812 -0.8924
 1709TIP3    H1 5066   3.050   5.410   1.689 -1.5864 -1.3545 -1.4982
 1709TIP3    H2 5067   3.112   5.471   1.565  2.2185  1.0367  1.4348
 1710TIP3   OH2 5068   7.397   0.080   1.762 -0.2609 -0.2029  0.5686
 1710TIP3    H1 5069   7.451   0.010   1.799 -0.7224 -1.0410 -0.3092
 1710TIP3    H2 5070   7.308   0.044   1.764 -0.5116  0.3905  0.1669
 1711TIP3   OH2 5071   0.476   3.344   6.682 -0.2889 -0.1884 -0.0546
 1711TIP3    H1 5072   0.532   3.266   6.680 -0.3460 -0.2207 -0.6623
 1711TIP3    H2 5073   0.412   3.328   6.613  0.4262  0.9236 -0.9977
 1712TIP3   OH2 5074   2.712   7.941   0.037 -0.3829 -0.6477 -0.8274
 1712TIP3    H1 5075   2.783   7.915   0.095 -0.8770 -1.2815 -0.4960
 1712TIP3    H2 5076   2.754   7.991  -0.033  0.3675 -0.9520 -0.5901
 1713TIP3   OH2 5077   2.142   5.057   0.602  0.2606 -0.0506  0.3041
 1713TIP3    H1 5078   2.106   5.013   0.679 -0.2785  0.9079  0.6184
 1713TIP3    H2 5079   2.236   5.045   0.609  0.0667 -1.9145 -0.1029
 1714TIP3   OH2 5080   8.290   2.571   6.481 -0.8347 -0.5736  0.0519
 1714TIP3    H1 5081   8.382   2.596   6.477 -1.2587  1.0850  0.2252
 1714TIP3    H2 5082   8.266   2.553   6.390 -1.4213  3.1601 -0.6083
 1715TIP3   OH2 5083   7.963   0.564   5.954  0.0919  0.0632 -0.4799
 1715TIP3    H1 5084   8.052   0.600   5.943 -0.1022  0.3926 -0.9835
 1715TIP3    H2 5085   7.910   0.611   5.890 -0.5623  0.2495  0.1956
 1716TIP3   OH2 5086   2.198   7.843   1.989 -0.1910  0.2474 -0.0193
 1716TIP3    H1 5087   2.262   7.905   1.954  0.5438  0.2550  1.3121
 1716TIP3    H2 5088   2.133   7.833   1.919  0.7229  1.0178 -0.9875
 1717TIP3   OH2 5089   6.297   0.004   1.238 -0.2810 -0.5190 -0.0743
 1717TIP3    H1 5090   6.241  -0.044   1.299 -0.8941 -0.5804 -0.6805
 1717TIP3    H2 5091   6.268   0.095   1.244 -0.5960 -0.5860 -0.5477
 1718TIP3   OH2 5092   8.333   5.235   6.938 -0.2616 -0.1002 -0.2280
 1718TIP3    H1 5093   8.297   5.289   6.868 -0.1589  1.1258  0.6695
 1718TIP3    H2 5094   8.359   5.296   7.006  1.1511 -1.1569  0.2228
 1719TIP3   OH2 5095   2.138   7.927   2.278 -0.3145  0.0632 -0.6152
 1719TIP3    H1 5096   2.205   7.991   2.255 -0.1298  0.2428  0.4080
 1719TIP3    H2 5097   2.086   7.969   2.347  0.6055 -1.3422  0.9874
 1720TIP3   OH2 5098   1.976   3.018   6.417  0.2249  0.1055  0.2535
 1720TIP3    H1 5099   1.905   2.999   6.354 -0.3129 -0.3841  1.0015
 1720TIP3    H2 5100   2.013   2.932   6.438 -0.2908  0.1615  1.4173
 1721TIP3   OH2 5101   7.031   1.055   0.693  0.0766  0.7206  0.2560
 1721TIP3    H1 5102   7.046   0.977   0.640 -0.6474  0.7952 -0.0719
 1721TIP3    H2 5103   7.060   1.127   0.638  0.7291  0.6814  0.5525
 1722TIP3   OH2 5104   7.969   2.419   6.451 -0.0872 -0.1391  0.1483
 1722TIP3    H1 5105   7.952   2.327   6.430  1.3272 -0.2855 -0.3572
 1722TIP3    H2 5106   8.015   2.417   6.535  0.6880  0.0586 -0.2685
 1723TIP3   OH2 5107   3.295   5.726   0.179  0.8642  0.1021 -0.1564
 1723TIP3    H1 5108   3.360   5.678   0.231 -0.0436 -0.7762  0.1663
 1723TIP3    H2 5109   3.248   5.659   0.130 -1.6646  0.4481  1.6967
 1724TIP3   OH2 5110   1.322   4.628   0.326 -0.2233  0.5258  0.7862
 1724TIP3    H1 5111   1.346   4.591   0.241  0.1481  0.5053  0.8978
 1724TIP3    H2 5112   1.329   4.723   0.314 -1.1624  0.5651  0.5040
 1725TIP3   OH2 5113   0.242   3.838   6.859  0.0654 -0.2028 -0.4729
 1725TIP3    H1 5114   0.197   3.766   6.903  2.5588  0.2137  2.8666
 1725TIP3    H2 5115   0.235   3.816   6.766 -1.7358 -3.2420  0.3037
 1726TIP3   OH2 5116   2.675   0.341   0.869  0.1319  0.1285  0.1502
 1726TIP3    H1 5117   2.743   0.289   0.911 -0.1392  1.6977  2.6076
 1726TIP3    H2 5118   2.698   0.432   0.889 -2.3873  0.7186  0.6124
 1727TIP3   OH2 5119   4.624   0.589   0.083 -0.2719  0.3652 -0.4605
 1727TIP3    H1 5120   4.678   0.515   0.108 -0.5537  0.1555 -0.4663
 1727TIP3    H2 5121   4.569   0.606   0.159 -1.5517 -0.6556 -1.1181
 1728TIP3   OH2 5122   0.922   3.762   6.531  0.3959 -0.4844 -0.0821
 1728TIP3    H1 5123   0.939   3.668   6.535 -0.2632 -0.5493  1.8654
 1728TIP3    H2 5124   0.930   3.791   6.622 -0.0072  1.2272 -0.5820
 1729TIP3   OH2 5125   6.802   2.608   6.643  0.1600  0.3582  0.0732
 1729TIP3    H1 5126   6.809   2.513   6.653  1.4528  0.5615  1.4426
 1729TIP3    H2 5127   6.883   2.634   6.599 -0.9450  0.6616 -1.8472
 1730TIP3   OH2 5128   7.610   3.455   5.481  0.0473  0.4806  0.3702
 1730TIP3    H1 5129   7.673   3.391   5.513  0.1596  0.7770  0.7456
 1730TIP3    H2 5130   7.529   3.434   5.528 -0.1055  0.1662 -0.0334
 1731TIP3   OH2 5131   5.715   0.633   2.079 -0.3233  0.6151 -0.3212
 1731TIP3    H1 5132   5.751   0.722   2.085 -1.4061  0.9385  1.7487
 1731TIP3    H2 5133   5.792   0.576   2.086  0.1710  1.3512  0.2550
 1732TIP3   OH2 5134   0.625   3.579   6.626  0.7470  0.8135 -0.3271
 1732TIP3    H1 5135   0.662   3.613   6.707 -1.8399  0.5552  1.0021
 1732TIP3    H2 5136   0.590   3.493   6.651  1.3358  0.0321 -2.1108
 1733TIP3   OH2 5137   3.553   5.636   1.551  0.0755  0.3311 -0.0503
 1733TIP3    H1 5138   3.616   5.617   1.621  0.3798 -2.7399 -1.0985
 1733TIP3    H2 5139   3.607   5.650   1.473 -0.4031  0.2962 -0.3919
 1734TIP3   OH2 5140   7.920   4.220   5.838 -0.3000 -0.1669  0.4013
 1734TIP3    H1 5141   7.886   4.251   5.754 -1.3720  1.0522  1.2748
 1734TIP3    H2 5142   8.013   4.204   5.822 -0.3759  0.6051 -0.8578
 1735TIP3   OH2 5143   6.987   0.670   0.231  0.7008  0.3894 -0.5129
 1735TIP3    H1 5144   7.035   0.683   0.149  2.3345 -0.0160  0.3604
 1735TIP3    H2 5145   7.028   0.730   0.293  1.1921 -1.1584  0.6941
 1736TIP3   OH2 5146   0.667   6.036   1.564 -0.6281  0.2375 -0.2742
 1736TIP3    H1 5147   0.754   6.000   1.582 -0.4220  0.2962 -1.1249
 1736TIP3    H2 5148   0.672   6.127   1.594  0.2683  0.8508 -2.2085
 1737TIP3   OH2 5149   1.345   3.440   6.752 -0.0843  0.3942  0.3584
 1737TIP3    H1 5150   1.297   3.512   6.792 -1.1914  0.3192 -0.8345
 1737TIP3    H2 5151   1.303   3.426   6.667  1.0697 -0.6684 -0.0585
 1738TIP3   OH2 5152   0.601   6.869   0.058  0.5928 -0.3639 -0.5362
 1738TIP3    H1 5153   0.681   6.830   0.092  0.2974 -1.3192 -0.9378
 1738TIP3    H2 5154   0.559   6.799   0.008 -1.4922 -0.4986  1.3267
 1739TIP3   OH2 5155   4.089   4.608   0.524  0.2826  0.2992 -0.4929
 1739TIP3    H1 5156   4.072   4.541   0.590  1.8196 -1.6584 -1.9977
 1739TIP3    H2 5157   4.097   4.690   0.573  0.3512 -0.9377  1.6058
 1740TIP3   OH2 5158   0.611   7.415   0.800 -0.2725  0.2112 -0.6583
 1740TIP3    H1 5159   0.520   7.387   0.787  0.1352 -0.8148 -1.3469
 1740TIP3    H2 5160   0.649   7.349   0.857  0.1603  0.4090 -0.7162
 1741TIP3   OH2 5161   1.672   5.480   1.362  0.2675  0.3248 -0.3834
 1741TIP3    H1 5162   1.744   5.526   1.320  2.0436 -1.8831  0.1272
 1741TIP3    H2 5163   1.712   5.440   1.440 -2.0451  1.0276  1.2005
 1742TIP3   OH2 5164   7.111   0.163   6.697 -0.2658 -0.1777  0.2404
 1742TIP3    H1 5165   7.148   0.077   6.676 -0.5795 -0.2485 -0.0070
 1742TIP3    H2 5166   7.022   0.161   6.662 -0.0390  0.5066 -0.3909
 1743TIP3   OH2 5167   5.185   1.400   2.150  0.0945 -0.1869 -0.0006
 1743TIP3    H1 5168   5.124   1.349   2.097 -0.6164  0.6807 -0.0245
 1743TIP3    H2 5169   5.250   1.433   2.087 -0.0096 -0.2426 -0.1377
 1744TIP3   OH2 5170   6.197   1.001   0.074  0.3921  0.0521 -0.0240
 1744TIP3    H1 5171   6.156   0.955   0.001 -0.1696  0.5362 -0.0176
 1744TIP3    H2 5172   6.208   0.935   0.142  1.1703 -0.4681 -0.6487
 1745TIP3   OH2 5173   5.081   7.738   2.514  0.5823  0.0849  0.0056
 1745TIP3    H1 5174   5.084   7.832   2.531 -1.2510  0.3663 -1.1070
 1745TIP3    H2 5175   5.000   7.708   2.555  0.3961 -0.7298 -0.9287
 1746TIP3   OH2 5176   3.138   5.354   0.575  0.0360 -0.1355 -0.2228
 1746TIP3    H1 5177   3.063   5.403   0.608  0.5328  0.2156  0.3777
 1746TIP3    H2 5178   3.176   5.411   0.508 -0.4832 -0.5023 -0.8477
 1747TIP3   OH2 5179   3.606   6.677   1.750  0.0771  0.4653  0.3458
 1747TIP3    H1 5180   3.530   6.619   1.746  2.2637 -2.4158 -2.3067
 1747TIP3    H2 5181   3.666   6.633   1.812  0.8086  1.1175  0.1141
 1748TIP3   OH2 5182   5.344   0.435   0.186 -0.3596 -0.2052  0.4470
 1748TIP3    H1 5183   5.252   0.411   0.194  0.0326 -1.4406  1.4052
 1748TIP3    H2 5184   5.383   0.363   0.136  0.4916 -0.7343  1.8622
 1749TIP3   OH2 5185   1.362   7.481   0.361 -0.0254 -0.5892  0.0904
 1749TIP3    H1 5186   1.284   7.426   0.361  0.0054 -0.6912  2.6413
 1749TIP3    H2 5187   1.433   7.421   0.383  0.6599 -0.3216 -1.3322
 1750TIP3   OH2 5188   6.247   4.912   6.354  0.2112  0.3013 -0.4380
 1750TIP3    H1 5189   6.322   4.859   6.328  1.1435  0.6755  1.4456
 1750TIP3    H2 5190   6.179   4.889   6.290  1.3697 -1.2928 -1.1458
 1751TIP3   OH2 5191   1.984   5.736   0.274 -0.2148 -0.5157 -0.3443
 1751TIP3    H1 5192   1.979   5.653   0.227 -0.2963 -0.7560  0.0901
 1751TIP3    H2 5193   2.015   5.799   0.209 -0.7106 -0.7687 -0.8306
 1752TIP3   OH2 5194   2.813   7.256   0.854  0.7987 -0.7443  0.1556
 1752TIP3    H1 5195   2.835   7.348   0.871  0.3403 -0.7601  0.8408
 1752TIP3    H2 5196   2.861   7.207   0.921  1.0009 -1.0080 -0.1758
 1753TIP3   OH2 5197   3.128   7.407   1.986  0.2448  0.2766  0.2711
 1753TIP3    H1 5198   3.034   7.396   1.978  0.2650 -0.0361  0.4370
 1753TIP3    H2 5199   3.152   7.468   1.916 -0.2846  1.5091  1.1546
 1754TIP3   OH2 5200   2.880   6.519   1.029 -0.0568 -0.1268  1.1452
 1754TIP3    H1 5201   2.829   6.573   0.968  0.8664  0.7236  1.1270
 1754TIP3    H2 5202   2.820   6.448   1.052 -0.6849 -0.0544 -0.1710
 1755TIP3   OH2 5203   8.043   2.399   5.969 -0.5118  0.1037 -0.7026
 1755TIP3    H1 5204   8.134   2.381   5.994 -0.4070  1.1867 -0.2658
 1755TIP3    H2 5205   8.009   2.453   6.040 -1.2513  0.3955 -1.2730
 1756TIP3   OH2 5206   0.246   6.449   0.219 -0.0093 -0.3887  0.1157
 1756TIP3    H1 5207   0.337   6.472   0.236  0.2146 -1.0489 -0.1584
 1756TIP3    H2 5208   0.234   6.467   0.126  0.2385 -1.5816 -0.1584
 1757TIP3   OH2 5209   2.741   6.859   0.979  0.3220 -0.1762  0.0466
 1757TIP3    H1 5210   2.719   6.777   0.935  0.3922  0.1988 -0.7053
 1757TIP3    H2 5211   2.798   6.905   0.917  0.8322  0.1414  0.7468
 1758TIP3   OH2 5212   1.402   0.166   6.093 -0.4928  0.2080  0.0789
 1758TIP3    H1 5213   1.347   0.195   6.020 -1.2771  0.2784  0.6973
 1758TIP3    H2 5214   1.341   0.133   6.158  0.1242  1.2014  1.1866
 1759TIP3   OH2 5215   2.319   6.486   0.165  0.3149 -0.4096 -0.6117
 1759TIP3    H1 5216   2.305   6.400   0.126  0.1624 -0.6043 -0.1332
 1759TIP3    H2 5217   2.286   6.548   0.100 -1.5579 -0.8051 -0.0581
 1760TIP3   OH2 5218   4.999   7.391   2.363 -0.2977  0.5445 -0.3528
 1760TIP3    H1 5219   4.954   7.438   2.433 -2.5009  0.3000 -1.5222
 1760TIP3    H2 5220   4.993   7.450   2.288  1.6737  0.6382 -0.4408
 1761TIP3   OH2 5221   4.223   0.164   1.327  0.3636 -0.7688 -0.4086
 1761TIP3    H1 5222   4.290   0.133   1.265  0.7072 -0.0353 -0.4210
 1761TIP3    H2 5223   4.270   0.227   1.382  0.2861 -2.1290  1.2265
 1762TIP3   OH2 5224   1.619   4.936   6.372  0.5470 -0.5075  0.8248
 1762TIP3    H1 5225   1.627   4.842   6.388  1.0994 -0.7263 -0.6016
 1762TIP3    H2 5226   1.691   4.975   6.420  3.0181 -1.2755 -2.0875
 1763TIP3   OH2 5227   1.863   2.369   6.855  0.4433 -0.5505  0.2091
 1763TIP3    H1 5228   1.879   2.338   6.766 -0.2112 -1.8432  0.5388
 1763TIP3    H2 5229   1.904   2.304   6.911  3.4910  1.7654  0.8545
 1764TIP3   OH2 5230   7.052   3.215   4.961 -0.2467 -0.4807  0.4667
 1764TIP3    H1 5231   7.087   3.173   5.039 -0.1129  2.6577  2.1840
 1764TIP3    H2 5232   6.965   3.246   4.987 -0.3141  0.3380 -0.6805
 1765TIP3   OH2 5233   2.163   7.933   1.576 -0.0514 -0.1796 -0.2292
 1765TIP3    H1 5234   2.156   7.979   1.659 -0.9917 -0.1986 -0.2946
 1765TIP3    H2 5235   2.202   7.848   1.599  0.5483  0.1646  0.0544
 1766TIP3   OH2 5236   3.680   7.869   2.179  0.0960  0.1557  0.3295
 1766TIP3    H1 5237   3.751   7.932   2.191  1.1264 -0.8529 -0.3380
 1766TIP3    H2 5238   3.634   7.869   2.263  0.1936  1.6327  0.4094
 1767TIP3   OH2 5239   6.243   3.292   6.690  0.2774 -0.0378 -0.3581
 1767TIP3    H1 5240   6.239   3.372   6.637 -0.8284  0.1888  0.0360
 1767TIP3    H2 5241   6.285   3.319   6.771  2.1277 -0.4230 -1.1603
 1768TIP3   OH2 5242   6.493   0.767   0.420 -0.3850 -0.2291  0.1528
 1768TIP3    H1 5243   6.586   0.786   0.428 -0.5315  0.8289 -0.6379
 1768TIP3    H2 5244   6.482   0.681   0.463  0.8869 -0.2177  0.5075
 1769TIP3   OH2 5245   6.515   1.598   6.119  0.1997 -0.4865 -0.1101
 1769TIP3    H1 5246   6.529   1.633   6.031 -0.9195 -0.3137 -0.2210
 1769TIP3    H2 5247   6.577   1.525   6.126  1.0202  0.1423 -0.6544
 1770TIP3   OH2 5248   0.378   7.945   0.423 -0.4122 -0.8639  0.2375
 1770TIP3    H1 5249   0.449   7.914   0.479 -0.0802  0.6296  0.6626
 1770TIP3    H2 5250   0.417   8.018   0.374 -1.6678  0.0013  0.5149
 1771TIP3   OH2 5251   5.607   3.564   6.730 -0.2489  0.6139  0.5441
 1771TIP3    H1 5252   5.699   3.565   6.757 -1.0069  0.2988  3.3276
 1771TIP3    H2 5253   5.586   3.471   6.725 -0.2383  0.6769 -0.8139
 1772TIP3   OH2 5254   3.591   6.161   0.394  0.1818 -0.0276 -1.1753
 1772TIP3    H1 5255   3.497   6.145   0.388 -0.1281  0.8285  0.9396
 1772TIP3    H2 5256   3.623   6.094   0.455  0.5637  1.0545 -0.1783
 1773TIP3   OH2 5257   8.041   1.641   5.406  1.0621 -0.3801 -0.0839
 1773TIP3    H1 5258   8.063   1.716   5.461 -0.9842  0.1260  0.0730
 1773TIP3    H2 5259   8.029   1.569   5.468  1.8654 -0.5713 -0.1410
 1774TIP3   OH2 5260   3.262   6.609   3.298 -0.5095  0.2706  0.1396
 1774TIP3    H1 5261   3.225   6.522   3.288  1.6110 -0.8246  1.4480
 1774TIP3    H2 5262   3.186   6.667   3.304 -1.9440 -1.4989 -0.5751
 1775TIP3   OH2 5263   3.376   5.475   0.369 -0.0565 -0.4472  0.0619
 1775TIP3    H1 5264   3.378   5.478   0.465  0.7122  2.8081 -0.0051
 1775TIP3    H2 5265   3.465   5.451   0.344 -0.2000 -1.0739  0.1286
 1776TIP3   OH2 5266   0.175   1.018   5.192  0.3769  0.1051 -0.2070
 1776TIP3    H1 5267   0.150   1.065   5.112 -1.0323 -0.4286 -0.0944
 1776TIP3    H2 5268   0.250   0.964   5.165 -0.8149 -0.9641 -1.5025
 1777TIP3   OH2 5269   5.192   7.554   0.858  0.3587  0.2813  0.1743
 1777TIP3    H1 5270   5.242   7.632   0.834 -1.0193  1.7985  2.0840
 1777TIP3    H2 5271   5.256   7.497   0.902  0.9808  1.0387  0.2587
 1778TIP3   OH2 5272   4.425   7.996   0.097  0.1563 -0.1289  0.1866
 1778TIP3    H1 5273   4.349   7.939   0.093  0.9683 -1.3137  1.0841
 1778TIP3    H2 5274   4.498   7.937   0.115  1.1963  1.0533 -0.0689
 1779TIP3   OH2 5275   6.464   0.496   0.057 -0.4709 -0.2951 -0.4919
 1779TIP3    H1 5276   6.480   0.582   0.018 -0.9934  0.0545  0.0377
 1779TIP3    H2 5277   6.480   0.509   0.151  1.9646 -1.4290 -0.7201
 1780TIP3   OH2 5278   8.058   3.073   6.716  0.2776  0.3700  0.0758
 1780TIP3    H1 5279   8.147   3.105   6.704  1.0280 -1.5258  0.4083
 1780TIP3    H2 5280   8.033   3.039   6.630  1.0946 -2.0083  0.7363
 1781TIP3   OH2 5281   6.842   0.333   0.503  0.0802  0.0321  0.4566
 1781TIP3    H1 5282   6.928   0.304   0.474  0.3801  0.6412  0.7232
 1781TIP3    H2 5283   6.796   0.356   0.423  0.0711 -0.5476  0.2952
 1782TIP3   OH2 5284   4.632   5.650   0.590 -0.1657  0.3138  0.3172
 1782TIP3    H1 5285   4.598   5.718   0.648  0.3991  0.8507  0.0292
 1782TIP3    H2 5286   4.569   5.579   0.597 -0.5828  0.7318  0.8887
 1783TIP3   OH2 5287   0.558   2.453   6.849 -0.0250 -0.3587  0.5617
 1783TIP3    H1 5288   0.519   2.403   6.921  0.7739 -1.2870  0.3562
 1783TIP3    H2 5289   0.513   2.538   6.852 -2.4057 -1.5651  0.0148
 1784TIP3   OH2 5290   4.146   8.028   0.726 -0.5069  0.0411  0.1295
 1784TIP3    H1 5291   4.154   7.966   0.799  0.8153 -1.5891 -1.3619
 1784TIP3    H2 5292   4.051   8.036   0.713 -0.7300 -0.7363  1.1278
 1785TIP3   OH2 5293   5.028   6.601   1.233  0.0672  0.7046  0.2054
 1785TIP3    H1 5294   5.103   6.660   1.232  0.9938 -0.4759 -0.0335
 1785TIP3    H2 5295   5.057   6.525   1.283 -0.6622 -0.1686 -0.6719
 1786TIP3   OH2 5296   1.035   1.473   3.404  0.1015 -0.0159 -0.0412
 1786TIP3    H1 5297   0.954   1.485   3.355 -1.4545  1.7910  2.8288
 1786TIP3    H2 5298   1.040   1.379   3.420 -1.0126 -0.2400 -0.9499
 1787TIP3   OH2 5299   2.868   5.172   6.707  0.0590  0.5450  0.9028
 1787TIP3    H1 5300   2.934   5.119   6.752 -1.2188  0.8026  3.1609
 1787TIP3    H2 5301   2.785   5.130   6.729 -0.5910  0.6161 -1.3542
 1788TIP3   OH2 5302   2.750   0.520   4.417 -0.2710  0.1164  0.2377
 1788TIP3    H1 5303   2.736   0.595   4.475  1.3048  0.3569  0.3304
 1788TIP3    H2 5304   2.703   0.544   4.336  1.0855  1.6977 -0.1146
 1789TIP3   OH2 5305   0.180   6.379   2.957  0.3166  0.0851  0.1606
 1789TIP3    H1 5306   0.093   6.382   2.997 -0.5576  1.6628 -1.7212
 1789TIP3    H2 5307   0.202   6.286   2.954 -0.5640 -0.2134  2.1876
 1790TIP3   OH2 5308   1.683   0.272   5.184 -0.4768 -0.3253  0.2344
 1790TIP3    H1 5309   1.604   0.323   5.203  0.3197  0.4992  1.3709
 1790TIP3    H2 5310   1.651   0.182   5.174 -1.5545 -0.0068  0.7091
 1791TIP3   OH2 5311   3.427   0.850   5.198 -0.1307  0.2465  0.4165
 1791TIP3    H1 5312   3.455   0.935   5.164 -1.2086  0.5596  0.3106
 1791TIP3    H2 5313   3.384   0.807   5.124  3.2851 -1.7647 -0.5249
 1792TIP3   OH2 5314   4.216   0.572   4.322  0.4053 -0.5064  0.3312
 1792TIP3    H1 5315   4.270   0.494   4.331 -1.5636 -1.8145  0.9049
 1792TIP3    H2 5316   4.230   0.620   4.404 -0.7183 -1.7675  1.2886
 1793TIP3   OH2 5317   1.063   1.744   3.457  0.3732 -0.0344  0.0772
 1793TIP3    H1 5318   1.054   1.785   3.371 -0.8908 -0.4595 -0.0051
 1793TIP3    H2 5319   1.073   1.651   3.439 -2.1286 -0.4193  0.4352
 1794TIP3   OH2 5320   1.007   0.130   4.136  0.4152  0.0413 -0.5940
 1794TIP3    H1 5321   1.016   0.142   4.042 -0.2459 -2.3357 -0.9830
 1794TIP3    H2 5322   0.917   0.102   4.149  0.4864  0.3771  0.7690
 1795TIP3   OH2 5323   8.029   7.601   4.913  0.0043  0.4233  0.8032
 1795TIP3    H1 5324   7.995   7.512   4.906  0.5929  0.3106 -0.7411
 1795TIP3    H2 5325   7.998   7.632   4.999 -0.7575 -1.0211  1.0590
 1796TIP3   OH2 5326   1.547   1.677   5.393  0.4048  0.1951  0.1263
 1796TIP3    H1 5327   1.595   1.759   5.402 -0.3524  0.6801 -0.1938
 1796TIP3    H2 5328   1.500   1.686   5.311 -0.0045 -0.3948  0.2958
 1797TIP3   OH2 5329   2.621   1.114   2.286 -0.0653  0.2753  0.3681
 1797TIP3    H1 5330   2.652   1.185   2.343  0.6443  0.7118 -0.5509
 1797TIP3    H2 5331   2.688   1.107   2.218 -1.1947  0.1298 -0.7360
 1798TIP3   OH2 5332   8.452   5.951   5.453  0.3292 -0.3595 -0.0850
 1798TIP3    H1 5333   8.374   5.981   5.405  0.1583  2.5591  1.8442
 1798TIP3    H2 5334   8.420   5.878   5.507 -0.6843 -0.3075 -0.5996
 1799TIP3   OH2 5335   1.564   0.847   3.786  0.4254 -0.0109 -0.6163
 1799TIP3    H1 5336   1.517   0.878   3.708  2.6946 -0.8843 -2.4198
 1799TIP3    H2 5337   1.510   0.776   3.820 -0.8433  0.7071 -1.1079
 1800TIP3   OH2 5338   8.426   7.286   3.656  0.4257 -0.0314 -0.0372
 1800TIP3    H1 5339   8.379   7.298   3.574  0.5105 -0.9360 -0.2231
 1800TIP3    H2 5340   8.499   7.228   3.634  2.0880  1.9324  0.0727
 1801TIP3   OH2 5341   1.132   0.411   2.582  0.1489 -1.0787 -0.8329
 1801TIP3    H1 5342   1.087   0.491   2.607  0.8023 -1.2050  0.8089
 1801TIP3    H2 5343   1.189   0.391   2.656 -0.5885 -3.4883 -0.8737
 1802TIP3   OH2 5344   7.249   7.661   2.977 -0.2715  0.2644  0.5134
 1802TIP3    H1 5345   7.186   7.593   2.951 -0.0859  0.4717 -0.5108
 1802TIP3    H2 5346   7.300   7.620   3.046 -0.6826 -0.3694  0.4527
 1803TIP3   OH2 5347   3.324   0.334   4.051 -0.1537  0.6301  0.3116
 1803TIP3    H1 5348   3.272   0.263   4.088 -1.2529  1.2753  0.0289
 1803TIP3    H2 5349   3.259   0.397   4.019  0.7690  0.6163 -1.6862
 1804TIP3   OH2 5350   1.601   0.151   2.794  0.7778  0.1863  0.0356
 1804TIP3    H1 5351   1.525   0.206   2.775  0.8512 -0.3205 -1.7705
 1804TIP3    H2 5352   1.627   0.177   2.883 -1.4410  0.4222  0.6572
 1805TIP3   OH2 5353   0.778   0.954   4.656 -0.4640  0.6484  0.6670
 1805TIP3    H1 5354   0.733   0.886   4.605  1.1858  0.3182 -0.4009
 1805TIP3    H2 5355   0.725   1.032   4.645 -0.6661  0.3247 -0.7606
 1806TIP3   OH2 5356   4.357   7.167   4.643  0.4172  0.3241 -0.3570
 1806TIP3    H1 5357   4.278   7.147   4.592 -0.0827  2.2687 -0.3639
 1806TIP3    H2 5358   4.426   7.171   4.577  0.2502  0.1495 -0.5466
 1807TIP3   OH2 5359   8.490   7.731   4.749  0.5624 -0.6361  0.3119
 1807TIP3    H1 5360   8.480   7.764   4.839 -1.9455  1.4172 -0.6480
 1807TIP3    H2 5361   8.424   7.662   4.742  0.4421 -0.4789 -0.0816
 1808TIP3   OH2 5362   1.019   1.184   1.711 -0.2386  0.5686 -0.3869
 1808TIP3    H1 5363   1.109   1.151   1.709 -0.9291 -1.7500  2.5421
 1808TIP3    H2 5364   0.967   1.113   1.674 -1.1925  0.5032  1.0421
 1809TIP3   OH2 5365   2.135   1.234   3.213  0.0201  0.1982  0.2110
 1809TIP3    H1 5366   2.126   1.153   3.263  0.0094 -0.0924 -0.2489
 1809TIP3    H2 5367   2.229   1.253   3.215  0.1769 -0.4196 -0.5746
 1810TIP3   OH2 5368   5.897   7.240   4.237 -0.7155  0.0351  0.5868
 1810TIP3    H1 5369   5.865   7.152   4.255 -0.3264 -0.1491  0.3864
 1810TIP3    H2 5370   5.962   7.257   4.305  2.0963 -1.3684 -1.6159
 1811TIP3   OH2 5371   2.577   0.766   3.004 -0.0373  0.2845  0.0721
 1811TIP3    H1 5372   2.571   0.695   2.940  1.2006  1.0233 -0.8993
 1811TIP3    H2 5373   2.538   0.730   3.084 -1.2529 -0.7943 -0.9692
 1812TIP3   OH2 5374   1.339   1.000   3.203  0.6165 -0.6682 -0.2475
 1812TIP3    H1 5375   1.354   0.983   3.110  0.4330  0.2949 -0.4662
 1812TIP3    H2 5376   1.424   1.032   3.235  0.4766 -0.2630 -0.2697
 1813TIP3   OH2 5377   1.006   6.677   2.458  0.2490 -0.1301 -0.7063
 1813TIP3    H1 5378   0.928   6.709   2.505 -0.2157 -0.0589 -1.5257
 1813TIP3    H2 5379   0.984   6.587   2.433  0.5999 -0.2544 -0.5763
 1814TIP3   OH2 5380   1.283   6.428   3.993 -0.0571 -0.1604  0.0395
 1814TIP3    H1 5381   1.354   6.363   3.995 -0.3295 -0.5488 -2.1244
 1814TIP3    H2 5382   1.321   6.504   3.949 -1.1506 -0.6140 -1.7474
 1815TIP3   OH2 5383   6.927   4.809   4.240 -0.7014  0.1624  0.9599
 1815TIP3    H1 5384   6.913   4.715   4.235  2.1295 -0.2104 -1.2325
 1815TIP3    H2 5385   6.919   4.840   4.150  1.9293  1.4069  1.0883
 1816TIP3   OH2 5386   6.587   7.644   5.530  0.6311  0.3435  0.0897
 1816TIP3    H1 5387   6.532   7.566   5.536  0.6637  0.4186  1.6512
 1816TIP3    H2 5388   6.664   7.616   5.482  0.2021 -0.3328 -0.2020
 1817TIP3   OH2 5389   1.466   0.888   1.916  0.0373 -0.2299 -0.2935
 1817TIP3    H1 5390   1.495   0.971   1.877  1.2362 -0.6108 -0.2272
 1817TIP3    H2 5391   1.491   0.822   1.852  1.3000 -0.7791  0.7429
 1818TIP3   OH2 5392   0.687   1.576   4.898  0.2642 -0.1358  0.1498
 1818TIP3    H1 5393   0.773   1.583   4.938  0.2440  0.9275  0.0166
 1818TIP3    H2 5394   0.640   1.654   4.927 -0.8076 -0.9195  0.5778
 1819TIP3   OH2 5395   0.991   0.792   2.949  0.2419  0.0177  0.0429
 1819TIP3    H1 5396   1.032   0.807   3.034 -2.4450  3.6082  0.7677
 1819TIP3    H2 5397   0.917   0.734   2.967  0.4419 -0.2896 -0.1010
 1820TIP3   OH2 5398   2.706   0.184   3.445 -0.0933 -0.4006 -0.0114
 1820TIP3    H1 5399   2.792   0.176   3.487 -0.2200 -2.2066 -0.0558
 1820TIP3    H2 5400   2.644   0.182   3.518 -0.1414 -0.1538 -0.0472
 1821TIP3   OH2 5401   1.806   1.552   1.485  0.1694 -0.3143 -0.0415
 1821TIP3    H1 5402   1.756   1.546   1.403  1.7042  1.0370 -1.1244
 1821TIP3    H2 5403   1.858   1.632   1.475 -0.7294  0.6822  2.9190
 1822TIP3   OH2 5404   3.356   1.354   5.176  0.0819 -0.1049  0.3592
 1822TIP3    H1 5405   3.305   1.363   5.256 -1.8557 -1.1281 -0.7262
 1822TIP3    H2 5406   3.423   1.289   5.199 -0.3754 -0.3005  1.1866
 1823TIP3   OH2 5407   1.283   1.861   2.830  0.7920  0.3992 -0.1457
 1823TIP3    H1 5408   1.239   1.834   2.750 -3.0706  3.3552  0.7858
 1823TIP3    H2 5409   1.357   1.914   2.801 -0.6032  1.4694 -1.7953
 1824TIP3   OH2 5410   8.352   5.550   4.456 -0.3752 -0.1716  0.0081
 1824TIP3    H1 5411   8.393   5.635   4.475 -1.9026  0.2275  1.6394
 1824TIP3    H2 5412   8.414   5.486   4.492  1.1663  0.1858 -1.9355
 1825TIP3   OH2 5413   1.868  -0.031   2.327 -0.4791  0.7583  0.6151
 1825TIP3    H1 5414   1.927   0.015   2.387  0.4303 -0.3862  0.6230
 1825TIP3    H2 5415   1.828   0.039   2.275  1.8402  1.5031 -0.2614
 1826TIP3   OH2 5416   2.716   0.113   4.803 -0.0357  0.4169  0.1910
 1826TIP3    H1 5417   2.784   0.128   4.869 -0.6739  0.6754  0.7905
 1826TIP3    H2 5418   2.652   0.057   4.848  0.0998 -0.3593 -0.5790
 1827TIP3   OH2 5419   4.117   0.533   3.448 -0.7352 -0.4143 -0.0572
 1827TIP3    H1 5420   4.045   0.482   3.410 -0.7456 -0.9706  0.7077
 1827TIP3    H2 5421   4.089   0.624   3.440 -0.5897 -0.4946 -1.7142
 1828TIP3   OH2 5422   1.573   0.279   1.007  0.1549  0.2933 -0.2154
 1828TIP3    H1 5423   1.551   0.254   0.918  1.1024 -0.3598 -0.2634
 1828TIP3    H2 5424   1.541   0.207   1.061 -0.2712  0.6127 -0.0385
 1829TIP3   OH2 5425   0.536   6.614   2.497 -0.2532  0.2668  0.9039
 1829TIP3    H1 5426   0.613   6.614   2.441  0.0292 -0.1343  1.2887
 1829TIP3    H2 5427   0.474   6.557   2.451 -0.9858  2.0060 -0.2963
 1830TIP3   OH2 5428   1.931   1.698   3.246  0.0307 -0.4614  0.4355
 1830TIP3    H1 5429   1.974   1.627   3.294 -0.0521 -0.7484  0.0967
 1830TIP3    H2 5430   1.851   1.658   3.213 -0.0084 -0.2129  0.2320
 1831TIP3   OH2 5431   2.865   0.691   6.227  0.2482 -0.0867  0.1554
 1831TIP3    H1 5432   2.772   0.684   6.248  0.0996  0.3853 -0.3309
 1831TIP3    H2 5433   2.904   0.612   6.265 -0.6464 -1.2505 -1.2849
 1832TIP3   OH2 5434   7.031   7.986   1.789  0.3970  0.2471 -0.0099
 1832TIP3    H1 5435   7.074   7.909   1.825 -0.1315  0.6538  1.5339
 1832TIP3    H2 5436   7.060   7.989   1.698  2.7438 -0.1167  0.6941
 1833TIP3   OH2 5437   8.400   7.520   2.055 -0.1547 -0.1274 -0.2023
 1833TIP3    H1 5438   8.464   7.451   2.039 -0.8606 -1.0756  0.9902
 1833TIP3    H2 5439   8.316   7.474   2.057 -0.6709  0.8211  0.2145
 1834TIP3   OH2 5440   3.208   7.046   4.384 -0.2679 -0.1152 -0.3112
 1834TIP3    H1 5441   3.155   7.067   4.308 -0.0769 -0.5548 -0.5721
 1834TIP3    H2 5442   3.206   6.950   4.390  2.2234 -0.3026 -1.6094
 1835TIP3   OH2 5443   0.207   7.294   2.705  0.0526 -0.5814  0.0515
 1835TIP3    H1 5444   0.212   7.236   2.628 -1.2134  0.3927 -0.7984
 1835TIP3    H2 5445   0.113   7.312   2.714  0.4032  0.9623  0.5896
 1836TIP3   OH2 5446   7.877   7.971   3.654  0.4099 -0.4373 -0.1190
 1836TIP3    H1 5447   7.794   7.926   3.668 -2.2404  3.7498 -1.1921
 1836TIP3    H2 5448   7.885   7.976   3.558  0.1326  2.1096 -0.0354
 1837TIP3   OH2 5449   1.316   6.019   2.756  0.3514  0.1860 -0.3011
 1837TIP3    H1 5450   1.221   6.014   2.756  0.3806 -0.5397  1.1937
 1837TIP3    H2 5451   1.338   6.070   2.834  1.2079  0.0730 -0.4587
 1838TIP3   OH2 5452   2.716   0.022   2.983  0.5389 -0.2760 -0.5411
 1838TIP3    H1 5453   2.695  -0.030   3.061 -0.6798 -1.7418 -1.8215
 1838TIP3    H2 5454   2.811   0.019   2.977  0.9308  2.3055  2.5161
 1839TIP3   OH2 5455   0.296   7.633   3.239  0.5374 -0.2781 -0.0147
 1839TIP3    H1 5456   0.349   7.554   3.241  0.6724 -0.1934 -0.2352
 1839TIP3    H2 5457   0.349   7.698   3.285 -0.1255 -0.6554  1.3057
 1840TIP3   OH2 5458   2.724   0.858   3.784 -0.3989  0.4900 -0.6458
 1840TIP3    H1 5459   2.735   0.921   3.855 -2.9274  0.6253 -0.3232
 1840TIP3    H2 5460   2.677   0.905   3.716  2.5588  0.5446 -2.7471
 1841TIP3   OH2 5461   3.550   0.430   4.774 -0.3114  0.2368 -0.2569
 1841TIP3    H1 5462   3.482   0.377   4.816  0.1211  0.1653  0.3596
 1841TIP3    H2 5463   3.629   0.413   4.825 -0.0384  1.0346 -0.4014
 1842TIP3   OH2 5464   1.649   6.737   2.181 -0.3426  0.6010  0.0865
 1842TIP3    H1 5465   1.708   6.674   2.139  0.0922  1.2807 -0.3375
 1842TIP3    H2 5466   1.674   6.736   2.273  0.2167  0.7461 -0.0585
 1843TIP3   OH2 5467   1.115   7.563   3.929  0.0246  0.1194 -0.0373
 1843TIP3    H1 5468   1.049   7.528   3.989 -1.0429 -0.3965 -1.4863
 1843TIP3    H2 5469   1.070   7.634   3.882  0.7478  0.3204 -0.4387
 1844TIP3   OH2 5470   1.641   6.511   3.839  0.3478 -0.1288 -0.1167
 1844TIP3    H1 5471   1.676   6.482   3.923 -0.3135 -0.6616 -0.0215
 1844TIP3    H2 5472   1.677   6.449   3.776  0.9659  0.3611 -0.2543
 1845TIP3   OH2 5473   4.362   1.350   3.236 -0.4060 -0.9004 -0.3654
 1845TIP3    H1 5474   4.346   1.301   3.316  0.0114 -1.0993 -0.4025
 1845TIP3    H2 5475   4.456   1.343   3.222  0.0205  1.8995  0.8946
 1846TIP3   OH2 5476   1.167   0.405   2.039 -0.0801 -0.3798  0.4534
 1846TIP3    H1 5477   1.178   0.430   1.948  0.8977  0.8280  0.9042
 1846TIP3    H2 5478   1.228   0.332   2.051 -0.5074 -0.8097  0.0376
 1847TIP3   OH2 5479   6.042   3.853   6.838 -0.1668  0.6984 -0.3106
 1847TIP3    H1 5480   6.133   3.824   6.849 -0.3487  0.9241  2.1486
 1847TIP3    H2 5481   5.990   3.774   6.851 -0.3789  0.8926  0.0441
 1848TIP3   OH2 5482   0.097   7.676   1.947 -0.1369 -0.1529 -0.3659
 1848TIP3    H1 5483   0.114   7.609   1.880  0.1513 -0.3980 -0.0540
 1848TIP3    H2 5484   0.041   7.632   2.011 -1.0004  0.3014 -0.8009
 1849TIP3   OH2 5485   3.035   7.265   2.809 -0.0349 -0.1433  0.0359
 1849TIP3    H1 5486   2.963   7.328   2.814 -0.8168 -0.8513 -1.8931
 1849TIP3    H2 5487   2.994   7.183   2.784  1.1753 -1.0714  1.0381
 1850TIP3   OH2 5488   6.876   6.765   3.306 -0.2446 -0.2323 -0.0098
 1850TIP3    H1 5489   6.844   6.757   3.216 -0.3420 -1.2185  0.1110
 1850TIP3    H2 5490   6.967   6.738   3.302 -0.0444  0.4326  0.0562
 1851TIP3   OH2 5491   0.759   7.246   2.170  0.5349  1.0497 -0.2262
 1851TIP3    H1 5492   0.720   7.282   2.091  0.5306  2.5755  0.4530
 1851TIP3    H2 5493   0.846   7.216   2.144 -0.3414 -0.6227 -1.3205
 1852TIP3   OH2 5494   1.327   0.605   2.966  0.0534  0.3193 -0.8714
 1852TIP3    H1 5495   1.376   0.641   3.039  1.8656 -0.9145 -1.4581
 1852TIP3    H2 5496   1.241   0.583   3.003  0.4185  1.1621  0.4838
 1853TIP3   OH2 5497   8.190   7.914   2.742 -0.3985 -0.2911  0.3516
 1853TIP3    H1 5498   8.095   7.897   2.740 -0.6661  1.2384 -0.8257
 1853TIP3    H2 5499   8.227   7.844   2.688 -0.7818 -1.1998  1.2307
 1854TIP3   OH2 5500   3.917   0.073   4.436 -0.5858 -0.0847 -0.1159
 1854TIP3    H1 5501   3.993   0.125   4.463  1.0888 -2.1428 -0.7453
 1854TIP3    H2 5502   3.935   0.047   4.346 -1.7770 -1.0504 -0.1017
 1855TIP3   OH2 5503   1.499   7.248   3.530  0.0175 -0.1393 -0.2172
 1855TIP3    H1 5504   1.550   7.191   3.472 -1.7909 -1.6281 -0.3771
 1855TIP3    H2 5505   1.469   7.319   3.473  1.9035  0.7536 -0.1197
 1856TIP3   OH2 5506   0.641   7.073   1.952  0.2109 -0.0102 -0.2873
 1856TIP3    H1 5507   0.594   7.115   1.880  0.3966  1.3226  0.3569
 1856TIP3    H2 5508   0.614   7.122   2.030  0.7390 -0.8407  0.4248
 1857TIP3   OH2 5509   3.948   0.741   3.973  0.1949 -0.0015 -0.0339
 1857TIP3    H1 5510   4.041   0.724   3.959  0.2051 -0.7605  0.9078
 1857TIP3    H2 5511   3.909   0.735   3.886  0.6965 -1.7859 -0.1459
 1858TIP3   OH2 5512   1.372   1.090   1.403 -0.7599  0.0708  0.2990
 1858TIP3    H1 5513   1.397   1.029   1.334  0.0538  0.1329  0.5455
 1858TIP3    H2 5514   1.328   1.036   1.469 -2.4543  0.1620 -0.7328
 1859TIP3   OH2 5515   1.294   6.821   6.139 -0.0033  0.0599 -0.0521
 1859TIP3    H1 5516   1.355   6.893   6.120 -0.1214  0.0030 -0.6483
 1859TIP3    H2 5517   1.305   6.805   6.233 -0.6820  1.5192  0.2984
 1860TIP3   OH2 5518   6.775   7.901   2.249  0.5098 -0.4809  0.3979
 1860TIP3    H1 5519   6.819   7.894   2.164  2.6862  1.7631  1.2937
 1860TIP3    H2 5520   6.683   7.916   2.227  1.3274  1.8552 -1.5946
 1861TIP3   OH2 5521   2.541   0.641   2.324  0.2419  0.1356 -0.0512
 1861TIP3    H1 5522   2.523   0.721   2.374  1.2822  0.1310  0.3349
 1861TIP3    H2 5523   2.509   0.661   2.236  0.6786  1.0610 -0.0121
 1862TIP3   OH2 5524   4.130   1.675   5.172 -0.0961  0.2686 -0.3590
 1862TIP3    H1 5525   4.044   1.704   5.142 -0.2869  0.8197  0.6833
 1862TIP3    H2 5526   4.170   1.635   5.095 -0.7729  1.1695 -1.1960
 1863TIP3   OH2 5527   2.295   0.750   3.488  0.0061 -0.4600  0.2934
 1863TIP3    H1 5528   2.318   0.664   3.522 -2.2559 -0.5317  1.7476
 1863TIP3    H2 5529   2.325   0.811   3.557 -0.2109 -0.2415  0.1959
 1864TIP3   OH2 5530   4.157   0.962   2.591  0.3193 -0.8532  0.2889
 1864TIP3    H1 5531   4.082   0.962   2.532  1.5899  0.9740 -1.3847
 1864TIP3    H2 5532   4.139   0.891   2.653 -3.2351  0.1532  0.5290
 1865TIP3   OH2 5533   0.961   1.356   2.754 -0.0161  0.2320  0.3416
 1865TIP3    H1 5534   0.979   1.450   2.755 -0.4382  0.3551 -1.1229
 1865TIP3    H2 5535   0.876   1.349   2.710  0.1746 -0.8461  0.1288
 1866TIP3   OH2 5536   8.242   6.256   1.314 -0.5359 -0.3443 -0.2734
 1866TIP3    H1 5537   8.151   6.249   1.344 -0.5301 -1.2106 -0.4513
 1866TIP3    H2 5538   8.293   6.217   1.385 -0.4372 -1.3810 -0.9045
 1867TIP3   OH2 5539   1.467   1.534   1.459  0.0145  0.2057 -0.1100
 1867TIP3    H1 5540   1.394   1.476   1.437 -0.6136  0.6136  0.8871
 1867TIP3    H2 5541   1.533   1.475   1.496 -0.0315 -0.0819 -0.4795
 1868TIP3   OH2 5542   4.183   1.821   4.198  0.8528 -0.4334  0.0456
 1868TIP3    H1 5543   4.133   1.746   4.232  0.8974 -1.0321 -1.2103
 1868TIP3    H2 5544   4.205   1.797   4.108  1.0964  0.9813 -0.2815
 1869TIP3   OH2 5545   2.076   1.763   6.089  0.5041 -0.4384 -0.7927
 1869TIP3    H1 5546   2.089   1.823   6.163  2.2528 -1.3521 -0.3195
 1869TIP3    H2 5547   2.122   1.684   6.115 -2.1701 -2.1826 -1.2147
 1870TIP3   OH2 5548   1.187   5.773   3.447 -0.0747 -0.7274 -0.2130
 1870TIP3    H1 5549   1.154   5.722   3.373 -1.5341 -2.4444  1.5641
 1870TIP3    H2 5550   1.196   5.862   3.413  1.0325 -1.8407 -2.9475
 1871TIP3   OH2 5551   3.123   1.783   2.515  0.2985  0.0520 -0.5738
 1871TIP3    H1 5552   3.176   1.853   2.478 -0.5268  0.9963  0.0025
 1871TIP3    H2 5553   3.051   1.828   2.559 -0.3196 -1.1629 -0.3167
 1872TIP3   OH2 5554   0.859   7.100   2.439  0.0074  0.0305 -0.5032
 1872TIP3    H1 5555   0.824   7.169   2.497 -0.0885 -0.3323 -0.1258
 1872TIP3    H2 5556   0.792   7.031   2.441  0.0163  0.0027 -1.0293
 1873TIP3   OH2 5557   0.137   7.048   2.072 -0.5334 -0.0244  0.4066
 1873TIP3    H1 5558   0.122   7.140   2.096 -0.4312 -0.2015  1.1580
 1873TIP3    H2 5559   0.079   6.999   2.130 -0.1275 -0.4693  0.4340
 1874TIP3   OH2 5560   2.247   1.864   3.889  0.1883 -0.1819 -0.0944
 1874TIP3    H1 5561   2.157   1.834   3.902 -0.1574  0.1902 -1.5250
 1874TIP3    H2 5562   2.299   1.809   3.948 -1.0483  0.1105  1.2987
 1875TIP3   OH2 5563   0.311   7.638   5.102 -0.6724  0.5219 -0.3120
 1875TIP3    H1 5564   0.347   7.705   5.044  0.8918 -0.5491 -0.5947
 1875TIP3    H2 5565   0.222   7.668   5.120 -0.7418  1.5466 -2.2148
 1876TIP3   OH2 5566   2.363   0.156   2.858 -0.0171 -0.5170  0.0096
 1876TIP3    H1 5567   2.312   0.091   2.810 -1.8376 -0.4545  1.8021
 1876TIP3    H2 5568   2.305   0.186   2.927  1.9708  0.6126  1.2394
 1877TIP3   OH2 5569   1.235   6.376   2.227 -0.2219 -0.5338  0.0845
 1877TIP3    H1 5570   1.252   6.462   2.264 -0.7450 -0.8574  1.1121
 1877TIP3    H2 5571   1.307   6.360   2.167  0.9814 -0.2371  1.4259
 1878TIP3   OH2 5572   0.700   7.502   3.881  0.0494 -0.4073  0.3230
 1878TIP3    H1 5573   0.614   7.513   3.839  1.5484 -1.2404 -3.1480
 1878TIP3    H2 5574   0.751   7.578   3.852  0.6859 -0.2353  1.8582
 1879TIP3   OH2 5575   5.797   0.133   4.641  0.4530 -0.8462 -0.6243
 1879TIP3    H1 5576   5.828   0.153   4.553  1.2404 -0.4570 -0.2649
 1879TIP3    H2 5577   5.746   0.052   4.631  2.0651 -1.8249 -1.1335
 1880TIP3   OH2 5578   3.502   1.007   5.004 -0.0374 -1.0918  0.2819
 1880TIP3    H1 5579   3.581   0.961   4.974  2.1947  4.1269 -2.3272
 1880TIP3    H2 5580   3.445   1.009   4.928  0.3264  1.1906  0.0283
 1881TIP3   OH2 5581   1.563   6.911   3.314  0.4408 -0.1370  0.3912
 1881TIP3    H1 5582   1.512   6.885   3.237  0.0236 -2.2516  1.3534
 1881TIP3    H2 5583   1.597   6.998   3.292 -2.7487  0.8928 -0.6781
 1882TIP3   OH2 5584   7.569   7.271   4.654 -0.2674  0.4846 -0.0220
 1882TIP3    H1 5585   7.544   7.253   4.745 -1.2951 -0.0085 -0.3924
 1882TIP3    H2 5586   7.488   7.300   4.612  0.2978  1.1554 -0.6763
 1883TIP3   OH2 5587   4.040   0.275   4.907  1.0380  0.0541 -0.4013
 1883TIP3    H1 5588   4.074   0.351   4.954  1.9905 -1.5384  1.5900
 1883TIP3    H2 5589   4.114   0.244   4.855  0.3033  1.1676 -2.1320
 1884TIP3   OH2 5590   3.346   0.561   1.236 -0.0335  0.4377 -0.5266
 1884TIP3    H1 5591   3.441   0.556   1.222  0.4736  1.0028  2.4442
 1884TIP3    H2 5592   3.316   0.471   1.229  0.7724  0.2088 -1.1725
 1885TIP3   OH2 5593   7.313   7.910   1.811  0.2106 -0.0513 -0.2828
 1885TIP3    H1 5594   7.338   8.002   1.801  2.0046 -0.1418  2.6413
 1885TIP3    H2 5595   7.251   7.910   1.884  1.0194 -1.2709  0.4193
 1886TIP3   OH2 5596   0.294   6.772   0.839  0.0134  0.0417  0.2093
 1886TIP3    H1 5597   0.248   6.692   0.814 -0.3763 -0.4704  2.4794
 1886TIP3    H2 5598   0.380   6.764   0.799  0.8435 -2.6755  2.3894
 1887TIP3   OH2 5599   2.264   1.807   2.397 -0.1520  0.0884  0.0322
 1887TIP3    H1 5600   2.269   1.715   2.422 -0.7786 -0.0574 -0.3590
 1887TIP3    H2 5601   2.241   1.805   2.304  0.4865  0.6335 -0.1422
 1888TIP3   OH2 5602   0.615   7.761   4.737 -1.0166  0.8743 -0.5115
 1888TIP3    H1 5603   0.609   7.773   4.642  0.2678 -1.4252 -0.9196
 1888TIP3    H2 5604   0.629   7.667   4.748  0.2714  1.3143  1.8680
 1889TIP3   OH2 5605   8.287   6.590   3.829 -0.0567 -0.0286  0.0702
 1889TIP3    H1 5606   8.363   6.531   3.835  0.1944  0.2016 -0.7270
 1889TIP3    H2 5607   8.316   6.670   3.873  1.1385  1.0202 -2.5194
 1890TIP3   OH2 5608   1.241   6.782   4.622  0.9533  0.5642  0.0297
 1890TIP3    H1 5609   1.314   6.725   4.645  1.9005  1.5225 -0.5563
 1890TIP3    H2 5610   1.256   6.803   4.530 -0.4889  0.1556 -0.3034
 1891TIP3   OH2 5611   1.164   6.751   3.027  0.4912  0.3390  0.1994
 1891TIP3    H1 5612   1.243   6.802   3.012  1.4231 -1.4301 -1.1340
 1891TIP3    H2 5613   1.102   6.784   2.962  1.0692 -0.1544 -0.6140
 1892TIP3   OH2 5614   4.038   0.558   1.858 -0.0386  0.5051 -0.5362
 1892TIP3    H1 5615   3.971   0.594   1.916 -1.0570 -1.8203 -0.2263
 1892TIP3    H2 5616   4.118   0.605   1.882 -1.1402  1.9601  0.3927
 1893TIP3   OH2 5617   1.844   7.556   3.522 -0.4365  0.4467 -0.2091
 1893TIP3    H1 5618   1.752   7.573   3.501 -0.1911  0.0391 -1.6307
 1893TIP3    H2 5619   1.891   7.632   3.488 -0.0881 -0.0055 -0.7398
 1894TIP3   OH2 5620   3.522   1.195   2.846 -0.3423 -0.0309  0.4933
 1894TIP3    H1 5621   3.608   1.218   2.881  0.2486  0.0803 -0.9941
 1894TIP3    H2 5622   3.526   1.100   2.835  0.2767  0.1983 -1.3451
 1895TIP3   OH2 5623   2.323   7.819   5.146 -0.1869 -0.5985  0.4364
 1895TIP3    H1 5624   2.399   7.852   5.098 -0.2174 -0.5848  0.3980
 1895TIP3    H2 5625   2.281   7.758   5.085 -1.2990  0.8315 -0.2687
 1896TIP3   OH2 5626   7.049   6.802   0.877  0.2106  0.1057  0.0493
 1896TIP3    H1 5627   7.024   6.781   0.787 -0.8147  2.0341 -0.1393
 1896TIP3    H2 5628   7.046   6.898   0.881  1.6296  0.1036  1.7506
 1897TIP3   OH2 5629   2.528   5.860   2.853 -0.2463 -0.0193  0.0310
 1897TIP3    H1 5630   2.604   5.828   2.804 -1.9130 -2.1965 -1.2293
 1897TIP3    H2 5631   2.466   5.888   2.786 -0.6669  1.5411  1.0417
 1898TIP3   OH2 5632   0.646   0.975   3.669 -0.4351 -0.4401  0.6639
 1898TIP3    H1 5633   0.604   1.059   3.651  0.1543 -0.1230  0.7312
 1898TIP3    H2 5634   0.721   0.998   3.725  0.1106 -0.9318  0.1449
 1899TIP3   OH2 5635   4.098   3.318   3.818 -0.3509  0.3154 -0.3554
 1899TIP3    H1 5636   4.155   3.343   3.891  0.3786  1.6990 -1.3647
 1899TIP3    H2 5637   4.034   3.389   3.811  0.0460  0.5745 -1.5205
 1900TIP3   OH2 5638   6.305   7.795   3.599  0.0257  0.3117 -0.0572
 1900TIP3    H1 5639   6.305   7.818   3.506  0.2390  0.9825  0.1097
 1900TIP3    H2 5640   6.225   7.835   3.634 -0.9802 -1.4225 -0.3118
 1901TIP3   OH2 5641   2.279   0.246   3.403 -0.2685  0.0794  0.0938
 1901TIP3    H1 5642   2.339   0.315   3.372 -2.7503  2.3222  0.1196
 1901TIP3    H2 5643   2.270   0.263   3.497 -0.9175 -0.2737  0.0929
 1902TIP3   OH2 5644   3.198   1.554   2.088  0.0628 -0.3675  0.2881
 1902TIP3    H1 5645   3.231   1.508   2.164  1.7846 -2.1208 -1.4740
 1902TIP3    H2 5646   3.167   1.485   2.029 -3.0163  1.0345  0.1526
 1903TIP3   OH2 5647   7.939   7.552   0.934  0.5304  0.1731  0.3862
 1903TIP3    H1 5648   7.942   7.612   0.860  0.4457  1.1056  1.1260
 1903TIP3    H2 5649   8.026   7.559   0.974  1.3614 -2.0341 -0.9403
 1904TIP3   OH2 5650   1.305   7.933   1.887  0.0294 -0.2186  0.2467
 1904TIP3    H1 5651   1.322   7.979   1.970  0.6448 -0.4768  0.2724
 1904TIP3    H2 5652   1.211   7.942   1.873  0.1063  0.8505  0.3708
 1905TIP3   OH2 5653   3.985   1.860   3.044 -0.5227 -0.4480 -0.5024
 1905TIP3    H1 5654   3.898   1.833   3.014 -1.6518  0.7367  1.5601
 1905TIP3    H2 5655   3.993   1.950   3.011 -0.0472 -0.5803 -0.7424
 1906TIP3   OH2 5656   1.514   7.643   3.689 -0.1485  0.0640  0.3510
 1906TIP3    H1 5657   1.546   7.640   3.779  0.2406  0.4650  0.2256
 1906TIP3    H2 5658   1.515   7.736   3.666  1.1858 -0.1589 -0.5821
 1907TIP3   OH2 5659   1.373   1.158   3.922  0.2801  0.3452  0.2044
 1907TIP3    H1 5660   1.420   1.077   3.906 -0.0058  0.0128  1.0420
 1907TIP3    H2 5661   1.435   1.227   3.900  0.7675 -0.0961  0.2076
 1908TIP3   OH2 5662   2.511   0.998   2.895  0.4013 -0.0864 -0.3248
 1908TIP3    H1 5663   2.525   0.909   2.928 -0.4022 -0.7555 -1.7351
 1908TIP3    H2 5664   2.505   1.052   2.974  0.3380 -1.3636  0.5643
 1909TIP3   OH2 5665   4.984   1.805   4.751  0.1538 -0.4493  0.3311
 1909TIP3    H1 5666   4.974   1.753   4.830  0.0530 -2.1137 -0.7543
 1909TIP3    H2 5667   4.987   1.896   4.782 -0.8442 -1.0150  2.1438
 1910TIP3   OH2 5668   1.771   1.210   3.029  0.7646  0.6435  0.3733
 1910TIP3    H1 5669   1.708   1.277   3.005 -0.1171  0.2068  1.4394
 1910TIP3    H2 5670   1.793   1.227   3.120  1.9474  0.5897  0.1169
 1911TIP3   OH2 5671   3.416   0.142   2.267 -0.4741  0.4674  0.0783
 1911TIP3    H1 5672   3.475   0.192   2.210 -0.0600  0.8993  0.8893
 1911TIP3    H2 5673   3.451   0.053   2.264 -0.9803  0.3000 -1.0523
 1912TIP3   OH2 5674   3.169   0.684   1.057  0.1927  0.5782  0.2802
 1912TIP3    H1 5675   3.193   0.610   1.001 -0.5163 -1.2218  2.2859
 1912TIP3    H2 5676   3.234   0.681   1.128 -0.2310  1.4839  0.7055
 1913TIP3   OH2 5677   2.517   2.012   2.042 -0.2620 -0.2322 -0.5250
 1913TIP3    H1 5678   2.592   2.025   2.100 -0.7638  1.1516 -0.1765
 1913TIP3    H2 5679   2.476   2.098   2.035 -1.3258 -0.7894 -1.4055
 1914TIP3   OH2 5680   5.270   0.081   4.697 -0.7035  0.0641  0.1289
 1914TIP3    H1 5681   5.335   0.064   4.629 -0.1687  1.7294  0.1956
 1914TIP3    H2 5682   5.197   0.121   4.652 -0.4011  1.0544  0.5057
 1915TIP3   OH2 5683   7.183   7.910   4.421 -0.1737  0.1070 -0.3990
 1915TIP3    H1 5684   7.127   7.920   4.498 -1.4677  0.4174 -1.3573
 1915TIP3    H2 5685   7.133   7.852   4.363  0.7407 -0.0407 -1.0451
 1916TIP3   OH2 5686   6.908   7.541   3.124  0.2330 -0.3179  0.0565
 1916TIP3    H1 5687   6.930   7.455   3.088  1.2835  0.2773 -0.7707
 1916TIP3    H2 5688   6.932   7.602   3.054 -0.0435  0.6785  0.8301
 1917TIP3   OH2 5689   1.070   7.184   3.219  0.0041 -0.0201 -0.3410
 1917TIP3    H1 5690   1.158   7.145   3.222  0.7344  1.5709 -0.1889
 1917TIP3    H2 5691   1.011   7.114   3.247  1.2637 -1.0186 -0.1423
 1918TIP3   OH2 5692   1.974   1.093   0.719 -0.0641 -0.5219 -0.5789
 1918TIP3    H1 5693   2.049   1.074   0.776 -0.9793  0.2121  0.8994
 1918TIP3    H2 5694   1.919   1.015   0.725 -1.4545  0.5664  1.6834
 1919TIP3   OH2 5695   0.994   7.667   2.470  0.5928 -0.1599 -0.1948
 1919TIP3    H1 5696   0.990   7.575   2.443  0.2561 -0.5604  1.2034
 1919TIP3    H2 5697   0.904   7.691   2.489  0.6715  0.4844 -0.6218
 1920TIP3   OH2 5698   4.447   1.386   2.002 -0.8672 -0.2795 -0.0399
 1920TIP3    H1 5699   4.388   1.459   1.983 -1.5021 -0.6373  0.5684
 1920TIP3    H2 5700   4.398   1.308   1.979 -0.2787 -0.5400 -0.4378
 1921TIP3   OH2 5701   1.551   1.173   2.235 -0.0877 -0.6208 -0.7228
 1921TIP3    H1 5702   1.483   1.112   2.207  0.1492 -2.1347  1.8579
 1921TIP3    H2 5703   1.630   1.143   2.190 -0.1114 -1.8412  0.0274
 1922TIP3   OH2 5704   0.689   7.695   2.787  0.0584 -0.9561 -0.6737
 1922TIP3    H1 5705   0.757   7.759   2.770 -0.6429  0.3149  1.1355
 1922TIP3    H2 5706   0.723   7.643   2.861 -0.2360 -1.3661 -0.8242
 1923TIP3   OH2 5707   4.154   0.151   3.812 -0.0667  0.2619 -0.6933
 1923TIP3    H1 5708   4.164   0.137   3.718  0.0111  0.6727 -0.7493
 1923TIP3    H2 5709   4.156   0.063   3.850 -1.4041 -0.0062 -1.1925
 1924TIP3   OH2 5710   1.172   6.790   4.001  0.4606 -0.0997 -0.1203
 1924TIP3    H1 5711   1.138   6.721   4.057  0.5415 -2.4402 -2.8248
 1924TIP3    H2 5712   1.250   6.753   3.960  0.7632  1.7443 -1.3023
 1925TIP3   OH2 5713   0.833   6.840   4.283  0.4439 -0.1775  0.8093
 1925TIP3    H1 5714   0.846   6.771   4.348 -0.6728 -2.0848 -0.9234
 1925TIP3    H2 5715   0.741   6.865   4.293 -0.2432 -1.7574 -1.1913
 1926TIP3   OH2 5716   0.223   7.567   1.729 -0.4027  0.2314 -0.2833
 1926TIP3    H1 5717   0.296   7.603   1.780  0.0507 -2.1673  0.8318
 1926TIP3    H2 5718   0.264   7.503   1.670 -1.3159  0.6792 -1.4018
 1927TIP3   OH2 5719   2.894   0.339   3.101  0.2273 -0.2329 -0.6425
 1927TIP3    H1 5720   2.932   0.252   3.115 -0.4352 -0.0633  2.3974
 1927TIP3    H2 5721   2.968   0.395   3.080  0.8488 -1.1796 -0.9931
 1928TIP3   OH2 5722   3.422   0.404   0.991 -0.5209 -0.2946 -0.1207
 1928TIP3    H1 5723   3.364   0.464   0.943 -2.6598 -0.7482  1.7933
 1928TIP3    H2 5724   3.395   0.317   0.963  0.0358 -0.4755 -0.0962
 1929TIP3   OH2 5725   1.147   6.474   3.021 -0.3414 -0.2651  0.1032
 1929TIP3    H1 5726   1.125   6.566   3.036  1.0461 -0.0190  0.6530
 1929TIP3    H2 5727   1.240   6.467   3.041 -0.0183 -1.4156 -1.6450
 1930TIP3   OH2 5728   1.421   6.939   3.800 -0.0700 -0.8468  0.1952
 1930TIP3    H1 5729   1.419   6.896   3.714  0.6795 -1.6075  0.5420
 1930TIP3    H2 5730   1.384   7.026   3.785 -2.6690 -2.0072 -0.2946
 1931TIP3   OH2 5731   8.493   7.181   4.351  0.1452 -0.3620  0.2863
 1931TIP3    H1 5732   8.450   7.216   4.429 -0.9518  0.9239 -0.8676
 1931TIP3    H2 5733   8.461   7.236   4.279  0.7868 -1.7999 -1.1375
 1932TIP3   OH2 5734   3.246   0.394   1.621 -0.5571 -0.3999 -0.5294
 1932TIP3    H1 5735   3.335   0.427   1.627 -0.6936 -0.0594 -0.3685
 1932TIP3    H2 5736   3.191   0.468   1.646 -0.8360 -0.9142  0.4366
 1933TIP3   OH2 5737   0.953   7.883   1.098  0.1673 -0.0837 -0.0511
 1933TIP3    H1 5738   1.016   7.910   1.166 -1.0259 -1.2573  1.5599
 1933TIP3    H2 5739   0.958   7.788   1.098 -0.9007 -0.1409 -0.5936
 1934TIP3   OH2 5740   4.363   0.758   3.477 -0.2958  0.1310  0.3285
 1934TIP3    H1 5741   4.417   0.837   3.480 -0.8872  0.4923  2.4726
 1934TIP3    H2 5742   4.281   0.787   3.438  0.4077 -0.0143 -1.2742
 1935TIP3   OH2 5743   8.490   1.396   4.497  0.3316 -0.1466 -0.4958
 1935TIP3    H1 5744   8.522   1.339   4.427  0.4520  0.1149 -0.6539
 1935TIP3    H2 5745   8.439   1.338   4.554 -1.9578  0.1428 -2.1807
 1936TIP3   OH2 5746   0.411   7.398   3.273  0.3878 -0.5700  0.2533
 1936TIP3    H1 5747   0.361   7.342   3.214 -0.7392 -0.6264  1.2490
 1936TIP3    H2 5748   0.501   7.365   3.266  0.5940  0.4854 -2.6676
 1937TIP3   OH2 5749   4.231   1.847   3.562  0.1189 -0.5331 -0.3200
 1937TIP3    H1 5750   4.276   1.805   3.635 -1.0007 -2.2191 -0.5691
 1937TIP3    H2 5751   4.139   1.846   3.588 -0.0629  0.6696 -0.8931
 1938TIP3   OH2 5752   1.787   5.634   3.768  0.1367  0.8458 -0.0908
 1938TIP3    H1 5753   1.706   5.591   3.794  0.6937  0.9040  1.8074
 1938TIP3    H2 5754   1.768   5.727   3.774  0.2639  0.8613  0.0644
 1939TIP3   OH2 5755   4.546   0.862   4.524 -0.0751 -0.4998  0.8466
 1939TIP3    H1 5756   4.613   0.831   4.464 -0.9273  0.4626 -0.6132
 1939TIP3    H2 5757   4.463   0.834   4.484 -0.5785 -1.3612  2.4402
 1940TIP3   OH2 5758   4.111   1.821   4.781 -0.0468 -1.3175 -0.0565
 1940TIP3    H1 5759   4.108   1.750   4.846 -1.3877 -1.9274 -0.7756
 1940TIP3    H2 5760   4.157   1.783   4.706  0.2039 -1.0745 -0.0265
 1941TIP3   OH2 5761   5.900   1.138   2.810  0.2044 -0.2249  0.0032
 1941TIP3    H1 5762   5.885   1.178   2.724  1.9127  0.0196 -0.1846
 1941TIP3    H2 5763   5.962   1.196   2.853 -1.6071  0.3365  1.9146
 1942TIP3   OH2 5764   1.076   0.890   1.584 -0.0896 -0.2682  0.1991
 1942TIP3    H1 5765   1.001   0.843   1.620  0.4796 -1.6191 -0.3404
 1942TIP3    H2 5766   1.142   0.887   1.654  0.4808 -1.5908 -0.3819
 1943TIP3   OH2 5767   1.923   1.039   1.191 -0.6258  0.2376 -0.0337
 1943TIP3    H1 5768   1.891   1.092   1.118 -0.2814  0.3589 -0.0963
 1943TIP3    H2 5769   1.915   1.096   1.268 -1.8475 -0.2030  0.1738
 1944TIP3   OH2 5770   2.586   7.444   2.653 -0.4516 -0.2319  0.0979
 1944TIP3    H1 5771   2.606   7.519   2.597 -0.8370  1.0963  1.6993
 1944TIP3    H2 5772   2.574   7.371   2.592 -0.2923  1.0503 -1.5024
 1945TIP3   OH2 5773   1.966   0.492   5.571  0.3625 -0.4815  0.4486
 1945TIP3    H1 5774   1.908   0.471   5.497  0.9921 -1.1931  0.1499
 1945TIP3    H2 5775   1.907   0.501   5.646 -0.1145 -1.4871  0.2080
 1946TIP3   OH2 5776   1.988   1.124   0.443 -0.8720 -0.3203  0.2007
 1946TIP3    H1 5777   2.079   1.153   0.430 -0.8220  0.2961  1.7925
 1946TIP3    H2 5778   1.979   1.117   0.538 -2.6666  0.2174  0.0800
 1947TIP3   OH2 5779   1.467   7.502   2.441 -0.0007  0.3916  0.0226
 1947TIP3    H1 5780   1.396   7.534   2.385  0.9332  0.8798 -0.9044
 1947TIP3    H2 5781   1.432   7.423   2.481 -0.8002  0.1907 -1.0395
 1948TIP3   OH2 5782   5.000   2.939   3.734  0.4326 -0.2142  0.3534
 1948TIP3    H1 5783   4.926   2.920   3.675 -0.3501  1.1891  0.8637
 1948TIP3    H2 5784   4.998   2.868   3.798 -0.8079  0.0965  0.6780
 1949TIP3   OH2 5785   4.669   0.347   3.422  0.4610 -0.4055 -0.2263
 1949TIP3    H1 5786   4.643   0.424   3.473  0.1081 -1.6351  1.5180
 1949TIP3    H2 5787   4.591   0.322   3.373  0.8405  0.8685 -1.5097
 1950TIP3   OH2 5788   2.241   6.355   2.038 -0.0451 -0.5428 -0.0461
 1950TIP3    H1 5789   2.300   6.407   1.983 -1.0614  0.2900 -0.3606
 1950TIP3    H2 5790   2.166   6.336   1.981 -0.3852 -1.0188  0.5586
 1951TIP3   OH2 5791   3.134   1.062   6.256  0.2209  0.4138 -0.1979
 1951TIP3    H1 5792   3.138   1.142   6.309 -0.0025  0.1268  0.2624
 1951TIP3    H2 5793   3.225   1.036   6.245  0.1710 -1.1299  2.5444
 1952TIP3   OH2 5794   6.024   7.117   5.230  0.1222 -0.1474  0.0145
 1952TIP3    H1 5795   6.036   7.027   5.260 -0.0702 -0.2990 -0.3581
 1952TIP3    H2 5796   6.110   7.157   5.240 -0.0706 -0.0238  1.3084
 1953TIP3   OH2 5797   3.056   6.728   1.885 -0.3026  0.0268 -0.2329
 1953TIP3    H1 5798   3.121   6.691   1.825  1.2590  1.2010  0.7125
 1953TIP3    H2 5799   2.992   6.770   1.827  0.9400  0.7399 -1.1060
 1954TIP3   OH2 5800   7.059   7.864   3.469 -0.0831  0.6945 -0.5264
 1954TIP3    H1 5801   7.080   7.844   3.560  0.9588  0.8544 -0.7147
 1954TIP3    H2 5802   7.086   7.786   3.420  3.8340  2.3570 -1.2399
 1955TIP3   OH2 5803   6.125   7.777   4.431  0.3629 -0.4454  0.3232
 1955TIP3    H1 5804   6.200   7.718   4.422  1.1665  1.0208 -4.2490
 1955TIP3    H2 5805   6.147   7.852   4.375 -3.7629  0.8022  0.1872
 1956TIP3   OH2 5806   4.632   1.930   4.267  0.4729 -0.4285 -0.4747
 1956TIP3    H1 5807   4.539   1.947   4.280  0.0162 -0.9860 -2.7417
 1956TIP3    H2 5808   4.642   1.837   4.284  0.7821 -0.2058  0.5823
 1957TIP3   OH2 5809   1.550   7.772   4.623 -0.3757  0.1108  0.0660
 1957TIP3    H1 5810   1.514   7.688   4.592  0.8588 -0.4060  0.0354
 1957TIP3    H2 5811   1.558   7.825   4.544 -2.6756  0.8532  0.2886
 1958TIP3   OH2 5812   1.765   0.383   5.429  0.0538 -0.2046 -0.4079
 1958TIP3    H1 5813   1.716   0.387   5.346 -1.2899 -1.2833  0.3023
 1958TIP3    H2 5814   1.753   0.293   5.459  1.5359 -0.1535  0.3723
 1959TIP3   OH2 5815   8.326   7.724   2.541  0.0417 -0.2846  0.2979
 1959TIP3    H1 5816   8.356   7.718   2.451 -0.6221 -0.6139  0.0913
 1959TIP3    H2 5817   8.278   7.642   2.556 -1.7908  0.7510  0.2203
 1960TIP3   OH2 5818   2.329   1.204   2.042  0.3746 -0.3618 -0.0439
 1960TIP3    H1 5819   2.243   1.219   2.002  1.1525  1.0309 -1.2210
 1960TIP3    H2 5820   2.366   1.132   1.991 -1.1561 -2.8287  2.1861
 1961TIP3   OH2 5821   1.250   1.009   4.115  0.5740  0.1402 -0.3003
 1961TIP3    H1 5822   1.218   0.946   4.050  0.1411  0.1170 -0.0673
 1961TIP3    H2 5823   1.256   1.092   4.068 -0.8161  0.3763 -0.0914
 1962TIP3   OH2 5824   3.677   0.385   1.825  0.2877 -0.1531 -0.2500
 1962TIP3    H1 5825   3.746   0.448   1.845 -0.8719  1.3234 -0.8657
 1962TIP3    H2 5826   3.666   0.334   1.906  0.3430  1.2763  0.6649
 1963TIP3   OH2 5827   0.506   2.091   5.561  0.2781 -0.0572  0.1437
 1963TIP3    H1 5828   0.488   2.162   5.499  1.3166  1.3362  1.3817
 1963TIP3    H2 5829   0.572   2.128   5.621  0.7516 -2.0368  0.8859
 1964TIP3   OH2 5830   2.390   1.075   4.529 -0.0132  0.1033  0.1267
 1964TIP3    H1 5831   2.423   1.000   4.478 -0.6542 -0.5933  0.7221
 1964TIP3    H2 5832   2.308   1.043   4.567  0.2960  0.7284  1.3235
 1965TIP3   OH2 5833   2.920   2.480   3.612  0.1415 -0.0381 -0.0031
 1965TIP3    H1 5834   2.890   2.530   3.688  1.2107  0.1722  0.2797
 1965TIP3    H2 5835   3.012   2.503   3.602  0.6812 -2.0387  0.1867
 1966TIP3   OH2 5836   7.260   6.478   3.832  0.7374 -0.3549  0.2753
 1966TIP3    H1 5837   7.243   6.458   3.740  0.7313 -1.9218  0.6027
 1966TIP3    H2 5838   7.349   6.448   3.847  0.4980 -0.7346  0.9578
 1967TIP3   OH2 5839   1.194   7.270   0.398 -0.0370  0.4507 -0.1201
 1967TIP3    H1 5840   1.106   7.288   0.366 -0.0435  0.6561  0.0094
 1967TIP3    H2 5841   1.227   7.199   0.342  0.1674  1.1904 -0.9395
 1968TIP3   OH2 5842   3.515   1.453   2.368 -0.4816 -0.2539  0.2448
 1968TIP3    H1 5843   3.539   1.534   2.413 -0.9372 -1.0435  1.9629
 1968TIP3    H2 5844   3.421   1.443   2.385 -0.9636  0.1376 -2.0633
 1969TIP3   OH2 5845   2.989   1.516   3.630  0.6935  0.0755 -0.1403
 1969TIP3    H1 5846   3.083   1.534   3.635  0.5295  0.4978  1.6963
 1969TIP3    H2 5847   2.969   1.472   3.712 -0.4684 -1.2247 -1.1102
 1970TIP3   OH2 5848   4.372   7.716   2.959 -0.1591 -0.3895  0.4333
 1970TIP3    H1 5849   4.391   7.641   3.015 -0.3691 -1.8378 -1.3652
 1970TIP3    H2 5850   4.457   7.743   2.924  0.1504  1.3813  2.4702
 1971TIP3   OH2 5851   2.432   7.336   4.644 -0.0261 -0.1582  0.2433
 1971TIP3    H1 5852   2.388   7.372   4.567 -1.5803  0.2249  1.2975
 1971TIP3    H2 5853   2.407   7.244   4.646 -1.4833  0.2408  1.2990
 1972TIP3   OH2 5854   8.452   7.511   3.103  0.2488  0.2834 -0.2026
 1972TIP3    H1 5855   8.455   7.567   3.180 -2.5270 -0.8079  0.7330
 1972TIP3    H2 5856   8.387   7.551   3.046  0.8957  0.0275 -1.1380
 1973TIP3   OH2 5857   6.280   1.443   0.313 -0.6240 -0.3463  0.3694
 1973TIP3    H1 5858   6.234   1.374   0.266  1.2642 -1.7120  0.4853
 1973TIP3    H2 5859   6.256   1.430   0.404 -0.2788 -0.8501  0.3899
 1974TIP3   OH2 5860   8.361   7.929   3.319 -0.0375  0.1000 -0.3382
 1974TIP3    H1 5861   8.390   8.011   3.360  1.5991 -0.9492  0.6904
 1974TIP3    H2 5862   8.386   7.862   3.382 -2.0270 -1.1410 -0.8494
 1975TIP3   OH2 5863   3.791   3.255   1.047 -0.5706  0.1081  0.8345
 1975TIP3    H1 5864   3.741   3.292   1.120 -2.4331 -1.8397  0.5843
 1975TIP3    H2 5865   3.729   3.250   0.975  0.6780  0.0004 -0.2465
 1976TIP3   OH2 5866   1.550   7.936   4.401  0.3097 -0.3474 -0.3210
 1976TIP3    H1 5867   1.530   7.938   4.308 -1.0702 -0.8444 -0.0590
 1976TIP3    H2 5868   1.509   8.015   4.436 -0.3890 -0.8625  0.0634
 1977TIP3   OH2 5869   2.832   7.705   4.109  0.0509  0.4630 -0.1955
 1977TIP3    H1 5870   2.844   7.741   4.021  0.7090  0.3585 -0.1515
 1977TIP3    H2 5871   2.744   7.667   4.107 -0.6938  2.1708 -0.1998
 1978TIP3   OH2 5872   1.960   6.771   3.616  0.2818 -0.1913 -0.5270
 1978TIP3    H1 5873   1.959   6.857   3.657 -0.5558 -0.4949  0.1120
 1978TIP3    H2 5874   2.004   6.784   3.532  1.0555  0.6504  0.0038
 1979TIP3   OH2 5875   1.466   7.604   3.023  0.1303 -0.7750 -0.1036
 1979TIP3    H1 5876   1.437   7.610   3.114  0.0878  0.3884 -0.1852
 1979TIP3    H2 5877   1.428   7.681   2.980  2.4244  0.2014 -0.4540
 1980TIP3   OH2 5878   2.798   7.325   3.386  0.0239 -0.3889 -0.0895
 1980TIP3    H1 5879   2.784   7.323   3.292  1.8823 -0.8609 -0.3682
 1980TIP3    H2 5880   2.767   7.239   3.416 -0.0203 -0.4615 -0.3408
 1981TIP3   OH2 5881   3.139   6.822   1.554  0.2745  0.1190  0.4165
 1981TIP3    H1 5882   3.213   6.881   1.565  0.6299 -0.1896 -0.3479
 1981TIP3    H2 5883   3.067   6.878   1.526  0.7115  0.1321 -0.6842
 1982TIP3   OH2 5884   4.292   0.229   2.361 -0.4731  0.5767 -0.4710
 1982TIP3    H1 5885   4.252   0.241   2.447  1.2419  2.2183  0.1376
 1982TIP3    H2 5886   4.331   0.142   2.364 -0.6284  0.5311  0.3092
 1983TIP3   OH2 5887   8.274   7.933   2.041  0.6664 -0.2995  0.0295
 1983TIP3    H1 5888   8.305   7.869   2.105  0.7046 -2.2865 -1.9363
 1983TIP3    H2 5889   8.327   8.011   2.057  1.8848 -1.3673  1.2450
 1984TIP3   OH2 5890   4.551   1.004   2.741  0.2074  0.3419  0.1257
 1984TIP3    H1 5891   4.547   1.079   2.801 -0.2332  1.9230 -1.8096
 1984TIP3    H2 5892   4.500   1.032   2.665 -0.0038 -1.9712 -0.6103
 1985TIP3   OH2 5893   0.570   7.524   0.470  0.2387  0.1432 -0.2271
 1985TIP3    H1 5894   0.572   7.498   0.378  1.6116 -0.6689  0.0115
 1985TIP3    H2 5895   0.514   7.459   0.512 -0.0334  0.2582 -0.4111
 1986TIP3   OH2 5896   1.388   7.490   0.796  0.0961 -0.6189 -0.3294
 1986TIP3    H1 5897   1.368   7.414   0.741 -0.4695  0.7068 -1.9954
 1986TIP3    H2 5898   1.428   7.553   0.736 -0.0737  0.6650  0.8875
 1987TIP3   OH2 5899   0.813   7.905   6.394 -0.1287 -0.0150  0.2752
 1987TIP3    H1 5900   0.848   7.994   6.397 -2.8508  1.0613  1.4646
 1987TIP3    H2 5901   0.767   7.901   6.310 -0.0098 -0.2980  0.2247
 1988TIP3   OH2 5902   1.657   7.160   3.294 -0.0900 -0.4467  0.7478
 1988TIP3    H1 5903   1.611   7.208   3.225 -0.2715  0.7689  1.6939
 1988TIP3    H2 5904   1.749   7.181   3.279 -0.2036  0.5040  1.3960
 1989TIP3   OH2 5905   5.515   0.941   4.248  0.1799  0.7220 -0.0633
 1989TIP3    H1 5906   5.608   0.922   4.235 -0.2389 -0.9461 -0.7852
 1989TIP3    H2 5907   5.472   0.856   4.239 -1.5012  1.6020 -0.5014
 1990TIP3   OH2 5908   1.354   7.246   2.531  0.6088 -0.1926  0.1017
 1990TIP3    H1 5909   1.287   7.222   2.596 -1.0784  0.2025 -1.4702
 1990TIP3    H2 5910   1.436   7.209   2.567 -0.7951 -2.5690  0.9969
 1991TIP3   OH2 5911   0.906   7.873   2.116 -0.0293 -0.2353  0.5925
 1991TIP3    H1 5912   0.907   7.904   2.026  0.8849 -2.2313 -0.1108
 1991TIP3    H2 5913   0.933   7.950   2.168 -0.3252  0.8520 -0.8351
 1992TIP3   OH2 5914   4.866   0.426   2.991  0.0186  0.1517 -0.0719
 1992TIP3    H1 5915   4.959   0.448   2.977  0.0572  1.0178  1.4516
 1992TIP3    H2 5916   4.866   0.366   3.065 -0.6877  0.5251  0.2333
 1993TIP3   OH2 5917   1.823   6.517   2.455  0.1712  0.2324  0.0388
 1993TIP3    H1 5918   1.838   6.605   2.422 -1.3508 -0.4209 -2.5631
 1993TIP3    H2 5919   1.754   6.527   2.520  1.8081  1.2848  1.6422
 1994TIP3   OH2 5920   1.764   5.813   2.569  0.2915  0.0824 -0.2087
 1994TIP3    H1 5921   1.676   5.803   2.532  0.9121  0.6240 -1.8902
 1994TIP3    H2 5922   1.809   5.872   2.508  1.2869  1.1968  1.5746
 1995TIP3   OH2 5923   3.136   7.765   6.236  0.2488  0.1949 -0.3699
 1995TIP3    H1 5924   3.204   7.719   6.286  0.2496 -1.8436 -2.1491
 1995TIP3    H2 5925   3.057   7.757   6.289  0.4841 -1.0449 -0.1971
 1996TIP3   OH2 5926   3.676   7.441   3.338  0.2594  0.1100  0.3250
 1996TIP3    H1 5927   3.738   7.497   3.384  1.4059  0.6769 -1.8332
 1996TIP3    H2 5928   3.622   7.402   3.407 -0.1390  3.3319  1.9161
 1997TIP3   OH2 5929   2.822   6.099   3.235 -0.0600 -0.0088  0.1621
 1997TIP3    H1 5930   2.867   6.164   3.288  1.1267  1.1821 -2.2112
 1997TIP3    H2 5931   2.760   6.057   3.295  0.3017  2.1664  2.1226
 1998TIP3   OH2 5932   3.000   0.640   2.244 -0.3156 -0.2024  0.0165
 1998TIP3    H1 5933   2.963   0.703   2.306  0.9492 -0.4167  1.0109
 1998TIP3    H2 5934   3.093   0.635   2.267  0.0952 -0.5822 -1.6605
 1999TIP3   OH2 5935   3.114   3.642   2.777  0.0326 -0.4247 -0.1260
 1999TIP3    H1 5936   3.168   3.593   2.715  0.7700 -0.0767  0.2330
 1999TIP3    H2 5937   3.085   3.576   2.840  0.1283 -0.5971 -0.2629
 2000TIP3   OH2 5938   5.840   1.097   3.459 -0.3195  0.1441  0.2674
 2000TIP3    H1 5939   5.855   1.143   3.541  0.6312  1.9362 -0.8842
 2000TIP3    H2 5940   5.775   1.150   3.413 -2.0792 -1.7145  0.5275
 2001TIP3   OH2 5941   3.266   7.766   3.158  0.5122 -0.0820  0.1727
 2001TIP3    H1 5942   3.247   7.727   3.072 -0.8581  0.9403  0.0015
 2001TIP3    H2 5943   3.360   7.750   3.170  0.5831 -0.8535 -1.2028
 2002TIP3   OH2 5944   3.019   6.708   3.018 -0.4538  0.2426  0.6805
 2002TIP3    H1 5945   3.074   6.770   3.067 -0.1968 -0.1951  0.9559
 2002TIP3    H2 5946   3.074   6.630   3.010  0.0012  0.7533 -1.4496
 2003TIP3   OH2 5947   1.592   7.102   2.606 -0.4824 -0.2352 -0.0369
 2003TIP3    H1 5948   1.685   7.099   2.584 -0.0347  0.9619  1.6253
 2003TIP3    H2 5949   1.590   7.100   2.701 -2.2135 -1.1007 -0.0713
 2004TIP3   OH2 5950   8.252   6.937   3.576 -0.1392 -0.2926 -0.3591
 2004TIP3    H1 5951   8.200   6.938   3.657 -0.3543 -1.2473 -0.4794
 2004TIP3    H2 5952   8.213   7.006   3.522 -1.2547 -0.9678 -0.4314
 2005TIP3   OH2 5953   1.059   6.143   2.865 -0.4617 -0.5621  0.4692
 2005TIP3    H1 5954   0.989   6.185   2.915  0.0116  0.4070  0.3474
 2005TIP3    H2 5955   1.115   6.103   2.932  0.0626  0.5608  0.7140
 2006TIP3   OH2 5956   0.962   7.194   1.794  0.1207  0.4747  0.5376
 2006TIP3    H1 5957   0.909   7.115   1.791 -0.6447  0.9021  2.1987
 2006TIP3    H2 5958   0.924   7.251   1.726  0.2326 -0.3035 -0.1812
 2007TIP3   OH2 5959   2.367   7.773   3.079 -0.3684  0.5300 -0.2970
 2007TIP3    H1 5960   2.406   7.753   3.165 -0.1607  0.8433 -0.3199
 2007TIP3    H2 5961   2.327   7.859   3.091 -0.7646  0.3549 -0.3716
 2008TIP3   OH2 5962   1.652   4.645   6.310  0.4345  0.1878 -0.6485
 2008TIP3    H1 5963   1.652   4.582   6.238  2.4525 -0.0145 -0.5126
 2008TIP3    H2 5964   1.702   4.603   6.380 -2.3987 -0.0410  1.3171
 2009TIP3   OH2 5965   2.092   6.765   3.351 -0.0957 -0.1667 -0.2610
 2009TIP3    H1 5966   2.118   6.673   3.351  0.3405 -0.0524 -1.7222
 2009TIP3    H2 5967   2.062   6.782   3.262  0.6220  1.3298 -0.2442
 2010TIP3   OH2 5968   0.922   7.756   6.582  0.1043 -0.0740 -0.2437
 2010TIP3    H1 5969   0.865   7.779   6.655 -0.0536 -0.0394 -0.3762
 2010TIP3    H2 5970   0.890   7.809   6.509 -0.3202 -0.7772 -0.5731
 2011TIP3   OH2 5971   6.336   1.310   2.717 -0.4588 -0.4400  0.0636
 2011TIP3    H1 5972   6.256   1.280   2.760 -0.3733  1.5833  1.7098
 2011TIP3    H2 5973   6.396   1.329   2.790  1.0981 -0.7642 -1.1064
 2012TIP3   OH2 5974   4.997   1.393   2.937 -0.1625  0.3275  0.0191
 2012TIP3    H1 5975   5.006   1.344   3.019 -0.0417  1.8897  0.9631
 2012TIP3    H2 5976   4.949   1.334   2.879  0.0840 -0.9508  1.0823
 2013TIP3   OH2 5977   4.497   0.250   3.224 -0.0504 -0.1478  0.0793
 2013TIP3    H1 5978   4.485   0.279   3.133  1.2837  1.8877  0.5190
 2013TIP3    H2 5979   4.413   0.212   3.248 -0.4784 -0.5697 -1.9540
 2014TIP3   OH2 5980   2.240   1.183   1.588 -0.4933  0.4148 -0.2206
 2014TIP3    H1 5981   2.214   1.276   1.585 -2.3995 -0.1541 -2.1779
 2014TIP3    H2 5982   2.298   1.171   1.513 -0.0754  0.0406  0.1541
 2015TIP3   OH2 5983   2.839   6.860   1.770  0.4577 -0.0618 -0.2256
 2015TIP3    H1 5984   2.751   6.851   1.805  1.3362  0.7055  2.3076
 2015TIP3    H2 5985   2.827   6.891   1.681 -1.8417 -0.7107 -0.1504
 2016TIP3   OH2 5986   5.262   1.024   3.882  0.0364 -0.1397  0.5355
 2016TIP3    H1 5987   5.289   1.061   3.966 -0.1647 -1.7697  1.3383
 2016TIP3    H2 5988   5.324   0.953   3.866  0.6560  0.7367 -1.1726
 2017TIP3   OH2 5989   2.543   5.823   3.148  0.2999  0.2498  0.1024
 2017TIP3    H1 5990   2.573   5.855   3.062 -0.0704 -0.6768 -0.3745
 2017TIP3    H2 5991   2.564   5.895   3.208  1.2938  0.5941 -0.6271
 2018TIP3   OH2 5992   0.819   6.910   4.661  0.0851  0.0028  0.2346
 2018TIP3    H1 5993   0.876   6.907   4.738 -1.0265 -0.4242  1.0506
 2018TIP3    H2 5994   0.877   6.934   4.589  1.0898  0.6443  1.2523
 2019TIP3   OH2 5995   1.548   7.565   2.098  0.7411  0.2469  0.0895
 2019TIP3    H1 5996   1.561   7.656   2.069  1.0057 -0.4481 -2.0232
 2019TIP3    H2 5997   1.583   7.564   2.187 -0.5634  2.5583  0.6868
 2020TIP3   OH2 5998   4.212   0.306   1.867  0.0979 -0.4928 -0.0165
 2020TIP3    H1 5999   4.197   0.236   1.804  3.3167 -0.5936 -0.7615
 2020TIP3    H2 6000   4.148   0.373   1.845  0.3450 -1.0578 -2.5940
 2021TIP3   OH2 6001   6.135   0.317   2.344  0.1580  0.3094 -0.4214
 2021TIP3    H1 6002   6.096   0.258   2.279  1.5839 -1.1425  0.0058
 2021TIP3    H2 6003   6.229   0.309   2.329  0.5181 -0.3305  2.0892
 2022TIP3   OH2 6004   2.863   6.950   1.498 -0.9631  0.1615  0.1332
 2022TIP3    H1 6005   2.848   6.911   1.412  1.6525 -1.0061  0.1674
 2022TIP3    H2 6006   2.857   7.045   1.483  1.3351  0.0664 -1.7767
 2023TIP3   OH2 6007   2.445   6.757   2.421 -0.1689  0.2398  0.0152
 2023TIP3    H1 6008   2.393   6.833   2.446  0.1949 -0.3356  2.7562
 2023TIP3    H2 6009   2.509   6.791   2.358 -1.9200  1.5557 -1.1001
 2024TIP3   OH2 6010   1.773   5.968   2.330  0.1777 -0.3273  0.2750
 2024TIP3    H1 6011   1.816   5.980   2.245 -1.4403  0.2298 -0.4782
 2024TIP3    H2 6012   1.747   6.056   2.357  1.0612 -0.4439  1.5652
 2025TIP3   OH2 6013   5.339   0.407   4.658 -0.5061  0.0937 -0.1420
 2025TIP3    H1 6014   5.415   0.361   4.621 -0.5173 -0.9044  1.0379
 2025TIP3    H2 6015   5.344   0.388   4.751  0.6769  4.2150  0.7125
 2026TIP3   OH2 6016   1.039   7.915   1.793  0.1385 -0.1933  0.1006
 2026TIP3    H1 6017   1.058   7.842   1.735 -1.0509  0.2895 -0.9247
 2026TIP3    H2 6018   1.010   7.985   1.735 -2.5987 -0.2041  1.3875
 2027TIP3   OH2 6019   3.346   0.144   1.537  0.0988 -0.3741 -0.1458
 2027TIP3    H1 6020   3.301   0.220   1.573 -0.3969  0.1232 -1.8112
 2027TIP3    H2 6021   3.412   0.180   1.477 -0.5272 -1.2601 -1.3915
 2028TIP3   OH2 6022   6.322   0.751   4.698  0.0087  0.2366  0.9087
 2028TIP3    H1 6023   6.415   0.737   4.714  0.7223  2.4228 -1.0106
 2028TIP3    H2 6024   6.283   0.756   4.785  2.0340  1.4738  1.7838
 2029TIP3   OH2 6025   1.007   7.677   1.615 -0.3418 -0.0743  0.1981
 2029TIP3    H1 6026   0.949   7.602   1.606 -0.2772 -0.0008 -0.8540
 2029TIP3    H2 6027   1.095   7.641   1.606 -0.3138  0.1427 -0.3674
 2030TIP3   OH2 6028   2.253   7.164   1.335 -0.1579 -0.5011 -0.6528
 2030TIP3    H1 6029   2.250   7.212   1.417  0.0377 -0.4269 -0.6905
 2030TIP3    H2 6030   2.304   7.219   1.276  1.5666 -1.5695 -0.1738
 2031TIP3   OH2 6031   3.360   0.051   2.669 -0.3309  0.1586  0.0683
 2031TIP3    H1 6032   3.384   0.030   2.579 -1.8165 -0.8079 -0.1163
 2031TIP3    H2 6033   3.264   0.052   2.668 -0.3451  0.5569  1.5454
 2032TIP3   OH2 6034   3.385   0.044   4.442 -0.2204  0.3591  0.4445
 2032TIP3    H1 6035   3.445   0.115   4.462 -1.9477  2.5713 -1.9537
 2032TIP3    H2 6036   3.301   0.072   4.478 -0.9491 -0.4341 -0.6018
 2033TIP3   OH2 6037   3.180   0.973   4.384 -0.2128 -0.1799 -0.0740
 2033TIP3    H1 6038   3.268   0.936   4.389 -0.3775 -0.4676  0.7458
 2033TIP3    H2 6039   3.191   1.065   4.405 -0.4232 -0.6883  2.3542
 2034TIP3   OH2 6040   0.912   7.406   2.416 -0.4091  0.4799 -0.6228
 2034TIP3    H1 6041   0.919   7.340   2.347  0.0731  0.9160 -0.9934
 2034TIP3    H2 6042   0.820   7.403   2.443 -0.8749  1.1292 -2.0997
 2035TIP3   OH2 6043   1.808   6.473   2.904  0.0022  0.0717  0.5162
 2035TIP3    H1 6044   1.807   6.377   2.907  0.2642  0.0776  0.8667
 2035TIP3    H2 6045   1.878   6.494   2.843 -0.6394  0.0315 -0.2391
 2036TIP3   OH2 6046   3.632   0.656   3.041  0.2769  0.0607 -0.2439
 2036TIP3    H1 6047   3.566   0.611   3.094 -1.0277  1.9447 -0.1855
 2036TIP3    H2 6048   3.666   0.724   3.099 -0.9351  1.9450 -1.6620
 2037TIP3   OH2 6049   5.498   2.164   2.918  0.0220  0.7714 -0.3097
 2037TIP3    H1 6050   5.411   2.128   2.930  0.3067  0.3452  0.5303
 2037TIP3    H2 6051   5.484   2.252   2.883 -0.6832 -0.1118 -2.3192
 2038TIP3   OH2 6052   4.411   7.565   3.888 -1.3063  0.8872  0.1855
 2038TIP3    H1 6053   4.379   7.581   3.799 -2.5434 -1.5397  0.1587
 2038TIP3    H2 6054   4.332   7.561   3.942 -0.7098  0.0919  1.0196
 2039TIP3   OH2 6055   3.292   0.303   2.453 -0.3773 -0.0423 -0.2717
 2039TIP3    H1 6056   3.342   0.283   2.532 -1.4371  1.2929  0.7692
 2039TIP3    H2 6057   3.344   0.266   2.382  1.2692 -0.0893  0.9170
 2040TIP3   OH2 6058   5.674   5.029   4.515  0.5083 -0.4312  0.4776
 2040TIP3    H1 6059   5.701   4.994   4.600  0.4458  1.4653  1.2996
 2040TIP3    H2 6060   5.582   5.051   4.527  0.6822  0.4876  0.1269
 2041TIP3   OH2 6061   2.001   7.973   3.027  0.2002 -0.4637 -0.0433
 2041TIP3    H1 6062   2.076   7.939   3.075  0.8408 -0.6737 -1.1530
 2041TIP3    H2 6063   1.999   8.067   3.047  0.5078 -0.5395  0.3215
 2042TIP3   OH2 6064   3.540   7.167   3.635 -0.5990  0.2374  0.0460
 2042TIP3    H1 6065   3.469   7.135   3.580 -0.9351  2.2149 -0.6950
 2042TIP3    H2 6066   3.497   7.205   3.711 -0.2728  0.2534  0.2267
 2043TIP3   OH2 6067   1.712   6.925   3.573 -0.5629 -0.3762 -0.0476
 2043TIP3    H1 6068   1.650   6.908   3.502  1.6378 -0.2300 -2.0781
 2043TIP3    H2 6069   1.701   7.018   3.592  0.2099  0.0739 -1.6387
 2044TIP3   OH2 6070   4.880   1.582   5.521  0.1350 -0.3818  0.1086
 2044TIP3    H1 6071   4.864   1.676   5.512 -0.3445 -0.4795 -0.0480
 2044TIP3    H2 6072   4.825   1.541   5.454  0.6018 -0.7530 -0.0488
 2045TIP3   OH2 6073   5.301   0.377   3.259  0.1068 -0.4782 -0.9794
 2045TIP3    H1 6074   5.316   0.456   3.206  0.3751 -1.9627 -3.2209
 2045TIP3    H2 6075   5.264   0.314   3.197 -0.1013 -2.1132  0.7722
 2046TIP3   OH2 6076   2.535   7.614   4.091  0.4521  0.4664 -0.5451
 2046TIP3    H1 6077   2.569   7.536   4.136  0.6443 -0.1917 -1.7937
 2046TIP3    H2 6078   2.501   7.580   4.008 -0.7865  1.5138 -0.4735
 2047TIP3   OH2 6079   3.026   7.649   3.245  0.6093  0.0376 -0.3441
 2047TIP3    H1 6080   3.113   7.686   3.231  0.4685  0.8720  0.8991
 2047TIP3    H2 6081   3.004   7.672   3.335 -0.2275 -1.5736 -0.1214
 2048TIP3   OH2 6082   7.012   0.723   1.738  0.4339 -0.0738  0.1524
 2048TIP3    H1 6083   7.084   0.666   1.711  0.2625 -0.0444 -0.3654
 2048TIP3    H2 6084   6.995   0.697   1.829  1.2759  0.1090  0.3662
 2049TIP3   OH2 6085   1.543   6.070   2.054 -0.1342 -0.1297 -0.5768
 2049TIP3    H1 6086   1.632   6.077   2.088  0.4015  2.3535 -2.3142
 2049TIP3    H2 6087   1.547   5.999   1.990  0.2184 -1.0571  0.4744
 2050TIP3   OH2 6088   4.451   0.840   4.002 -0.0574 -0.2290 -0.1330
 2050TIP3    H1 6089   4.412   0.771   4.055 -1.9687 -0.9437 -2.3792
 2050TIP3    H2 6090   4.419   0.824   3.914  3.5976  0.4996 -1.7129
 2051TIP3   OH2 6091   0.549   7.651   1.049 -0.0935  0.6285 -0.8428
 2051TIP3    H1 6092   0.486   7.595   1.004  1.2230 -1.6235  0.0558
 2051TIP3    H2 6093   0.571   7.719   0.986 -1.1617 -0.2788 -2.2102
 2052TIP3   OH2 6094   1.885   2.541   0.183 -0.0955 -0.3363 -0.0132
 2052TIP3    H1 6095   1.891   2.524   0.089  2.4264 -0.0226  0.0559
 2052TIP3    H2 6096   1.876   2.636   0.189 -0.1326 -0.3449  0.0642
 2053TIP3   OH2 6097   4.551   7.536   3.158 -0.8207 -0.2491 -0.3944
 2053TIP3    H1 6098   4.580   7.528   3.067  0.4255  0.0617 -0.0279
 2053TIP3    H2 6099   4.584   7.457   3.201  0.3712  0.5774  0.2486
 2054TIP3   OH2 6100   2.923   1.662   2.107  0.1519  0.8413 -0.6852
 2054TIP3    H1 6101   2.904   1.632   2.018 -0.6587  0.8674 -0.5302
 2054TIP3    H2 6102   2.974   1.591   2.147 -0.7678  0.1686 -0.6925
 2055TIP3   OH2 6103   2.208   7.758   2.612  0.2869 -0.2096  0.2234
 2055TIP3    H1 6104   2.271   7.799   2.554  0.3030 -0.7422 -0.1289
 2055TIP3    H2 6105   2.215   7.808   2.694  0.1325  0.6530 -0.2831
 2056TIP3   OH2 6106   4.442   1.676   4.793  1.2408  0.1473  0.0356
 2056TIP3    H1 6107   4.526   1.716   4.819  1.6384 -0.4766 -0.2803
 2056TIP3    H2 6108   4.466   1.590   4.759  0.3986 -0.2892  0.5442
 2057TIP3   OH2 6109   6.394   3.394   2.650 -0.5064  0.0417  0.8280
 2057TIP3    H1 6110   6.399   3.344   2.732  0.8776  1.1585  1.4604
 2057TIP3    H2 6111   6.301   3.413   2.639 -0.7272 -0.2868  2.0552
 2058TIP3   OH2 6112   5.101   2.116   2.608 -0.5671  0.0203  0.6009
 2058TIP3    H1 6113   5.186   2.073   2.604  0.1725  1.6261 -1.4563
 2058TIP3    H2 6114   5.121   2.208   2.625 -1.8392  0.5217 -0.4984
 2059TIP3   OH2 6115   7.497   0.856   5.556  0.1470 -0.1832 -0.2149
 2059TIP3    H1 6116   7.489   0.928   5.617 -1.5458 -0.6832  0.1772
 2059TIP3    H2 6117   7.556   0.888   5.488 -2.1480  2.3166 -1.1126
 2060TIP3   OH2 6118   3.716   2.175   3.582  0.1877 -0.0376 -0.0582
 2060TIP3    H1 6119   3.661   2.214   3.649 -0.2713 -0.5077 -0.1620
 2060TIP3    H2 6120   3.774   2.115   3.630 -0.4220 -0.6911 -0.1187
 2061TIP3   OH2 6121   2.589   0.178   3.707  0.1329 -0.1388  0.0507
 2061TIP3    H1 6122   2.493   0.174   3.712  0.0037 -0.7892 -2.3992
 2061TIP3    H2 6123   2.617   0.088   3.718  0.3036 -0.3213 -1.7828
 2062TIP3   OH2 6124   8.016   7.136   2.011 -0.0345  0.1091  0.5319
 2062TIP3    H1 6125   8.088   7.078   1.987  0.3601  0.7581  0.1356
 2062TIP3    H2 6126   8.026   7.212   1.954 -1.3204 -0.0148  0.1278
 2063TIP3   OH2 6127   5.087   0.381   4.556 -0.1762 -0.3748 -0.1205
 2063TIP3    H1 6128   5.143   0.389   4.634  0.4226 -0.8166 -0.5054
 2063TIP3    H2 6129   5.055   0.291   4.559 -1.7775  0.2153  0.7128
 2064TIP3   OH2 6130   3.502   1.175   1.135  0.3902 -0.5520 -0.4064
 2064TIP3    H1 6131   3.596   1.167   1.150  0.2643 -0.5612  0.4034
 2064TIP3    H2 6132   3.462   1.160   1.221 -0.2830  0.8216 -0.4657
 2065TIP3   OH2 6133   1.842   7.087   2.392 -0.3251  0.2581  1.1558
 2065TIP3    H1 6134   1.807   7.142   2.322 -0.2354 -3.9736 -2.4217
 2065TIP3    H2 6135   1.937   7.094   2.384 -0.3069 -0.7854  0.3198
 2066TIP3   OH2 6136   3.114   7.005   3.487  0.7457 -0.4408  0.1622
 2066TIP3    H1 6137   3.200   7.048   3.486  0.5775 -0.1027  0.1930
 2066TIP3    H2 6138   3.122   6.938   3.556  0.3591  0.8988  1.5353
 2067TIP3   OH2 6139   3.691   0.804   1.118  0.4135 -0.8633  0.0329
 2067TIP3    H1 6140   3.700   0.871   1.186  0.5511 -0.1222 -0.6989
 2067TIP3    H2 6141   3.732   0.726   1.156  2.1347  0.0452  0.1147
 2068TIP3   OH2 6142   7.485   0.774   2.652 -0.1278  0.0523  0.0387
 2068TIP3    H1 6143   7.390   0.766   2.654 -0.2333  1.1775  0.1288
 2068TIP3    H2 6144   7.505   0.836   2.723  0.6486 -0.0409 -0.0976
 2069TIP3   OH2 6145   0.392   6.524   1.475 -0.0451 -0.3609  0.0614
 2069TIP3    H1 6146   0.433   6.445   1.440 -0.2060 -0.1833 -0.5521
 2069TIP3    H2 6147   0.377   6.578   1.397 -2.2451 -0.7928  0.1746
 2070TIP3   OH2 6148   1.315   7.431   2.012  0.0260  0.2759 -0.2924
 2070TIP3    H1 6149   1.325   7.366   2.080  0.2390  1.1427  0.5171
 2070TIP3    H2 6150   1.395   7.484   2.017 -0.0161  0.4330 -1.1225
 2071TIP3   OH2 6151   3.266   7.354   3.844  0.4591 -0.3980  0.1663
 2071TIP3    H1 6152   3.278   7.378   3.752 -0.4135 -0.2772  0.0751
 2071TIP3    H2 6153   3.299   7.264   3.850  0.3325 -0.4787 -0.3159
 2072TIP3   OH2 6154   4.957   0.298   1.992 -0.9049 -0.1121 -0.7092
 2072TIP3    H1 6155   5.035   0.260   1.952 -1.1905 -1.6278  0.1150
 2072TIP3    H2 6156   4.940   0.243   2.068 -3.3317 -0.4055 -1.4122
 2073TIP3   OH2 6157   1.976   6.990   3.831  0.3394  0.1207  0.0863
 2073TIP3    H1 6158   2.066   7.022   3.837  0.7844 -0.2659 -3.2275
 2073TIP3    H2 6159   1.935   7.016   3.913  3.0706  1.5699  1.0458
 2074TIP3   OH2 6160   4.195   0.763   5.612  0.2559  0.3103  0.2617
 2074TIP3    H1 6161   4.229   0.839   5.566 -0.8272 -0.0615 -1.1802
 2074TIP3    H2 6162   4.110   0.791   5.645  0.6030  0.2597  1.2267
 2075TIP3   OH2 6163   0.391   7.134   3.212  0.2729 -0.0568 -0.3554
 2075TIP3    H1 6164   0.305   7.125   3.252  0.3823 -3.4990 -0.7686
 2075TIP3    H2 6165   0.375   7.132   3.118  0.7735 -0.0850 -0.4444
 2076TIP3   OH2 6166   1.152   7.576   5.768  0.0603  0.2470  0.0505
 2076TIP3    H1 6167   1.121   7.647   5.824  1.3702  0.1718  0.9143
 2076TIP3    H2 6168   1.172   7.618   5.685 -0.6162  0.6109  0.0660
 2077TIP3   OH2 6169   6.050   0.058   2.515  0.1568 -0.2457  0.2580
 2077TIP3    H1 6170   6.061   0.049   2.420  1.3753 -0.9413  0.4515
 2077TIP3    H2 6171   5.955   0.061   2.528 -0.1022 -3.0880 -0.7269
 2078TIP3   OH2 6172   2.934   0.117   4.982 -0.1933 -0.0728 -0.3625
 2078TIP3    H1 6173   3.014   0.167   4.968 -1.5203  1.6795 -1.9970
 2078TIP3    H2 6174   2.890   0.161   5.055 -0.7414  0.4079 -0.9669
 2079TIP3   OH2 6175   4.373   7.138   3.385 -0.2736 -0.0016 -0.2043
 2079TIP3    H1 6176   4.399   7.046   3.389 -1.3550 -0.3221 -0.1521
 2079TIP3    H2 6177   4.420   7.173   3.310 -1.2368 -1.0694 -1.3382
 2080TIP3   OH2 6178   3.875   1.172   4.130 -0.5893 -0.2151  0.1109
 2080TIP3    H1 6179   3.788   1.139   4.155 -1.5763  1.7238 -0.6352
 2080TIP3    H2 6180   3.866   1.268   4.132  1.1041  0.0131 -1.3805
 2081TIP3   OH2 6181   3.806   0.461   2.157  0.0659 -0.2424  0.3478
 2081TIP3    H1 6182   3.860   0.383   2.142  0.3107  0.3279 -1.8881
 2081TIP3    H2 6183   3.717   0.433   2.135  0.4705  0.6838 -2.7194
 2082TIP3   OH2 6184   4.750   4.174   2.944 -0.1725 -0.2927  0.2442
 2082TIP3    H1 6185   4.770   4.222   3.025 -1.0059  0.5527 -0.0327
 2082TIP3    H2 6186   4.714   4.241   2.886  1.5060 -0.6551 -1.2485
 2083TIP3   OH2 6187   0.728   7.350   2.739  0.0165  0.2648  0.1725
 2083TIP3    H1 6188   0.801   7.409   2.760  1.4766 -1.3954 -0.0679
 2083TIP3    H2 6189   0.715   7.299   2.819  0.2964 -0.6292 -0.3426
 2084TIP3   OH2 6190   0.432   6.271   1.750  0.5470  0.5309  0.5568
 2084TIP3    H1 6191   0.347   6.313   1.766 -0.1596 -1.2654  1.7113
 2084TIP3    H2 6192   0.426   6.188   1.797  1.9490 -0.7950 -1.5420
 2085TIP3   OH2 6193   5.683   1.073   4.875  0.8808 -0.2915 -0.0749
 2085TIP3    H1 6194   5.723   1.071   4.962  0.0538  1.4358  0.3551
 2085TIP3    H2 6195   5.590   1.084   4.892  0.6439 -0.5624 -1.1732
 2086TIP3   OH2 6196   3.170   6.357   0.661  0.3757  0.1851  0.4333
 2086TIP3    H1 6197   3.157   6.411   0.739  0.4739 -1.0191  1.3049
 2086TIP3    H2 6198   3.153   6.267   0.690 -1.2308 -0.1188 -1.3484
 2087TIP3   OH2 6199   5.047   0.260   3.197  0.5348  0.1916 -0.1790
 2087TIP3    H1 6200   4.963   0.213   3.191 -0.5074  2.0974 -0.9910
 2087TIP3    H2 6201   5.064   0.266   3.291 -0.4099  0.0927  0.0051
 2088TIP3   OH2 6202   7.364   0.540   2.082 -0.1003  0.2236  0.2796
 2088TIP3    H1 6203   7.407   0.610   2.131 -1.1082  0.3177  1.0570
 2088TIP3    H2 6204   7.339   0.476   2.149 -2.1252  0.6836  0.0007
 2089TIP3   OH2 6205   2.590   6.647   4.412 -0.4343  0.5317 -0.4556
 2089TIP3    H1 6206   2.516   6.610   4.364 -1.1518 -1.0153  1.7625
 2089TIP3    H2 6207   2.560   6.652   4.503  2.4334 -0.8921  0.6298
 2090TIP3   OH2 6208   3.944   7.797   4.025 -0.4638  0.0618 -0.2679
 2090TIP3    H1 6209   3.900   7.785   4.110  0.3305  1.2333  0.3141
 2090TIP3    H2 6210   4.023   7.847   4.046  0.7336 -1.3096 -1.4320
 2091TIP3   OH2 6211   4.097   7.595   4.404 -0.1149  0.7637 -0.3488
 2091TIP3    H1 6212   4.118   7.501   4.400 -1.5217  0.4977 -1.8597
 2091TIP3    H2 6213   4.181   7.637   4.425  1.1314 -0.6029 -2.3673
 2092TIP3   OH2 6214   4.559   0.445   4.718  0.1907 -0.2657  0.3337
 2092TIP3    H1 6215   4.538   0.443   4.811  0.3020  0.8244  0.3909
 2092TIP3    H2 6216   4.511   0.521   4.684 -0.4686 -1.1029 -0.6538
 2093TIP3   OH2 6217   4.215   0.991   3.898  0.2143  0.4607  1.0112
 2093TIP3    H1 6218   4.162   0.963   3.972 -0.5203 -1.9137 -0.3677
 2093TIP3    H2 6219   4.263   0.913   3.871  0.3040  1.2090 -1.1388
 2094TIP3   OH2 6220   4.972   0.794   4.740  0.1535  0.0270 -0.1542
 2094TIP3    H1 6221   5.008   0.872   4.782 -0.7931  0.4374 -0.1054
 2094TIP3    H2 6222   4.915   0.755   4.806  0.4579 -0.6042 -0.2509
 2095TIP3   OH2 6223   3.793   6.870   2.202  0.5803  0.0524 -0.0442
 2095TIP3    H1 6224   3.750   6.852   2.286  0.8202 -2.7589 -0.4929
 2095TIP3    H2 6225   3.721   6.869   2.138  0.7653 -0.5240 -0.2412
 2096TIP3   OH2 6226   3.776   1.425   1.930 -0.2897 -0.1050  0.7029
 2096TIP3    H1 6227   3.709   1.368   1.893 -0.5764  0.0047  1.0655
 2096TIP3    H2 6228   3.829   1.451   1.854 -1.5860  1.0674  0.1843
 2097TIP3   OH2 6229   4.757   1.087   3.030  0.2878 -0.3604 -0.0483
 2097TIP3    H1 6230   4.833   1.136   3.064 -1.2187  2.0258  0.0063
 2097TIP3    H2 6231   4.766   1.092   2.935 -0.2517  0.7412 -0.0595
 2098TIP3   OH2 6232   1.224   7.596   2.680  0.5980  0.0529 -0.7457
 2098TIP3    H1 6233   1.169   7.517   2.680 -0.8366  1.0227  0.7869
 2098TIP3    H2 6234   1.221   7.627   2.590 -0.9951 -0.1849 -0.7936
 2099TIP3   OH2 6235   2.557   7.904   4.169 -0.0698 -0.5189  0.1936
 2099TIP3    H1 6236   2.546   7.812   4.144  0.9948 -0.0715 -2.0132
 2099TIP3    H2 6237   2.500   7.952   4.109  1.4524  0.4828 -0.4511
 2100TIP3   OH2 6238   7.056   1.028   5.671  0.5489 -0.2364 -0.7405
 2100TIP3    H1 6239   7.088   0.972   5.601 -0.7082 -0.0344 -1.4776
 2100TIP3    H2 6240   7.020   0.968   5.736 -1.4572 -0.2684 -1.8580
 2101TIP3   OH2 6241   5.085   0.553   2.877 -0.5734 -0.0525 -0.2061
 2101TIP3    H1 6242   5.081   0.630   2.820  1.2211 -0.1420 -0.4983
 2101TIP3    H2 6243   5.178   0.546   2.901 -1.1756 -0.4467  2.1350
 2102TIP3   OH2 6244   3.694   7.691   1.077 -0.3069  0.4306  0.0293
 2102TIP3    H1 6245   3.760   7.718   1.141 -1.7448  0.7724  1.4016
 2102TIP3    H2 6246   3.661   7.774   1.040  0.6579  0.2316 -1.3344
 2103TIP3   OH2 6247   4.129   1.061   2.925 -0.8605 -0.1944  0.1300
 2103TIP3    H1 6248   4.077   1.126   2.877  0.1708  3.4044  3.6103
 2103TIP3    H2 6249   4.071   1.031   2.995  0.0811  0.1904  1.0905
 2104TIP3   OH2 6250   5.722   0.461   5.877 -0.0736  0.2515  0.0024
 2104TIP3    H1 6251   5.793   0.435   5.819  0.2430  0.2965  0.3673
 2104TIP3    H2 6252   5.747   0.548   5.908 -0.5724  0.5182 -0.3231
 2105TIP3   OH2 6253   4.808   7.965   2.507 -0.0457  0.3884  0.2592
 2105TIP3    H1 6254   4.736   8.027   2.502  1.8920  2.7654  0.8964
 2105TIP3    H2 6255   4.832   7.963   2.600  1.4740  0.5421 -0.1126
 2106TIP3   OH2 6256   2.106   7.192   1.596  0.3287 -0.4356  0.1480
 2106TIP3    H1 6257   2.064   7.124   1.649  1.2427 -0.8489  0.3558
 2106TIP3    H2 6258   2.035   7.252   1.573 -0.6898 -1.9636 -0.8316
 2107TIP3   OH2 6259   4.503   7.864   2.674 -0.5485  0.0261  0.1970
 2107TIP3    H1 6260   4.430   7.802   2.664 -0.5203  0.1005 -0.5012
 2107TIP3    H2 6261   4.473   7.927   2.739 -0.1979 -1.2928  1.6548
 2108TIP3   OH2 6262   3.293   7.069   1.386 -0.5697  0.4197 -0.5254
 2108TIP3    H1 6263   3.280   7.078   1.480  0.6860  1.1835 -0.4055
 2108TIP3    H2 6264   3.347   6.990   1.376  0.8693  1.3616 -0.4383
 2109TIP3   OH2 6265   2.940   0.825   2.473  0.9252 -0.0634 -0.2857
 2109TIP3    H1 6266   2.992   0.884   2.419  1.3894 -0.0542  0.1715
 2109TIP3    H2 6267   2.861   0.809   2.421  0.4954  1.4894 -0.1478
 2110TIP3   OH2 6268   6.009   0.815   4.332 -0.7350 -0.0817 -0.3815
 2110TIP3    H1 6269   5.972   0.774   4.410  3.0463  1.5866  2.4476
 2110TIP3    H2 6270   6.065   0.884   4.366  1.2857  0.4918 -4.6088
 2111TIP3   OH2 6271   6.859   0.093   4.027  0.1079  0.0240 -0.1118
 2111TIP3    H1 6272   6.897   0.181   4.035  0.7806 -0.2844  0.0836
 2111TIP3    H2 6273   6.911   0.039   4.085 -0.9587 -0.3114  0.5540
 2112TIP3   OH2 6274   7.249   0.602   1.686 -0.5717 -0.2605 -0.3843
 2112TIP3    H1 6275   7.307   0.533   1.718 -1.1456  0.1968  1.7223
 2112TIP3    H2 6276   7.309   0.669   1.652  0.0044 -1.4290 -1.7003
 2113TIP3   OH2 6277   1.545   5.546   2.507  0.0011  0.2736  0.5202
 2113TIP3    H1 6278   1.534   5.482   2.436  0.4280 -0.9499  1.5427
 2113TIP3    H2 6279   1.503   5.626   2.474 -0.2910 -0.4470 -0.8855
 2114TIP3   OH2 6280   1.548   5.641   3.016 -0.1583 -0.3505 -0.1498
 2114TIP3    H1 6281   1.541   5.598   2.931 -0.8674 -0.3213 -0.1115
 2114TIP3    H2 6282   1.591   5.577   3.072 -0.8931 -0.8843 -0.1852
 2115TIP3   OH2 6283   8.026   0.934   4.292 -0.1139 -0.1532 -0.3158
 2115TIP3    H1 6284   8.063   1.020   4.274 -0.3915 -0.4798 -2.5061
 2115TIP3    H2 6285   8.082   0.873   4.244  0.8467 -1.3433  2.2339
 2116TIP3   OH2 6286   8.091   7.136   3.448  0.4286 -0.1847 -0.3086
 2116TIP3    H1 6287   8.159   7.162   3.386  0.4128 -2.5545 -1.3532
 2116TIP3    H2 6288   8.028   7.087   3.396 -1.7788  1.4108  0.7715
 2117TIP3   OH2 6289   6.017   0.551   3.388 -0.9469  0.6117  0.1767
 2117TIP3    H1 6290   6.055   0.498   3.458 -1.3694 -0.5974 -0.4992
 2117TIP3    H2 6291   6.028   0.641   3.418  0.1754  0.1710  1.1396
 2118TIP3   OH2 6292   1.450   6.811   3.547 -0.6548  0.3733 -0.2475
 2118TIP3    H1 6293   1.493   6.834   3.464  2.5131  0.5791  1.3429
 2118TIP3    H2 6294   1.404   6.729   3.529  0.7280 -0.0393 -2.0023
 2119TIP3   OH2 6295   4.615   0.285   2.441 -0.1020 -0.0754 -0.0191
 2119TIP3    H1 6296   4.560   0.233   2.381  0.1326 -0.3595  0.0098
 2119TIP3    H2 6297   4.619   0.232   2.521 -2.0210  1.1937  0.9572
 2120TIP3   OH2 6298   5.355   0.030   3.103  0.7865 -0.2777 -0.1815
 2120TIP3    H1 6299   5.413  -0.019   3.162  0.8982 -1.1913 -1.0414
 2120TIP3    H2 6300   5.402   0.111   3.085  0.7207  0.0417  1.0402
 2121TIP3   OH2 6301   2.794   0.178   1.640 -1.0699  0.1186 -0.7173
 2121TIP3    H1 6302   2.854   0.151   1.571  0.3008  0.9693  0.1238
 2121TIP3    H2 6303   2.749   0.098   1.665  0.5448 -0.7597 -0.5690
 2122TIP3   OH2 6304   6.726   1.705   2.157 -0.3823 -0.1771  0.0211
 2122TIP3    H1 6305   6.821   1.715   2.156 -0.1521 -2.1535  0.5869
 2122TIP3    H2 6306   6.701   1.723   2.247 -0.6792  1.3880 -0.3629
 2123TIP3   OH2 6307   5.433   0.981   3.137 -0.2349 -0.2887  0.3136
 2123TIP3    H1 6308   5.489   0.916   3.180 -2.5551 -2.0971  0.7049
 2123TIP3    H2 6309   5.351   0.935   3.121 -0.3313  1.0715 -3.8415
 2124TIP3   OH2 6310   5.153   1.209   3.441  0.2542  0.6187  0.0936
 2124TIP3    H1 6311   5.072   1.258   3.459 -1.0093 -1.8733  1.4777
 2124TIP3    H2 6312   5.148   1.190   3.347  0.3491  2.3461 -0.2904
 2125TIP3   OH2 6313   7.566   0.682   3.654 -0.1764  0.0157  0.0842
 2125TIP3    H1 6314   7.515   0.678   3.735  1.9069  0.7372  1.4737
 2125TIP3    H2 6315   7.560   0.595   3.616 -2.9619  0.2654 -0.1228
 2126TIP3   OH2 6316   1.401   6.583   4.709  0.4063 -0.6878 -0.2554
 2126TIP3    H1 6317   1.494   6.598   4.729  0.3673  0.3786 -0.8826
 2126TIP3    H2 6318   1.399   6.493   4.674  1.2984 -0.4686 -0.8835
 2127TIP3   OH2 6319   4.392   1.232   1.025  0.3056 -0.2061 -0.0753
 2127TIP3    H1 6320   4.300   1.253   1.042  0.6383  0.8738  0.3820
 2127TIP3    H2 6321   4.389   1.147   0.980 -1.0053  0.5345 -1.4256
 2128TIP3   OH2 6322   7.223   0.371   2.256  0.6364 -0.4726  0.4800
 2128TIP3    H1 6323   7.148   0.431   2.252 -0.6718 -2.0416  0.7728
 2128TIP3    H2 6324   7.259   0.384   2.344 -0.6610 -1.3081  1.1421
 2129TIP3   OH2 6325   4.271   1.792   1.131  0.0036  0.0574 -0.1900
 2129TIP3    H1 6326   4.295   1.733   1.203  3.6031  0.4331 -0.9460
 2129TIP3    H2 6327   4.250   1.733   1.059 -1.6964 -0.3046  0.5800
 2130TIP3   OH2 6328   4.808   2.338   1.772 -0.0927 -0.3450  0.2097
 2130TIP3    H1 6329   4.845   2.298   1.850  0.9608  0.6182  0.2180
 2130TIP3    H2 6330   4.776   2.424   1.801  0.7819  0.2346 -0.5083
 2131TIP3   OH2 6331   5.819   3.582   4.700 -0.6491 -0.2355  0.5133
 2131TIP3    H1 6332   5.864   3.666   4.709 -2.1589  0.8066 -1.2414
 2131TIP3    H2 6333   5.870   3.534   4.634 -0.1355 -0.4391  1.0627
 2132TIP3   OH2 6334   6.605   7.926   1.343  0.7802 -0.3781 -0.1063
 2132TIP3    H1 6335   6.641   8.014   1.351  0.3805 -0.1288 -1.0193
 2132TIP3    H2 6336   6.636   7.895   1.258 -0.1552 -0.6128 -0.3693
 2133TIP3   OH2 6337   5.302   7.640   2.383 -0.0005 -0.2097 -0.0509
 2133TIP3    H1 6338   5.219   7.651   2.429 -0.7616 -0.3915 -1.3546
 2133TIP3    H2 6339   5.286   7.676   2.296  1.5596  0.5601 -0.0424
 2134TIP3   OH2 6340   6.708   0.180   4.833 -0.2533  0.1778  0.1895
 2134TIP3    H1 6341   6.651   0.157   4.906 -0.6265 -0.2690 -0.2327
 2134TIP3    H2 6342   6.682   0.269   4.809  0.5586  0.6994  1.2381
 2135TIP3   OH2 6343   6.940   1.392   0.200  0.1564  0.2292 -0.9111
 2135TIP3    H1 6344   6.936   1.430   0.288  0.1229  0.1784 -0.8909
 2135TIP3    H2 6345   6.865   1.333   0.196  1.5015 -1.5728 -0.1384
 2136TIP3   OH2 6346   0.350   7.298   1.717 -0.3846  0.0210  0.1911
 2136TIP3    H1 6347   0.352   7.342   1.632 -2.3167  0.9256  0.5988
 2136TIP3    H2 6348   0.435   7.320   1.756  0.9279 -1.1774 -1.8491
 2137TIP3   OH2 6349   4.087   7.710   1.460  0.0282  0.1257 -0.3660
 2137TIP3    H1 6350   4.035   7.781   1.498  0.0667 -0.0510  0.0314
 2137TIP3    H2 6351   4.050   7.697   1.373 -0.4971  0.1111 -0.1471
 2138TIP3   OH2 6352   3.337   7.243   1.749 -0.2046  0.0596  0.0829
 2138TIP3    H1 6353   3.363   7.152   1.734 -1.1721 -0.1323 -0.4460
 2138TIP3    H2 6354   3.254   7.237   1.797  0.0454  0.6656  0.5978
 2139TIP3   OH2 6355   8.182   0.870   1.976  0.4037 -0.2424 -0.0522
 2139TIP3    H1 6356   8.191   0.965   1.976  2.1267 -0.3853 -1.4913
 2139TIP3    H2 6357   8.271   0.837   1.967 -0.1723 -1.9951  0.5037
 2140TIP3   OH2 6358   6.615   0.436   4.833  0.3111 -0.1594 -0.3154
 2140TIP3    H1 6359   6.615   0.524   4.797 -2.1465  0.7353  1.6831
 2140TIP3    H2 6360   6.616   0.448   4.928 -1.5075 -2.2118  0.0132
 2141TIP3   OH2 6361   7.463   0.573   4.187 -0.1484  0.2032  0.1188
 2141TIP3    H1 6362   7.487   0.489   4.226  0.2649  0.2912  0.0490
 2141TIP3    H2 6363   7.473   0.636   4.258 -0.0174  0.2652  0.0443
 2142TIP3   OH2 6364   4.084   7.270   1.883 -0.3142 -0.3206  0.3541
 2142TIP3    H1 6365   4.167   7.243   1.923 -0.4779 -0.3267  0.6928
 2142TIP3    H2 6366   4.019   7.215   1.924 -0.5971  0.2829  0.7254
 2143TIP3   OH2 6367   7.338   2.155   2.627  0.2994  0.2124  1.0188
 2143TIP3    H1 6368   7.414   2.099   2.644  0.8875  1.1886  1.6532
 2143TIP3    H2 6369   7.369   2.219   2.563  0.0462  0.7220  1.4100
 2144TIP3   OH2 6370   1.711   7.450   2.624 -0.0733 -0.1732  0.0877
 2144TIP3    H1 6371   1.772   7.521   2.604  0.9560 -1.3556 -1.0941
 2144TIP3    H2 6372   1.655   7.445   2.547  0.6912 -1.4654 -0.4069
 2145TIP3   OH2 6373   6.776   0.186   3.601  0.2220  0.2297 -0.1582
 2145TIP3    H1 6374   6.772   0.134   3.521 -1.6482 -1.3870  0.9477
 2145TIP3    H2 6375   6.793   0.122   3.671  1.8756  1.6177  0.7462
 2146TIP3   OH2 6376   5.952   0.253   2.013 -0.0483  0.0157  0.2675
 2146TIP3    H1 6377   6.026   0.195   1.995 -0.7006 -1.3864  1.9369
 2146TIP3    H2 6378   5.890   0.237   1.941 -1.4197 -3.4559  2.1047
 2147TIP3   OH2 6379   7.377   0.420   1.495 -0.1085 -0.0413 -0.0569
 2147TIP3    H1 6380   7.385   0.419   1.399  1.2236  2.8614 -0.0455
 2147TIP3    H2 6381   7.291   0.459   1.511  0.5588  1.4699 -0.0866
 2148TIP3   OH2 6382   3.377   7.480   3.537 -0.3783  0.9200 -0.2026
 2148TIP3    H1 6383   3.471   7.496   3.536 -0.5990  2.3769 -1.8063
 2148TIP3    H2 6384   3.361   7.425   3.460 -0.4366 -2.1054  1.9128
 2149TIP3   OH2 6385   5.800   0.217   3.974 -0.0972  0.3014 -0.5185
 2149TIP3    H1 6386   5.856   0.278   4.022 -0.6459  0.0530  0.4377
 2149TIP3    H2 6387   5.859   0.175   3.911  1.1425 -1.0269  1.4576
 2150TIP3   OH2 6388   7.233   1.665   1.747  0.2475  0.3654  0.0201
 2150TIP3    H1 6389   7.288   1.589   1.767  0.6852  0.6296 -0.1612
 2150TIP3    H2 6390   7.143   1.632   1.750  0.3532  0.2214  1.5440
 2151TIP3   OH2 6391   2.804   7.409   2.823 -0.1650 -0.0447  0.5310
 2151TIP3    H1 6392   2.783   7.439   2.735 -0.1112  1.4720  1.0206
 2151TIP3    H2 6393   2.775   7.480   2.881  3.2588  0.7135  1.4616
 2152TIP3   OH2 6394   7.904   0.709   2.764 -0.3942 -0.8848  0.7036
 2152TIP3    H1 6395   7.866   0.734   2.680  0.2824 -2.8138 -0.2282
 2152TIP3    H2 6396   7.831   0.707   2.825 -1.3610 -2.0342 -0.4676
 2153TIP3   OH2 6397   7.731   1.196   1.240  0.5888 -0.5277 -0.0383
 2153TIP3    H1 6398   7.712   1.264   1.304 -0.1423 -0.3086 -0.4816
 2153TIP3    H2 6399   7.741   1.242   1.157  0.6512 -0.8985 -0.2400
 2154TIP3   OH2 6400   1.242   3.710   6.789  0.0201  0.1450 -0.1005
 2154TIP3    H1 6401   1.281   3.759   6.716 -0.1020 -0.9798 -0.9442
 2154TIP3    H2 6402   1.295   3.733   6.865 -1.6175  3.6335  0.1023
 2155TIP3   OH2 6403   6.373   7.312   2.434  0.3505  0.0445 -0.1980
 2155TIP3    H1 6404   6.428   7.388   2.456  1.5790 -0.6875 -0.7182
 2155TIP3    H2 6405   6.431   7.237   2.445 -0.6222 -0.7582 -0.5235
 2156TIP3   OH2 6406   4.626   7.964   3.021  0.5214  0.3186  0.1591
 2156TIP3    H1 6407   4.557   8.025   3.047 -1.0842 -1.1733 -0.5086
 2156TIP3    H2 6408   4.618   7.891   3.082  0.4682 -0.5888 -0.9254
 2157TIP3   OH2 6409   6.171   0.223   2.677 -1.0197  0.2593 -0.1170
 2157TIP3    H1 6410   6.202   0.157   2.739 -2.7648 -1.0252 -0.5715
 2157TIP3    H2 6411   6.134   0.172   2.604 -2.5027  1.7389 -0.4196
 2158TIP3   OH2 6412   3.579   7.618   1.310 -0.5237 -0.3967  0.0338
 2158TIP3    H1 6413   3.600   7.633   1.217  1.3741  0.2277  0.5451
 2158TIP3    H2 6414   3.663   7.622   1.354 -1.6817  2.1548  2.1723
 2159TIP3   OH2 6415   8.207   0.561   1.559  0.3679  0.3886 -0.5273
 2159TIP3    H1 6416   8.175   0.574   1.648 -0.6163  0.1361 -0.8295
 2159TIP3    H2 6417   8.244   0.473   1.560  0.1788  0.3080 -0.4103
 2160TIP3   OH2 6418   2.130   5.546   2.730  0.6538  0.3165 -0.1414
 2160TIP3    H1 6419   2.077   5.598   2.791  0.4947 -0.2406  0.2032
 2160TIP3    H2 6420   2.135   5.460   2.771  3.5570  0.9058  0.8503
 2161TIP3   OH2 6421   6.937   2.080   1.742 -0.2996  0.5376  0.1756
 2161TIP3    H1 6422   6.993   2.012   1.778 -1.6960 -0.6364  0.1609
 2161TIP3    H2 6423   6.848   2.050   1.760 -0.9375  1.9823 -0.5124
 2162TIP3   OH2 6424   1.520   7.232   4.859 -0.0651 -0.4875  0.3388
 2162TIP3    H1 6425   1.437   7.261   4.820 -0.1839  1.9393  2.2893
 2162TIP3    H2 6426   1.505   7.235   4.953  2.6119  1.2296  0.7588
 2163TIP3   OH2 6427   8.297   1.623   0.859 -0.1448 -0.2390  0.4568
 2163TIP3    H1 6428   8.354   1.695   0.832 -0.4676 -0.0551  0.2519
 2163TIP3    H2 6429   8.356   1.556   0.893  0.2305 -0.2525 -0.2137
 2164TIP3   OH2 6430   0.020   0.491   4.663 -0.1491  0.3118  0.1063
 2164TIP3    H1 6431   0.028   0.585   4.680 -0.2230  0.2522  0.4693
 2164TIP3    H2 6432  -0.012   0.486   4.573  0.5223  0.6206 -0.1625
 2165TIP3   OH2 6433   6.523   0.563   2.834  0.5801 -0.3040  0.1055
 2165TIP3    H1 6434   6.467   0.521   2.769  1.2731 -0.8928 -0.1162
 2165TIP3    H2 6435   6.468   0.632   2.872  0.5210  0.7573 -1.8475
 2166TIP3   OH2 6436   5.459   1.870   3.631  0.2819  0.5942  0.3135
 2166TIP3    H1 6437   5.466   1.927   3.555  2.8142 -0.8423 -0.6218
 2166TIP3    H2 6438   5.489   1.923   3.705  0.4172  1.1851 -0.1688
 2167TIP3   OH2 6439   1.500   7.406   1.486 -0.1252 -0.3501 -0.2257
 2167TIP3    H1 6440   1.416   7.445   1.463  0.3012  1.4711  1.1831
 2167TIP3    H2 6441   1.482   7.353   1.563 -0.0165 -0.1097 -0.0351
 2168TIP3   OH2 6442   6.571   2.352   3.213 -0.0292  0.3198 -0.3739
 2168TIP3    H1 6443   6.578   2.440   3.176  0.1813 -0.3102 -1.8639
 2168TIP3    H2 6444   6.646   2.305   3.178 -0.8244 -0.8126 -0.5855
 2169TIP3   OH2 6445   3.390   7.633   4.951  0.0318 -0.3711 -0.1660
 2169TIP3    H1 6446   3.477   7.620   4.990 -0.9612 -1.7383  1.7005
 2169TIP3    H2 6447   3.379   7.558   4.892 -0.2905 -0.7891  0.4146
 2170TIP3   OH2 6448   8.020   2.464   2.512  0.8283  0.2676  0.0042
 2170TIP3    H1 6449   7.955   2.495   2.576  0.3709  1.5568 -1.0497
 2170TIP3    H2 6450   8.089   2.530   2.515  0.4637  0.7215 -1.3399
 2171TIP3   OH2 6451   5.654   0.194   3.375  0.3427 -0.5104  0.0147
 2171TIP3    H1 6452   5.590   0.254   3.413  1.0285  0.3324 -0.1323
 2171TIP3    H2 6453   5.714   0.251   3.326  0.4295 -1.4186 -0.9501
 2172TIP3   OH2 6454   7.428   1.489   2.105 -0.0259 -0.3221 -0.4716
 2172TIP3    H1 6455   7.475   1.563   2.067  0.0197 -0.3722 -0.5127
 2172TIP3    H2 6456   7.342   1.524   2.130  0.9210  0.3664  1.9043
 2173TIP3   OH2 6457   7.817   0.428   2.635  0.4039  0.1687 -0.2569
 2173TIP3    H1 6458   7.812   0.523   2.651 -0.3609  0.2187 -0.7535
 2173TIP3    H2 6459   7.764   0.415   2.556 -0.5562 -0.8530  0.5392
 2174TIP3   OH2 6460   8.496   1.917   4.234  0.1216  0.7114  0.7462
 2174TIP3    H1 6461   8.481   1.848   4.298 -1.2560  1.0510  0.7939
 2174TIP3    H2 6462   8.519   1.871   4.154  0.5634  0.2512  1.1292
 2175TIP3   OH2 6463   5.541   1.248   2.166 -0.4989 -0.3885 -0.2038
 2175TIP3    H1 6464   5.510   1.188   2.233  0.7247 -0.1763  0.5723
 2175TIP3    H2 6465   5.484   1.325   2.174 -0.6365 -0.5418  0.3001
 2176TIP3   OH2 6466   5.175   3.171   1.830  0.7897 -0.0471 -0.8239
 2176TIP3    H1 6467   5.183   3.096   1.888  0.1899 -0.2090 -0.9473
 2176TIP3    H2 6468   5.125   3.235   1.881  0.1508 -0.2390 -1.2041
 2177TIP3   OH2 6469   7.814   2.434   3.140  0.3446  0.1215 -0.5022
 2177TIP3    H1 6470   7.865   2.510   3.111  0.5593  0.2280  0.1421
 2177TIP3    H2 6471   7.743   2.471   3.192  1.3331 -0.2091  1.0906
 2178TIP3   OH2 6472   4.473   7.675   0.178 -0.3202  0.1178 -0.0430
 2178TIP3    H1 6473   4.459   7.689   0.084  0.8838  0.4116 -0.1864
 2178TIP3    H2 6474   4.554   7.722   0.197 -0.6458  0.1842  1.1795
 2179TIP3   OH2 6475   3.816   6.509   3.395  0.2720  0.9211  0.1880
 2179TIP3    H1 6476   3.881   6.513   3.325  0.6923  0.9394  0.5804
 2179TIP3    H2 6477   3.831   6.424   3.436  0.2583  1.0638  0.4851
 2180TIP3   OH2 6478   4.611   7.661   1.156  0.0422 -0.4444  0.2338
 2180TIP3    H1 6479   4.596   7.573   1.121 -1.2120 -0.5255  0.9655
 2180TIP3    H2 6480   4.690   7.652   1.209  2.1382 -0.2567 -2.7517
 2181TIP3   OH2 6481   3.779   7.565   2.455  0.3671  0.0222 -0.0913
 2181TIP3    H1 6482   3.708   7.500   2.460  2.0217 -1.8210 -0.0908
 2181TIP3    H2 6483   3.783   7.587   2.362  0.5884 -0.7907 -0.2831
 2182TIP3   OH2 6484   5.757  -0.010   3.665  0.5271  0.2154  0.0538
 2182TIP3    H1 6485   5.709   0.073   3.664 -1.0536 -0.6841 -0.5354
 2182TIP3    H2 6486   5.847   0.014   3.687  0.0640  2.0715 -0.0470
 2183TIP3   OH2 6487   5.179   6.225   2.962  0.0395 -0.0755 -0.2922
 2183TIP3    H1 6488   5.212   6.185   3.043 -0.4063  0.6984  0.2764
 2183TIP3    H2 6489   5.096   6.180   2.945 -0.3435  0.4257  0.2168
 2184TIP3   OH2 6490   8.133   0.316   4.052 -0.1537  0.0948 -0.1145
 2184TIP3    H1 6491   8.139   0.411   4.043  0.7993 -0.0852 -1.5754
 2184TIP3    H2 6492   8.223   0.285   4.043 -0.3982 -0.9107  0.8189
 2185TIP3   OH2 6493   1.608   6.344   3.308 -0.1292  0.5447 -0.0494
 2185TIP3    H1 6494   1.609   6.252   3.281 -1.2411  1.2224 -2.5462
 2185TIP3    H2 6495   1.691   6.379   3.274  0.8607  0.2282  1.9394
 2186TIP3   OH2 6496   3.266   6.246   3.350 -0.4058  0.1095 -0.1683
 2186TIP3    H1 6497   3.268   6.188   3.427 -1.0359  0.8659  0.4250
 2186TIP3    H2 6498   3.174   6.247   3.323 -0.4244  0.9365 -0.0859
 2187TIP3   OH2 6499   7.403   1.216   2.099  0.4854  0.6043 -0.0775
 2187TIP3    H1 6500   7.429   1.305   2.122  1.0048  0.1269  1.1953
 2187TIP3    H2 6501   7.384   1.174   2.182  0.1312 -0.4537 -0.6799
 2188TIP3   OH2 6502   6.607   1.926   4.619 -0.5432  0.3260  0.2556
 2188TIP3    H1 6503   6.642   1.962   4.700 -1.2824  0.9118  0.3172
 2188TIP3    H2 6504   6.674   1.944   4.553 -1.1112  2.2465  0.1800
 2189TIP3   OH2 6505   4.318   7.604   2.152 -0.1073  0.0406 -0.1537
 2189TIP3    H1 6506   4.230   7.567   2.156  0.2918 -1.1151 -1.3623
 2189TIP3    H2 6507   4.343   7.595   2.060  1.5698 -0.3719  0.3258
 2190TIP3   OH2 6508   6.999   0.295   0.801  0.0892 -0.1187  0.1567
 2190TIP3    H1 6509   6.979   0.214   0.756  0.7934 -0.9968  1.3941
 2190TIP3    H2 6510   7.050   0.346   0.739 -1.1924 -0.1867 -0.9865
 2191TIP3   OH2 6511   3.450   6.221   2.015 -0.4077 -0.2986  0.0479
 2191TIP3    H1 6512   3.433   6.135   2.054 -0.7322 -0.0523  0.4442
 2191TIP3    H2 6513   3.451   6.282   2.089  1.2298 -0.1575 -0.0703
 2192TIP3   OH2 6514   7.658   2.073   4.010  0.3365 -0.5756 -0.0407
 2192TIP3    H1 6515   7.628   2.119   3.931  1.6075 -1.2527 -0.9381
 2192TIP3    H2 6516   7.747   2.045   3.989  1.1366  0.2718  2.0935
 2193TIP3   OH2 6517  -0.018   0.777   2.567  0.0121  0.0134  0.0932
 2193TIP3    H1 6518  -0.001   0.745   2.478 -0.1163  0.7542 -0.2074
 2193TIP3    H2 6519   0.056   0.835   2.586  0.0772 -0.2032  0.5013
 2194TIP3   OH2 6520   6.797   0.885   3.776 -0.0769 -0.0789 -0.2461
 2194TIP3    H1 6521   6.800   0.966   3.725 -0.7850  0.5170  0.6390
 2194TIP3    H2 6522   6.786   0.914   3.866 -0.2631 -1.1647  0.0853
 2195TIP3   OH2 6523   2.851   6.477   0.592  0.1000 -0.1438 -0.1493
 2195TIP3    H1 6524   2.846   6.520   0.507  0.4419  0.1357 -0.0315
 2195TIP3    H2 6525   2.940   6.444   0.597  0.0906 -0.1306  0.1132
 2196TIP3   OH2 6526   7.503   0.879   1.441  0.7857 -0.0255 -0.4107
 2196TIP3    H1 6527   7.535   0.799   1.482 -0.8748 -0.7212 -0.4303
 2196TIP3    H2 6528   7.438   0.913   1.503  1.7321  1.5215 -0.2288
 2197TIP3   OH2 6529   6.202   7.396   3.173  0.0686  0.4161  0.5697
 2197TIP3    H1 6530   6.139   7.394   3.244  0.8043 -0.3986  1.2126
 2197TIP3    H2 6531   6.285   7.419   3.216  0.4817  0.0902 -0.0544
 2198TIP3   OH2 6532   6.209   1.955   0.948 -0.3262 -0.3545  0.2112
 2198TIP3    H1 6533   6.169   2.022   1.003 -1.0668 -0.7367  0.1545
 2198TIP3    H2 6534   6.134   1.903   0.917  0.1267 -0.4174 -0.7763
 2199TIP3   OH2 6535   7.682   0.151   0.800 -0.5117 -0.0470 -0.2718
 2199TIP3    H1 6536   7.631   0.113   0.872 -0.5340 -0.0659 -0.2974
 2199TIP3    H2 6537   7.682   0.245   0.818  3.5423 -0.4090  2.4241
 2200TIP3   OH2 6538   3.128   7.237   5.451 -0.1352  0.1697  0.2704
 2200TIP3    H1 6539   3.131   7.314   5.508 -2.5859 -0.5161  1.3944
 2200TIP3    H2 6540   3.156   7.165   5.508 -2.1346 -0.4436  0.5035
 2201TIP3   OH2 6541   7.093   1.285   4.059  0.2458  0.0271 -0.2181
 2201TIP3    H1 6542   7.130   1.203   4.028  2.1916  0.6126  0.4979
 2201TIP3    H2 6543   7.071   1.269   4.151 -2.4299 -0.6794 -0.9431
 2202TIP3   OH2 6544   0.516   2.162   2.883 -0.2601  0.5398  0.0890
 2202TIP3    H1 6545   0.496   2.107   2.807  0.2396  1.6738 -0.8839
 2202TIP3    H2 6546   0.432   2.198   2.910 -0.8750 -2.1396  1.8914
 2203TIP3   OH2 6547   7.571   0.381   0.252 -0.6201 -0.4662  0.5350
 2203TIP3    H1 6548   7.527   0.417   0.174 -0.8544 -0.5020  0.6511
 2203TIP3    H2 6549   7.520   0.414   0.325 -1.2213 -1.5689  0.6165
 2204TIP3   OH2 6550   7.853   0.320   3.385 -0.1744 -0.1070 -0.9332
 2204TIP3    H1 6551   7.823   0.304   3.296 -0.2400 -2.2432 -0.5524
 2204TIP3    H2 6552   7.838   0.237   3.431 -2.1692  1.5785  1.6333
 2205TIP3   OH2 6553   8.126   1.075   3.516 -0.1434  0.2318  0.3338
 2205TIP3    H1 6554   8.162   1.047   3.431 -1.3656  2.4871 -0.9625
 2205TIP3    H2 6555   8.132   0.997   3.571  1.2597 -1.1012 -1.6314
 2206TIP3   OH2 6556   3.414   6.272   3.862  0.0089 -0.2761 -0.4952
 2206TIP3    H1 6557   3.332   6.283   3.911  0.5137 -1.8612  0.7472
 2206TIP3    H2 6558   3.387   6.266   3.771 -1.2055 -0.2441 -0.1520
 2207TIP3   OH2 6559   5.331   0.580   6.525  0.2469  0.4805 -0.0016
 2207TIP3    H1 6560   5.407   0.605   6.473  1.0897 -1.7193  0.1337
 2207TIP3    H2 6561   5.336   0.635   6.603  2.6489 -0.8066  0.7912
 2208TIP3   OH2 6562   7.153   1.237   0.152  0.5187  0.1703 -0.3916
 2208TIP3    H1 6563   7.233   1.288   0.137  0.4581  0.8120  1.3936
 2208TIP3    H2 6564   7.082   1.301   0.142  0.3097 -0.0702 -0.4431
 2209TIP3   OH2 6565   6.344   0.614   2.223  0.6793 -0.2438 -0.2543
 2209TIP3    H1 6566   6.293   0.604   2.142  1.3226  1.9019 -0.9569
 2209TIP3    H2 6567   6.422   0.560   2.209  0.2556 -0.7833 -0.5883
 2210TIP3   OH2 6568   7.747   0.876   2.547  0.2996 -0.0852 -0.0540
 2210TIP3    H1 6569   7.752   0.922   2.463 -1.1233  0.1153 -0.0308
 2210TIP3    H2 6570   7.655   0.853   2.557  0.5974 -0.8523  1.0666
 2211TIP3   OH2 6571   4.882   6.904   0.697 -0.5010 -0.4877 -0.4797
 2211TIP3    H1 6572   4.897   6.998   0.685 -0.9623 -0.3793 -0.1989
 2211TIP3    H2 6573   4.805   6.885   0.643 -3.1321  0.1680  2.9253
 2212TIP3   OH2 6574   8.456   2.352   4.797 -0.2841 -0.3547  0.6526
 2212TIP3    H1 6575   8.510   2.274   4.787 -0.1312 -0.2579  0.7277
 2212TIP3    H2 6576   8.453   2.391   4.709  0.4103  0.0649  0.8156
 2213TIP3   OH2 6577   0.029   0.523   0.861  0.0623 -0.3416  0.4608
 2213TIP3    H1 6578  -0.055   0.477   0.860 -0.6628  0.9746  0.0636
 2213TIP3    H2 6579   0.070   0.501   0.777  0.2849 -1.2615  0.8003
 2214TIP3   OH2 6580   4.778   6.345   2.191  0.5801 -0.0141 -0.0248
 2214TIP3    H1 6581   4.804   6.289   2.118  0.4713  0.4409 -0.4157
 2214TIP3    H2 6582   4.728   6.416   2.150  0.9849  0.5383  0.4313
 2215TIP3   OH2 6583   5.276   3.634   5.474  0.3439 -0.0597 -0.2391
 2215TIP3    H1 6584   5.278   3.544   5.441  0.3530 -0.4642  0.8444
 2215TIP3    H2 6585   5.211   3.678   5.419  1.5205 -0.2961 -1.8351
 2216TIP3   OH2 6586   5.463   0.224   1.003 -0.2930  0.1213 -0.1695
 2216TIP3    H1 6587   5.488   0.210   0.912  1.5687 -1.0609  0.4904
 2216TIP3    H2 6588   5.414   0.145   1.026  2.7140 -1.5113  0.9886
 2217TIP3   OH2 6589   4.784   2.603   2.120 -0.4519  0.0313 -0.1999
 2217TIP3    H1 6590   4.846   2.547   2.168  0.0609 -0.0980 -1.0116
 2217TIP3    H2 6591   4.701   2.592   2.167 -0.2693 -1.1118 -0.1317
 2218TIP3   OH2 6592   3.858   6.887   3.259  0.1565 -0.0844 -0.2250
 2218TIP3    H1 6593   3.804   6.959   3.292 -1.3354 -1.9200  1.4378
 2218TIP3    H2 6594   3.948   6.919   3.265 -0.4705  1.4989  0.8227
 2219TIP3   OH2 6595   6.782   0.736   4.149 -0.5144  0.4666  0.2934
 2219TIP3    H1 6596   6.729   0.811   4.122 -0.5734  0.4531  0.3746
 2219TIP3    H2 6597   6.734   0.697   4.222 -1.3107 -0.6112 -0.7848
 2220TIP3   OH2 6598   7.674   0.445   3.558 -0.0435  0.0719 -0.1103
 2220TIP3    H1 6599   7.607   0.379   3.543  0.7612 -0.7188 -0.2496
 2220TIP3    H2 6600   7.749   0.415   3.508 -0.0882  1.7743 -1.2339
 2221TIP3   OH2 6601   4.269   7.751   4.719  0.2721 -0.5981 -0.1675
 2221TIP3    H1 6602   4.295   7.673   4.671 -0.6709 -0.0073 -1.6995
 2221TIP3    H2 6603   4.178   7.766   4.693  0.3162  0.7875  0.3987
 2222TIP3   OH2 6604   3.978   7.963   2.106 -0.1980  0.6608 -0.1648
 2222TIP3    H1 6605   4.021   7.947   2.023 -1.2372  0.7461 -0.7322
 2222TIP3    H2 6606   4.026   7.910   2.170  0.0690 -0.0613 -0.9647
 2223TIP3   OH2 6607   7.472   0.559   2.473 -1.0773  0.0639 -0.4089
 2223TIP3    H1 6608   7.499   0.621   2.541  0.6845  1.1863 -2.0932
 2223TIP3    H2 6609   7.397   0.512   2.512 -0.2784  0.8447  2.1859
 2224TIP3   OH2 6610   2.895   7.231   1.440  0.2260  0.5586  0.1897
 2224TIP3    H1 6611   2.971   7.248   1.385  1.0546 -0.6550  0.9359
 2224TIP3    H2 6612   2.890   7.305   1.500  1.3986  0.1800  0.7644
 2225TIP3   OH2 6613   3.203   5.963   0.518  0.1160 -0.2061  0.2767
 2225TIP3    H1 6614   3.245   6.018   0.583  0.2495  2.0465 -1.6666
 2225TIP3    H2 6615   3.262   5.965   0.443 -0.4034 -2.1471 -0.2096
 2226TIP3   OH2 6616   1.965   2.422   3.781  0.0161  0.2439  0.5011
 2226TIP3    H1 6617   1.997   2.484   3.715 -0.4143  0.8404  0.8553
 2226TIP3    H2 6618   1.967   2.471   3.863  0.7371 -0.5556  0.9788
 2227TIP3   OH2 6619   4.202   2.081   2.753 -0.2032 -0.1135  0.0187
 2227TIP3    H1 6620   4.220   2.035   2.835  0.5164  1.4334  0.7467
 2227TIP3    H2 6621   4.136   2.146   2.776  0.2783  0.5823 -0.5436
 2228TIP3   OH2 6622   6.550   1.885   5.041  0.5061 -0.0936  0.3970
 2228TIP3    H1 6623   6.503   1.831   4.977 -0.9205  0.2510  1.1421
 2228TIP3    H2 6624   6.575   1.823   5.111 -1.5343  0.2743  1.4739
 2229TIP3   OH2 6625   6.514   2.574   3.898  0.2210  0.3242  0.1665
 2229TIP3    H1 6626   6.424   2.559   3.925  0.0621 -0.1614 -0.6195
 2229TIP3    H2 6627   6.525   2.669   3.901 -0.0949  0.3375  0.9542
 2230TIP3   OH2 6628   7.658   1.628   2.669 -0.2744 -0.0429 -0.2898
 2230TIP3    H1 6629   7.688   1.595   2.585  1.0117 -0.4711  0.3133
 2230TIP3    H2 6630   7.738   1.659   2.712 -1.0007  0.7578  0.5080
 2231TIP3   OH2 6631   0.333   1.037   1.933  0.9468  0.4321  0.1750
 2231TIP3    H1 6632   0.310   1.015   1.843 -0.4377 -1.7544  1.0204
 2231TIP3    H2 6633   0.429   1.036   1.934  0.9533 -2.3728 -0.6288
 2232TIP3   OH2 6634   2.312   6.941   1.062 -0.4348 -0.1302  0.1091
 2232TIP3    H1 6635   2.372   7.007   1.096 -0.4179 -0.7298  1.2673
 2232TIP3    H2 6636   2.235   6.946   1.119 -0.7230 -0.6483 -0.2237
 2233TIP3   OH2 6637   7.035   1.208   3.388 -0.1933 -0.0340  0.7321
 2233TIP3    H1 6638   6.962   1.155   3.358  0.1320 -1.4529  2.3736
 2233TIP3    H2 6639   7.106   1.189   3.326  0.2866 -2.4558  1.9618
 2234TIP3   OH2 6640   7.975   0.135   0.537  0.4281  0.2084 -0.1495
 2234TIP3    H1 6641   8.046   0.175   0.587  0.7342  0.3755 -0.7116
 2234TIP3    H2 6642   8.019   0.075   0.476  0.1579  0.9686 -1.1103
 2235TIP3   OH2 6643   5.259   7.868   3.297  0.1292 -0.0761 -0.9263
 2235TIP3    H1 6644   5.252   7.866   3.393  1.5275 -2.3001 -0.8130
 2235TIP3    H2 6645   5.181   7.823   3.266  0.4856 -0.8306 -0.7469
 2236TIP3   OH2 6646   4.153   7.356   1.621  0.2059 -0.1644 -0.3335
 2236TIP3    H1 6647   4.148   7.285   1.685 -1.3593 -0.7466 -1.0810
 2236TIP3    H2 6648   4.169   7.312   1.538  0.2476  0.4418 -0.6432
 2237TIP3   OH2 6649   3.599   7.336   2.462  0.3578  0.2202 -0.2803
 2237TIP3    H1 6650   3.593   7.283   2.542  3.4332  0.2866  0.0577
 2237TIP3    H2 6651   3.558   7.281   2.394  0.0877 -0.9602  0.8165
 2238TIP3   OH2 6652   3.738   6.952   3.699  0.1856 -0.0494 -0.5787
 2238TIP3    H1 6653   3.656   6.976   3.657  1.3032  0.7564 -2.3907
 2238TIP3    H2 6654   3.757   6.864   3.666  0.0714 -0.2326 -0.1663
 2239TIP3   OH2 6655   4.157   7.635   3.995  0.2526  0.1496  0.4260
 2239TIP3    H1 6656   4.211   7.705   4.032 -0.0367 -0.0842  1.3182
 2239TIP3    H2 6657   4.068   7.668   4.001  0.0520 -0.5727  1.4977
 2240TIP3   OH2 6658   7.403   1.207   5.129 -0.1936  0.2798 -0.4039
 2240TIP3    H1 6659   7.313   1.214   5.161  0.2865  1.9865  0.6087
 2240TIP3    H2 6660   7.404   1.258   5.048 -0.4137 -0.6949 -1.0264
 2241TIP3   OH2 6661   0.615   1.341   3.234 -1.0621  0.0803  0.6134
 2241TIP3    H1 6662   0.565   1.363   3.313 -0.7687 -1.3778  1.2107
 2241TIP3    H2 6663   0.557   1.368   3.162 -1.0230  2.1013  1.2953
 2242TIP3   OH2 6664   3.744   7.933   2.451 -0.6728 -0.1407  0.3402
 2242TIP3    H1 6665   3.765   8.021   2.422  0.9067 -0.6870 -0.2277
 2242TIP3    H2 6666   3.648   7.932   2.457 -0.7233  1.5055  0.0713
 2243TIP3   OH2 6667   2.831   6.455   3.132 -0.4987 -0.1054  0.3315
 2243TIP3    H1 6668   2.837   6.518   3.060 -1.2093  1.3079  1.4910
 2243TIP3    H2 6669   2.775   6.385   3.097 -0.8401  0.5598 -0.4960
 2244TIP3   OH2 6670   5.881   6.081   1.554  0.6359 -0.0706  0.1756
 2244TIP3    H1 6671   5.961   6.065   1.603  1.4172 -1.6126 -1.5687
 2244TIP3    H2 6672   5.908   6.134   1.479 -0.1704  0.3867  0.1969
 2245TIP3   OH2 6673   6.131   2.436   5.876  0.4063  0.3882  0.6256
 2245TIP3    H1 6674   6.042   2.410   5.901  1.1318 -1.0053  1.7917
 2245TIP3    H2 6675   6.179   2.442   5.958  1.1428  2.1831  0.0952
 2246TIP3   OH2 6676   3.491   7.913   2.392  0.3688  0.1757 -0.0715
 2246TIP3    H1 6677   3.408   7.961   2.389  0.5977  0.4921 -2.7124
 2246TIP3    H2 6678   3.468   7.822   2.375  0.5058  0.1695 -0.2244
 2247TIP3   OH2 6679   7.772   1.262   4.319 -0.1288  0.0997  0.5390
 2247TIP3    H1 6680   7.773   1.195   4.250  1.1082 -0.0804  0.7213
 2247TIP3    H2 6681   7.716   1.226   4.387 -0.8878  0.0201 -0.1205
 2248TIP3   OH2 6682   3.536   1.535   1.615 -0.0243 -0.0990  0.1433
 2248TIP3    H1 6683   3.587   1.611   1.587  0.3235 -0.5149 -0.3754
 2248TIP3    H2 6684   3.539   1.476   1.540 -1.4917 -0.0218 -0.0011
 2249TIP3   OH2 6685   6.995   0.597   2.876 -0.0331 -0.3976  0.2803
 2249TIP3    H1 6686   6.928   0.641   2.929 -0.4874 -0.6721 -0.0607
 2249TIP3    H2 6687   6.946   0.560   2.802  0.4778 -0.7182  0.1021
 2250TIP3   OH2 6688   7.305   1.957   3.694 -0.4272  0.6645  0.0548
 2250TIP3    H1 6689   7.309   1.868   3.728 -0.1691  1.2634  1.6453
 2250TIP3    H2 6690   7.214   1.984   3.710  0.3660  1.8762  2.7654
 2251TIP3   OH2 6691   7.064   0.961   3.206 -0.5384  0.6296  0.7661
 2251TIP3    H1 6692   7.154   0.964   3.172 -1.3327  1.7276 -1.3480
 2251TIP3    H2 6693   7.009   0.978   3.129 -2.5354  0.5831  2.1491
 2252TIP3   OH2 6694   1.666   4.255   6.886  1.2180  0.0117  0.2199
 2252TIP3    H1 6695   1.677   4.168   6.923 -1.8330 -0.3869  0.3550
 2252TIP3    H2 6696   1.615   4.302   6.952  0.0541  0.8684 -1.2530
 2253TIP3   OH2 6697   6.832   2.023   4.453 -0.6090  0.5910  0.4238
 2253TIP3    H1 6698   6.917   1.981   4.469 -0.0902  1.6850  0.5931
 2253TIP3    H2 6699   6.823   2.023   4.358 -0.0746  1.1373  0.3715
 2254TIP3   OH2 6700   4.274   7.664   2.643 -0.4136  0.0623  0.0028
 2254TIP3    H1 6701   4.229   7.664   2.728 -0.8424 -1.3630 -0.2079
 2254TIP3    H2 6702   4.208   7.634   2.581 -0.3781  1.9708 -1.0154
 2255TIP3   OH2 6703   6.339   1.620   2.023 -0.8437  0.4300  0.6527
 2255TIP3    H1 6704   6.366   1.549   2.081  0.0828  0.7378  0.6123
 2255TIP3    H2 6705   6.372   1.595   1.937  0.6941  1.5524  0.8966
 2256TIP3   OH2 6706   7.004   1.597   1.388 -0.5758  0.0080  0.0109
 2256TIP3    H1 6707   6.936   1.573   1.452 -0.1828  0.2104  0.5054
 2256TIP3    H2 6708   7.039   1.680   1.420 -1.6554  1.0696 -1.4815
 2257TIP3   OH2 6709   8.445   0.915   1.790  0.1794 -0.8880 -0.6183
 2257TIP3    H1 6710   8.395   0.863   1.728  1.6301  0.5610 -3.1116
 2257TIP3    H2 6711   8.408   1.003   1.783  0.0780 -0.7938  0.9198
 2258TIP3   OH2 6712   8.243   1.185   1.513  0.6823  0.6396  0.0086
 2258TIP3    H1 6713   8.194   1.103   1.526 -0.4770  1.5367  1.4688
 2258TIP3    H2 6714   8.237   1.229   1.598 -0.0238  2.9614 -1.2322
 2259TIP3   OH2 6715   6.640   0.523   1.026 -0.1157 -0.0263 -0.1190
 2259TIP3    H1 6716   6.575   0.454   1.033 -0.7728  0.6697  0.7501
 2259TIP3    H2 6717   6.615   0.587   1.092  0.3170  1.1942 -1.1131
 2260TIP3   OH2 6718   7.410   0.499   4.763  0.2253  0.0318 -0.2457
 2260TIP3    H1 6719   7.487   0.510   4.708  0.3860 -0.7127 -0.1657
 2260TIP3    H2 6720   7.403   0.405   4.778  0.1659  0.2184  0.9794
 2261TIP3   OH2 6721   2.456   5.269   6.702 -0.3590  0.4579 -0.2326
 2261TIP3    H1 6722   2.511   5.195   6.730  0.2761  0.7023 -0.8379
 2261TIP3    H2 6723   2.471   5.336   6.769  0.3835  0.6723 -0.6159
 2262TIP3   OH2 6724   4.258   7.673   1.140  0.2981  0.0022  0.7393
 2262TIP3    H1 6725   4.315   7.635   1.206 -0.2551  0.4044  1.4484
 2262TIP3    H2 6726   4.313   7.678   1.061 -0.0272 -3.6910  0.1556
 2263TIP3   OH2 6727   7.104   1.449   2.724  0.1057  0.1695 -0.4117
 2263TIP3    H1 6728   7.050   1.505   2.668 -0.3247  0.0227 -0.1442
 2263TIP3    H2 6729   7.044   1.415   2.790  0.9289  1.6878  1.1863
 2264TIP3   OH2 6730   7.521   1.007   2.318 -0.4377  0.0089  0.1069
 2264TIP3    H1 6731   7.500   1.096   2.345 -1.1529 -0.0699 -0.1851
 2264TIP3    H2 6732   7.615   1.010   2.299 -1.1618  1.7197 -3.6714
 2265TIP3   OH2 6733   6.489   0.888   5.667 -0.0752  0.1371 -0.2841
 2265TIP3    H1 6734   6.533   0.901   5.751 -1.2264  2.5297 -0.0223
 2265TIP3    H2 6735   6.508   0.797   5.644  2.6452  0.2821  1.1654
 2266TIP3   OH2 6736   3.030   6.985   5.084 -0.1388  0.3435  0.3236
 2266TIP3    H1 6737   3.095   6.970   5.015 -0.5856 -0.8372  0.1558
 2266TIP3    H2 6738   3.057   7.068   5.124 -0.6852  1.8159 -2.2155
 2267TIP3   OH2 6739   7.382   1.033   1.631 -0.1648  0.1343 -0.0346
 2267TIP3    H1 6740   7.426   1.027   1.715  0.3699 -1.8139 -0.4186
 2267TIP3    H2 6741   7.332   1.115   1.635 -1.2255 -0.5946  2.6805
 2268TIP3   OH2 6742   7.136   1.032   2.416  0.4205 -0.2125  0.3720
 2268TIP3    H1 6743   7.119   1.082   2.496  0.7633 -1.3088  1.1500
 2268TIP3    H2 6744   7.216   0.983   2.435  1.1014  0.3442 -1.0566
 2269TIP3   OH2 6745   6.350   1.825   4.012 -0.1078  0.0206 -0.7728
 2269TIP3    H1 6746   6.420   1.816   4.076 -0.1120  0.7719 -0.6563
 2269TIP3    H2 6747   6.273   1.849   4.063  0.2782  2.3703 -1.2039
 2270TIP3   OH2 6748   7.185   0.429   3.030 -0.0540  0.1204  0.6677
 2270TIP3    H1 6749   7.266   0.420   2.980 -1.8406 -2.2925 -1.9157
 2270TIP3    H2 6750   7.128   0.483   2.974 -1.8008 -1.9617  0.3792
 2271TIP3   OH2 6751   0.376   2.425   3.325  0.4021  0.2575 -0.2082
 2271TIP3    H1 6752   0.436   2.358   3.360 -0.9542 -1.1916 -0.6088
 2271TIP3    H2 6753   0.412   2.447   3.239  2.1595  1.7691  0.8756
 2272TIP3   OH2 6754   3.980   7.524   1.930  0.5985 -0.3188  0.3298
 2272TIP3    H1 6755   4.010   7.561   1.847  2.4094 -1.8073  0.2570
 2272TIP3    H2 6756   4.017   7.435   1.931 -4.3966 -2.5825  0.0032
 2273TIP3   OH2 6757   7.457   1.220   2.824  0.4476 -0.2476 -0.6917
 2273TIP3    H1 6758   7.436   1.268   2.904  1.3086 -0.1495 -0.5223
 2273TIP3    H2 6759   7.549   1.239   2.807  0.5462 -1.0815 -1.1492
 2274TIP3   OH2 6760   5.572   0.643   2.549 -0.4638 -0.0885  0.8297
 2274TIP3    H1 6761   5.602   0.711   2.489  0.6890 -2.3332 -1.2342
 2274TIP3    H2 6762   5.491   0.678   2.586 -0.4071  2.0004 -0.9174
 2275TIP3   OH2 6763   7.445   0.691   0.605 -0.4526 -0.1241 -0.0377
 2275TIP3    H1 6764   7.426   0.717   0.695  0.4984 -1.9239  0.7062
 2275TIP3    H2 6765   7.416   0.765   0.552 -2.4929  0.2959  1.6159
 2276TIP3   OH2 6766   5.733   0.878   3.147  0.2761  0.3444  0.3617
 2276TIP3    H1 6767   5.781   0.796   3.153 -0.4408 -0.0997  0.1331
 2276TIP3    H2 6768   5.701   0.893   3.236 -0.2622 -0.0392  0.2356
 2277TIP3   OH2 6769   7.309   1.793   2.110  0.6065 -0.2968  0.0161
 2277TIP3    H1 6770   7.216   1.784   2.091  0.9123  0.3899 -2.0143
 2277TIP3    H2 6771   7.317   1.777   2.204 -1.5516 -0.3556  0.2067
 2278TIP3   OH2 6772   8.088   0.108   3.151 -0.1799  0.4731 -0.1854
 2278TIP3    H1 6773   7.996   0.126   3.129 -0.1530  0.6063 -0.1892
 2278TIP3    H2 6774   8.083   0.033   3.211 -0.2899  0.4659 -0.2025
 2279TIP3   OH2 6775   8.492   2.605   3.147 -0.3661 -0.4861  0.0257
 2279TIP3    H1 6776   8.444   2.579   3.226  0.8335 -3.2040 -0.0958
 2279TIP3    H2 6777   8.498   2.525   3.095  2.4523  0.2965 -0.9308
 2280TIP3   OH2 6778   6.155   0.563   1.681 -0.4904  0.2490  0.1812
 2280TIP3    H1 6779   6.223   0.507   1.718 -1.6955 -2.1268 -1.1265
 2280TIP3    H2 6780   6.117   0.607   1.757  1.0067 -0.0594  1.1356
 2281TIP3   OH2 6781   6.197   3.618   2.749  0.1242  0.6094  0.7379
 2281TIP3    H1 6782   6.184   3.569   2.830  0.4279 -1.5532 -0.5008
 2281TIP3    H2 6783   6.285   3.654   2.756  0.7409 -0.8895  0.6703
 2282TIP3   OH2 6784   0.077   2.241   4.083  0.3911 -0.5531  0.0396
 2282TIP3    H1 6785   0.081   2.298   4.007  0.1123 -2.0255 -1.0977
 2282TIP3    H2 6786   0.037   2.294   4.151 -2.4842 -0.2529 -1.8136
 2283TIP3   OH2 6787   6.489   1.595   2.823  0.6874 -0.4528  0.7567
 2283TIP3    H1 6788   6.506   1.511   2.864  0.7846 -1.0058 -0.4073
 2283TIP3    H2 6789   6.394   1.601   2.820  0.6672 -1.4238 -0.9704
 2284TIP3   OH2 6790   0.382   0.828   2.462 -0.2054  0.3091 -0.3310
 2284TIP3    H1 6791   0.443   0.852   2.393 -0.0013  1.1482  0.1257
 2284TIP3    H2 6792   0.328   0.759   2.425  1.9640 -1.4604 -0.2422
 2285TIP3   OH2 6793   8.295   0.393   0.992  0.4586 -0.1633  0.5724
 2285TIP3    H1 6794   8.299   0.403   1.088  1.1725 -0.2244  0.5470
 2285TIP3    H2 6795   8.201   0.400   0.972  0.4948  1.9120  1.0581
 2286TIP3   OH2 6796   8.454   0.679   1.597 -0.0972 -0.6324  0.4833
 2286TIP3    H1 6797   8.370   0.634   1.582 -1.4543  1.7797  0.7179
 2286TIP3    H2 6798   8.491   0.689   1.509 -0.1452 -1.4869  0.3554
 2287TIP3   OH2 6799   6.175   0.390   0.156 -0.6862 -0.4065  1.0623
 2287TIP3    H1 6800   6.154   0.301   0.185  0.6025 -0.0310  3.2901
 2287TIP3    H2 6801   6.257   0.411   0.202  0.0907  1.1939 -0.9717
 2288TIP3   OH2 6802   7.771   0.832   4.248  0.4654 -0.0476 -0.5501
 2288TIP3    H1 6803   7.848   0.888   4.262 -0.0227  0.4157  0.3062
 2288TIP3    H2 6804   7.774   0.770   4.320  0.7081 -0.7981 -1.2048
 2289TIP3   OH2 6805   6.057   7.554   3.618  0.5432 -0.3464 -0.4463
 2289TIP3    H1 6806   5.979   7.578   3.667  0.6089  1.8753 -1.3663
 2289TIP3    H2 6807   6.127   7.549   3.683  0.3380  1.1326 -0.1114
 2290TIP3   OH2 6808   5.523   3.201   2.813  0.7160 -0.0945 -0.2420
 2290TIP3    H1 6809   5.437   3.217   2.774  0.7081  2.0036  0.5786
 2290TIP3    H2 6810   5.527   3.106   2.824 -1.6638 -0.1894  0.0516
 2291TIP3   OH2 6811   7.366   1.651   1.332 -0.2927  0.5946 -0.5638
 2291TIP3    H1 6812   7.322   1.567   1.314 -0.0662  0.4536 -0.4604
 2291TIP3    H2 6813   7.391   1.684   1.246  0.3482  0.1591 -0.5480
 2292TIP3   OH2 6814   5.678   7.918   2.961  0.0920 -0.5066 -0.6386
 2292TIP3    H1 6815   5.653   7.989   2.903 -0.1647 -0.8721 -0.9769
 2292TIP3    H2 6816   5.661   7.952   3.049 -2.6029 -1.1065 -0.8836
 2293TIP3   OH2 6817   7.368   1.368   3.070  0.2040  0.3272  0.0673
 2293TIP3    H1 6818   7.444   1.420   3.096  0.5398 -0.2649  0.2738
 2293TIP3    H2 6819   7.356   1.305   3.141 -1.1912  1.1624  0.5962
 2294TIP3   OH2 6820   0.750   2.116   1.801  1.4101  0.1538 -0.3002
 2294TIP3    H1 6821   0.822   2.165   1.761  1.7779 -0.8570 -0.8818
 2294TIP3    H2 6822   0.788   2.032   1.824  0.8608  0.2596  1.0256
 2295TIP3   OH2 6823   6.514   2.152   2.713 -0.3142  0.4319  0.3105
 2295TIP3    H1 6824   6.556   2.163   2.628 -0.1001 -0.4773  0.2908
 2295TIP3    H2 6825   6.466   2.069   2.706 -1.6531  1.1732  0.5231
 2296TIP3   OH2 6826   7.299   2.933   0.954 -0.5449 -0.1193  0.1395
 2296TIP3    H1 6827   7.236   2.877   0.908 -0.6902 -0.9824  1.3835
 2296TIP3    H2 6828   7.253   2.962   1.032  0.8211 -1.3246  1.4225
 2297TIP3   OH2 6829   6.403   2.294   2.457  0.2411  0.6071 -0.5306
 2297TIP3    H1 6830   6.344   2.352   2.410 -0.0417  0.0469 -0.8595
 2297TIP3    H2 6831   6.491   2.324   2.432  0.1034  1.5096  0.0491
 2298TIP3   OH2 6832   6.953   1.711   4.871  0.2352 -0.1005  0.2262
 2298TIP3    H1 6833   6.944   1.806   4.859 -3.6152 -0.2797  1.0629
 2298TIP3    H2 6834   6.945   1.675   4.783 -4.2445  0.0647  0.4600
 2299TIP3   OH2 6835   7.912   0.828   3.039  0.2227  0.2900 -0.2211
 2299TIP3    H1 6836   7.942   0.862   2.955  0.9059 -0.2154 -0.1833
 2299TIP3    H2 6837   7.961   0.877   3.104 -0.1342  0.5154 -0.1221
 2300TIP3   OH2 6838   6.702   1.732   2.437 -0.0402  0.1231 -0.1836
 2300TIP3    H1 6839   6.743   1.648   2.457  0.1956  0.2047 -0.3216
 2300TIP3    H2 6840   6.618   1.729   2.482  1.3603  1.1725  2.6259
 2301TIP3   OH2 6841   6.831   2.163   0.713 -0.4657 -0.2313  0.2240
 2301TIP3    H1 6842   6.908   2.107   0.715 -0.1058  0.1572 -1.4855
 2301TIP3    H2 6843   6.777   2.126   0.643 -1.7781 -0.4303  1.3284
 2302TIP3   OH2 6844   8.064   0.980   1.553 -0.2940 -0.1889 -0.0941
 2302TIP3    H1 6845   7.969   0.991   1.541  0.0180 -0.4158 -3.1881
 2302TIP3    H2 6846   8.073   0.935   1.637 -2.8645  0.7321  0.7261
 2303TIP3   OH2 6847   5.250   7.613   0.524 -0.1613 -0.0550 -0.1466
 2303TIP3    H1 6848   5.342   7.587   0.512 -0.2240  0.0541 -0.9095
 2303TIP3    H2 6849   5.221   7.564   0.600  0.3141 -0.6728 -0.3558
 2304TIP3   OH2 6850   4.680   7.169   2.376  0.2314 -0.2716  0.1364
 2304TIP3    H1 6851   4.715   7.127   2.297  0.1869  1.6791 -0.9572
 2304TIP3    H2 6852   4.590   7.189   2.353  0.0724 -0.1526  0.8833
 2305TIP3   OH2 6853   5.981   7.490   2.992 -0.0490 -0.0159 -0.1486
 2305TIP3    H1 6854   5.952   7.558   3.052 -0.2587  0.4389 -0.7639
 2305TIP3    H2 6855   6.048   7.442   3.041 -2.4464 -1.6592  1.6460
 2306TIP3   OH2 6856   0.162   3.094   2.409 -0.2491  0.1131 -0.1254
 2306TIP3    H1 6857   0.118   3.178   2.403 -0.9443 -0.1680  0.9435
 2306TIP3    H2 6858   0.252   3.112   2.383 -0.1062  1.4236  1.1971
 2307TIP3   OH2 6859   7.741   1.328   3.819  0.2817  0.2005  0.2358
 2307TIP3    H1 6860   7.835   1.328   3.799  0.2108  0.3444 -0.0967
 2307TIP3    H2 6861   7.698   1.333   3.734 -0.0183  0.7496  0.4165
 2308TIP3   OH2 6862   5.715   1.125   3.027  0.6447  0.5235  0.3601
 2308TIP3    H1 6863   5.714   1.042   3.076 -0.6649  0.0625 -0.4420
 2308TIP3    H2 6864   5.783   1.112   2.960  2.2335  1.0465  1.8127
 2309TIP3   OH2 6865   7.922   1.752   2.699  0.2111 -0.0871  0.4732
 2309TIP3    H1 6866   8.000   1.718   2.655  0.0654  0.7238 -0.4341
 2309TIP3    H2 6867   7.939   1.846   2.709 -1.3004  0.4126 -1.2040
 2310TIP3   OH2 6868   6.634   0.124   2.819 -0.4918 -0.2740 -0.1604
 2310TIP3    H1 6869   6.549   0.080   2.813 -0.7182  0.2991 -1.2021
 2310TIP3    H2 6870   6.674   0.088   2.898 -1.6412 -0.6630  0.2539
 2311TIP3   OH2 6871   4.610   7.451   1.774 -0.0596  0.9709 -0.4666
 2311TIP3    H1 6872   4.640   7.363   1.793 -1.9485  0.6382  1.2072
 2311TIP3    H2 6873   4.616   7.459   1.679  0.6860 -0.7450 -0.5744
 2312TIP3   OH2 6874   8.176   1.796   2.316  0.2999 -0.1760 -0.0382
 2312TIP3    H1 6875   8.129   1.860   2.263  2.2738  0.6937 -0.7610
 2312TIP3    H2 6876   8.194   1.724   2.255 -0.2778 -0.6066  0.2961
 2313TIP3   OH2 6877   1.763   0.697   2.706 -0.2601  0.2307 -0.0642
 2313TIP3    H1 6878   1.781   0.787   2.679  0.3734  0.2536  0.4265
 2313TIP3    H2 6879   1.819   0.682   2.782 -0.5047 -0.5151 -0.0174
 2314TIP3   OH2 6880   2.155   0.406   3.986 -0.0874  0.1278  0.0761
 2314TIP3    H1 6881   2.205   0.325   3.999 -1.1264 -0.4436  0.5636
 2314TIP3    H2 6882   2.221   0.470   3.959  0.9030 -0.6373  0.6107
 2315TIP3   OH2 6883   6.811   1.895   2.634 -0.0942  0.0520  0.0967
 2315TIP3    H1 6884   6.776   1.878   2.546 -1.4708 -0.6432  0.7691
 2315TIP3    H2 6885   6.894   1.941   2.618 -1.3504  1.8405 -1.5214
 2316TIP3   OH2 6886   2.088   2.438   4.160 -0.7458 -0.4547 -0.2627
 2316TIP3    H1 6887   2.057   2.490   4.086 -0.0183 -1.0692 -1.0068
 2316TIP3    H2 6888   2.109   2.352   4.122  2.3958  0.0957  0.0796
 2317TIP3   OH2 6889   0.858   3.016   4.032 -0.1345 -0.2293 -0.5549
 2317TIP3    H1 6890   0.762   3.010   4.024 -0.0064 -0.0260 -2.6129
 2317TIP3    H2 6891   0.880   3.098   3.988  0.8437  0.6266  1.4867
 2318TIP3   OH2 6892   1.388   2.622   1.591  0.1671  0.4952  0.2122
 2318TIP3    H1 6893   1.403   2.698   1.534  1.8188  0.0738  0.0440
 2318TIP3    H2 6894   1.334   2.655   1.663  1.9054  2.1439  0.7977
 2319TIP3   OH2 6895   1.334   0.541   6.743  0.2709  0.0900  0.6671
 2319TIP3    H1 6896   1.424   0.508   6.742  0.8263  1.5304  1.8658
 2319TIP3    H2 6897   1.302   0.525   6.654  1.7157 -0.4245  0.2214
 2320TIP3   OH2 6898   8.425   7.348   3.373  0.4924  0.1344 -0.5091
 2320TIP3    H1 6899   8.451   7.439   3.362 -2.6338  1.3185  1.1810
 2320TIP3    H2 6900   8.336   7.344   3.339  1.1909 -2.7196 -2.1298
 2321TIP3   OH2 6901   0.585   2.198   3.305 -0.1395  0.5727 -0.2166
 2321TIP3    H1 6902   0.608   2.280   3.263  0.1405 -0.8592 -3.0030
 2321TIP3    H2 6903   0.656   2.183   3.369  0.2818  2.0223 -0.3319
 2322TIP3   OH2 6904   3.206   1.189   3.830 -0.7650  0.7061 -0.6451
 2322TIP3    H1 6905   3.218   1.113   3.773 -3.0650 -0.4061  0.2853
 2322TIP3    H2 6906   3.266   1.175   3.903 -0.1531  0.5095 -1.1798
 2323TIP3   OH2 6907   1.758   0.749   2.200  0.4571  0.1298  0.4384
 2323TIP3    H1 6908   1.842   0.776   2.163  0.6331  1.1366  1.5305
 2323TIP3    H2 6909   1.780   0.715   2.287 -0.1651 -0.4229  0.3868
 2324TIP3   OH2 6910   2.244   0.582   5.601  0.3337  0.0232 -0.5834
 2324TIP3    H1 6911   2.160   0.535   5.608 -0.0362  0.8970  1.1326
 2324TIP3    H2 6912   2.309   0.519   5.632  0.0288  0.0598  0.1624
 2325TIP3   OH2 6913   0.379   1.355   1.101 -0.2961  0.0304 -0.3713
 2325TIP3    H1 6914   0.324   1.303   1.160 -0.5037 -0.7453 -1.2416
 2325TIP3    H2 6915   0.321   1.422   1.067 -0.1626  0.5159  0.3395
 2326TIP3   OH2 6916   1.540   3.005   3.999 -0.4128  0.1681  0.1256
 2326TIP3    H1 6917   1.542   2.909   4.001  0.5140  0.1523 -1.0254
 2326TIP3    H2 6918   1.464   3.028   4.053 -0.8449 -1.2242  0.1478
 2327TIP3   OH2 6919   4.192   1.742   2.912  0.2277  0.3690 -0.2287
 2327TIP3    H1 6920   4.277   1.755   2.954  0.5240  0.0051 -0.6987
 2327TIP3    H2 6921   4.128   1.746   2.983  0.6227  0.8373  0.1020
 2328TIP3   OH2 6922   8.394   1.811   3.981  0.3042 -0.1920 -0.2500
 2328TIP3    H1 6923   8.389   1.779   3.891  1.4445 -1.1230  0.0059
 2328TIP3    H2 6924   8.345   1.746   4.032  2.6712 -1.6284  0.2777
 2329TIP3   OH2 6925   7.245   0.604   4.469  0.1494  0.0215  0.1204
 2329TIP3    H1 6926   7.170   0.641   4.423 -0.0816  0.7069  1.0269
 2329TIP3    H2 6927   7.310   0.673   4.470 -0.5129  0.6530  2.3479
 2330TIP3   OH2 6928   0.474   2.387   3.785  0.7412  0.1859 -0.0382
 2330TIP3    H1 6929   0.400   2.333   3.758  2.1044 -2.1637  0.7818
 2330TIP3    H2 6930   0.443   2.433   3.863 -0.2297  0.0870 -0.3644
 2331TIP3   OH2 6931   2.006   1.465   3.352  0.6820 -0.1050 -0.1039
 2331TIP3    H1 6932   1.945   1.454   3.425  0.0822 -0.1176 -0.6119
 2331TIP3    H2 6933   2.005   1.380   3.307  2.0318 -0.5280  0.6258
 2332TIP3   OH2 6934   6.180   7.308   4.102 -0.0740  0.4270  0.2306
 2332TIP3    H1 6935   6.116   7.319   4.173 -1.7798 -0.4328 -1.1378
 2332TIP3    H2 6936   6.176   7.391   4.054  1.2022  1.0718  1.2003
 2333TIP3   OH2 6937   8.193   4.049   4.599  0.1594 -0.4892  0.2008
 2333TIP3    H1 6938   8.282   4.040   4.633  0.4784 -1.6049 -0.8882
 2333TIP3    H2 6939   8.157   3.960   4.602 -0.0658 -0.4799 -1.6118
 2334TIP3   OH2 6940   1.441   3.432   1.914 -0.0023 -0.3346  0.2788
 2334TIP3    H1 6941   1.496   3.508   1.935 -2.6152  1.4286  0.9637
 2334TIP3    H2 6942   1.441   3.428   1.818 -0.8878  1.3549  0.1906
 2335TIP3   OH2 6943   3.726   1.063   1.846  0.0055 -0.7479 -0.1742
 2335TIP3    H1 6944   3.805   1.113   1.868  0.4866 -1.0398 -1.2236
 2335TIP3    H2 6945   3.668   1.125   1.803  0.7763 -1.1885 -1.8621
 2336TIP3   OH2 6946   0.987   2.304   3.887 -0.0886  0.3501  0.4752
 2336TIP3    H1 6947   1.008   2.364   3.815 -0.8355  1.6910  1.3555
 2336TIP3    H2 6948   0.897   2.276   3.868  0.5405 -1.1615 -0.3769
 2337TIP3   OH2 6949   1.097   0.979   2.251  0.4312 -0.4111 -0.4753
 2337TIP3    H1 6950   1.175   0.936   2.216  0.5376 -0.0380 -0.6988
 2337TIP3    H2 6951   1.050   1.012   2.175  1.2973  1.4841 -0.2223
 2338TIP3   OH2 6952   7.049   1.778   3.897 -0.3213 -0.0031  0.0088
 2338TIP3    H1 6953   7.059   1.837   3.972 -0.3593  0.7271 -0.5614
 2338TIP3    H2 6954   7.055   1.691   3.935  0.9789  0.3679  0.6862
 2339TIP3   OH2 6955   7.180   1.996   0.484 -0.1143 -0.0150  0.1298
 2339TIP3    H1 6956   7.170   2.091   0.483  1.1109  0.1161 -0.5860
 2339TIP3    H2 6957   7.273   1.982   0.497 -0.1782 -1.1115 -0.5560
 2340TIP3   OH2 6958   6.098   2.600   1.862  0.2593 -0.0476  0.0647
 2340TIP3    H1 6959   6.074   2.671   1.922 -0.5819 -0.5036  0.2746
 2340TIP3    H2 6960   6.059   2.625   1.779 -1.7646 -1.2351  0.6276
 2341TIP3   OH2 6961   0.210   2.218   4.832  0.2809  0.3565  0.4532
 2341TIP3    H1 6962   0.211   2.161   4.755  1.3266  0.6698  0.2240
 2341TIP3    H2 6963   0.229   2.159   4.906  2.3719  0.5642  0.0963
 2342TIP3   OH2 6964   3.889   0.223   3.481  0.2246 -0.6341 -0.1209
 2342TIP3    H1 6965   3.890   0.301   3.537  0.3622 -0.6112 -0.1547
 2342TIP3    H2 6966   3.796   0.205   3.467  0.1956 -0.0953 -0.6409
 2343TIP3   OH2 6967   7.905   0.762   5.171 -0.4843  0.1398 -0.3891
 2343TIP3    H1 6968   7.989   0.726   5.142  1.1586  0.6328  3.4117
 2343TIP3    H2 6969   7.865   0.796   5.091  1.8230 -2.2501 -2.6970
 2344TIP3   OH2 6970   2.888   0.079   1.404 -0.0860 -0.8716  0.0149
 2344TIP3    H1 6971   2.938   0.122   1.335  0.4102 -1.7785 -0.1952
 2344TIP3    H2 6972   2.927  -0.008   1.412  0.0447 -0.6762  1.6410
 2345TIP3   OH2 6973   1.734   1.412   2.276  0.2698  0.0964 -0.0310
 2345TIP3    H1 6974   1.829   1.399   2.266  0.1801 -1.9171  1.6190
 2345TIP3    H2 6975   1.696   1.326   2.261 -1.0459  0.1998  2.4831
 2346TIP3   OH2 6976   0.584   3.876   2.955 -0.1922  0.9378 -0.0820
 2346TIP3    H1 6977   0.613   3.786   2.944  0.0927  1.1521 -1.2008
 2346TIP3    H2 6978   0.664   3.926   2.967 -0.3766  0.9938  0.9321
 2347TIP3   OH2 6979   3.823   3.615   3.607  0.3142 -0.2814 -0.0614
 2347TIP3    H1 6980   3.791   3.536   3.564 -1.1337  0.1213  0.2469
 2347TIP3    H2 6981   3.871   3.662   3.538 -1.6152  0.1408 -1.1424
 2348TIP3   OH2 6982   6.449   1.462   2.243 -0.0086  0.2460  0.3370
 2348TIP3    H1 6983   6.395   1.523   2.293 -0.3184  0.1015  0.1852
 2348TIP3    H2 6984   6.537   1.499   2.245  0.0321  0.1077  1.2107
 2349TIP3   OH2 6985   8.093   1.380   4.696  0.2000 -0.1428  0.2230
 2349TIP3    H1 6986   8.058   1.307   4.645 -1.4103  1.2836 -0.7488
 2349TIP3    H2 6987   8.142   1.338   4.767  0.5696 -2.1569 -1.1727
 2350TIP3   OH2 6988   1.511   1.599   4.455 -0.2392 -0.2127 -0.3827
 2350TIP3    H1 6989   1.437   1.542   4.437 -0.0277 -0.9159  0.9238
 2350TIP3    H2 6990   1.486   1.683   4.416 -1.3518 -0.6722 -0.6900
 2351TIP3   OH2 6991   1.995   1.343   2.723  0.4732  0.3447 -0.3189
 2351TIP3    H1 6992   1.952   1.394   2.792  1.5640 -0.1647  0.7543
 2351TIP3    H2 6993   2.061   1.403   2.686 -0.3849  0.7530 -1.2073
 2352TIP3   OH2 6994   0.772   1.962   3.559 -0.0205 -0.0671  0.0790
 2352TIP3    H1 6995   0.794   2.053   3.538 -0.9812  0.0273 -0.5254
 2352TIP3    H2 6996   0.727   1.967   3.643  2.5506 -0.3016  1.5341
 2353TIP3   OH2 6997   1.216   0.436   4.699  0.0474  0.0416  0.0693
 2353TIP3    H1 6998   1.255   0.387   4.627  0.8742  0.5054  0.1935
 2353TIP3    H2 6999   1.182   0.516   4.659  0.4181  0.2538  0.1795
 2354TIP3   OH2 7000   3.217   0.751   3.610  0.3473  0.2489 -0.4251
 2354TIP3    H1 7001   3.259   0.820   3.661  2.1949 -1.6697  0.7605
 2354TIP3    H2 7002   3.146   0.719   3.666 -1.5419  2.1991 -1.6332
 2355TIP3   OH2 7003   8.363   1.250   3.225 -0.6182 -0.1722  0.4932
 2355TIP3    H1 7004   8.376   1.334   3.270  0.4980 -0.3515  0.5182
 2355TIP3    H2 7005   8.404   1.186   3.283  1.0061 -0.3757 -0.8587
 2356TIP3   OH2 7006   1.370   2.859   6.630 -0.0518  0.4729  0.7580
 2356TIP3    H1 7007   1.310   2.843   6.556 -0.1876 -0.4561  1.0655
 2356TIP3    H2 7008   1.445   2.802   6.612 -0.1027  0.2179  1.3526
 2357TIP3   OH2 7009   1.855   0.130   4.837 -0.3637 -0.2769 -0.0388
 2357TIP3    H1 7010   1.827   0.087   4.918  0.6253 -0.9890 -0.0627
 2357TIP3    H2 7011   1.812   0.215   4.839 -1.2693 -0.7419  0.6734
 2358TIP3   OH2 7012   0.860   1.161   1.005 -0.4250 -0.3980  0.3211
 2358TIP3    H1 7013   0.764   1.168   1.014 -0.6724 -0.8736 -1.8374
 2358TIP3    H2 7014   0.881   1.074   1.040 -0.7450 -0.2311  0.9485
 2359TIP3   OH2 7015   2.622   1.003   3.498  0.1189  0.2833  0.2805
 2359TIP3    H1 7016   2.703   0.992   3.447  0.7386 -0.7758  1.4558
 2359TIP3    H2 7017   2.608   1.097   3.501  0.3862  0.3885 -1.3550
 2360TIP3   OH2 7018   1.519   7.442   3.295 -0.5193  0.0107  0.2079
 2360TIP3    H1 7019   1.601   7.486   3.318 -0.1201 -1.4634  1.6681
 2360TIP3    H2 7020   1.450   7.500   3.327 -0.0798  1.3960 -1.2719
 2361TIP3   OH2 7021   7.801   1.920   1.919  0.1156 -0.2993 -0.0170
 2361TIP3    H1 7022   7.791   1.931   2.014 -0.4799 -0.3604 -0.0708
 2361TIP3    H2 7023   7.815   1.826   1.907 -0.4947 -0.3862 -0.0488
 2362TIP3   OH2 7024   2.901   1.065   2.766  0.0743  0.2288  0.1701
 2362TIP3    H1 7025   2.906   1.088   2.673  0.5273  0.2756  0.2047
 2362TIP3    H2 7026   2.865   1.144   2.808  1.0462  0.6532  0.2045
 2363TIP3   OH2 7027   0.619   2.926   3.927 -0.5184 -0.9168 -0.1401
 2363TIP3    H1 7028   0.571   2.992   3.977 -0.7852 -0.4192 -1.0501
 2363TIP3    H2 7029   0.559   2.852   3.920 -0.0866 -1.4032  1.1914
 2364TIP3   OH2 7030   7.993   3.186   2.557  0.4829  0.1220 -0.0618
 2364TIP3    H1 7031   8.054   3.244   2.602 -0.5353  2.1597 -1.2207
 2364TIP3    H2 7032   7.919   3.177   2.618  1.2942 -1.1987  0.7456
 2365TIP3   OH2 7033   2.273   0.706   2.523  0.2621 -0.7246  0.4185
 2365TIP3    H1 7034   2.233   0.701   2.436  1.2338 -1.1842 -0.0057
 2365TIP3    H2 7035   2.336   0.778   2.517  0.1067 -0.5518  0.8394
 2366TIP3   OH2 7036   8.260   2.046   4.659 -0.0609  0.1362 -0.2746
 2366TIP3    H1 7037   8.217   2.051   4.745  0.3301  2.1106 -0.1856
 2366TIP3    H2 7038   8.354   2.051   4.679  0.1024 -1.0021 -0.7124
 2367TIP3   OH2 7039   0.733   3.194   2.620 -0.4155  0.6747 -0.2485
 2367TIP3    H1 7040   0.653   3.237   2.592 -0.9212 -0.8858 -1.2130
 2367TIP3    H2 7041   0.719   3.174   2.713 -1.1311  0.4359 -0.4066
 2368TIP3   OH2 7042   7.422   1.503   5.531 -0.0888  0.5479  0.3362
 2368TIP3    H1 7043   7.497   1.445   5.522 -1.2834 -0.9111 -0.4506
 2368TIP3    H2 7044   7.403   1.532   5.442 -1.6320 -0.6346  0.2552
 2369TIP3   OH2 7045   0.546   0.711   5.408  0.1242 -0.1976  0.2551
 2369TIP3    H1 7046   0.590   0.777   5.461  1.2269 -1.3978  0.8818
 2369TIP3    H2 7047   0.574   0.730   5.318  0.3494  0.2547  0.4221
 2370TIP3   OH2 7048   8.195   0.404   5.420 -0.2880 -0.3313  0.2966
 2370TIP3    H1 7049   8.195   0.315   5.456 -0.6823 -0.2628  0.4639
 2370TIP3    H2 7050   8.203   0.391   5.325  0.9702 -0.5016  0.4175
 2371TIP3   OH2 7051   0.148   4.044   1.113  0.2733  0.8713 -0.0813
 2371TIP3    H1 7052   0.106   4.128   1.129  0.3567  0.9652 -0.3561
 2371TIP3    H2 7053   0.092   3.980   1.157  0.4564  1.1188  0.5118
 2372TIP3   OH2 7054   7.688   2.628   2.112  0.0690 -0.4544  0.0540
 2372TIP3    H1 7055   7.729   2.547   2.143 -1.3868 -0.7403  1.2778
 2372TIP3    H2 7056   7.681   2.683   2.190 -0.6251  0.1259 -0.4042
 2373TIP3   OH2 7057   1.507   1.372   5.410 -0.2779  0.4456  0.5540
 2373TIP3    H1 7058   1.417   1.390   5.384 -0.2990  0.2557  0.4897
 2373TIP3    H2 7059   1.515   1.406   5.499 -0.7241 -0.4980  0.9589
 2374TIP3   OH2 7060   7.818   2.181   6.479 -0.3115 -0.1946  0.1192
 2374TIP3    H1 7061   7.733   2.138   6.486  0.3540 -1.3676  1.1677
 2374TIP3    H2 7062   7.869   2.146   6.553  0.7043  1.3437  0.1719
 2375TIP3   OH2 7063   1.245   2.397   2.099  0.6060  0.3431  0.0166
 2375TIP3    H1 7064   1.316   2.336   2.081 -1.4445 -2.6459  1.6828
 2375TIP3    H2 7065   1.184   2.385   2.027  0.6472  1.1963 -0.1690
 2376TIP3   OH2 7066   0.758   1.872   2.793 -0.1438 -0.1791  0.3685
 2376TIP3    H1 7067   0.731   1.932   2.862 -1.2962 -1.1428  0.7597
 2376TIP3    H2 7068   0.795   1.929   2.726 -3.3453  1.2240 -0.3052
 2377TIP3   OH2 7069   8.181   1.636   4.559 -0.5206  0.0759 -0.1631
 2377TIP3    H1 7070   8.091   1.643   4.528 -1.1964 -0.0188  1.6821
 2377TIP3    H2 7071   8.179   1.564   4.622  0.6922  0.5359  0.4182
 2378TIP3   OH2 7072   0.781   1.005   5.021 -0.6879  0.5905  0.6676
 2378TIP3    H1 7073   0.763   1.089   4.978 -0.8431  0.7299  1.0033
 2378TIP3    H2 7074   0.795   1.028   5.113 -0.7264  0.2466  0.7592
 2379TIP3   OH2 7075   6.970   7.720   2.597  0.0010  0.5798 -0.3020
 2379TIP3    H1 7076   6.957   7.635   2.555  1.1010  0.7425 -1.0092
 2379TIP3    H2 7077   6.882   7.752   2.613 -0.4408 -0.0392 -1.3904
 2380TIP3   OH2 7078   3.501   1.233   2.181 -0.3011  0.0914 -0.3651
 2380TIP3    H1 7079   3.485   1.290   2.256  1.6536  0.3080 -0.0679
 2380TIP3    H2 7080   3.506   1.145   2.219  0.6685  0.1988 -0.2284
 2381TIP3   OH2 7081   3.030   1.515   2.487  0.5306  0.2351 -0.0074
 2381TIP3    H1 7082   3.018   1.481   2.576  1.4536 -0.3564 -0.1060
 2381TIP3    H2 7083   3.079   1.596   2.499  1.0639 -0.0820 -0.0010
 2382TIP3   OH2 7084   3.202   2.776   1.925 -0.1677  0.4608  0.0515
 2382TIP3    H1 7085   3.256   2.852   1.904 -0.9799  1.4858  1.6121
 2382TIP3    H2 7086   3.116   2.797   1.888 -0.2022  0.0069 -0.1219
 2383TIP3   OH2 7087   8.119   2.058   2.178  0.4304 -0.1657 -0.8015
 2383TIP3    H1 7088   8.041   2.003   2.193  0.1769  0.1637 -0.9046
 2383TIP3    H2 7089   8.093   2.144   2.210  1.7963 -0.7420  2.0503
 2384TIP3   OH2 7090   1.503   0.957   4.860  0.1810  0.1512  0.0708
 2384TIP3    H1 7091   1.461   0.967   4.774  0.3454 -3.0286 -0.4315
 2384TIP3    H2 7092   1.596   0.966   4.842  0.3661 -2.6298 -0.4623
 2385TIP3   OH2 7093   0.337   3.658   4.621  0.3428 -0.1784 -0.3881
 2385TIP3    H1 7094   0.288   3.619   4.693 -0.6726 -0.0076 -0.9813
 2385TIP3    H2 7095   0.301   3.617   4.542  1.1660 -0.0686 -0.8272
 2386TIP3   OH2 7096   0.755   2.388   4.570  0.0986  0.0507 -0.1559
 2386TIP3    H1 7097   0.817   2.418   4.636 -1.3803 -0.2187  1.3997
 2386TIP3    H2 7098   0.693   2.461   4.561 -0.8455 -0.6742  0.2570
 2387TIP3   OH2 7099   4.156   0.765   2.212 -0.0566  0.3325 -0.4726
 2387TIP3    H1 7100   4.064   0.786   2.193  0.2228  0.8139 -1.3203
 2387TIP3    H2 7101   4.152   0.692   2.274 -1.0054 -0.0299 -0.9542
 2388TIP3   OH2 7102   2.478   1.678   5.095  0.0090  0.2559  0.2797
 2388TIP3    H1 7103   2.479   1.733   5.174  0.8979  0.9730 -0.2199
 2388TIP3    H2 7104   2.394   1.632   5.099 -0.4382  1.1196  1.0827
 2389TIP3   OH2 7105   3.414   1.605   3.371  0.1809  0.3332 -0.1585
 2389TIP3    H1 7106   3.373   1.684   3.336  0.0465  0.6339  0.6444
 2389TIP3    H2 7107   3.471   1.637   3.441 -1.6963 -0.4864  1.7916
 2390TIP3   OH2 7108   2.021   1.928   3.566  0.3160  0.8558  0.1110
 2390TIP3    H1 7109   2.032   2.004   3.623 -1.4848  0.5681  0.8886
 2390TIP3    H2 7110   2.104   1.919   3.521  0.6015  3.2043  0.1208
 2391TIP3   OH2 7111   1.072   4.669   3.031  0.2015  0.1945 -0.2154
 2391TIP3    H1 7112   1.091   4.697   2.941 -2.3914 -0.3085 -0.9673
 2391TIP3    H2 7113   0.976   4.666   3.035  0.3293 -3.0711  1.5499
 2392TIP3   OH2 7114   7.203   7.927   3.016 -0.4615  0.1344  0.3258
 2392TIP3    H1 7115   7.154   7.965   2.943  0.0692  0.4787  0.1437
 2392TIP3    H2 7116   7.200   7.833   3.001  0.6619  0.2623 -0.8033
 2393TIP3   OH2 7117   1.132   2.022   2.537  0.0112 -0.1187 -0.5084
 2393TIP3    H1 7118   1.156   2.000   2.446 -1.0347  1.8674 -1.2899
 2393TIP3    H2 7119   1.036   2.025   2.536 -0.0255 -0.5139  0.7832
 2394TIP3   OH2 7120   0.218   0.159   4.582 -0.0404 -0.7116 -0.0968
 2394TIP3    H1 7121   0.223   0.063   4.581  0.5375 -0.6870  0.1729
 2394TIP3    H2 7122   0.206   0.181   4.675  0.3525 -0.4984 -0.0973
 2395TIP3   OH2 7123   1.541   0.549   4.105  0.4344 -0.0938  0.8948
 2395TIP3    H1 7124   1.471   0.564   4.169  0.9430  2.2712  0.9616
 2395TIP3    H2 7125   1.613   0.513   4.157 -0.6813 -2.4450  0.8420
 2396TIP3   OH2 7126   0.028   1.300   5.597 -0.3489 -0.3435  0.8701
 2396TIP3    H1 7127   0.095   1.293   5.665 -1.4345 -1.4446  1.8865
 2396TIP3    H2 7128  -0.038   1.359   5.635  0.3059  1.1908 -0.3530
 2397TIP3   OH2 7129   0.226   1.712   4.440  0.2782  0.2846  0.5722
 2397TIP3    H1 7130   0.186   1.626   4.428  0.8393  0.1320 -0.3130
 2397TIP3    H2 7131   0.241   1.744   4.351  0.3552  1.1659  0.8937
 2398TIP3   OH2 7132   7.609   2.133   6.080 -0.4988 -0.0456  0.5407
 2398TIP3    H1 7133   7.619   2.121   5.986  1.6302 -2.2165  1.0007
 2398TIP3    H2 7134   7.628   2.226   6.094 -2.4283  0.6615 -1.3320
 2399TIP3   OH2 7135   8.457   2.786   4.646 -0.2033 -0.1929 -0.0933
 2399TIP3    H1 7136   8.457   2.696   4.612  0.9749 -0.2823  0.1101
 2399TIP3    H2 7137   8.538   2.792   4.696 -0.4126  0.9106  0.1181
 2400TIP3   OH2 7138   7.781   5.072   3.311  0.4055 -0.1969 -0.6987
 2400TIP3    H1 7139   7.718   5.120   3.366  2.0579 -0.1894  1.2551
 2400TIP3    H2 7140   7.816   5.138   3.252 -0.1461  0.1814 -0.6093
 2401TIP3   OH2 7141   2.567   2.108   3.449  0.2278  0.4288 -0.1045
 2401TIP3    H1 7142   2.641   2.160   3.482  0.5784  0.3439 -0.7475
 2401TIP3    H2 7143   2.587   2.019   3.477 -0.4496  0.6426  1.1310
 2402TIP3   OH2 7144   1.064   2.692   2.566 -0.1177  0.0731  0.3753
 2402TIP3    H1 7145   1.103   2.607   2.588 -1.0703 -0.3079  0.6234
 2402TIP3    H2 7146   0.970   2.675   2.563 -0.4324  1.4632  1.9483
 2403TIP3   OH2 7147   2.060   0.129   2.441 -0.0064  0.7256  0.4483
 2403TIP3    H1 7148   2.122   0.128   2.368 -0.9836 -0.4962 -0.3703
 2403TIP3    H2 7149   2.112   0.161   2.515  1.1734  1.2906 -0.5981
 2404TIP3   OH2 7150   1.831   2.357   3.331  0.0030 -0.2114 -0.6503
 2404TIP3    H1 7151   1.790   2.324   3.411 -0.1813 -2.0904 -1.4961
 2404TIP3    H2 7152   1.919   2.320   3.331 -0.4910 -1.4196 -2.0315
 2405TIP3   OH2 7153   0.368   2.605   5.376 -0.1650  0.4230  0.1955
 2405TIP3    H1 7154   0.377   2.686   5.427 -2.6842 -0.1758  1.6999
 2405TIP3    H2 7155   0.275   2.603   5.352  0.3855 -0.8314 -1.8743
 2406TIP3   OH2 7156   2.428   1.187   4.896 -0.0409  0.1501  0.1522
 2406TIP3    H1 7157   2.399   1.123   4.831  0.2352  0.6525 -0.4740
 2406TIP3    H2 7158   2.476   1.252   4.845  1.0971 -0.0165  1.0154
 2407TIP3   OH2 7159   8.344   1.784   3.371 -0.0651  0.0522  0.7561
 2407TIP3    H1 7160   8.268   1.800   3.316 -0.1532 -1.4284  0.4211
 2407TIP3    H2 7161   8.414   1.835   3.332 -0.8939  1.4593  1.0957
 2408TIP3   OH2 7162   8.168   1.849   3.182 -0.3511 -0.0334  0.3809
 2408TIP3    H1 7163   8.081   1.884   3.201 -0.5638 -0.6954  0.6372
 2408TIP3    H2 7164   8.153   1.780   3.117 -0.0325 -0.2198  0.5003
 2409TIP3   OH2 7165   2.771   5.251   1.025  0.4400 -0.2827  0.3400
 2409TIP3    H1 7166   2.819   5.171   1.001  0.3542 -0.7420  1.7029
 2409TIP3    H2 7167   2.686   5.219   1.056  0.6146  0.3008  1.4238
 2410TIP3   OH2 7168   1.453   0.083   5.029 -0.6517 -0.5732  0.1790
 2410TIP3    H1 7169   1.540   0.053   5.005 -0.5209 -0.5359  0.6022
 2410TIP3    H2 7170   1.412   0.105   4.946  0.6416  1.8502  0.1393
 2411TIP3   OH2 7171   2.123   1.556   1.790  0.4001 -0.2295  0.1412
 2411TIP3    H1 7172   2.078   1.604   1.859  0.2178  0.4044 -0.4082
 2411TIP3    H2 7173   2.216   1.578   1.803  0.3552 -0.0213  0.1218
 2412TIP3   OH2 7174   0.189   1.616   3.292  0.2192 -0.5507 -0.5246
 2412TIP3    H1 7175   0.157   1.642   3.206  0.4790 -0.6997 -0.6665
 2412TIP3    H2 7176   0.284   1.624   3.286  0.2543 -0.8209 -0.3379
 2413TIP3   OH2 7177   2.647   5.461   0.429 -0.1973 -0.4053  0.2456
 2413TIP3    H1 7178   2.693   5.418   0.357 -0.6222 -0.5113  0.0369
 2413TIP3    H2 7179   2.565   5.412   0.437  0.6427 -1.5774  2.0103
 2414TIP3   OH2 7180   1.383   3.428   4.387  0.0340  0.1445 -0.4845
 2414TIP3    H1 7181   1.350   3.391   4.305  0.4004 -0.5158 -0.3375
 2414TIP3    H2 7182   1.478   3.422   4.380  0.0536 -0.6245  0.3057
 2415TIP3   OH2 7183   0.615   2.924   3.377 -0.1704 -0.0978  0.1519
 2415TIP3    H1 7184   0.573   2.839   3.369 -0.6668 -0.3227  4.0583
 2415TIP3    H2 7185   0.703   2.911   3.341  0.1438 -2.6361  1.6782
 2416TIP3   OH2 7186   7.494   7.494   3.766 -0.7465  0.2656  0.1126
 2416TIP3    H1 7187   7.420   7.495   3.706  0.3535  0.3947 -1.2625
 2416TIP3    H2 7188   7.490   7.408   3.808 -2.2635  0.6630  0.8095
 2417TIP3   OH2 7189   7.950   1.680   5.949  0.4495  0.6217 -0.3962
 2417TIP3    H1 7190   7.960   1.749   6.015  0.3419  1.4449 -1.2390
 2417TIP3    H2 7191   7.856   1.674   5.934  0.5866  1.6500 -1.7487
 2418TIP3   OH2 7192   1.175   1.011   5.179  0.5416 -0.2155 -0.3683
 2418TIP3    H1 7193   1.243   1.049   5.123 -1.3499  1.1443 -1.8220
 2418TIP3    H2 7194   1.114   0.971   5.117 -1.7468  1.5632  0.6805
 2419TIP3   OH2 7195   7.601   0.469   4.559  0.3538 -0.0182 -0.1548
 2419TIP3    H1 7196   7.666   0.399   4.556  0.7518  0.4023 -5.4153
 2419TIP3    H2 7197   7.521   0.429   4.526 -0.3491  1.1110  0.1574
 2420TIP3   OH2 7198   7.688   7.824   3.813  0.2522 -0.0895 -0.0926
 2420TIP3    H1 7199   7.612   7.825   3.871  0.8068 -0.5177  0.6576
 2420TIP3    H2 7200   7.708   7.731   3.801  1.5336  0.0308  0.9141
 2421TIP3   OH2 7201   8.498   1.161   2.316 -0.5258  0.2532  0.3120
 2421TIP3    H1 7202   8.525   1.136   2.228  0.7448  1.9446  0.2046
 2421TIP3    H2 7203   8.407   1.133   2.323 -1.0951  1.4569 -2.0518
 2422TIP3   OH2 7204   6.656   3.749   4.070  0.6104 -0.7104 -0.2610
 2422TIP3    H1 7205   6.641   3.767   3.977  1.1340  0.0534 -0.1996
 2422TIP3    H2 7206   6.582   3.693   4.095 -1.4530  1.8628 -0.3002
 2423TIP3   OH2 7207   4.285   0.559   3.023 -0.0203  0.1160 -0.5516
 2423TIP3    H1 7208   4.237   0.515   2.953  0.7009 -0.6263 -0.5896
 2423TIP3    H2 7209   4.229   0.632   3.049 -1.6158 -1.2967  0.0737
 2424TIP3   OH2 7210   2.266   1.140   2.308 -0.3668 -0.4770  0.2540
 2424TIP3    H1 7211   2.208   1.073   2.271 -0.5380  0.4179 -1.1371
 2424TIP3    H2 7212   2.310   1.179   2.232  1.7533 -0.8489  1.2596
 2425TIP3   OH2 7213   3.478   4.545   0.155 -0.9406 -0.7063  0.3693
 2425TIP3    H1 7214   3.455   4.469   0.100 -1.3498 -0.5692  0.3436
 2425TIP3    H2 7215   3.571   4.535   0.172 -0.5936 -0.2303 -1.1676
 2426TIP3   OH2 7216   1.705   2.828   3.786 -0.3429  0.2016  0.5097
 2426TIP3    H1 7217   1.665   2.903   3.741 -0.4870  0.0221  0.3342
 2426TIP3    H2 7218   1.783   2.807   3.733 -0.4031  0.1144  0.4548
 2427TIP3   OH2 7219   3.041   2.754   4.397  0.0710  0.2593 -0.9597
 2427TIP3    H1 7220   3.056   2.796   4.312 -2.3167  0.5174 -1.2950
 2427TIP3    H2 7221   2.952   2.779   4.420  0.2964 -0.7589  1.0967
 2428TIP3   OH2 7222   8.013   1.380   3.743 -0.6581 -0.5278  0.0670
 2428TIP3    H1 7223   8.094   1.422   3.715 -0.7945  1.5203  2.5941
 2428TIP3    H2 7224   8.041   1.296   3.780  0.0862 -0.7262 -0.9442
 2429TIP3   OH2 7225   2.748   2.088   2.182 -0.5695 -0.4786 -0.3009
 2429TIP3    H1 7226   2.806   2.066   2.108  0.6238 -0.6471  0.6742
 2429TIP3    H2 7227   2.807   2.117   2.251 -1.7995  1.1556  0.0927
 2430TIP3   OH2 7228   2.546   3.228   4.105 -0.1703  0.0322 -0.0607
 2430TIP3    H1 7229   2.508   3.306   4.065  0.7273  0.0533 -0.8927
 2430TIP3    H2 7230   2.561   3.253   4.196  0.1869  0.8597 -0.3424
 2431TIP3   OH2 7231   0.873   1.673   2.174  0.0864  0.0143  0.6932
 2431TIP3    H1 7232   0.908   1.628   2.251  0.8171  0.5003  0.6468
 2431TIP3    H2 7233   0.786   1.634   2.162  0.8179 -1.5854  0.4670
 2432TIP3   OH2 7234   3.404   2.269   2.532  1.1403  0.0219 -0.0389
 2432TIP3    H1 7235   3.367   2.305   2.451  0.7098 -2.0239 -0.7668
 2432TIP3    H2 7236   3.487   2.230   2.505  1.4223  0.1198  0.6788
 2433TIP3   OH2 7237   5.630   5.705   0.239  0.0147  0.2934 -0.1019
 2433TIP3    H1 7238   5.587   5.658   0.311  0.9686 -1.3575 -0.5923
 2433TIP3    H2 7239   5.562   5.713   0.172 -0.5437  0.8152  0.5199
 2434TIP3   OH2 7240   1.955   2.637   3.322 -0.2468 -0.0759  0.0678
 2434TIP3    H1 7241   1.904   2.556   3.329 -0.4782 -0.0748 -1.3975
 2434TIP3    H2 7242   2.036   2.618   3.369  0.4110 -1.7746 -1.6904
 2435TIP3   OH2 7243   2.870   0.091   4.582 -0.0623 -0.0114  0.5077
 2435TIP3    H1 7244   2.794   0.116   4.529 -0.1573  0.7437  0.9937
 2435TIP3    H2 7245   2.834   0.076   4.670  0.1424 -0.9679  0.4343
 2436TIP3   OH2 7246   6.586   7.621   4.983  0.0687  0.1000  0.5757
 2436TIP3    H1 7247   6.649   7.659   5.045 -1.1383  1.1841  1.1508
 2436TIP3    H2 7248   6.501   7.648   5.016 -0.7443 -1.8632  0.1290
 2437TIP3   OH2 7249   2.432   1.592   3.676  0.5059  0.2669  0.6086
 2437TIP3    H1 7250   2.468   1.509   3.708 -0.0985 -0.3954 -0.4156
 2437TIP3    H2 7251   2.504   1.654   3.686  1.9788 -1.0576 -1.4366
 2438TIP3   OH2 7252   3.074   0.198   2.340 -0.1673  0.1098  0.3874
 2438TIP3    H1 7253   3.159   0.243   2.339 -0.2178  0.2523  1.5037
 2438TIP3    H2 7254   3.033   0.228   2.421 -1.7434  0.8993 -0.6893
 2439TIP3   OH2 7255   7.459   2.586   5.539  0.1108  0.2699  0.3060
 2439TIP3    H1 7256   7.554   2.579   5.538  0.1823  0.9326  1.1169
 2439TIP3    H2 7257   7.437   2.594   5.632 -0.7232  0.2116  0.1148
 2440TIP3   OH2 7258   2.639   1.536   2.205 -0.0608 -0.0940  0.3683
 2440TIP3    H1 7259   2.725   1.508   2.238 -0.2605  0.1225  1.0763
 2440TIP3    H2 7260   2.643   1.631   2.206  0.9979 -0.0182 -3.0199
 2441TIP3   OH2 7261   0.321   2.131   3.176  0.4009  0.0942 -0.6327
 2441TIP3    H1 7262   0.306   2.215   3.134 -2.2759 -0.3847 -0.7147
 2441TIP3    H2 7263   0.403   2.143   3.225  0.4171  2.5022 -1.1778
 2442TIP3   OH2 7264   8.049   0.325   4.595  1.2117  0.6061 -0.4331
 2442TIP3    H1 7265   8.030   0.328   4.501  2.2238  0.3684 -0.6506
 2442TIP3    H2 7266   8.037   0.416   4.624 -0.3596  0.4427 -0.5291
 2443TIP3   OH2 7267   8.088   2.704   3.947 -0.5757  0.7676 -0.3819
 2443TIP3    H1 7268   8.015   2.655   3.910 -0.6606 -0.4070  1.3001
 2443TIP3    H2 7269   8.086   2.788   3.901 -1.1071 -0.3725 -2.4975
 2444TIP3   OH2 7270   0.248   1.953   2.987  0.3962 -0.1548 -0.0455
 2444TIP3    H1 7271   0.207   1.872   3.017  2.0226 -0.9165  0.2096
 2444TIP3    H2 7272   0.273   1.999   3.067 -2.3602  1.6287 -0.1349
 2445TIP3   OH2 7273   3.212   1.199   3.107 -0.7618 -0.4251  0.9486
 2445TIP3    H1 7274   3.275   1.135   3.139  0.3686  0.3667  0.3284
 2445TIP3    H2 7275   3.240   1.282   3.145 -1.4913 -0.0826  0.7556
 2446TIP3   OH2 7276   7.744   4.241   4.181  0.4702  0.9602 -0.2462
 2446TIP3    H1 7277   7.678   4.303   4.148  0.3827  1.0481  0.0913
 2446TIP3    H2 7278   7.787   4.209   4.103 -2.7875 -2.3001 -0.8361
 2447TIP3   OH2 7279   8.303   3.252   5.272  0.1973  0.5844  0.1043
 2447TIP3    H1 7280   8.213   3.284   5.258  0.1655  0.8404  0.8372
 2447TIP3    H2 7281   8.293   3.157   5.282  0.0919  0.5322 -0.4780
 2448TIP3   OH2 7282   1.368   4.330   4.948  0.1952 -0.0853 -0.3055
 2448TIP3    H1 7283   1.321   4.247   4.950  3.0028 -1.7515 -1.1492
 2448TIP3    H2 7284   1.378   4.354   5.041 -1.4067 -0.2123 -0.0953
 2449TIP3   OH2 7285   6.478   1.189   3.989 -0.3196  0.0130 -0.4180
 2449TIP3    H1 7286   6.542   1.191   3.918 -0.0439  2.1635 -0.1273
 2449TIP3    H2 7287   6.447   1.279   3.997 -2.0051 -0.6303  0.7116
 2450TIP3   OH2 7288   1.268   4.161   2.148 -0.2348  0.8270 -0.3485
 2450TIP3    H1 7289   1.353   4.196   2.173  0.4807 -1.1233  0.0635
 2450TIP3    H2 7290   1.273   4.151   2.053  1.4117 -2.7266  0.0343
 2451TIP3   OH2 7291   0.114   3.104   2.117  0.4887 -0.2973 -0.2071
 2451TIP3    H1 7292   0.079   3.187   2.151 -0.6140 -0.6967 -0.3320
 2451TIP3    H2 7293   0.167   3.069   2.189  0.8582  0.4507 -0.1093
 2452TIP3   OH2 7294   1.210   0.462   0.729 -0.4216 -0.8478 -0.5314
 2452TIP3    H1 7295   1.251   0.523   0.791  0.4822 -1.0274 -0.9553
 2452TIP3    H2 7296   1.151   0.409   0.783 -1.3089  0.4651 -0.1712
 2453TIP3   OH2 7297   0.363   1.922   4.825 -0.5635  0.4051  0.2632
 2453TIP3    H1 7298   0.442   1.888   4.867 -0.8157 -0.0398  0.3766
 2453TIP3    H2 7299   0.317   1.845   4.794 -1.2000  0.6269  0.6319
 2454TIP3   OH2 7300   4.168   1.458   3.734  0.1145 -0.4180  0.2712
 2454TIP3    H1 7301   4.073   1.451   3.727 -0.1172  2.1973  0.3421
 2454TIP3    H2 7302   4.202   1.409   3.659 -1.3866  1.2797 -1.5382
 2455TIP3   OH2 7303   2.371   0.524   2.754  0.4556 -0.4404  0.5171
 2455TIP3    H1 7304   2.463   0.549   2.760  0.2955  0.0657  0.9509
 2455TIP3    H2 7305   2.333   0.584   2.690  0.4642 -0.7705  0.1986
 2456TIP3   OH2 7306   2.157   1.881   4.598 -0.1098 -0.8250 -0.0599
 2456TIP3    H1 7307   2.123   1.793   4.616 -2.4990  0.5114  2.3789
 2456TIP3    H2 7308   2.236   1.887   4.652  1.6398 -2.4130 -2.3775
 2457TIP3   OH2 7309   1.821   3.169   1.218 -0.4454  0.3499 -0.6021
 2457TIP3    H1 7310   1.822   3.133   1.306 -0.4746 -0.5164 -0.9562
 2457TIP3    H2 7311   1.913   3.184   1.197 -0.4558  0.8618 -0.3094
 2458TIP3   OH2 7312   0.741   7.946   5.811 -0.1162  0.1019 -0.2563
 2458TIP3    H1 7313   0.688   7.867   5.806 -0.4330  0.3506 -0.7794
 2458TIP3    H2 7314   0.717   7.996   5.734  0.3606  0.5394 -0.1198
 2459TIP3   OH2 7315   0.703   1.516   5.963 -0.6868 -0.0897  0.2832
 2459TIP3    H1 7316   0.704   1.428   6.003 -2.4647 -0.5450 -0.6192
 2459TIP3    H2 7317   0.739   1.573   6.030  0.0588 -1.4411  1.0629
 2460TIP3   OH2 7318   2.379   1.168   2.715  0.0596  0.1694 -0.3083
 2460TIP3    H1 7319   2.427   1.102   2.765 -0.9623  0.7227  1.4847
 2460TIP3    H2 7320   2.344   1.228   2.782 -0.2969  1.6640 -1.7901
 2461TIP3   OH2 7321   0.638   7.963   2.894 -0.0335 -0.2166  0.3188
 2461TIP3    H1 7322   0.589   7.970   2.812 -0.3140 -0.5771  0.4526
 2461TIP3    H2 7323   0.721   8.009   2.877 -1.2133  2.1504  0.7186
 2462TIP3   OH2 7324   2.664   0.448   1.912  0.2443  0.3242 -0.0964
 2462TIP3    H1 7325   2.586   0.421   1.862  0.7118 -0.4249 -0.4323
 2462TIP3    H2 7326   2.675   0.380   1.978  0.8333  0.2366 -0.2869
 2463TIP3   OH2 7327   1.806   1.288   4.614  0.0807  0.2981  0.3428
 2463TIP3    H1 7328   1.829   1.362   4.558  1.4962 -1.0779 -0.9242
 2463TIP3    H2 7329   1.874   1.287   4.682  0.2646 -0.0522  0.1549
 2464TIP3   OH2 7330   1.572   3.006   3.422 -0.1304 -0.0758  0.5748
 2464TIP3    H1 7331   1.522   2.929   3.449  1.0790 -1.6456 -1.4969
 2464TIP3    H2 7332   1.604   3.044   3.504  0.0661 -2.3335  1.5680
 2465TIP3   OH2 7333   0.129   7.946   1.993  0.1965 -0.2784 -0.0917
 2465TIP3    H1 7334   0.116   7.858   1.959  0.0859  0.6717 -2.6130
 2465TIP3    H2 7335   0.195   7.936   2.063  0.5549 -2.2668 -0.6992
 2466TIP3   OH2 7336   1.483   0.908   2.602  0.5056 -0.3252  0.5490
 2466TIP3    H1 7337   1.473   0.815   2.624  0.5988 -1.0006 -2.1571
 2466TIP3    H2 7338   1.408   0.928   2.546  0.2550  1.3619  1.4518
 2467TIP3   OH2 7339   3.695   0.785   5.526  0.1566  0.0756 -0.6268
 2467TIP3    H1 7340   3.667   0.704   5.570  3.2725  0.2015  1.7001
 2467TIP3    H2 7341   3.621   0.844   5.536 -1.4600 -1.8554 -0.7702
 2468TIP3   OH2 7342   2.806   2.235   4.882 -0.1594  0.0812  0.2031
 2468TIP3    H1 7343   2.819   2.324   4.852 -1.7412  0.3852  0.3674
 2468TIP3    H2 7344   2.893   2.196   4.881  0.3968  1.3248 -0.7967
 2469TIP3   OH2 7345   1.973   1.799   3.939  0.2492 -0.0625 -0.0760
 2469TIP3    H1 7346   1.989   1.740   3.866  0.6921 -0.1268  0.0691
 2469TIP3    H2 7347   1.959   1.741   4.014  0.5093  0.0140  0.0318
 2470TIP3   OH2 7348   2.254   7.548   4.172  0.6802  0.2512 -0.2181
 2470TIP3    H1 7349   2.240   7.461   4.133  0.2051 -0.1153  0.7342
 2470TIP3    H2 7350   2.309   7.594   4.109 -0.2931 -0.2264 -1.4453
 2471TIP3   OH2 7351   3.154   0.256   2.947 -0.2145  0.2297  0.0639
 2471TIP3    H1 7352   3.247   0.263   2.967 -0.4622  0.8618  1.0206
 2471TIP3    H2 7353   3.116   0.207   3.019 -0.8441  1.1495  0.3775
 2472TIP3   OH2 7354   3.959   1.850   3.595  0.3122  0.6163 -0.2393
 2472TIP3    H1 7355   3.926   1.760   3.594 -1.6234  1.2687  0.8193
 2472TIP3    H2 7356   3.931   1.886   3.511 -0.0842  0.6178 -0.1092
 2473TIP3   OH2 7357   1.853   0.903   3.323 -0.0156  0.0367  0.3557
 2473TIP3    H1 7358   1.849   0.830   3.385 -1.5298 -0.8494 -0.7446
 2473TIP3    H2 7359   1.940   0.940   3.335  0.7618 -1.9192  0.9960
 2474TIP3   OH2 7360   8.051   1.207   4.180 -0.0593 -0.3810  0.0244
 2474TIP3    H1 7361   7.956   1.202   4.192  0.2000 -0.3353  2.2257
 2474TIP3    H2 7362   8.062   1.260   4.101 -1.8319  1.4437  0.9483
 2475TIP3   OH2 7363   4.192   0.736   4.096  0.5608 -0.6751  0.2643
 2475TIP3    H1 7364   4.218   0.683   4.171  0.7483  0.9574  1.3637
 2475TIP3    H2 7365   4.154   0.815   4.134  1.7467  0.7072 -1.3744
 2476TIP3   OH2 7366   0.269   1.754   4.162 -0.0340 -0.4265  0.0976
 2476TIP3    H1 7367   0.354   1.746   4.118 -0.7229 -0.7526 -1.1738
 2476TIP3    H2 7368   0.248   1.847   4.158  0.4763 -0.2728  0.8319
 2477TIP3   OH2 7369   3.722   2.355   3.403 -0.3472 -0.5676 -0.0054
 2477TIP3    H1 7370   3.690   2.286   3.461 -0.9212 -1.6029 -1.5214
 2477TIP3    H2 7371   3.812   2.331   3.383  0.2660  0.4613  1.4339
 2478TIP3   OH2 7372   0.219   1.767   2.738  0.4677  0.4241  0.1732
 2478TIP3    H1 7373   0.248   1.771   2.647 -2.2657  0.4716 -0.7437
 2478TIP3    H2 7374   0.255   1.847   2.778 -0.8436  1.9790 -1.6652
 2479TIP3   OH2 7375   3.971   1.479   4.783 -0.1948  0.5653 -0.2372
 2479TIP3    H1 7376   3.940   1.538   4.713  0.9517 -0.9228 -2.0507
 2479TIP3    H2 7377   3.923   1.398   4.768  1.7388 -0.5087 -0.7170
 2480TIP3   OH2 7378   2.223   0.687   3.015 -0.1826 -0.1192  0.1138
 2480TIP3    H1 7379   2.299   0.630   3.013  0.6318  0.9380  0.3095
 2480TIP3    H2 7380   2.215   0.720   2.925  0.7776  1.2855  0.5247
 2481TIP3   OH2 7381   1.108   7.459   3.138 -0.3943 -0.3802 -0.0722
 2481TIP3    H1 7382   1.023   7.470   3.093 -0.6768 -2.2220 -0.0269
 2481TIP3    H2 7383   1.124   7.365   3.135 -0.3019 -0.5408  3.5189
 2482TIP3   OH2 7384   1.355   2.615   3.892 -0.0739 -0.3382 -0.4691
 2482TIP3    H1 7385   1.418   2.583   3.828  1.1082 -0.1555  0.6051
 2482TIP3    H2 7386   1.406   2.631   3.971 -0.7406  3.3495 -0.6675
 2483TIP3   OH2 7387   4.110   2.871   2.750 -0.2508  0.3855 -0.1856
 2483TIP3    H1 7388   4.066   2.865   2.666 -2.0040  2.2481  0.5508
 2483TIP3    H2 7389   4.039   2.861   2.815  1.0713 -1.0953  1.0853
 2484TIP3   OH2 7390   7.919   7.931   1.373 -0.8040  0.6662  0.0277
 2484TIP3    H1 7391   7.929   7.907   1.280 -0.0392  2.1064 -0.2697
 2484TIP3    H2 7392   7.824   7.939   1.385 -1.0810 -2.2486  0.0832
 2485TIP3   OH2 7393   2.473   2.791   3.857  0.2593 -0.2353  0.4483
 2485TIP3    H1 7394   2.398   2.740   3.827 -0.9748  2.1514 -0.7107
 2485TIP3    H2 7395   2.452   2.815   3.947 -0.5753  0.7157  0.0170
 2486TIP3   OH2 7396   4.977   2.710   3.905 -0.5785  0.0411  0.2887
 2486TIP3    H1 7397   4.971   2.634   3.847 -0.2721  0.2277  0.0097
 2486TIP3    H2 7398   5.055   2.693   3.958 -0.6286  0.0627  0.3695
 2487TIP3   OH2 7399   4.240   0.146   3.224 -0.4625 -0.6282  0.2992
 2487TIP3    H1 7400   4.184   0.075   3.193 -0.3993 -0.6048  0.1273
 2487TIP3    H2 7401   4.195   0.226   3.197 -1.2014 -0.5756  1.6590
 2488TIP3   OH2 7402   4.826   1.134   2.302  0.3458  0.3409  0.4479
 2488TIP3    H1 7403   4.897   1.134   2.238 -1.5564 -3.7273 -1.8643
 2488TIP3    H2 7404   4.748   1.157   2.252 -0.8946 -1.1437  1.6370
 2489TIP3   OH2 7405   2.723   2.089   1.525  0.2791  0.2063 -0.0692
 2489TIP3    H1 7406   2.693   2.178   1.509 -0.2143  0.0320 -0.1258
 2489TIP3    H2 7407   2.699   2.071   1.616  0.2072  0.0613 -0.1169
 2490TIP3   OH2 7408   6.433   7.410   2.936  0.6184  0.9722 -0.1672
 2490TIP3    H1 7409   6.385   7.423   3.018  1.7931 -0.6787  0.8101
 2490TIP3    H2 7410   6.517   7.452   2.951  0.3000  1.9683 -1.0934
 2491TIP3   OH2 7411   3.936   3.928   4.061  0.0507  0.0179  0.5896
 2491TIP3    H1 7412   3.917   3.910   4.154 -0.6798 -0.1221  0.4204
 2491TIP3    H2 7413   3.887   4.008   4.043  3.0990  2.1262  1.2814
 2492TIP3   OH2 7414   2.761   3.034   2.628 -0.1689 -0.0117  0.2691
 2492TIP3    H1 7415   2.741   3.103   2.565  1.0537  0.6357  0.5627
 2492TIP3    H2 7416   2.831   3.071   2.682 -0.6172 -0.8755  1.4657
 2493TIP3   OH2 7417   3.688   1.373   3.879 -0.1564 -0.4002  0.5593
 2493TIP3    H1 7418   3.764   1.402   3.829 -0.4060 -1.2184 -0.3202
 2493TIP3    H2 7419   3.711   1.391   3.970  2.2568 -3.1301  0.5833
 2494TIP3   OH2 7420   3.304   1.628   0.684  0.6467  0.7982 -0.0257
 2494TIP3    H1 7421   3.234   1.690   0.667  0.0132  0.4615  1.2968
 2494TIP3    H2 7422   3.283   1.552   0.628 -0.3762  0.4583  0.8089
 2495TIP3   OH2 7423   3.602   0.984   3.153 -0.2713 -0.2055 -0.1419
 2495TIP3    H1 7424   3.690   1.016   3.175 -0.1653 -1.0583  0.7097
 2495TIP3    H2 7425   3.544   1.028   3.214 -0.3941  0.0989 -0.4803
 2496TIP3   OH2 7426   1.551   1.348   3.922  0.3465 -0.4926 -0.0535
 2496TIP3    H1 7427   1.614   1.338   3.850 -0.3528 -0.5518 -0.6677
 2496TIP3    H2 7428   1.536   1.442   3.927  0.0684 -0.5253 -0.2713
 2497TIP3   OH2 7429   1.113   2.269   5.536  0.2015  0.0167  0.1243
 2497TIP3    H1 7430   1.100   2.264   5.630  0.2544 -1.7585  0.0543
 2497TIP3    H2 7431   1.203   2.238   5.522  0.0114 -0.2506 -0.5435
 2498TIP3   OH2 7432   2.759   0.441   2.413  0.0344 -0.2141 -0.6411
 2498TIP3    H1 7433   2.710   0.380   2.359 -0.2359 -0.1782 -0.4401
 2498TIP3    H2 7434   2.709   0.523   2.409  0.6630  0.1464 -1.3151
 2499TIP3   OH2 7435   4.926   0.765   1.744  0.0995  0.3701 -0.0346
 2499TIP3    H1 7436   4.941   0.674   1.768  2.4173  1.0525  1.2614
 2499TIP3    H2 7437   4.838   0.784   1.776 -0.3680 -1.3696 -0.2391
 2500TIP3   OH2 7438   1.386   1.450   3.299 -0.0869 -0.0227  0.3761
 2500TIP3    H1 7439   1.379   1.533   3.252  1.3079  1.0021  1.8846
 2500TIP3    H2 7440   1.300   1.409   3.290 -0.7073  1.4690 -0.6168
 2501TIP3   OH2 7441   4.021   4.129   2.066 -0.3405  0.3383  0.5535
 2501TIP3    H1 7442   4.063   4.209   2.035 -0.2375  0.4764  1.0494
 2501TIP3    H2 7443   3.971   4.097   1.991  0.8484  0.0430 -0.1207
 2502TIP3   OH2 7444   8.087   7.474   3.096  0.3070  0.1344 -0.0905
 2502TIP3    H1 7445   8.072   7.486   3.003  0.7494 -0.0944 -0.1946
 2502TIP3    H2 7446   8.143   7.548   3.121  0.5015 -0.0123 -0.0892
 2503TIP3   OH2 7447   0.536   7.789   3.356 -0.4979 -0.0957 -0.2435
 2503TIP3    H1 7448   0.609   7.788   3.293 -0.9263 -1.5971 -0.7570
 2503TIP3    H2 7449   0.561   7.724   3.422 -1.4000 -0.6724 -0.4646
 2504TIP3   OH2 7450   2.434   0.314   1.800 -0.3350 -0.1956 -0.0159
 2504TIP3    H1 7451   2.341   0.334   1.787 -0.5287  0.1153  1.7501
 2504TIP3    H2 7452   2.434   0.247   1.869  0.7108 -0.8110 -0.6100
 2505TIP3   OH2 7453   3.585   1.705   3.552 -0.6005 -0.3216  0.1171
 2505TIP3    H1 7454   3.651   1.652   3.597  0.7762  0.6673 -0.6753
 2505TIP3    H2 7455   3.581   1.786   3.604 -3.0379 -1.3483  1.5975
 2506TIP3   OH2 7456   2.578   0.703   2.737  0.0644  0.4425  0.6907
 2506TIP3    H1 7457   2.550   0.777   2.683 -0.2650  0.3772  0.7730
 2506TIP3    H2 7458   2.673   0.712   2.742  0.0964  0.4392  0.0838
 2507TIP3   OH2 7459   0.775   4.380   4.318 -0.2326  0.0302 -0.2426
 2507TIP3    H1 7460   0.744   4.375   4.227 -0.8019  0.3783 -0.0760
 2507TIP3    H2 7461   0.812   4.468   4.326  2.4280 -0.9817 -0.9255
 2508TIP3   OH2 7462   2.473   2.953   4.076 -0.4207  0.0394 -0.4389
 2508TIP3    H1 7463   2.482   3.049   4.079 -0.9260  0.0859 -0.3366
 2508TIP3    H2 7464   2.532   2.922   4.144 -0.6125  0.3097 -0.1413
 2509TIP3   OH2 7465   1.404   0.981   2.934 -0.4114  0.1433  0.0567
 2509TIP3    H1 7466   1.452   1.048   2.887 -0.3006  0.5527  0.7509
 2509TIP3    H2 7467   1.332   0.957   2.875 -1.0267  1.5657  0.2178
 2510TIP3   OH2 7468   3.717   5.030   2.084  0.1335 -0.0514  0.1718
 2510TIP3    H1 7469   3.702   5.012   1.992  0.6777 -1.0826  0.2651
 2510TIP3    H2 7470   3.630   5.034   2.123 -0.0882  0.1503 -0.3480
 2511TIP3   OH2 7471   2.017   2.390   1.859 -0.2388  0.4223  0.5073
 2511TIP3    H1 7472   1.967   2.334   1.800  0.6690  0.2771 -0.1533
 2511TIP3    H2 7473   1.987   2.368   1.947 -0.7317 -0.2465  0.1675
 2512TIP3   OH2 7474   1.890   2.752   3.616  0.6659 -0.2435  0.9205
 2512TIP3    H1 7475   1.922   2.764   3.526  3.3410  0.9578  1.9943
 2512TIP3    H2 7476   1.825   2.682   3.608  0.3296  0.3078 -2.0553
 2513TIP3   OH2 7477   4.946   1.913   4.079  0.3946  0.0511 -0.0909
 2513TIP3    H1 7478   4.987   1.861   4.149 -0.9223 -2.0793 -0.8655
 2513TIP3    H2 7479   5.009   1.908   4.007  0.4156 -0.1885 -0.0579
 2514TIP3   OH2 7480   4.981   0.530   4.355 -0.5442 -0.2709 -0.4732
 2514TIP3    H1 7481   4.949   0.479   4.281  0.7741 -0.1535 -1.1423
 2514TIP3    H2 7482   5.028   0.466   4.409 -0.2198 -0.0713 -0.5161
 2515TIP3   OH2 7483   1.752   3.278   4.662 -0.3209  0.2801  0.0881
 2515TIP3    H1 7484   1.795   3.209   4.612 -2.0362 -1.1065  0.5024
 2515TIP3    H2 7485   1.737   3.348   4.599  1.9241  0.5232 -0.2103
 2516TIP3   OH2 7486   3.064   0.129   3.836  0.5912  0.0289 -0.2410
 2516TIP3    H1 7487   3.068   0.040   3.871 -0.3210  0.4433  0.9576
 2516TIP3    H2 7488   3.094   0.184   3.909  1.3058  0.6979 -1.0263
 2517TIP3   OH2 7489   2.953   1.184   4.119 -0.0086  0.0600  0.3432
 2517TIP3    H1 7490   2.930   1.179   4.212 -2.5101  0.1002 -0.2305
 2517TIP3    H2 7491   3.040   1.224   4.117  1.1596 -2.2472  2.7739
 2518TIP3   OH2 7492   3.169   1.360   2.320 -0.2699 -0.3372 -0.4003
 2518TIP3    H1 7493   3.157   1.284   2.377  1.8798  0.1929  0.8252
 2518TIP3    H2 7494   3.124   1.431   2.365 -0.8910 -0.5224 -0.7289
 2519TIP3   OH2 7495   2.968   1.908   3.446  0.1321 -0.0459  0.3381
 2519TIP3    H1 7496   2.925   1.827   3.418 -0.7865  0.1586  1.0976
 2519TIP3    H2 7497   3.027   1.881   3.517  0.4842 -0.1799 -0.0077
 2520TIP3   OH2 7498   8.450   7.536   1.678  0.0743 -0.3577 -0.1569
 2520TIP3    H1 7499   8.544   7.546   1.695  0.6815  0.0416 -3.4446
 2520TIP3    H2 7500   8.429   7.607   1.617 -2.4657 -0.2068  0.8211
 2521TIP3   OH2 7501   2.134   0.493   3.187  0.2121  0.0896 -0.7118
 2521TIP3    H1 7502   2.137   0.575   3.138 -0.1014 -0.5763 -1.8595
 2521TIP3    H2 7503   2.166   0.516   3.274  0.7367  1.2952 -1.2102
 2522TIP3   OH2 7504   3.228   1.132   1.704 -0.1511  0.3899  0.0307
 2522TIP3    H1 7505   3.267   1.191   1.639  0.1380 -0.2546 -0.3853
 2522TIP3    H2 7506   3.269   1.157   1.787  1.0771 -0.1983 -0.3815
 2523TIP3   OH2 7507   4.449   1.368   2.379  0.0690  0.2661 -0.4038
 2523TIP3    H1 7508   4.461   1.274   2.366 -3.9630 -0.6216  1.5645
 2523TIP3    H2 7509   4.521   1.394   2.437  0.4076 -1.8948  0.1641
 2524TIP3   OH2 7510   3.792   2.341   3.820  0.2190 -0.1331 -0.1558
 2524TIP3    H1 7511   3.699   2.353   3.802  0.2996  3.6738  1.5151
 2524TIP3    H2 7512   3.795   2.273   3.888 -1.2510 -0.7890 -0.7269
 2525TIP3   OH2 7513   0.920   7.509   4.107 -0.3415  0.0067 -0.6412
 2525TIP3    H1 7514   0.907   7.417   4.086 -0.6435  0.3520 -2.0713
 2525TIP3    H2 7515   0.880   7.521   4.193  1.8274 -1.7125  0.6727
 2526TIP3   OH2 7516   1.987   1.526   3.994  0.2555 -0.4236  0.3632
 2526TIP3    H1 7517   2.065   1.530   3.939 -0.3435  0.4397 -0.4480
 2526TIP3    H2 7518   1.924   1.476   3.943 -0.9970  2.1348 -0.6682
 2527TIP3   OH2 7519   4.887   6.647   6.458  0.3271 -0.1269  0.1901
 2527TIP3    H1 7520   4.876   6.735   6.494 -1.4202 -0.3630  0.3010
 2527TIP3    H2 7521   4.921   6.661   6.369 -1.1530  0.7354 -0.2638
 2528TIP3   OH2 7522   8.386   2.027   2.409  0.2640  0.3594  0.0137
 2528TIP3    H1 7523   8.305   1.989   2.376 -0.2638 -0.1503  1.8384
 2528TIP3    H2 7524   8.430   1.955   2.455  1.3626  0.8417 -0.2587
 2529TIP3   OH2 7525   7.023   8.016   3.235  0.2096  0.6708 -0.0124
 2529TIP3    H1 7526   7.090   7.985   3.175  0.9579 -0.2532  1.2588
 2529TIP3    H2 7527   7.052   7.985   3.321 -2.8514 -1.4669  0.3352
 2530TIP3   OH2 7528   2.475   0.872   4.371  1.2566 -0.4518  0.1121
 2530TIP3    H1 7529   2.524   0.805   4.419  0.3033 -1.6005 -0.4979
 2530TIP3    H2 7530   2.508   0.867   4.281  2.0946  0.7891  0.3366
 2531TIP3   OH2 7531   1.034   7.953   3.164 -0.1694  0.2246 -0.6697
 2531TIP3    H1 7532   1.002   7.865   3.142 -0.0383  0.5289 -2.0908
 2531TIP3    H2 7533   1.125   7.954   3.132  0.1960  0.5015  0.3563
 2532TIP3   OH2 7534   0.929   1.078   2.447 -0.3596 -0.1624  0.2157
 2532TIP3    H1 7535   0.995   1.046   2.386 -0.6106  0.5903 -0.4678
 2532TIP3    H2 7536   0.967   1.064   2.534 -0.8119 -3.0684 -0.0077
 2533TIP3   OH2 7537   2.949   1.912   1.542 -0.2592 -0.6494 -0.4987
 2533TIP3    H1 7538   2.876   1.971   1.562 -0.2894 -0.9641  0.3254
 2533TIP3    H2 7539   2.908   1.834   1.506 -0.3076 -0.6761 -0.3867
 2534TIP3   OH2 7540   3.832   1.222   2.937 -1.0439  0.8922 -0.2963
 2534TIP3    H1 7541   3.903   1.239   2.875 -1.0641  1.4285 -0.1776
 2534TIP3    H2 7542   3.852   1.278   3.012 -0.0113 -1.1307  0.9764
 2535TIP3   OH2 7543   1.667   1.083   2.527 -0.2222 -0.0446  0.1158
 2535TIP3    H1 7544   1.619   1.124   2.455 -0.7214 -1.7580 -0.5437
 2535TIP3    H2 7545   1.606   1.018   2.563  0.6258 -0.3514  1.0135
 2536TIP3   OH2 7546   2.838   2.047   3.731  0.4129 -0.0023 -0.6179
 2536TIP3    H1 7547   2.862   1.994   3.807  3.1998 -2.4349 -3.0934
 2536TIP3    H2 7548   2.801   1.984   3.669 -1.0986  1.8353 -1.6291
 2537TIP3   OH2 7549   1.566   2.818   4.388 -0.3266 -0.3274 -0.5152
 2537TIP3    H1 7550   1.646   2.766   4.394 -0.1950  0.0453  1.0938
 2537TIP3    H2 7551   1.509   2.783   4.456  0.3745  2.6506  1.6982
 2538TIP3   OH2 7552   1.310   1.533   2.497 -0.2212  0.7287  0.5704
 2538TIP3    H1 7553   1.285   1.441   2.493 -1.8581  1.2033 -0.4220
 2538TIP3    H2 7554   1.399   1.532   2.532  1.4109 -1.5156 -3.2730
 2539TIP3   OH2 7555   1.468   0.373   3.792 -0.4075 -0.2668 -0.3218
 2539TIP3    H1 7556   1.459   0.321   3.713 -3.3998 -0.5772  0.1870
 2539TIP3    H2 7557   1.417   0.326   3.858  1.3521  0.4190  1.5901
 2540TIP3   OH2 7558   1.618   1.025   3.298 -0.3112 -0.4279 -0.4706
 2540TIP3    H1 7559   1.631   1.035   3.392 -0.2418 -1.0733 -0.4092
 2540TIP3    H2 7560   1.699   0.983   3.267 -0.1705  0.1367 -0.8770
 2541TIP3   OH2 7561   1.872   2.541   2.277  0.0938 -0.1730  0.0146
 2541TIP3    H1 7562   1.941   2.540   2.210  0.3879 -1.6280  0.3212
 2541TIP3    H2 7563   1.912   2.496   2.352 -1.4186 -1.6914 -0.0575
 2542TIP3   OH2 7564   5.079   1.595   3.621 -0.2709 -0.0250 -0.0037
 2542TIP3    H1 7565   4.997   1.644   3.617 -0.7418 -0.7617  0.3447
 2542TIP3    H2 7566   5.075   1.548   3.705  0.9068  0.6152  0.4241
 2543TIP3   OH2 7567   2.712   2.452   1.865  0.2746 -0.0523 -0.0607
 2543TIP3    H1 7568   2.741   2.379   1.920 -2.2167 -0.4270  0.8112
 2543TIP3    H2 7569   2.724   2.530   1.920  1.4985  0.0448 -0.4442
 2544TIP3   OH2 7570   1.075   0.858   3.671 -0.4659 -0.4040  0.2164
 2544TIP3    H1 7571   1.099   0.774   3.632  1.7709  0.3578 -0.1455
 2544TIP3    H2 7572   1.046   0.911   3.597 -0.7029 -0.4654  0.2660
 2545TIP3   OH2 7573   0.621   1.622   2.450 -0.6769 -0.0948  0.2723
 2545TIP3    H1 7574   0.602   1.530   2.431 -1.5550 -0.5373  2.9975
 2545TIP3    H2 7575   0.714   1.632   2.431 -0.8818 -1.1521 -1.3987
 2546TIP3   OH2 7576   3.876   0.275   0.682 -0.4578  0.2539 -0.1307
 2546TIP3    H1 7577   3.840   0.229   0.607 -0.0686  0.5919 -0.5319
 2546TIP3    H2 7578   3.816   0.348   0.696  1.4562  2.4105 -2.4932
 2547TIP3   OH2 7579   1.357   2.350   3.434  0.4840  0.3652 -0.2822
 2547TIP3    H1 7580   1.399   2.329   3.518 -2.2748 -0.6611  0.9063
 2547TIP3    H2 7581   1.348   2.266   3.389 -2.7277  0.0895  0.7109
 2548TIP3   OH2 7582   3.196   1.850   3.149  0.1960  0.3754  1.0164
 2548TIP3    H1 7583   3.265   1.833   3.212 -0.8865 -1.4620  1.7495
 2548TIP3    H2 7584   3.181   1.945   3.153  1.0268  0.4399  2.5663
 2549TIP3   OH2 7585   3.038   1.194   5.530  0.5984 -0.3183  0.2975
 2549TIP3    H1 7586   3.067   1.220   5.618 -0.2722  0.8995  0.2271
 2549TIP3    H2 7587   3.046   1.098   5.531  0.5014 -0.3346  1.7399
 2550TIP3   OH2 7588   0.959   2.473   5.476  0.2068 -0.0385 -0.0737
 2550TIP3    H1 7589   0.912   2.499   5.555 -1.2411 -3.6897  0.3960
 2550TIP3    H2 7590   1.040   2.433   5.509  0.7882  0.7130 -0.5809
 2551TIP3   OH2 7591   2.784   0.139   2.052  0.0926  0.4207  0.1745
 2551TIP3    H1 7592   2.853   0.079   2.024 -0.5563 -0.2850  0.0449
 2551TIP3    H2 7593   2.828   0.222   2.069  1.1322 -0.3252  1.1723
 2552TIP3   OH2 7594   8.103   7.943   4.135 -0.0633  0.7683  0.3685
 2552TIP3    H1 7595   8.193   7.975   4.141  0.3538 -0.5029  1.1480
 2552TIP3    H2 7596   8.091   7.923   4.042  0.3730  1.2021  0.2157
 2553TIP3   OH2 7597   2.975   1.376   2.718  0.2811 -0.5810  0.1033
 2553TIP3    H1 7598   2.887   1.392   2.753 -0.2465 -1.6478 -0.7209
 2553TIP3    H2 7599   3.034   1.400   2.790 -0.7221 -0.8668  1.0323
 2554TIP3   OH2 7600   3.207   0.851   2.880  0.3467 -0.1784  0.4766
 2554TIP3    H1 7601   3.259   0.840   2.959 -0.1608 -0.7407  0.7326
 2554TIP3    H2 7602   3.223   0.941   2.853  0.7426 -0.0737  1.0601
 2555TIP3   OH2 7603   3.998   1.325   2.123 -0.3506  0.1547 -0.1120
 2555TIP3    H1 7604   4.075   1.375   2.151  0.4171 -1.3674  0.5252
 2555TIP3    H2 7605   3.930   1.348   2.186 -0.1858  0.8831 -0.1995
 2556TIP3   OH2 7606   4.157   2.577   2.727 -0.1068  0.5315  0.1864
 2556TIP3    H1 7607   4.237   2.535   2.695 -0.9988 -0.9056 -0.1933
 2556TIP3    H2 7608   4.184   2.666   2.748  2.1090 -0.5802  2.2602
 2557TIP3   OH2 7609   2.340   2.570   4.141 -0.6805  0.4284 -0.9775
 2557TIP3    H1 7610   2.256   2.533   4.168 -0.5286  0.0957 -0.9514
 2557TIP3    H2 7611   2.347   2.652   4.189 -0.8312  0.2835 -0.7034
 2558TIP3   OH2 7612   1.532   2.169   3.930  0.1595 -0.6465 -0.2856
 2558TIP3    H1 7613   1.530   2.263   3.914  1.2561 -0.6566 -0.5026
 2558TIP3    H2 7614   1.441   2.146   3.952 -0.7485 -0.0855 -3.2868
 2559TIP3   OH2 7615   2.246   3.680   5.134  0.5109  0.1948 -0.0259
 2559TIP3    H1 7616   2.243   3.699   5.228 -0.3949  0.3688 -0.0792
 2559TIP3    H2 7617   2.337   3.692   5.109  0.5527  1.2717  0.6126
 2560TIP3   OH2 7618   2.982   0.721   2.951  0.1393  0.0223  0.2902
 2560TIP3    H1 7619   2.925   0.731   2.874 -2.0181 -0.4463  1.7903
 2560TIP3    H2 7620   3.069   0.744   2.919 -0.7531  0.0246 -2.2538
 2561TIP3   OH2 7621   4.099   2.662   3.394  0.6870 -0.5353 -0.4966
 2561TIP3    H1 7622   4.115   2.756   3.385  0.9190 -0.4893  0.3186
 2561TIP3    H2 7623   4.006   2.652   3.374  0.4961 -0.0225  0.0923
 2562TIP3   OH2 7624   1.535   3.428   2.471  0.2659 -0.4316 -0.2156
 2562TIP3    H1 7625   1.530   3.449   2.378 -2.6146  0.5559  0.1058
 2562TIP3    H2 7626   1.571   3.339   2.474  0.1511 -0.5648 -2.2864
 2563TIP3   OH2 7627   7.663   7.749   4.198  0.1363 -0.3882 -0.6557
 2563TIP3    H1 7628   7.623   7.773   4.114 -1.2963  0.1967  0.1763
 2563TIP3    H2 7629   7.590   7.748   4.259  0.7155 -3.5195  0.0402
 2564TIP3   OH2 7630   8.288   8.032   2.450 -0.3683  0.4889 -0.2017
 2564TIP3    H1 7631   8.379   8.031   2.419 -0.2964 -0.1167  0.0235
 2564TIP3    H2 7632   8.286   7.966   2.519 -0.9376  0.6304 -0.0866
 2565TIP3   OH2 7633   2.687   2.395   2.154 -0.1172 -0.0758  0.1210
 2565TIP3    H1 7634   2.657   2.310   2.186  0.6516  0.4284  2.3334
 2565TIP3    H2 7635   2.741   2.429   2.226 -0.2580  2.1853 -0.8086
 2566TIP3   OH2 7636   3.108   1.208   2.528  0.2139  1.0891  0.1369
 2566TIP3    H1 7637   3.041   1.272   2.553  1.1703  1.8641  0.7919
 2566TIP3    H2 7638   3.158   1.195   2.609  1.2629  1.0387 -0.5182
 2567TIP3   OH2 7639   3.340   1.398   2.796  0.3632 -0.2403 -0.2882
 2567TIP3    H1 7640   3.394   1.319   2.784 -1.2664 -1.2233 -1.3727
 2567TIP3    H2 7641   3.404   1.468   2.811  1.8920 -1.5959 -0.2188
 2568TIP3   OH2 7642   4.797   0.182   2.688  0.0824  0.2689 -0.5338
 2568TIP3    H1 7643   4.757   0.269   2.688 -1.8572 -0.5463  1.8100
 2568TIP3    H2 7644   4.881   0.193   2.731 -0.4712  0.8497  0.3927
 2569TIP3   OH2 7645   7.522   7.089   2.856 -0.2882  0.0724 -0.2483
 2569TIP3    H1 7646   7.478   7.171   2.835  0.3553  0.5515  0.2126
 2569TIP3    H2 7647   7.574   7.110   2.934  1.8916 -0.0573 -1.6220
 2570TIP3   OH2 7648   3.586   2.744   1.615  0.1636  0.0631  0.3081
 2570TIP3    H1 7649   3.504   2.698   1.632 -0.5482  0.7023 -1.3399
 2570TIP3    H2 7650   3.566   2.805   1.544  1.3724  2.1544  1.6820
 2571TIP3   OH2 7651   1.962   1.134   2.367  1.0558  0.0867 -0.1743
 2571TIP3    H1 7652   1.986   1.061   2.310  1.6008 -0.0498  0.2237
 2571TIP3    H2 7653   1.926   1.094   2.446 -0.8390  0.3012 -0.9051
 2572TIP3   OH2 7654   2.892   2.124   4.135  0.6574 -0.2866 -0.2513
 2572TIP3    H1 7655   2.883   2.054   4.070 -1.1011 -0.2179 -0.1176
 2572TIP3    H2 7656   2.811   2.176   4.125  0.1410 -0.5445  2.2956
 2573TIP3   OH2 7657   3.113   0.563   3.144  0.5710  0.1963  0.8477
 2573TIP3    H1 7658   3.047   0.632   3.135  0.7161  0.3094  0.6252
 2573TIP3    H2 7659   3.168   0.573   3.066 -0.3060 -1.1382  0.0480
 2574TIP3   OH2 7660   0.351   7.558   4.016  0.1460 -0.4340  0.0424
 2574TIP3    H1 7661   0.277   7.509   4.052  0.3952 -0.1602  0.9339
 2574TIP3    H2 7662   0.341   7.550   3.921 -0.7141 -0.8647  0.1651
 2575TIP3   OH2 7663   2.076   3.717   0.909  0.4337 -0.0727  0.3368
 2575TIP3    H1 7664   2.040   3.633   0.882 -2.6926  0.9650  1.1015
 2575TIP3    H2 7665   2.042   3.780   0.845  1.3333  0.8706  0.7664
 2576TIP3   OH2 7666   7.534   7.705   1.768  0.4962  0.0944 -0.6429
 2576TIP3    H1 7667   7.600   7.756   1.721 -1.9135  1.9948 -2.0390
 2576TIP3    H2 7668   7.481   7.770   1.814  0.0430 -1.4633  1.1159
 2577TIP3   OH2 7669   2.512   1.615   3.415  0.0726 -0.1883 -0.3922
 2577TIP3    H1 7670   2.477   1.601   3.503 -0.1061 -1.8974 -0.7226
 2577TIP3    H2 7671   2.440   1.594   3.356  1.2471 -2.5167 -1.0337
 2578TIP3   OH2 7672   2.138   0.429   1.742 -0.2906  0.1360  0.4464
 2578TIP3    H1 7673   2.188   0.510   1.751  0.2741 -0.0827 -0.6515
 2578TIP3    H2 7674   2.078   0.445   1.668  1.3949 -1.2208 -1.2556
 2579TIP3   OH2 7675   0.558   1.074   4.499  0.1641 -0.3540  0.5963
 2579TIP3    H1 7676   0.514   1.150   4.538  0.3863 -0.2353  0.6135
 2579TIP3    H2 7677   0.598   1.108   4.420  1.3736 -0.1614  1.2791
 2580TIP3   OH2 7678   3.051   3.270   3.731  0.5093 -0.7885 -0.3866
 2580TIP3    H1 7679   3.081   3.230   3.812 -0.9291 -1.1217 -0.0168
 2580TIP3    H2 7680   2.976   3.324   3.756  2.1365  1.8124 -0.9447
 2581TIP3   OH2 7681   3.408   2.046   3.562 -0.1290  0.1002  0.2563
 2581TIP3    H1 7682   3.489   2.059   3.611  2.6470  0.0243 -4.1265
 2581TIP3    H2 7683   3.378   2.134   3.542 -0.3874  0.1027  0.6379
 2582TIP3   OH2 7684   0.086   1.601   2.379 -0.3162 -0.5651  0.4849
 2582TIP3    H1 7685   0.046   1.540   2.317  0.0131 -0.9740  0.6785
 2582TIP3    H2 7686   0.177   1.608   2.351 -0.0441 -1.1289  1.2155
 2583TIP3   OH2 7687   0.932   3.074   1.477  0.3308  0.3696  0.2262
 2583TIP3    H1 7688   0.838   3.087   1.493  0.1641  0.9300 -1.0906
 2583TIP3    H2 7689   0.973   3.091   1.561 -0.6910  0.8369  0.6444
 2584TIP3   OH2 7690   2.661   2.720   3.181 -0.8209 -0.2383 -0.1506
 2584TIP3    H1 7691   2.757   2.716   3.186 -0.6968  3.3296  2.3158
 2584TIP3    H2 7692   2.642   2.739   3.089  1.0348  1.6109 -0.1995
 2585TIP3   OH2 7693   2.142   2.677   4.529 -0.7057 -0.3430  0.0930
 2585TIP3    H1 7694   2.083   2.746   4.496 -0.5926 -0.7913 -1.0892
 2585TIP3    H2 7695   2.213   2.725   4.571 -1.5188  0.2197  0.8565
 2586TIP3   OH2 7696   4.021   5.014   2.068 -0.6299  0.1503  0.0340
 2586TIP3    H1 7697   3.934   5.030   2.104 -0.2640  1.5070  0.3334
 2586TIP3    H2 7698   4.013   4.928   2.025 -1.9147 -0.0601  0.6486
 2587TIP3   OH2 7699   4.236   1.221   4.594  0.6050 -0.1491 -0.3161
 2587TIP3    H1 7700   4.259   1.314   4.600 -2.1588  0.5777 -0.1862
 2587TIP3    H2 7701   4.175   1.216   4.519 -1.3890 -1.3509  1.3231
 2588TIP3   OH2 7702   3.298   3.021   1.880 -0.2340 -0.1357  0.0361
 2588TIP3    H1 7703   3.344   3.088   1.932 -1.9082  1.2537 -0.1849
 2588TIP3    H2 7704   3.338   3.025   1.794  0.6615 -0.4580  0.4305
 2589TIP3   OH2 7705   2.212   2.557   3.395 -0.3610  0.8014 -0.2131
 2589TIP3    H1 7706   2.206   2.505   3.476  0.4570  0.7631 -0.1724
 2589TIP3    H2 7707   2.285   2.518   3.347  0.9868  2.5880  0.3207
 2590TIP3   OH2 7708   2.578   1.222   3.085 -0.6313 -0.2097 -0.8181
 2590TIP3    H1 7709   2.547   1.291   3.025  0.5963  0.5574 -0.5824
 2590TIP3    H2 7710   2.667   1.204   3.057  0.5547  1.3208  1.7806
 2591TIP3   OH2 7711   3.400   2.216   2.985  0.2169 -0.1723 -0.4957
 2591TIP3    H1 7712   3.339   2.254   2.922 -0.2496 -0.9966 -0.5461
 2591TIP3    H2 7713   3.347   2.157   3.038  1.0978 -1.4586 -1.0130
 2592TIP3   OH2 7714   1.940   2.152   5.555  0.2363 -0.0488 -0.7011
 2592TIP3    H1 7715   1.925   2.063   5.586  0.5059  0.3897  0.7508
 2592TIP3    H2 7716   1.853   2.191   5.547  0.1646 -0.1472 -0.4022
 2593TIP3   OH2 7717   2.778   2.031   1.814  0.6118  0.1156 -0.1392
 2593TIP3    H1 7718   2.794   2.114   1.859  0.1853 -0.8061  1.7571
 2593TIP3    H2 7719   2.848   1.973   1.844  0.5391 -0.4129 -0.9643
 2594TIP3   OH2 7720   2.264   2.765   5.922  0.2954 -0.4033  0.4005
 2594TIP3    H1 7721   2.272   2.742   5.829 -2.1945  0.0036  0.0540
 2594TIP3    H2 7722   2.297   2.688   5.968  0.4655 -1.0712 -0.8129
 2595TIP3   OH2 7723   1.645   0.920   0.212 -0.6884  0.0347 -0.5770
 2595TIP3    H1 7724   1.551   0.924   0.194 -0.8977 -0.1679  0.4524
 2595TIP3    H2 7725   1.661   0.988   0.277  0.1082  0.9157 -1.6695
 2596TIP3   OH2 7726   2.005   0.445   2.923 -0.0212 -0.3829 -0.1085
 2596TIP3    H1 7727   1.961   0.530   2.930 -1.1907 -0.9550 -0.3761
 2596TIP3    H2 7728   2.066   0.444   2.996 -1.4387 -0.1290  1.1082
 2597TIP3   OH2 7729   0.685   7.801   3.126  0.0274  0.3845  0.2083
 2597TIP3    H1 7730   0.696   7.858   3.049  1.3376  1.1251  0.9301
 2597TIP3    H2 7731   0.718   7.716   3.098  1.5399  0.9398  0.3003
 2598TIP3   OH2 7732   0.803   2.601   2.523  0.4936  0.5422 -0.2004
 2598TIP3    H1 7733   0.806   2.505   2.533 -0.6012  0.6413  1.3570
 2598TIP3    H2 7734   0.743   2.615   2.450  1.7618  0.0101 -1.3653
 2599TIP3   OH2 7735   1.289   0.351   2.800  0.1012 -0.3930 -0.3240
 2599TIP3    H1 7736   1.253   0.288   2.862 -1.6862 -0.1464 -1.0966
 2599TIP3    H2 7737   1.326   0.420   2.855  0.5122 -1.2451  0.4917
 2600TIP3   OH2 7738   1.460   0.494   2.304 -0.2802 -0.6742  0.0181
 2600TIP3    H1 7739   1.528   0.499   2.370  0.7283  1.0681 -1.1287
 2600TIP3    H2 7740   1.387   0.545   2.340 -0.0662 -0.4809  0.1786
 2601TIP3   OH2 7741   4.477   1.594   4.404  0.4884 -0.5157 -0.4428
 2601TIP3    H1 7742   4.401   1.644   4.431  1.1480  0.6212 -0.6624
 2601TIP3    H2 7743   4.494   1.621   4.314  1.0367 -0.8932 -0.4620
 2602TIP3   OH2 7744   2.950   2.922   3.897 -0.5335 -0.0995 -0.0394
 2602TIP3    H1 7745   2.949   3.011   3.933 -1.5255 -0.6243  1.2649
 2602TIP3    H2 7746   2.871   2.881   3.932 -0.6947 -1.1316 -1.5766
 2603TIP3   OH2 7747   2.966   0.710   5.551 -0.0194  0.5984 -0.3019
 2603TIP3    H1 7748   3.049   0.741   5.515 -0.3465 -0.0760 -1.6607
 2603TIP3    H2 7749   2.984   0.621   5.581 -0.1310  0.6326 -0.1307
 2604TIP3   OH2 7750   2.017   0.769   4.065 -0.5507 -0.5625  0.7797
 2604TIP3    H1 7751   1.930   0.752   4.031 -0.4487  0.1281  0.1447
 2604TIP3    H2 7752   2.067   0.800   3.989 -0.0259 -0.0097  1.3360
 2605TIP3   OH2 7753   5.083   1.475   3.862  0.4562  0.1250  0.0489
 2605TIP3    H1 7754   5.146   1.450   3.930 -0.6364 -0.0270  1.0298
 2605TIP3    H2 7755   5.008   1.417   3.877 -0.0992  0.6234 -0.8005
 2606TIP3   OH2 7756   1.139   7.661   5.516 -0.1415  0.2738 -0.2699
 2606TIP3    H1 7757   1.111   7.605   5.444  0.3425 -1.5597  0.9213
 2606TIP3    H2 7758   1.058   7.699   5.550 -0.5207 -0.0706 -0.7903
 2607TIP3   OH2 7759   1.415   7.478   5.111  0.0121 -0.3340 -0.5659
 2607TIP3    H1 7760   1.320   7.475   5.122  0.0671  1.4490  0.7074
 2607TIP3    H2 7761   1.428   7.531   5.032 -0.0379  0.7433  0.1354
 2608TIP3   OH2 7762   7.442   7.744   3.212 -0.1242 -0.3379  0.0093
 2608TIP3    H1 7763   7.416   7.726   3.302  0.8971 -1.0196  0.1784
 2608TIP3    H2 7764   7.420   7.836   3.198  1.1954  0.2316  1.4950
 2609TIP3   OH2 7765   1.285   0.515   4.976 -0.4990  0.4052 -0.0649
 2609TIP3    H1 7766   1.361   0.573   4.972  0.5678 -0.8908  0.8605
 2609TIP3    H2 7767   1.258   0.505   4.885 -0.0396  1.4820 -0.3337
 2610TIP3   OH2 7768   4.647   3.567   4.557  0.1716  0.3223 -0.1301
 2610TIP3    H1 7769   4.677   3.629   4.491 -0.9283  1.3999  0.3798
 2610TIP3    H2 7770   4.719   3.563   4.620  0.3010  0.9464 -0.2388
 2611TIP3   OH2 7771   3.407   1.258   1.537  0.5953  0.0503  0.1993
 2611TIP3    H1 7772   3.467   1.189   1.510  2.2533  1.7682 -0.6992
 2611TIP3    H2 7773   3.353   1.275   1.460  0.5371  0.0959  0.2503
 2612TIP3   OH2 7774   3.164   4.316   3.395  0.1526  0.0268  0.1218
 2612TIP3    H1 7775   3.247   4.271   3.410  0.1291  0.3119  1.1369
 2612TIP3    H2 7776   3.182   4.375   3.322  1.0437  0.5823  0.7774
 2613TIP3   OH2 7777   2.468   4.207   3.267 -0.0697  0.3141 -0.3388
 2613TIP3    H1 7778   2.536   4.146   3.295 -1.0640 -1.0972 -0.9312
 2613TIP3    H2 7779   2.387   4.157   3.271 -1.1770  2.1258  0.8646
 2614TIP3   OH2 7780   1.158   1.734   2.608  0.0483 -0.4853  0.1416
 2614TIP3    H1 7781   1.150   1.808   2.547  0.0496 -0.0176  0.7115
 2614TIP3    H2 7782   1.192   1.663   2.554  2.0018  0.4945  0.0474
 2615TIP3   OH2 7783   4.424   1.277   2.843 -0.2085 -0.1248 -0.8495
 2615TIP3    H1 7784   4.421   1.274   2.747 -0.2873  0.7925 -0.8843
 2615TIP3    H2 7785   4.493   1.340   2.862 -0.7630  0.3196 -0.3113
 2616TIP3   OH2 7786   4.382   1.063   3.040 -0.6564 -0.3056 -0.0568
 2616TIP3    H1 7787   4.400   1.150   3.005  1.2925 -0.3026  0.8616
 2616TIP3    H2 7788   4.303   1.035   2.995 -0.9413  1.6720 -0.8437
 2617TIP3   OH2 7789   2.572   1.845   4.116 -0.3122  0.0470 -0.0737
 2617TIP3    H1 7790   2.642   1.783   4.136 -0.0555 -0.2874 -1.9021
 2617TIP3    H2 7791   2.492   1.796   4.130 -0.2794  0.8548  3.4377
 2618TIP3   OH2 7792   4.789   2.859   5.077 -0.0619  0.5485  0.7229
 2618TIP3    H1 7793   4.793   2.862   4.981 -1.8152  0.7609  0.6301
 2618TIP3    H2 7794   4.863   2.805   5.103 -0.6498 -1.0735 -0.8674
 2619TIP3   OH2 7795   3.205   2.301   4.640  0.5980  0.5782  1.3442
 2619TIP3    H1 7796   3.118   2.272   4.612  1.6006 -0.4366 -0.8783
 2619TIP3    H2 7797   3.222   2.380   4.589  1.5982 -0.1298  0.5418
 2620TIP3   OH2 7798   2.699   0.442   3.646  0.0020 -0.7504  0.2700
 2620TIP3    H1 7799   2.635   0.372   3.636  1.0203 -1.8130  1.0285
 2620TIP3    H2 7800   2.783   0.402   3.623  0.3290  0.8116 -1.4447
 2621TIP3   OH2 7801   4.824   2.519   3.329  0.2568  0.9772  0.0372
 2621TIP3    H1 7802   4.870   2.436   3.334  0.2302  0.8628 -1.4050
 2621TIP3    H2 7803   4.886   2.583   3.365  0.8894  0.5762 -0.3300
 2622TIP3   OH2 7804   3.474   0.512   3.231 -0.3070 -0.3887  0.1885
 2622TIP3    H1 7805   3.561   0.507   3.272 -0.9041 -2.5880  1.2582
 2622TIP3    H2 7806   3.414   0.530   3.303 -0.7027  1.6886 -0.6332
 2623TIP3   OH2 7807   3.059   4.120   6.321  0.1789 -0.1090 -0.2505
 2623TIP3    H1 7808   3.151   4.096   6.311 -0.0388 -0.3205 -1.9103
 2623TIP3    H2 7809   3.027   4.132   6.232 -1.9807 -2.1259  0.1985
 2624TIP3   OH2 7810   3.542   0.350   2.080 -0.1321  0.1697 -0.0943
 2624TIP3    H1 7811   3.495   0.427   2.111 -1.4115 -1.5821  2.6156
 2624TIP3    H2 7812   3.481   0.306   2.021 -0.2244  0.1411  0.0226
 2625TIP3   OH2 7813   5.829   7.846   5.196 -0.5035  0.9652 -0.2952
 2625TIP3    H1 7814   5.889   7.899   5.249 -1.5047  1.4951  0.3170
 2625TIP3    H2 7815   5.743   7.887   5.209 -1.2551 -0.6863  0.0317
 2626TIP3   OH2 7816   5.068   1.700   4.275 -0.0832  0.9811  0.2716
 2626TIP3    H1 7817   5.107   1.636   4.216 -0.0251  1.4014 -0.1554
 2626TIP3    H2 7818   5.085   1.666   4.362 -2.0612 -0.7492  0.0155
 2627TIP3   OH2 7819   4.141   2.575   4.167 -0.0798 -0.2109 -0.3026
 2627TIP3    H1 7820   4.075   2.528   4.116 -1.4192  0.2889  0.9522
 2627TIP3    H2 7821   4.185   2.630   4.103 -0.1937 -1.2784 -1.3308
 2628TIP3   OH2 7822   4.842   1.844   3.675  0.2031 -0.3437 -0.1393
 2628TIP3    H1 7823   4.777   1.848   3.604  0.4246  1.3470 -0.2767
 2628TIP3    H2 7824   4.871   1.935   3.686 -0.8103 -0.3379  3.0400
 2629TIP3   OH2 7825   2.475   2.923   3.353  0.2994 -0.6850  0.3680
 2629TIP3    H1 7826   2.557   2.947   3.311  1.2379 -0.1094  2.4522
 2629TIP3    H2 7827   2.496   2.848   3.407 -1.4195 -2.9019 -1.9292
 2630TIP3   OH2 7828   1.745   7.121   2.860  0.1147 -0.3684  0.3837
 2630TIP3    H1 7829   1.773   7.208   2.830  0.0094 -0.1719  0.8403
 2630TIP3    H2 7830   1.758   7.123   2.955  0.9616 -1.1795  0.2896
 2631TIP3   OH2 7831   4.947   3.507   4.350  0.1513  0.2322  0.6924
 2631TIP3    H1 7832   5.041   3.519   4.368  0.2041 -0.0926  0.6430
 2631TIP3    H2 7833   4.918   3.447   4.418 -0.0827  0.5458  0.8702
 2632TIP3   OH2 7834   1.890   1.779   5.321  0.3841  0.1405 -0.2455
 2632TIP3    H1 7835   1.894   1.686   5.344  1.8967  0.4589  0.8890
 2632TIP3    H2 7836   1.853   1.822   5.399  1.6805  0.7244  0.0740
 2633TIP3   OH2 7837   0.492   7.458   4.437 -0.0547 -0.3881 -0.1410
 2633TIP3    H1 7838   0.430   7.529   4.420 -2.4848 -2.7155 -1.2397
 2633TIP3    H2 7839   0.508   7.418   4.352  1.2253 -1.2305  0.4796
 2634TIP3   OH2 7840   3.871   0.044   1.541 -0.4964 -0.3588  0.4016
 2634TIP3    H1 7841   3.785   0.051   1.499 -1.2912  0.5334  2.1452
 2634TIP3    H2 7842   3.914   0.128   1.523 -0.3745 -0.4292  0.3626
 2635TIP3   OH2 7843   1.628   0.760   3.004 -0.1209 -0.1345 -0.0187
 2635TIP3    H1 7844   1.716   0.792   2.987 -0.5911 -0.2942 -3.1130
 2635TIP3    H2 7845   1.571   0.834   2.981 -0.9945 -1.6864 -3.2283
 2636TIP3   OH2 7846   2.064   1.157   4.714 -0.1261  0.4859 -0.5973
 2636TIP3    H1 7847   2.032   1.098   4.647 -0.2137 -0.5629  0.3589
 2636TIP3    H2 7848   2.021   1.129   4.795  1.2090  0.6930  0.2144
 2637TIP3   OH2 7849   3.878   0.666   4.516  0.4173  0.1771  0.0487
 2637TIP3    H1 7850   3.938   0.596   4.542  0.5158  0.0998 -0.3715
 2637TIP3    H2 7851   3.901   0.683   4.424  0.4539  0.8193  0.1756
 2638TIP3   OH2 7852   5.568   4.981   6.877 -0.1159 -0.0932 -0.0418
 2638TIP3    H1 7853   5.600   4.899   6.913  0.3592  1.0415  2.2003
 2638TIP3    H2 7854   5.500   4.955   6.815 -0.7658 -2.1293  1.4670
 2639TIP3   OH2 7855   2.561   2.167   3.807  0.3095  0.0300 -0.3754
 2639TIP3    H1 7856   2.495   2.156   3.739  1.4558  0.9949 -1.6805
 2639TIP3    H2 7857   2.619   2.092   3.797  1.2937  0.8984 -1.4415
 2640TIP3   OH2 7858   1.961   2.397   2.982  0.4406 -0.4061  1.0561
 2640TIP3    H1 7859   1.919   2.315   2.952  2.3817 -1.2445  0.5707
 2640TIP3    H2 7860   1.936   2.404   3.074 -0.3606 -1.1501  0.9084
 2641TIP3   OH2 7861   1.191   0.820   3.928 -0.0481 -0.6677  0.2342
 2641TIP3    H1 7862   1.130   0.821   3.854 -1.5854 -0.2897  1.4710
 2641TIP3    H2 7863   1.266   0.770   3.897  0.2285  1.2071 -2.2757
 2642TIP3   OH2 7864   1.051   1.935   5.206 -0.0411 -0.5758  0.4405
 2642TIP3    H1 7865   0.961   1.921   5.179  0.0211 -0.1233 -0.0307
 2642TIP3    H2 7866   1.045   1.986   5.287 -0.2122 -0.4620  0.3574
 2643TIP3   OH2 7867   3.525   2.326   3.727  0.0509 -0.0687 -0.0504
 2643TIP3    H1 7868   3.450   2.303   3.672 -1.3118 -0.6860  2.0159
 2643TIP3    H2 7869   3.510   2.417   3.751 -0.7944 -0.5987  1.4978
 2644TIP3   OH2 7870   4.554   3.971   5.684 -0.1627 -0.7398 -0.6604
 2644TIP3    H1 7871   4.516   3.935   5.603 -0.8544 -1.5973  0.0352
 2644TIP3    H2 7872   4.638   3.926   5.692  0.3392  0.0548 -1.4099
 2645TIP3   OH2 7873   2.009   4.646   4.690  0.1163  0.1669 -0.0317
 2645TIP3    H1 7874   2.045   4.697   4.764  0.0922  1.1265 -0.6719
 2645TIP3    H2 7875   1.997   4.711   4.621 -1.6408 -0.3878 -0.2604
 2646TIP3   OH2 7876   3.299   0.845   2.456  0.2655  0.1389 -0.7254
 2646TIP3    H1 7877   3.297   0.845   2.552  1.3573 -0.7406 -0.6913
 2646TIP3    H2 7878   3.295   0.753   2.432  0.2170  0.3472 -1.5226
 2647TIP3   OH2 7879   1.302   2.732   4.504  0.0857 -0.5905 -0.3580
 2647TIP3    H1 7880   1.317   2.637   4.506  2.1418 -0.2653  1.9257
 2647TIP3    H2 7881   1.259   2.751   4.587  1.1034  0.6714 -0.0967
 2648TIP3   OH2 7882   7.066   3.791   2.468  0.2677  0.4284  0.0671
 2648TIP3    H1 7883   6.979   3.795   2.506  0.1367 -0.3329 -0.1459
 2648TIP3    H2 7884   7.095   3.882   2.464 -0.0425  0.5868  1.2268
 2649TIP3   OH2 7885   3.818   3.506   4.088 -0.3988  0.4064  0.0498
 2649TIP3    H1 7886   3.746   3.445   4.071 -1.1495  1.1912  0.3631
 2649TIP3    H2 7887   3.894   3.449   4.105 -1.3831 -0.4918  1.6652
 2650TIP3   OH2 7888   3.500   0.636   2.070 -0.0259 -0.3095  0.2266
 2650TIP3    H1 7889   3.538   0.724   2.064 -1.5636  0.4291  1.0194
 2650TIP3    H2 7890   3.503   0.603   1.980 -0.3717  0.9660 -0.2721
 2651TIP3   OH2 7891   3.125   2.891   4.197  0.1063  0.7293  0.2532
 2651TIP3    H1 7892   3.176   2.940   4.262 -0.0756  1.4741 -0.1684
 2651TIP3    H2 7893   3.112   2.952   4.125 -1.0401  0.4151  0.1808
 2652TIP3   OH2 7894   2.564   1.435   4.085 -0.3614  0.1100  0.4976
 2652TIP3    H1 7895   2.555   1.417   3.991  0.2384 -1.6471  0.7619
 2652TIP3    H2 7896   2.486   1.485   4.107 -1.8327 -1.7326 -0.3986
 2653TIP3   OH2 7897   4.254   2.735   5.429  0.5767  0.1111  0.8751
 2653TIP3    H1 7898   4.243   2.813   5.482 -2.1185  0.5355 -0.2547
 2653TIP3    H2 7899   4.310   2.678   5.482  1.1174  2.0691  2.4619
 2654TIP3   OH2 7900   4.388   3.701   4.581  0.0613 -0.1302 -0.1070
 2654TIP3    H1 7901   4.420   3.789   4.557 -0.7304  0.7284  1.8852
 2654TIP3    H2 7902   4.467   3.649   4.590  0.6449  0.8105  0.3274
 2655TIP3   OH2 7903   1.260   7.582   1.353  0.2157 -0.1717 -0.1337
 2655TIP3    H1 7904   1.218   7.667   1.364  1.1263  0.1977  0.6040
 2655TIP3    H2 7905   1.267   7.570   1.258  1.0725  1.0800 -0.2361
 2656TIP3   OH2 7906   1.664   0.586   1.985  0.1359 -0.3463 -0.3508
 2656TIP3    H1 7907   1.670   0.659   2.047 -0.3075 -0.0946 -0.6024
 2656TIP3    H2 7908   1.675   0.508   2.039  1.6724 -0.0662 -0.2184
 2657TIP3   OH2 7909   1.906   0.799   1.045 -0.4162  0.1534  0.4475
 2657TIP3    H1 7910   1.926   0.880   1.092 -0.4269  1.0191 -0.9841
 2657TIP3    H2 7911   1.989   0.775   1.003 -0.3934 -0.6268  0.9352
 2658TIP3   OH2 7912   8.180   1.371   3.050  0.2026  1.0840  0.5557
 2658TIP3    H1 7913   8.244   1.311   3.089 -0.0054  0.3462 -0.2537
 2658TIP3    H2 7914   8.222   1.402   2.970 -0.3368  0.8237  0.1702
 2659TIP3   OH2 7915   1.663   1.282   3.307  0.1738  0.2649  0.2322
 2659TIP3    H1 7916   1.640   1.193   3.278  0.6397  0.3848 -0.5166
 2659TIP3    H2 7917   1.583   1.314   3.349 -0.8834  0.4858 -1.8856
 2660TIP3   OH2 7918   2.392   1.983   0.891  0.3006 -1.1081 -0.2382
 2660TIP3    H1 7919   2.453   2.056   0.894  0.6338 -1.3772 -0.3820
 2660TIP3    H2 7920   2.319   2.014   0.838 -0.4807 -0.1875  1.3502
 2661TIP3   OH2 7921   4.313   0.565   1.959  0.7108  0.3766  0.1142
 2661TIP3    H1 7922   4.362   0.571   2.041  1.0976 -0.6121 -0.0269
 2661TIP3    H2 7923   4.279   0.475   1.958  0.1259  0.5963 -0.4833
 2662TIP3   OH2 7924   3.609   2.662   0.977 -0.1592 -0.1267  0.5134
 2662TIP3    H1 7925   3.662   2.681   0.901  0.1433  0.8240  0.9530
 2662TIP3    H2 7926   3.640   2.577   1.008 -0.4552 -0.6347 -0.5581
 2663TIP3   OH2 7927   2.256   3.254   3.260 -0.0415  0.0630 -0.0217
 2663TIP3    H1 7928   2.335   3.200   3.259 -0.5751 -0.7533  1.1254
 2663TIP3    H2 7929   2.187   3.196   3.291 -1.1423  0.7261 -1.1841
 2664TIP3   OH2 7930   1.356   1.230   1.035  0.1049 -0.3847  0.6912
 2664TIP3    H1 7931   1.279   1.182   1.066  0.3613  0.5516  2.9347
 2664TIP3    H2 7932   1.364   1.303   1.097  1.4254  0.8549 -0.9163
 2665TIP3   OH2 7933   8.197   7.500   1.788 -0.4962  0.5035 -0.4886
 2665TIP3    H1 7934   8.290   7.503   1.764 -0.6297 -1.2690 -1.3251
 2665TIP3    H2 7935   8.197   7.502   1.884  0.3248  1.8892 -0.5014
 2666TIP3   OH2 7936   3.418   1.128   3.315 -0.4885 -0.1366 -0.6907
 2666TIP3    H1 7937   3.345   1.093   3.366  0.1577 -0.5583 -0.0328
 2666TIP3    H2 7938   3.450   1.201   3.368  1.8035 -2.1477  0.8350
 2667TIP3   OH2 7939   2.644   0.860   4.135  0.0919 -0.1698  0.2933
 2667TIP3    H1 7940   2.611   0.950   4.125 -0.6610 -0.4063  0.5968
 2667TIP3    H2 7941   2.732   0.863   4.098 -0.8549  0.0945 -2.0363
 2668TIP3   OH2 7942   3.004   1.631   5.441  0.1041  0.2262  0.5399
 2668TIP3    H1 7943   2.995   1.723   5.416  0.9293 -0.0152 -0.6999
 2668TIP3    H2 7944   3.099   1.616   5.445 -0.0212 -0.4592  1.1487
 2669TIP3   OH2 7945   6.788   7.329   4.655  0.0073  0.0803 -0.4340
 2669TIP3    H1 7946   6.862   7.286   4.698 -0.6289 -1.1990 -0.6079
 2669TIP3    H2 7947   6.792   7.301   4.564 -0.8444 -0.2075 -0.3902
 2670TIP3   OH2 7948   3.210   2.238   3.256  0.5428 -0.4795  0.1543
 2670TIP3    H1 7949   3.287   2.295   3.265  1.6305 -1.4766 -2.2831
 2670TIP3    H2 7950   3.159   2.278   3.185 -0.5065 -0.5551  0.8649
 2671TIP3   OH2 7951   3.995   0.351   3.821 -0.1786  0.0119  1.2444
 2671TIP3    H1 7952   3.995   0.365   3.916 -1.5277 -1.7028  1.5212
 2671TIP3    H2 7953   4.052   0.275   3.808  1.4295  1.3032  0.4719
 2672TIP3   OH2 7954   3.760   3.394   6.096  0.3143 -0.1284  0.0408
 2672TIP3    H1 7955   3.680   3.353   6.062  0.4763  0.4161 -0.9969
 2672TIP3    H2 7956   3.811   3.416   6.018  1.0551  0.3919  0.6669
 2673TIP3   OH2 7957   4.751   1.575   3.683  0.1703 -0.1416  0.7398
 2673TIP3    H1 7958   4.782   1.665   3.681  0.9342 -0.3834  1.5536
 2673TIP3    H2 7959   4.655   1.582   3.678  0.2062  0.7210  1.3121
 2674TIP3   OH2 7960   4.612   0.389   1.836  0.5404 -0.4909  0.2367
 2674TIP3    H1 7961   4.525   0.355   1.857  0.3085 -0.5884 -0.8649
 2674TIP3    H2 7962   4.641   0.336   1.762  2.5815 -2.1515  2.1298
 2675TIP3   OH2 7963   6.559   0.254   2.579 -1.0354 -0.0758 -0.4261
 2675TIP3    H1 7964   6.484   0.312   2.588 -2.0324 -1.2440 -1.1070
 2675TIP3    H2 7965   6.580   0.228   2.669 -2.3388 -0.8621 -0.3422
 2676TIP3   OH2 7966   4.079   2.860   1.765  0.3749  0.0021 -0.5398
 2676TIP3    H1 7967   3.992   2.879   1.799  0.5791  0.3637 -0.2079
 2676TIP3    H2 7968   4.131   2.839   1.843  0.1047 -2.1581 -0.9081
 2677TIP3   OH2 7969   5.220   1.815   1.437 -0.2170 -0.6629  0.0750
 2677TIP3    H1 7970   5.213   1.745   1.372  0.9743 -2.2793  1.6386
 2677TIP3    H2 7971   5.191   1.774   1.519  2.0633  0.1734  1.3516
 2678TIP3   OH2 7972   3.291   2.620   3.255  0.2425  0.7402 -0.3635
 2678TIP3    H1 7973   3.254   2.550   3.202  2.4645  1.0543 -2.4167
 2678TIP3    H2 7974   3.346   2.575   3.319  1.2664  0.5229 -1.3596
 2679TIP3   OH2 7975   5.905   1.252   3.663  0.3612 -0.1880  0.1367
 2679TIP3    H1 7976   5.990   1.230   3.702  0.4964 -0.4224 -0.2932
 2679TIP3    H2 7977   5.912   1.344   3.641 -1.2465  1.1456  4.6876
 2680TIP3   OH2 7978   5.283   3.011   2.789  0.6518  0.2095  0.3036
 2680TIP3    H1 7979   5.218   2.943   2.768  1.1509 -0.0648 -0.3435
 2680TIP3    H2 7980   5.237   3.093   2.776  0.0367 -0.0012  1.0998
 2681TIP3   OH2 7981   4.891   3.140   2.791 -0.8116 -0.1663 -0.0428
 2681TIP3    H1 7982   4.817   3.082   2.808 -1.0592  0.3730  0.7323
 2681TIP3    H2 7983   4.949   3.128   2.866 -1.6460  1.8109  0.9494
 2682TIP3   OH2 7984   3.418   7.403   2.983  0.3924 -0.0579  0.1587
 2682TIP3    H1 7985   3.355   7.475   2.988 -1.0674 -1.4452  2.6595
 2682TIP3    H2 7986   3.391   7.352   2.907  0.0043  0.7007 -0.2225
 2683TIP3   OH2 7987   3.209   4.645   1.733  0.0277  0.0450  0.1382
 2683TIP3    H1 7988   3.270   4.615   1.666 -0.5011 -1.0547  0.1308
 2683TIP3    H2 7989   3.227   4.589   1.809 -0.7491 -0.0845  0.2380
 2684TIP3   OH2 7990   8.037   0.855   2.346  0.1206  0.4065  0.7717
 2684TIP3    H1 7991   7.979   0.889   2.414 -0.2556 -0.5206  0.9253
 2684TIP3    H2 7992   7.978   0.811   2.285  0.5235  0.6792  0.1821
 2685TIP3   OH2 7993   5.880   2.105   2.692 -0.3819 -0.5400  0.0841
 2685TIP3    H1 7994   5.936   2.143   2.760  0.5739 -0.5866 -0.6776
 2685TIP3    H2 7995   5.899   2.156   2.613 -2.0430  0.0142  0.0087
 2686TIP3   OH2 7996   5.432   2.919   3.015 -0.4090 -0.5897 -0.2115
 2686TIP3    H1 7997   5.520   2.927   2.979 -0.1994  0.1300  0.4487
 2686TIP3    H2 7998   5.374   2.935   2.940  0.0147  2.9472  0.1349
 2687TIP3   OH2 7999   4.377   2.905   5.613 -0.0767 -0.0172 -0.1818
 2687TIP3    H1 8000   4.391   2.837   5.679  0.9630  0.6047  0.2363
 2687TIP3    H2 8001   4.457   2.957   5.614 -0.5353  0.7182 -1.0907
 2688TIP3   OH2 8002   4.464   7.541   2.386  0.3012  0.5303 -0.6261
 2688TIP3    H1 8003   4.471   7.634   2.407 -0.0900  0.7984 -1.6752
 2688TIP3    H2 8004   4.424   7.538   2.299  0.1172 -0.6238 -0.5179
 2689TIP3   OH2 8005   3.154   2.485   3.066  0.1327 -0.1649 -0.0831
 2689TIP3    H1 8006   3.086   2.552   3.058 -0.7526 -0.5529  3.1388
 2689TIP3    H2 8007   3.110   2.403   3.041 -0.4114 -0.2970  1.2334
 2690TIP3   OH2 8008   4.913   2.730   1.086 -0.7281  0.1440 -0.0188
 2690TIP3    H1 8009   4.908   2.661   1.020  0.1275  1.1658 -1.1903
 2690TIP3    H2 8010   4.826   2.770   1.086 -0.5095  0.6293 -1.0842
 2691TIP3   OH2 8011   5.053   3.699   5.301 -0.6851 -0.6548  0.1445
 2691TIP3    H1 8012   4.972   3.667   5.339 -0.7967 -0.9764 -0.3674
 2691TIP3    H2 8013   5.035   3.705   5.208  0.2888 -1.9578 -0.1393
 2692TIP3   OH2 8014   3.136   3.346   1.579  0.0027  0.0288  0.1105
 2692TIP3    H1 8015   3.080   3.419   1.553  0.5439  0.5882  0.5235
 2692TIP3    H2 8016   3.155   3.362   1.672  0.8242 -0.1720 -0.0198
 2693TIP3   OH2 8017   4.558   2.561   2.259 -0.0931  0.0852  0.8857
 2693TIP3    H1 8018   4.504   2.627   2.302  0.5272  1.8683 -1.0329
 2693TIP3    H2 8019   4.495   2.503   2.215 -0.4711  2.8558 -2.3663
 2694TIP3   OH2 8020   4.379   3.282   5.431  0.0746  0.5016  0.2561
 2694TIP3    H1 8021   4.369   3.276   5.336  0.6802 -1.1227  0.2782
 2694TIP3    H2 8022   4.290   3.295   5.465 -0.5041 -1.7453 -0.3443
 2695TIP3   OH2 8023   3.701   1.381   3.372  0.0610  0.0469 -0.3733
 2695TIP3    H1 8024   3.688   1.449   3.438 -0.4628 -0.0423 -0.3865
 2695TIP3    H2 8025   3.768   1.417   3.314 -2.4109  1.9053 -2.1818
 2696TIP3   OH2 8026   4.853   3.474   3.594 -0.2093 -0.0020 -0.4681
 2696TIP3    H1 8027   4.852   3.560   3.636 -0.2273  0.3123 -1.1102
 2696TIP3    H2 8028   4.924   3.427   3.638 -0.8032  0.0164  0.5210
 2697TIP3   OH2 8029   5.151   1.219   2.338  0.2695  0.4634  0.8059
 2697TIP3    H1 8030   5.180   1.294   2.286  0.1056  1.3159  1.9182
 2697TIP3    H2 8031   5.120   1.156   2.273 -1.4682  2.1632 -0.0807
 2698TIP3   OH2 8032   1.720   7.079   4.758 -0.6090 -0.5421  0.1101
 2698TIP3    H1 8033   1.633   7.107   4.784 -0.4636 -0.2876  0.3213
 2698TIP3    H2 8034   1.741   7.007   4.817 -1.3314 -1.6624 -0.9879
 2699TIP3   OH2 8035   4.161   1.535   2.501  0.1767  0.5596  0.5405
 2699TIP3    H1 8036   4.176   1.517   2.593 -0.6349  0.1074  0.5854
 2699TIP3    H2 8037   4.224   1.479   2.455 -0.5917 -0.5102  0.7657
 2700TIP3   OH2 8038   3.975   0.921   0.576  0.0588  0.5307 -0.3325
 2700TIP3    H1 8039   4.070   0.913   0.589 -0.0275  1.8070  1.1484
 2700TIP3    H2 8040   3.940   0.835   0.598  0.5519  0.9637  2.2618
 2701TIP3   OH2 8041   5.838   4.610   3.396 -0.1285  0.0574 -0.2358
 2701TIP3    H1 8042   5.901   4.559   3.447  0.4592  0.1129 -0.8998
 2701TIP3    H2 8043   5.792   4.544   3.343 -1.4183 -0.1227  1.0449
 2702TIP3   OH2 8044   4.760   1.546   3.977 -0.7855 -0.3807 -0.1809
 2702TIP3    H1 8045   4.723   1.630   4.005  1.3777  0.2197  1.0096
 2702TIP3    H2 8046   4.782   1.558   3.885 -1.4135  0.0208 -0.2771
 2703TIP3   OH2 8047   2.841   7.665   0.753  0.5794  0.5763  0.6330
 2703TIP3    H1 8048   2.887   7.600   0.806  0.8562 -0.1577 -0.4660
 2703TIP3    H2 8049   2.762   7.620   0.724  1.1737  0.4057 -0.8187
 2704TIP3   OH2 8050   2.184   4.235   1.286  0.1427  0.2458 -0.2104
 2704TIP3    H1 8051   2.188   4.306   1.349  1.5967 -0.9272  1.0767
 2704TIP3    H2 8052   2.274   4.228   1.252 -0.3570  0.1019 -1.5427
 2705TIP3   OH2 8053   2.569   7.257   2.426  0.4370 -0.0128  0.1043
 2705TIP3    H1 8054   2.528   7.174   2.402  1.6335 -0.3936 -0.6537
 2705TIP3    H2 8055   2.543   7.317   2.356 -0.8194  0.4012  0.8965
 2706TIP3   OH2 8056   6.067   0.840   3.705 -0.2139 -0.1449  0.8611
 2706TIP3    H1 8057   6.152   0.796   3.703 -0.0538  0.1828 -1.3251
 2706TIP3    H2 8058   6.088   0.931   3.724  0.3091  0.5850 -2.7550
 2707TIP3   OH2 8059   4.292   0.169   2.640  0.5185 -0.7351 -0.1448
 2707TIP3    H1 8060   4.292   0.247   2.696 -0.9232 -1.5272  1.0057
 2707TIP3    H2 8061   4.383   0.159   2.613  0.7615  1.2024 -0.0952
 2708TIP3   OH2 8062   4.978   2.032   3.418 -0.1338  0.5317 -0.2289
 2708TIP3    H1 8063   5.006   1.960   3.362 -0.3400  0.5915 -0.4077
 2708TIP3    H2 8064   5.046   2.037   3.485  0.0932  0.4356 -0.4495
 2709TIP3   OH2 8065   3.333   0.921   3.796 -0.4359  0.3528 -0.3131
 2709TIP3    H1 8066   3.371   0.980   3.861 -0.6546  0.2583 -0.0965
 2709TIP3    H2 8067   3.371   0.836   3.815 -2.2073 -0.1521  1.1498
 2710TIP3   OH2 8068   4.796   4.277   3.193 -0.4043  0.0606  0.1094
 2710TIP3    H1 8069   4.850   4.206   3.229  0.6470  1.0247  0.4405
 2710TIP3    H2 8070   4.805   4.348   3.255 -1.9124  0.3178  0.0669
 2711TIP3   OH2 8071   4.458   3.470   5.639  0.4289  0.6007  0.5025
 2711TIP3    H1 8072   4.550   3.445   5.647  0.3641  0.5208  1.0118
 2711TIP3    H2 8073   4.425   3.415   5.568  0.2041 -1.0292  1.8315
 2712TIP3   OH2 8074   4.446   1.006   4.731 -0.0118  0.1060 -0.4823
 2712TIP3    H1 8075   4.477   0.946   4.663  0.1912 -0.0926 -0.2155
 2712TIP3    H2 8076   4.362   1.037   4.699 -0.7733 -1.3761 -0.0049
 2713TIP3   OH2 8077   7.184   0.443   3.905  0.3301  0.5052  0.0505
 2713TIP3    H1 8078   7.232   0.526   3.899  1.6734 -0.2553  0.1113
 2713TIP3    H2 8079   7.153   0.441   3.996  1.4529  0.3162  0.4347
 2714TIP3   OH2 8080   4.970   3.143   3.933 -0.0126 -0.1711  0.4952
 2714TIP3    H1 8081   4.878   3.117   3.937  0.3149 -1.7249 -1.3281
 2714TIP3    H2 8082   5.010   3.081   3.871  1.5373  2.5146 -1.2971
 2715TIP3   OH2 8083   4.126   3.398   5.153  0.4176 -0.1674  0.2610
 2715TIP3    H1 8084   4.102   3.408   5.061 -0.4066 -2.2346  0.2386
 2715TIP3    H2 8085   4.211   3.356   5.152  1.0036  0.9776  0.4520
 2716TIP3   OH2 8086   4.957   0.888   2.420  0.3658 -0.3152 -0.3733
 2716TIP3    H1 8087   4.929   0.815   2.366  0.4391  0.0773 -0.9473
 2716TIP3    H2 8088   4.909   0.964   2.385 -0.1099 -0.1746  0.5437
 2717TIP3   OH2 8089   4.236   2.744   3.926  0.5926 -0.2012 -0.1245
 2717TIP3    H1 8090   4.237   2.736   3.831 -2.5498  2.5586 -0.4841
 2717TIP3    H2 8091   4.293   2.819   3.944 -0.2375  0.4124 -0.0130
 2718TIP3   OH2 8092   4.682   3.084   1.156 -0.3419  0.3174  0.0369
 2718TIP3    H1 8093   4.776   3.099   1.165  0.1595 -1.4058 -1.9867
 2718TIP3    H2 8094   4.672   2.989   1.159 -1.8558  0.4191 -1.0725
 2719TIP3   OH2 8095   0.434   7.193   5.216 -0.5765 -0.6087  0.2735
 2719TIP3    H1 8096   0.511   7.249   5.228 -1.1467  0.3043 -0.2656
 2719TIP3    H2 8097   0.386   7.201   5.298 -0.6634 -0.3004  0.1919
 2720TIP3   OH2 8098   3.928   3.072   3.801 -0.0026 -0.1177 -0.2674
 2720TIP3    H1 8099   3.923   3.029   3.887  1.0713 -0.4368 -0.3617
 2720TIP3    H2 8100   3.977   3.153   3.817  2.5091 -1.4342 -1.0492
 2721TIP3   OH2 8101   5.438   3.478   3.127 -0.1170  0.8216 -0.4060
 2721TIP3    H1 8102   5.382   3.403   3.149  0.0651  0.5235 -0.9548
 2721TIP3    H2 8103   5.510   3.440   3.076  0.1209  1.3319 -0.4494
 2722TIP3   OH2 8104   4.707   2.563   5.758  0.3412 -0.4601  0.2409
 2722TIP3    H1 8105   4.655   2.641   5.779  0.8798 -0.2114  0.6779
 2722TIP3    H2 8106   4.724   2.570   5.664 -1.3914 -1.1486 -0.1287
 2723TIP3   OH2 8107   6.252   1.649   4.436 -0.2647  0.4361  0.1970
 2723TIP3    H1 8108   6.212   1.707   4.501 -0.6753 -1.7769  2.0003
 2723TIP3    H2 8109   6.343   1.677   4.431 -0.5361  1.4539  0.7607
 2724TIP3   OH2 8110   4.480   2.582   2.886 -0.3352  0.1285  0.4052
 2724TIP3    H1 8111   4.527   2.581   2.970 -0.5148 -2.2650  0.5056
 2724TIP3    H2 8112   4.544   2.549   2.823 -0.5948  0.7576 -0.1881
 2725TIP3   OH2 8113   4.872   1.018   3.371 -0.3541 -0.6010  0.6872
 2725TIP3    H1 8114   4.889   1.060   3.455  0.7175 -0.7564  0.5579
 2725TIP3    H2 8115   4.906   1.080   3.306  1.1770 -1.6140  0.4870
 2726TIP3   OH2 8116   4.213   4.091   2.470  0.0749  0.2869 -0.7787
 2726TIP3    H1 8117   4.253   4.098   2.557  0.8247  2.4286 -1.2613
 2726TIP3    H2 8118   4.133   4.144   2.476 -0.3569 -0.3300 -1.1142
 2727TIP3   OH2 8119   7.222   0.942   3.723  0.0346 -0.1406 -0.2562
 2727TIP3    H1 8120   7.301   0.909   3.682 -1.7016 -1.2319 -2.8568
 2727TIP3    H2 8121   7.151   0.890   3.684 -2.0193  1.2136  1.5442
 2728TIP3   OH2 8122   3.493   1.790   2.990  0.2254  0.4726  0.0288
 2728TIP3    H1 8123   3.540   1.736   3.054  0.9682  1.1357  0.0513
 2728TIP3    H2 8124   3.415   1.820   3.037  0.1412 -0.0490  0.2267
 2729TIP3   OH2 8125   5.358   1.623   3.566 -0.2656 -0.4611  0.0397
 2729TIP3    H1 8126   5.371   1.718   3.575 -0.1000 -0.5695  0.9784
 2729TIP3    H2 8127   5.265   1.610   3.589  0.1103 -0.7133  1.4927
 2730TIP3   OH2 8128   6.362   2.753   5.849  0.1436 -0.1080 -0.1941
 2730TIP3    H1 8129   6.408   2.689   5.903  1.4477 -1.0436 -2.3607
 2730TIP3    H2 8130   6.317   2.810   5.912  1.1090 -1.5397  1.8334
 2731TIP3   OH2 8131   2.410   7.749   1.355 -0.1100  0.0377  0.7622
 2731TIP3    H1 8132   2.487   7.709   1.316 -0.4279  0.7975 -0.6839
 2731TIP3    H2 8133   2.338   7.689   1.334 -0.2083  0.2247  0.5601
 2732TIP3   OH2 8134   1.438   7.854   1.015  0.2755  0.7131  0.2749
 2732TIP3    H1 8135   1.401   7.860   0.927  0.3439  0.2622  0.2157
 2732TIP3    H2 8136   1.404   7.772   1.050  0.9851  0.4431  0.3356
 2733TIP3   OH2 8137   4.641   1.363   3.164  0.0415  0.0737 -0.4497
 2733TIP3    H1 8138   4.713   1.408   3.207  0.4699 -0.3373 -0.7367
 2733TIP3    H2 8139   4.677   1.279   3.136 -1.3047 -1.3605  1.9476
 2734TIP3   OH2 8140   4.459   1.702   4.139  0.4423  0.2211 -0.5824
 2734TIP3    H1 8141   4.393   1.658   4.085 -0.4713  0.0441  0.6798
 2734TIP3    H2 8142   4.535   1.711   4.080 -0.9531  1.1388 -2.2930
 2735TIP3   OH2 8143   3.157   7.603   3.600  0.1243  0.1357  0.0503
 2735TIP3    H1 8144   3.100   7.527   3.608 -0.0103 -0.1053 -2.9718
 2735TIP3    H2 8145   3.244   7.566   3.583  0.3620  0.6283  0.1672
 2736TIP3   OH2 8146   6.019   2.283   4.236 -0.2355 -0.5059  0.3509
 2736TIP3    H1 8147   5.929   2.287   4.267 -0.2125 -0.7619  0.4520
 2736TIP3    H2 8148   6.019   2.335   4.155 -0.4534 -0.4366  0.3953
 2737TIP3   OH2 8149   6.272   1.082   3.025 -0.3866 -0.0649  0.1155
 2737TIP3    H1 8150   6.359   1.075   3.063  0.5110  0.0265 -1.8735
 2737TIP3    H2 8151   6.226   1.003   3.056  0.4665 -0.2285  0.9772
 2738TIP3   OH2 8152   3.498   7.896   1.980  0.1186 -0.6441  0.0230
 2738TIP3    H1 8153   3.559   7.880   2.053 -1.4731 -2.8374  0.9453
 2738TIP3    H2 8154   3.541   7.857   1.904 -0.1611 -2.3835  0.7147
 2739TIP3   OH2 8155   2.797   1.591   3.981  0.1217  0.2867 -0.6089
 2739TIP3    H1 8156   2.758   1.529   4.043 -0.4086  0.8397 -0.3925
 2739TIP3    H2 8157   2.856   1.537   3.928  0.5802 -0.1889  0.3730
 2740TIP3   OH2 8158   4.697   1.440   2.133 -0.5068  0.3088 -0.2542
 2740TIP3    H1 8159   4.759   1.387   2.084 -1.5968 -2.4161  1.1664
 2740TIP3    H2 8160   4.612   1.419   2.094 -1.0296  0.3727  0.8129
 2741TIP3   OH2 8161   5.143   2.741   1.848  0.4757 -0.1660 -0.5195
 2741TIP3    H1 8162   5.093   2.823   1.853  0.2277 -0.4268  1.4977
 2741TIP3    H2 8163   5.080   2.673   1.870  0.5724 -0.9777 -2.6333
 2742TIP3   OH2 8164   5.353   8.023   4.376 -0.1039 -1.0131  0.4819
 2742TIP3    H1 8165   5.408   8.045   4.451  1.0141 -1.6527 -0.1430
 2742TIP3    H2 8166   5.376   7.933   4.354  0.6743 -0.3266 -1.5698
 2743TIP3   OH2 8167   3.904   0.948   3.074 -0.6156  0.2012 -0.0246
 2743TIP3    H1 8168   3.865   0.906   3.152 -0.4762  0.3215  0.1109
 2743TIP3    H2 8169   3.829   0.976   3.022 -0.7149  1.2666  0.6853
 2744TIP3   OH2 8170   2.678   1.266   0.263 -0.1958  0.2854 -0.0646
 2744TIP3    H1 8171   2.681   1.301   0.351 -1.8415 -2.2698  1.0821
 2744TIP3    H2 8172   2.745   1.197   0.262 -0.4741  0.0154 -0.6662
 2745TIP3   OH2 8173   5.881   0.665   4.533 -0.6604 -0.3573 -0.2143
 2745TIP3    H1 8174   5.898   0.571   4.529  0.9529 -0.0757 -0.6105
 2745TIP3    H2 8175   5.809   0.674   4.595 -0.8732 -1.8653 -0.2323
 2746TIP3   OH2 8176   3.473   1.960   2.699 -0.0174 -0.4302 -1.0904
 2746TIP3    H1 8177   3.512   1.878   2.729  1.5275  0.5287 -0.3974
 2746TIP3    H2 8178   3.405   1.979   2.764  1.1133 -0.0517  0.0171
 2747TIP3   OH2 8179   3.779   4.687   4.122 -0.7243  0.4548  0.2530
 2747TIP3    H1 8180   3.848   4.710   4.185  0.0384  0.6859 -0.6618
 2747TIP3    H2 8181   3.766   4.767   4.071 -0.4917 -0.0875 -0.6696
 2748TIP3   OH2 8182   4.606   0.394   4.246  0.0969 -0.6410  1.4065
 2748TIP3    H1 8183   4.644   0.482   4.257  0.3164 -0.6818  1.0054
 2748TIP3    H2 8184   4.649   0.341   4.313  0.2539 -0.5290  1.3963
 2749TIP3   OH2 8185   5.716   0.904   5.169  0.1399  0.1056  0.4050
 2749TIP3    H1 8186   5.651   0.853   5.121  0.1679 -0.1096  0.5975
 2749TIP3    H2 8187   5.690   0.898   5.261  0.5737 -0.1867  0.5096
 2750TIP3   OH2 8188   4.999   0.843   3.859  0.6343 -0.6968 -0.1568
 2750TIP3    H1 8189   5.001   0.936   3.836 -0.0026 -0.3464  1.1556
 2750TIP3    H2 8190   5.063   0.835   3.929  0.3798 -1.1743  0.0175
 2751TIP3   OH2 8191   4.954   2.554   4.866  0.0511 -0.0272 -0.1476
 2751TIP3    H1 8192   5.031   2.610   4.873  1.7927 -2.1953 -1.1118
 2751TIP3    H2 8193   4.897   2.598   4.803  1.1273  0.9044 -0.4718
 2752TIP3   OH2 8194   4.702   1.298   1.085  0.0335  0.1898  0.5465
 2752TIP3    H1 8195   4.632   1.234   1.099  0.2229  0.0907  1.0762
 2752TIP3    H2 8196   4.782   1.245   1.084  0.0569  0.2407 -0.5736
 2753TIP3   OH2 8197   6.116   2.262   4.899  0.1940 -0.2181  0.0073
 2753TIP3    H1 8198   6.177   2.266   4.825 -0.3953  1.8088 -0.3996
 2753TIP3    H2 8199   6.036   2.224   4.861  0.0821  0.2979 -0.2884
 2754TIP3   OH2 8200   7.175   1.710   5.055  0.3486 -0.3811 -0.1264
 2754TIP3    H1 8201   7.141   1.792   5.092  1.7320 -0.3748  1.1685
 2754TIP3    H2 8202   7.120   1.694   4.978 -1.1897  0.7410  0.7137
 2755TIP3   OH2 8203   2.981   1.801   5.824 -0.2915 -0.5645  0.0937
 2755TIP3    H1 8204   3.057   1.859   5.828  0.0751 -0.9895 -0.5829
 2755TIP3    H2 8205   3.007   1.723   5.874 -1.4316  0.5633  2.5091
 2756TIP3   OH2 8206   5.589   3.579   0.943  0.0604 -0.0969 -0.4752
 2756TIP3    H1 8207   5.622   3.666   0.962 -1.9823  1.0366 -1.9812
 2756TIP3    H2 8208   5.620   3.561   0.854 -1.3276 -0.0007 -0.9873
 2757TIP3   OH2 8209   3.277   4.897   2.040 -0.6226 -0.4452  0.1595
 2757TIP3    H1 8210   3.369   4.870   2.033 -0.4352 -0.6051  2.6841
 2757TIP3    H2 8211   3.261   4.948   1.961  1.4398 -0.9987 -0.6583
 2758TIP3   OH2 8212   5.685   1.312   3.389  0.1075 -0.1048 -0.0017
 2758TIP3    H1 8213   5.679   1.337   3.297 -1.8855 -0.1554  0.1021
 2758TIP3    H2 8214   5.686   1.395   3.437 -3.5665 -0.0627  0.1669
 2759TIP3   OH2 8215   4.243   2.099   3.476  0.0643 -0.1262 -0.0911
 2759TIP3    H1 8216   4.168   2.138   3.520  0.0262  0.2656 -0.4982
 2759TIP3    H2 8217   4.239   2.006   3.499 -1.8526 -0.5522 -1.9233
 2760TIP3   OH2 8218   3.695   0.744   3.774 -0.1921 -0.3447 -0.4341
 2760TIP3    H1 8219   3.706   0.835   3.746 -0.0367 -0.3568 -0.4178
 2760TIP3    H2 8220   3.604   0.722   3.754 -0.3003 -0.1057 -0.2045
 2761TIP3   OH2 8221   4.178   2.619   3.665  0.5362  0.1919 -0.0468
 2761TIP3    H1 8222   4.137   2.572   3.592 -2.2016  0.6191  1.1334
 2761TIP3    H2 8223   4.199   2.705   3.629 -0.4731  0.2769 -0.4537
 2762TIP3   OH2 8224   5.195   0.533   3.528 -0.3735  0.1371  0.1694
 2762TIP3    H1 8225   5.149   0.452   3.506 -2.3915  1.2779  0.0193
 2762TIP3    H2 8226   5.236   0.561   3.446 -0.0757 -0.4868  0.1084
 2763TIP3   OH2 8227   5.851   2.609   3.476 -0.1492  0.6529 -0.9614
 2763TIP3    H1 8228   5.913   2.639   3.410  0.0228  0.0291 -1.0897
 2763TIP3    H2 8229   5.842   2.683   3.536  0.4063  0.8933 -1.1697
 2764TIP3   OH2 8230   4.343   2.658   4.518  0.3992 -0.1603 -0.2477
 2764TIP3    H1 8231   4.248   2.644   4.525  0.4618 -0.6180 -0.2561
 2764TIP3    H2 8232   4.378   2.618   4.598  0.6865 -1.0360 -0.8067
 2765TIP3   OH2 8233   5.076   2.223   4.261 -0.2254 -0.3221  0.2337
 2765TIP3    H1 8234   4.997   2.215   4.313 -0.8014 -2.2220 -0.8888
 2765TIP3    H2 8235   5.047   2.217   4.170  1.0656  0.2390 -0.2424
 2766TIP3   OH2 8236   6.228   3.045   2.722 -0.1236  0.1657  0.0125
 2766TIP3    H1 8237   6.198   2.994   2.647  0.3756  0.0776 -0.1287
 2766TIP3    H2 8238   6.323   3.048   2.713  0.0884 -1.2679  1.5357
 2767TIP3   OH2 8239   4.832   1.979   2.974 -0.3180  0.2424  0.1652
 2767TIP3    H1 8240   4.888   1.901   2.978 -3.4781 -2.1882 -1.4534
 2767TIP3    H2 8241   4.795   1.985   3.062  1.9158  1.4930  1.0598
 2768TIP3   OH2 8242   4.732   2.132   1.611 -0.0314  0.0472 -0.1094
 2768TIP3    H1 8243   4.638   2.153   1.605 -0.1100 -0.0625  0.6397
 2768TIP3    H2 8244   4.770   2.205   1.660  0.0888 -0.4160  0.5007
 2769TIP3   OH2 8245   5.537   2.454   4.395 -0.0895 -0.2017  0.2086
 2769TIP3    H1 8246   5.554   2.541   4.430 -2.0840  0.8998 -1.4596
 2769TIP3    H2 8247   5.458   2.464   4.342  0.4498 -2.7298 -1.1660
 2770TIP3   OH2 8248   4.959   2.162   3.995 -0.4372 -0.5766 -0.1665
 2770TIP3    H1 8249   4.903   2.185   3.922 -1.0147 -1.3755  0.0222
 2770TIP3    H2 8250   4.917   2.086   4.035 -0.2442 -0.0124  1.1260
 2771TIP3   OH2 8251   3.607   2.396   6.721 -0.1311  0.8543 -0.6046
 2771TIP3    H1 8252   3.663   2.451   6.776  0.4343 -0.6431  0.3505
 2771TIP3    H2 8253   3.612   2.436   6.634 -1.2901  3.4332  0.4715
 2772TIP3   OH2 8254   5.531   2.181   1.276 -0.3338 -0.1246 -0.1379
 2772TIP3    H1 8255   5.525   2.211   1.367 -0.0348 -1.5258  0.3686
 2772TIP3    H2 8256   5.496   2.092   1.279 -0.4127 -0.1407 -1.4278
 2773TIP3   OH2 8257   3.516   3.944   5.017  0.3849 -0.7225  0.6364
 2773TIP3    H1 8258   3.505   3.850   5.024  2.1912 -0.9560  0.5705
 2773TIP3    H2 8259   3.568   3.968   5.094  1.4053 -0.0404 -0.2527
 2774TIP3   OH2 8260   3.077   2.211   3.003 -0.0211  0.2306  0.1876
 2774TIP3    H1 8261   2.990   2.193   2.967  1.1837 -1.1348 -2.1346
 2774TIP3    H2 8262   3.137   2.190   2.932  2.2660  0.5259  1.9891
 2775TIP3   OH2 8263   5.384   2.952   3.460 -0.4323  0.3458  0.2845
 2775TIP3    H1 8264   5.422   2.867   3.435 -0.1451  0.0166  1.8014
 2775TIP3    H2 8265   5.306   2.960   3.405  0.3818 -0.1779 -0.9815
 2776TIP3   OH2 8266   4.548   0.056   2.667 -0.0528 -0.7866  0.5291
 2776TIP3    H1 8267   4.507   0.021   2.746  0.1001  1.6215  1.7467
 2776TIP3    H2 8268   4.626   0.102   2.698  0.2511 -0.1717 -1.0720
 2777TIP3   OH2 8269   5.127   1.645   3.341 -0.1488  0.5417  0.1949
 2777TIP3    H1 8270   5.070   1.577   3.305 -1.1942  1.5685 -0.1320
 2777TIP3    H2 8271   5.147   1.616   3.430 -0.6665 -0.1357  0.0899
 2778TIP3   OH2 8272   3.766   1.308   5.625  0.0773  0.3788  0.0496
 2778TIP3    H1 8273   3.670   1.309   5.619 -0.0092 -2.6954 -0.2212
 2778TIP3    H2 8274   3.786   1.353   5.706 -1.7967 -1.1033  1.3790
 2779TIP3   OH2 8275   4.623   2.140   3.487 -0.2967  0.0412 -0.3019
 2779TIP3    H1 8276   4.715   2.122   3.503 -0.8852 -1.9727  1.0418
 2779TIP3    H2 8277   4.598   2.200   3.558 -0.0885  0.3631 -0.5009
 2780TIP3   OH2 8278   1.199   6.947   3.531 -0.3107 -0.0006  0.1873
 2780TIP3    H1 8279   1.161   6.934   3.444  1.6200  0.7990 -0.8132
 2780TIP3    H2 8280   1.274   6.888   3.533  0.0244  0.4506  1.0788
 2781TIP3   OH2 8281   5.065   3.773   1.355 -0.2794  0.3098 -0.1940
 2781TIP3    H1 8282   5.145   3.807   1.315 -0.4889  0.3160 -0.6043
 2781TIP3    H2 8283   5.020   3.726   1.285 -0.7429  0.4906 -0.0273
 2782TIP3   OH2 8284   4.800   2.867   4.387 -0.0706 -0.9123 -0.3518
 2782TIP3    H1 8285   4.804   2.905   4.474  0.6125  0.0220 -0.7877
 2782TIP3    H2 8286   4.854   2.924   4.333 -0.5161 -1.4621 -1.3958
 2783TIP3   OH2 8287   3.401   2.602   3.680  0.1646  0.3469 -0.2589
 2783TIP3    H1 8288   3.448   2.610   3.597 -0.0479  2.0599 -0.2298
 2783TIP3    H2 8289   3.443   2.665   3.738 -1.2729  0.9249  0.1789
 2784TIP3   OH2 8290   2.804   7.632   4.679 -0.6662 -0.2364 -0.4882
 2784TIP3    H1 8291   2.884   7.597   4.640 -1.3455 -1.4828 -0.8034
 2784TIP3    H2 8292   2.768   7.560   4.730 -1.3425  0.4649  0.0528
 2785TIP3   OH2 8293   3.267   7.465   4.255  0.1379  0.4123 -0.4972
 2785TIP3    H1 8294   3.172   7.470   4.243 -0.1899  0.6583  1.8616
 2785TIP3    H2 8295   3.296   7.556   4.259  0.0228  0.3861  1.7034
 2786TIP3   OH2 8296   3.895   0.688   2.571 -0.5232 -0.1055  0.1408
 2786TIP3    H1 8297   3.961   0.692   2.639  0.3024 -0.3264 -0.6408
 2786TIP3    H2 8298   3.893   0.776   2.533 -1.6211  0.2689  1.0394
 2787TIP3   OH2 8299   2.970   1.066   2.022  0.6862  0.6700 -0.1683
 2787TIP3    H1 8300   2.973   1.076   2.117  2.4716  0.9418 -0.2347
 2787TIP3    H2 8301   3.032   0.996   2.003  0.7859  1.0214 -1.1820
 2788TIP3   OH2 8302   5.946   0.802   1.484  0.2376  0.5763  0.0573
 2788TIP3    H1 8303   5.877   0.869   1.488 -0.3844 -0.0776  0.3256
 2788TIP3    H2 8304   5.935   0.752   1.565 -0.0681 -0.5974 -0.6876
 2789TIP3   OH2 8305   3.838   0.511   2.952 -0.1101 -0.1109 -0.1816
 2789TIP3    H1 8306   3.838   0.489   2.859 -1.6258 -0.4726 -0.1112
 2789TIP3    H2 8307   3.752   0.549   2.967  0.4173  0.6476  0.9132
 2790TIP3   OH2 8308   1.262   1.431   0.866  0.2447  0.0379  0.1568
 2790TIP3    H1 8309   1.197   1.390   0.809 -0.5878 -0.2944  1.3342
 2790TIP3    H2 8310   1.310   1.356   0.904  1.6266  0.2823 -1.0353
 2791TIP3   OH2 8311   0.691   4.008   2.174 -0.2056  0.6039  0.5194
 2791TIP3    H1 8312   0.701   4.101   2.157  0.2785  0.7282  1.4722
 2791TIP3    H2 8313   0.775   3.981   2.213 -0.2430 -0.2799  0.0178
 2792TIP3   OH2 8314   6.266   2.390   3.107  0.6162 -0.1237 -0.1597
 2792TIP3    H1 8315   6.341   2.407   3.165 -2.4816  0.5606  3.8603
 2792TIP3    H2 8316   6.239   2.477   3.078  1.1021 -0.3406 -1.2774
 2793TIP3   OH2 8317   3.833   1.582   2.604  0.2105  0.1466  0.1920
 2793TIP3    H1 8318   3.886   1.647   2.650  2.7201 -1.6076 -0.1234
 2793TIP3    H2 8319   3.867   1.583   2.514 -1.8502  0.6034 -0.6040
 2794TIP3   OH2 8320   1.920   3.098   2.865 -0.3354 -0.3701 -0.3193
 2794TIP3    H1 8321   1.972   3.086   2.785  1.0002  0.0460  0.4730
 2794TIP3    H2 8322   1.952   3.030   2.924  1.0100  1.3807  1.0236
 2795TIP3   OH2 8323   5.960   3.002   4.598  0.6106 -0.3068 -0.0733
 2795TIP3    H1 8324   5.876   3.047   4.587  0.5759  0.0418  1.4068
 2795TIP3    H2 8325   5.964   2.983   4.692  1.8354 -1.0232 -0.2611
 2796TIP3   OH2 8326   4.742   3.143   5.179  0.0315 -0.7678  0.0085
 2796TIP3    H1 8327   4.819   3.103   5.137 -1.2618 -2.8220 -0.4608
 2796TIP3    H2 8328   4.771   3.232   5.200  1.7355 -0.6753 -2.4316
 2797TIP3   OH2 8329   2.205   3.396   2.747 -0.2632  0.8347  0.0069
 2797TIP3    H1 8330   2.164   3.472   2.786 -0.5863 -0.1501  1.6084
 2797TIP3    H2 8331   2.270   3.367   2.811 -0.2658 -0.3493 -0.5037
 2798TIP3   OH2 8332   5.021   2.707   4.595 -0.4138  0.4475  0.2095
 2798TIP3    H1 8333   5.036   2.723   4.501 -0.9915  1.2684  0.2534
 2798TIP3    H2 8334   5.015   2.794   4.634 -3.0113  0.1744  0.5434
 2799TIP3   OH2 8335   2.896   0.643   1.990  0.1630 -0.2909 -0.1081
 2799TIP3    H1 8336   2.922   0.638   2.082  0.5036  0.9026 -0.1314
 2799TIP3    H2 8337   2.860   0.557   1.970 -1.9153  0.0979  1.7507
 2800TIP3   OH2 8338   4.184   3.118   5.887 -0.0913  0.2636 -0.3230
 2800TIP3    H1 8339   4.274   3.103   5.859 -0.4407 -0.3260 -1.1379
 2800TIP3    H2 8340   4.191   3.139   5.980  0.9129  0.4929 -0.4496
 2801TIP3   OH2 8341   4.525   1.916   4.943 -0.3739 -0.4046 -0.3167
 2801TIP3    H1 8342   4.549   1.996   4.898  0.3892 -0.9252 -0.8507
 2801TIP3    H2 8343   4.448   1.884   4.897 -1.0423  0.3267  0.2735
 2802TIP3   OH2 8344   5.866   0.374   3.611  0.2622 -0.2058  0.8234
 2802TIP3    H1 8345   5.784   0.330   3.590 -1.3964  2.1505  2.1548
 2802TIP3    H2 8346   5.933   0.322   3.566 -2.2467 -0.2950 -3.0611
 2803TIP3   OH2 8347   4.438   1.899   2.531  0.0467 -0.2000 -0.0166
 2803TIP3    H1 8348   4.494   1.822   2.532 -0.0215 -0.2499  0.7006
 2803TIP3    H2 8349   4.459   1.945   2.613 -2.0646 -1.0213  1.0382
 2804TIP3   OH2 8350   4.723   3.197   4.374  0.3880 -0.3478 -0.1232
 2804TIP3    H1 8351   4.678   3.281   4.378  1.3955  0.1950 -0.1419
 2804TIP3    H2 8352   4.652   3.132   4.371 -0.4051  0.4318  1.1078
 2805TIP3   OH2 8353   3.502   1.927   4.906 -0.0422 -1.0605  0.2403
 2805TIP3    H1 8354   3.530   2.004   4.856  0.5603 -0.8479  0.9069
 2805TIP3    H2 8355   3.408   1.922   4.890 -0.0032 -0.4693 -0.1987
 2806TIP3   OH2 8356   1.665   7.976   3.200 -0.1351  0.0743  0.4663
 2806TIP3    H1 8357   1.574   8.006   3.202  0.1621  1.0017  0.4039
 2806TIP3    H2 8358   1.706   8.020   3.274  0.6889  1.0669 -0.5660
 2807TIP3   OH2 8359   5.401   2.305   3.779  0.0947  0.7596 -0.0208
 2807TIP3    H1 8360   5.377   2.254   3.856 -1.1162  1.6781  0.2214
 2807TIP3    H2 8361   5.425   2.239   3.713 -2.3991 -0.1968 -0.0363
 2808TIP3   OH2 8362   3.589   1.619   4.814 -0.1716 -0.1873 -0.7258
 2808TIP3    H1 8363   3.553   1.531   4.809 -2.7733  0.5958  2.5351
 2808TIP3    H2 8364   3.511   1.676   4.815  1.3809  1.9841 -0.3956
 2809TIP3   OH2 8365   5.993   1.949   1.792  0.5739  0.0751 -0.3774
 2809TIP3    H1 8366   5.917   1.924   1.739  0.8072 -0.3560 -0.5141
 2809TIP3    H2 8367   6.063   1.960   1.728  0.3887  1.4302 -0.3519
 2810TIP3   OH2 8368   3.860   0.365   2.706 -0.3668 -0.5139  0.1321
 2810TIP3    H1 8369   3.826   0.276   2.705  0.0220 -0.7084  1.9496
 2810TIP3    H2 8370   3.834   0.402   2.622 -1.4540 -1.9997 -0.2003
 2811TIP3   OH2 8371   4.587   0.900   3.131 -0.2390 -0.1005  0.1714
 2811TIP3    H1 8372   4.519   0.959   3.098  0.4496  0.3329 -0.4934
 2811TIP3    H2 8373   4.669   0.945   3.112  0.1799  0.0784  2.3854
 2812TIP3   OH2 8374   3.130   0.653   4.139 -0.3707 -0.3481 -0.1969
 2812TIP3    H1 8375   3.104   0.620   4.053  0.3380 -1.1272 -0.1189
 2812TIP3    H2 8376   3.095   0.742   4.142  0.4948  0.0670 -1.7232
 2813TIP3   OH2 8377   7.263   1.075   3.959  0.0232  0.5050 -0.1586
 2813TIP3    H1 8378   7.249   1.009   4.026 -1.1958 -0.8555 -1.6854
 2813TIP3    H2 8379   7.255   1.027   3.876  1.1260  2.1914 -1.2846
 2814TIP3   OH2 8380   6.000   4.435   2.235  0.2687 -0.2555  0.0575
 2814TIP3    H1 8381   6.003   4.351   2.281 -1.6067 -1.4492 -1.9183
 2814TIP3    H2 8382   6.091   4.453   2.211  0.6564 -1.8364  0.3049
 2815TIP3   OH2 8383   4.208   1.504   2.762  0.4100  0.1304 -0.3024
 2815TIP3    H1 8384   4.218   1.468   2.850  0.8909 -0.3193 -0.5405
 2815TIP3    H2 8385   4.249   1.590   2.766  0.4681  0.0929 -0.1001
 2816TIP3   OH2 8386   0.904   7.210   3.427 -0.5940 -0.0822  0.3323
 2816TIP3    H1 8387   0.901   7.283   3.490 -0.1168 -1.1062  1.5555
 2816TIP3    H2 8388   0.984   7.225   3.377  0.0900 -0.3909  1.3408
 2817TIP3   OH2 8389   4.792   2.103   5.638  0.2289 -0.5096  0.4961
 2817TIP3    H1 8390   4.860   2.154   5.681 -0.8051  0.3175  1.1718
 2817TIP3    H2 8391   4.725   2.168   5.614  0.1338 -1.1655 -1.0569
 2818TIP3   OH2 8392   7.610   2.284   2.632  0.2153  0.5904  0.1847
 2818TIP3    H1 8393   7.583   2.194   2.653  2.1310 -0.9564 -3.5549
 2818TIP3    H2 8394   7.650   2.316   2.713 -0.4004 -1.9448  1.5746
 2819TIP3   OH2 8395   2.012   6.072   3.800  0.2599 -0.0368  0.1222
 2819TIP3    H1 8396   2.032   6.163   3.820  1.0453 -0.5117  1.5992
 2819TIP3    H2 8397   2.022   6.065   3.705 -1.5214  1.8099 -0.2317
 2820TIP3   OH2 8398   2.203   7.795   3.582  0.3822  0.0670  0.3520
 2820TIP3    H1 8399   2.296   7.804   3.606  0.4047  1.8431 -0.3458
 2820TIP3    H2 8400   2.199   7.713   3.533  1.7246  0.3167 -0.2080
 2821TIP3   OH2 8401   4.478   0.775   4.849  0.7597 -0.3889 -0.3777
 2821TIP3    H1 8402   4.403   0.731   4.808  0.3108 -0.1136  0.1442
 2821TIP3    H2 8403   4.460   0.868   4.839  0.2278 -0.3125  1.1880
 2822TIP3   OH2 8404   1.680   7.643   1.578 -0.2392  0.4470 -0.6959
 2822TIP3    H1 8405   1.604   7.672   1.628  0.1846  0.8559 -0.2839
 2822TIP3    H2 8406   1.662   7.551   1.556  0.5964 -0.4544  2.2026
 2823TIP3   OH2 8407   2.701   1.787   2.248  0.2236 -0.3521  0.0784
 2823TIP3    H1 8408   2.711   1.879   2.272 -0.8270  0.4215 -2.3142
 2823TIP3    H2 8409   2.785   1.763   2.209  0.2665 -0.2215  0.0910
 2824TIP3   OH2 8410   2.122   1.777   1.177 -0.5149 -0.2875 -0.3720
 2824TIP3    H1 8411   2.205   1.731   1.161 -0.2573 -0.3072  1.0093
 2824TIP3    H2 8412   2.071   1.761   1.097  0.6770 -0.5556 -1.0987
 2825TIP3   OH2 8413   1.615   1.091   3.581 -0.1059 -0.6774 -0.6049
 2825TIP3    H1 8414   1.532   1.049   3.602 -0.3050 -0.2762 -0.5877
 2825TIP3    H2 8415   1.592   1.182   3.563 -0.0454 -1.1065 -3.0996
 2826TIP3   OH2 8416   2.966   0.884   1.104  0.3607 -0.0576  0.1862
 2826TIP3    H1 8417   3.034   0.824   1.075  0.5752  0.9967 -1.5328
 2826TIP3    H2 8418   2.976   0.887   1.199  2.7846  0.1976 -0.0517
 2827TIP3   OH2 8419   6.959   1.296   4.311 -0.2570 -0.1123 -0.2638
 2827TIP3    H1 8420   6.891   1.229   4.303 -1.6801  1.3117 -0.3051
 2827TIP3    H2 8421   7.017   1.264   4.380 -2.1562 -0.3312  1.2512
 2828TIP3   OH2 8422   5.329   4.006   5.748 -0.2581 -0.5936 -0.6342
 2828TIP3    H1 8423   5.364   3.946   5.682  2.1140  0.3546 -0.3241
 2828TIP3    H2 8424   5.351   3.965   5.831 -0.5743 -0.3464 -0.4289
 2829TIP3   OH2 8425   3.576   2.845   5.487  0.0926 -0.2787  0.1028
 2829TIP3    H1 8426   3.618   2.895   5.557 -2.0586  0.2128  1.0942
 2829TIP3    H2 8427   3.484   2.841   5.513 -0.4397 -1.4976 -1.8933
 2830TIP3   OH2 8428   6.220   5.005   2.922  0.0517  0.2556 -0.3207
 2830TIP3    H1 8429   6.272   5.039   2.995 -0.7815  1.7601 -0.4107
 2830TIP3    H2 8430   6.278   4.943   2.878  0.8390 -0.0782  1.1459
 2831TIP3   OH2 8431   7.456   0.691   3.948  0.8222 -0.1852  0.5333
 2831TIP3    H1 8432   7.386   0.757   3.952  0.5241 -0.4025 -0.7513
 2831TIP3    H2 8433   7.452   0.647   4.033 -0.4823 -0.0564  0.5557
 2832TIP3   OH2 8434   5.384   2.404   2.875 -0.0632 -0.1450  0.1415
 2832TIP3    H1 8435   5.381   2.384   2.969 -0.8266 -1.3191 -0.1264
 2832TIP3    H2 8436   5.312   2.465   2.862  0.0508  0.0307  0.3299
 2833TIP3   OH2 8437   7.759   2.801   4.642 -0.5745  0.2434 -0.4931
 2833TIP3    H1 8438   7.749   2.706   4.631  2.6097 -0.3740  1.2827
 2833TIP3    H2 8439   7.738   2.816   4.735 -0.5147  1.1973 -0.6349
 2834TIP3   OH2 8440   2.758   4.528   2.746 -0.2682 -0.0766  0.4563
 2834TIP3    H1 8441   2.771   4.503   2.838  1.8006 -1.7026 -0.2232
 2834TIP3    H2 8442   2.844   4.517   2.706 -0.5792  2.9281 -1.1822
 2835TIP3   OH2 8443   5.459   1.075   2.367 -0.0732  0.2309  0.6529
 2835TIP3    H1 8444   5.514   1.104   2.440 -0.4181  0.4179  0.8372
 2835TIP3    H2 8445   5.369   1.088   2.397 -0.2421 -1.5685  0.9579
 2836TIP3   OH2 8446   5.713   0.637   2.802  0.7283  0.3822  0.9348
 2836TIP3    H1 8447   5.801   0.627   2.766  0.7459  0.3728  0.9808
 2836TIP3    H2 8448   5.656   0.639   2.725  0.6853 -0.4764  0.9292
 2837TIP3   OH2 8449   3.852   0.467   3.628 -0.4187  0.1116 -0.3250
 2837TIP3    H1 8450   3.819   0.551   3.660  3.2342  2.7120 -2.8370
 2837TIP3    H2 8451   3.887   0.424   3.705 -0.4187  1.9118  0.7210
 2838TIP3   OH2 8452   4.216   2.421   2.319 -0.7412  0.2871  0.7459
 2838TIP3    H1 8453   4.297   2.372   2.305 -0.1540  0.5259  3.1624
 2838TIP3    H2 8454   4.147   2.354   2.318 -0.4430 -0.0255 -0.3644
 2839TIP3   OH2 8455   5.569   2.084   2.482  0.2845 -0.3338  0.2954
 2839TIP3    H1 8456   5.538   2.160   2.434 -1.0656 -0.8014  0.4161
 2839TIP3    H2 8457   5.614   2.031   2.416  2.1869  1.0680  0.4245
 2840TIP3   OH2 8458   2.066   7.469   3.136 -0.8489 -0.0175  0.2841
 2840TIP3    H1 8459   1.974   7.476   3.112 -0.4915  0.0132 -1.1321
 2840TIP3    H2 8460   2.112   7.526   3.074  0.3051 -1.4549 -0.2363
 2841TIP3   OH2 8461   8.392   0.970   3.944 -0.3693  0.4272 -0.1990
 2841TIP3    H1 8462   8.446   0.897   3.974  0.2995  2.3373  3.4948
 2841TIP3    H2 8463   8.307   0.955   3.985 -0.3698  1.4520  0.1787
 2842TIP3   OH2 8464   2.309   2.202   3.468  0.4560  0.3720  0.6101
 2842TIP3    H1 8465   2.364   2.169   3.397 -0.3892  1.3285 -0.4992
 2842TIP3    H2 8466   2.336   2.150   3.544  1.6070 -0.4336 -0.3169
 2843TIP3   OH2 8467   5.097   2.387   2.634 -0.0470 -0.8753 -0.3287
 2843TIP3    H1 8468   5.120   2.450   2.702 -0.5590 -1.6795  0.6046
 2843TIP3    H2 8469   5.016   2.421   2.597 -1.0307 -1.6679  1.0686
 2844TIP3   OH2 8470   5.215   1.374   2.763  0.0290  0.1095  0.0225
 2844TIP3    H1 8471   5.229   1.279   2.759  1.0505  0.2719 -0.3007
 2844TIP3    H2 8472   5.123   1.383   2.789 -0.7963 -0.9936 -2.3152
 2845TIP3   OH2 8473   5.277   2.478   3.582 -0.3064  0.3024 -0.0275
 2845TIP3    H1 8474   5.338   2.425   3.531  0.3883 -0.2323  1.3232
 2845TIP3    H2 8475   5.307   2.468   3.672  0.2181  3.5050  0.2077
 2846TIP3   OH2 8476   4.359   1.622   1.326 -0.0390  0.1396  0.2402
 2846TIP3    H1 8477   4.345   1.700   1.379  1.8941  0.9427 -0.3813
 2846TIP3    H2 8478   4.375   1.552   1.390  0.0173  0.6233  0.7620
 2847TIP3   OH2 8479   5.450   1.948   4.879  0.2074 -0.7875 -0.0300
 2847TIP3    H1 8480   5.446   1.980   4.789  1.7583 -0.7218 -0.0814
 2847TIP3    H2 8481   5.539   1.966   4.907 -0.0742 -1.4178  1.3052
 2848TIP3   OH2 8482   4.686   1.798   3.455 -0.1278  0.1699 -0.2056
 2848TIP3    H1 8483   4.713   1.762   3.371 -0.5395  1.7315 -1.0265
 2848TIP3    H2 8484   4.593   1.775   3.463  0.3214 -1.4382  0.6194
 2849TIP3   OH2 8485   6.011   1.193   3.231 -0.3141  0.4845 -0.6773
 2849TIP3    H1 8486   6.004   1.104   3.197  1.4416  0.0790 -0.0212
 2849TIP3    H2 8487   5.957   1.193   3.309  2.1290 -0.9218  1.0692
 2850TIP3   OH2 8488   4.739   0.677   4.102 -0.1469  0.3257 -0.1277
 2850TIP3    H1 8489   4.679   0.650   4.033  0.3246  2.0751 -1.2419
 2850TIP3    H2 8490   4.763   0.767   4.081  0.7615  0.5783  1.7887
 2851TIP3   OH2 8491   4.193   1.613   3.978  0.0245  0.3523 -0.5577
 2851TIP3    H1 8492   4.184   1.548   3.908 -1.1179 -0.0429 -0.0562
 2851TIP3    H2 8493   4.103   1.635   4.002  0.4082  1.2018  0.1384
 2852TIP3   OH2 8494   4.039   4.301   3.402  0.3926 -0.4746  0.0484
 2852TIP3    H1 8495   4.128   4.312   3.368  1.1509 -2.2930  1.3452
 2852TIP3    H2 8496   4.028   4.206   3.408 -1.4845 -0.2476  0.3340
 2853TIP3   OH2 8497   4.011   1.904   3.891  0.1841 -0.4263  0.2417
 2853TIP3    H1 8498   4.105   1.919   3.896  0.0564 -0.2177  2.2665
 2853TIP3    H2 8499   3.995   1.883   3.799  2.0934  0.2474 -0.2605
 2854TIP3   OH2 8500   1.563   7.875   4.105  0.3435  0.6002  0.0547
 2854TIP3    H1 8501   1.512   7.798   4.130  1.5859 -0.4163 -0.4416
 2854TIP3    H2 8502   1.594   7.854   4.016  1.6567  1.1645  0.3722
 2855TIP3   OH2 8503   4.233   3.980   4.027 -0.0760  0.1997 -0.4266
 2855TIP3    H1 8504   4.184   3.902   4.001 -1.2226  0.0994  1.9163
 2855TIP3    H2 8505   4.170   4.033   4.076  1.3011  1.5548 -0.0612
 2856TIP3   OH2 8506   4.654   3.326   3.993  0.3911  0.2013 -0.2270
 2856TIP3    H1 8507   4.602   3.275   3.930 -1.6388  1.6127  0.2402
 2856TIP3    H2 8508   4.671   3.409   3.947  1.4422  0.1081 -0.0120
 2857TIP3   OH2 8509   5.430   4.141   4.698  0.0693  0.1032 -0.0290
 2857TIP3    H1 8510   5.494   4.110   4.634 -2.2410  0.2225 -2.4543
 2857TIP3    H2 8511   5.379   4.207   4.652 -0.0623  2.0178  2.7145
 2858TIP3   OH2 8512   4.769   0.300   4.474  0.3738 -0.3503  0.4052
 2858TIP3    H1 8513   4.843   0.297   4.414  0.0336 -1.0287  0.0045
 2858TIP3    H2 8514   4.794   0.241   4.546 -0.1455 -1.2803 -0.1713
 2859TIP3   OH2 8515   4.238   2.346   4.667 -0.3098 -0.0492  0.6220
 2859TIP3    H1 8516   4.162   2.288   4.663 -0.3466  0.0672 -0.9060
 2859TIP3    H2 8517   4.304   2.302   4.612  0.4170  0.2795  1.2293
 2860TIP3   OH2 8518   3.817   2.061   2.742 -0.1952  0.3503 -0.4573
 2860TIP3    H1 8519   3.854   2.104   2.665  0.8937 -1.5164 -1.0248
 2860TIP3    H2 8520   3.746   2.118   2.770 -0.2467  1.3350 -2.5126
 2861TIP3   OH2 8521   2.844   2.144   2.905  0.1022 -0.3147 -0.4034
 2861TIP3    H1 8522   2.780   2.210   2.932 -0.1384 -0.7760  0.1654
 2861TIP3    H2 8523   2.816   2.063   2.949  0.8861 -0.5949 -0.4002
 2862TIP3   OH2 8524   4.809   4.082   4.510  0.7525  0.1491 -0.0395
 2862TIP3    H1 8525   4.763   4.164   4.491 -2.9421 -1.8953 -0.3469
 2862TIP3    H2 8526   4.840   4.093   4.600 -0.3949  1.6044  0.2033
 2863TIP3   OH2 8527   5.337   4.173   3.118  0.0246 -0.5723  0.3011
 2863TIP3    H1 8528   5.317   4.180   3.025 -0.5294  1.3183  0.5337
 2863TIP3    H2 8529   5.325   4.262   3.152  1.2590 -1.0146  1.9725
 2864TIP3   OH2 8530   5.392   3.884   5.234  0.8269  0.9446  0.3024
 2864TIP3    H1 8531   5.320   3.926   5.281 -0.0333  0.4337 -0.5360
 2864TIP3    H2 8532   5.349   3.831   5.166  1.9642  0.0984  0.2254
 2865TIP3   OH2 8533   3.668   1.934   3.237 -0.0998  0.2938 -0.0206
 2865TIP3    H1 8534   3.749   1.972   3.272 -0.9225  2.6809 -0.5992
 2865TIP3    H2 8535   3.697   1.863   3.181  1.5023 -0.0696  1.2329
 2866TIP3   OH2 8536   2.994   7.704   1.618 -0.8190 -0.2031 -0.2806
 2866TIP3    H1 8537   3.015   7.767   1.686  0.5475 -0.8275 -0.1033
 2866TIP3    H2 8538   3.001   7.754   1.536  0.8688 -0.2523 -0.1873
 2867TIP3   OH2 8539   4.367   0.245   4.277 -0.4442 -0.0409  0.0427
 2867TIP3    H1 8540   4.436   0.310   4.265  0.0527 -0.3785  0.9712
 2867TIP3    H2 8541   4.329   0.234   4.190  0.4091  0.4443 -0.4039
 2868TIP3   OH2 8542   3.329   1.788   3.970 -0.3926  0.4841 -0.3599
 2868TIP3    H1 8543   3.265   1.767   3.901 -1.2808 -0.0206  0.5894
 2868TIP3    H2 8544   3.410   1.747   3.941 -0.9831 -0.4656 -0.6867
 2869TIP3   OH2 8545   5.501   0.828   1.612 -0.6089  0.3904  0.3421
 2869TIP3    H1 8546   5.539   0.902   1.565  1.4874  0.1939  1.6366
 2869TIP3    H2 8547   5.469   0.769   1.543 -0.9455  1.8010 -0.7224
 2870TIP3   OH2 8548   2.772   7.859   4.336 -0.4300  0.1315  0.1646
 2870TIP3    H1 8549   2.805   7.796   4.272  3.1559  1.7196  0.3011
 2870TIP3    H2 8550   2.704   7.908   4.290 -0.8133 -1.4963 -1.0354
 2871TIP3   OH2 8551   2.642   7.628   2.911 -0.4245  0.2118  0.5111
 2871TIP3    H1 8552   2.590   7.596   2.837  0.1099  1.3585 -0.3838
 2871TIP3    H2 8553   2.578   7.656   2.976 -0.9817  3.0191 -1.1736
 2872TIP3   OH2 8554   3.751   1.842   2.911  0.2424 -0.3823  0.4924
 2872TIP3    H1 8555   3.758   1.921   2.857  1.5202 -0.9877 -0.2472
 2872TIP3    H2 8556   3.657   1.822   2.912  0.1232  0.0187 -0.9837
 2873TIP3   OH2 8557   3.074   7.843   2.887 -0.2080 -0.6412  0.4629
 2873TIP3    H1 8558   2.993   7.842   2.938  1.2677 -2.0022  2.8410
 2873TIP3    H2 8559   3.124   7.916   2.924  0.7712 -1.4894  0.8034
 2874TIP3   OH2 8560   2.405   7.634   2.327 -0.0317  0.0525 -0.2400
 2874TIP3    H1 8561   2.415   7.727   2.350 -0.2944  0.2391 -0.8732
 2874TIP3    H2 8562   2.314   7.613   2.349  0.1885 -0.2138  0.4436
 2875TIP3   OH2 8563   2.995   3.876   0.005 -0.5984 -0.5900  0.4485
 2875TIP3    H1 8564   2.905   3.890  -0.025 -0.0163  1.4436 -0.4395
 2875TIP3    H2 8565   2.994   3.901   0.097 -1.5281 -3.1774  1.1778
 2876TIP3   OH2 8566   5.456   2.452   1.834  0.5274 -0.3398  0.0431
 2876TIP3    H1 8567   5.396   2.395   1.881  1.4433 -2.5387 -1.3770
 2876TIP3    H2 8568   5.530   2.464   1.894 -0.2562  0.4454  0.8596
 2877TIP3   OH2 8569   1.134   5.709   1.798  0.4488  0.8085  0.4753
 2877TIP3    H1 8570   1.226   5.723   1.778  0.6078 -0.6851  0.1079
 2877TIP3    H2 8571   1.126   5.615   1.813 -1.2199  0.7445 -0.6030
 2878TIP3   OH2 8572   2.483   2.429   2.449  0.0443  0.7977 -0.3087
 2878TIP3    H1 8573   2.578   2.444   2.453  0.4607 -1.6754  0.2617
 2878TIP3    H2 8574   2.455   2.431   2.540  0.0384 -1.0953 -0.2417
 2879TIP3   OH2 8575   4.199   2.048   1.662 -0.3941  0.4594 -0.4288
 2879TIP3    H1 8576   4.155   2.133   1.663 -1.9489 -0.3368  0.8224
 2879TIP3    H2 8577   4.289   2.067   1.691 -0.6042  1.7247 -0.5887
 2880TIP3   OH2 8578   5.151   2.106   3.658 -0.3690 -0.0664  0.2575
 2880TIP3    H1 8579   5.242   2.100   3.628 -0.3733 -0.4843  0.3260
 2880TIP3    H2 8580   5.154   2.170   3.730  0.1286 -1.1383  1.2133
 2881TIP3   OH2 8581   4.765   1.693   3.224 -0.7394  0.5581 -0.3086
 2881TIP3    H1 8582   4.812   1.611   3.240 -1.4364  0.0366 -0.8892
 2881TIP3    H2 8583   4.730   1.683   3.135  0.0453  1.9156 -0.7845
 2882TIP3   OH2 8584   3.217   2.444   3.804  0.2201  0.4104  0.0441
 2882TIP3    H1 8585   3.164   2.497   3.864 -0.5070  1.3554 -1.3967
 2882TIP3    H2 8586   3.265   2.509   3.752  2.8272 -0.4134  1.3153
 2883TIP3   OH2 8587   5.676   2.374   2.550  0.3157  0.4161  0.2135
 2883TIP3    H1 8588   5.700   2.368   2.458 -0.4035  1.5958 -0.0523
 2883TIP3    H2 8589   5.692   2.286   2.584  1.1499  0.1214 -0.8890
 2884TIP3   OH2 8590   2.124   2.977   5.613 -0.2648 -0.1393 -1.0197
 2884TIP3    H1 8591   2.061   3.036   5.571 -0.2722  0.3736 -0.2974
 2884TIP3    H2 8592   2.209   3.002   5.575 -0.3566 -0.1270 -1.2184
 2885TIP3   OH2 8593   5.694   1.902   2.636  0.3633  0.1517 -0.4661
 2885TIP3    H1 8594   5.757   1.963   2.673  0.7628 -0.7370  0.3200
 2885TIP3    H2 8595   5.621   1.957   2.607  0.6606  0.9803  0.3689
 2886TIP3   OH2 8596   2.444   7.199   2.788 -0.6409  0.2916  0.2593
 2886TIP3    H1 8597   2.424   7.211   2.880 -0.6658  2.3089  0.0218
 2886TIP3    H2 8598   2.523   7.251   2.773 -0.9792  0.4752 -0.9860
 2887TIP3   OH2 8599   7.840   1.046   3.461  0.2824 -0.0893  0.6035
 2887TIP3    H1 8600   7.928   1.038   3.498 -0.1936 -0.7558  1.6389
 2887TIP3    H2 8601   7.805   0.956   3.464 -1.0765  0.4679  1.8682
 2888TIP3   OH2 8602   3.974   7.845   2.589  0.0066  0.3663  0.2941
 2888TIP3    H1 8603   4.003   7.936   2.584 -0.4543  0.4314 -1.3124
 2888TIP3    H2 8604   3.887   7.844   2.548 -1.0209 -0.3757  2.3889
 2889TIP3   OH2 8605   6.848   1.683   2.844  0.7368 -0.4065 -0.5208
 2889TIP3    H1 8606   6.822   1.722   2.760  0.9819 -0.2290 -0.5147
 2889TIP3    H2 8607   6.937   1.715   2.859  0.3139  0.4120  0.3213
 2890TIP3   OH2 8608   3.181   6.896   2.050  0.6167 -0.4503  0.3189
 2890TIP3    H1 8609   3.120   6.963   2.081  2.4968  1.7024 -0.4663
 2890TIP3    H2 8610   3.128   6.837   1.997 -0.9555  0.8704  0.4084
 2891TIP3   OH2 8611   7.988   1.512   3.979 -0.0108  0.3511  0.1051
 2891TIP3    H1 8612   7.991   1.504   3.884  0.4958 -0.8062  0.2144
 2891TIP3    H2 8613   8.079   1.506   4.007 -0.3321 -1.5488  0.8284
 2892TIP3   OH2 8614   6.934   2.671   1.378 -0.3909 -0.5820 -0.2226
 2892TIP3    H1 8615   6.904   2.658   1.288 -0.1593 -0.8244 -0.2659
 2892TIP3    H2 8616   6.990   2.595   1.396  0.4336  0.0043 -0.2474
 2893TIP3   OH2 8617   6.757   2.760   3.929  0.5594 -1.0197 -0.6876
 2893TIP3    H1 8618   6.684   2.795   3.878  1.4476 -0.3100 -1.5008
 2893TIP3    H2 8619   6.824   2.829   3.924  0.9917 -1.3329  0.6844
 2894TIP3   OH2 8620   7.747   1.685   4.030  0.3072  0.1580 -0.1287
 2894TIP3    H1 8621   7.752   1.745   4.104  2.0721  2.6872 -2.2151
 2894TIP3    H2 8622   7.832   1.642   4.027  0.4960  0.5879 -1.1070
 2895TIP3   OH2 8623   8.085   1.405   2.471 -0.3277  0.2977 -0.2464
 2895TIP3    H1 8624   8.114   1.384   2.382 -2.0380  1.2049 -1.0233
 2895TIP3    H2 8625   8.056   1.321   2.507  0.3525 -0.0688 -0.5368
 2896TIP3   OH2 8626   6.273   0.042   3.009 -0.0783 -0.3974 -0.0600
 2896TIP3    H1 8627   6.209   0.055   2.939  1.4846 -0.3545 -1.5271
 2896TIP3    H2 8628   6.335  -0.022   2.973  1.8465  1.0995  0.5010
 2897TIP3   OH2 8629   3.962   1.057   1.391  0.4315 -0.1180  0.0710
 2897TIP3    H1 8630   4.020   0.981   1.387 -1.5978 -1.7183 -0.3774
 2897TIP3    H2 8631   3.921   1.051   1.477  0.0663  0.3162 -0.0685
 2898TIP3   OH2 8632   5.679   1.181   1.730 -0.0882 -0.2126 -0.0790
 2898TIP3    H1 8633   5.609   1.152   1.671 -0.3142 -1.1410  0.6193
 2898TIP3    H2 8634   5.647   1.265   1.765  0.1347  0.4287 -1.3996
 2899TIP3   OH2 8635   6.658   3.284   2.593 -0.7059 -0.1106 -0.4849
 2899TIP3    H1 8636   6.736   3.319   2.635 -0.5525 -2.6285  1.4239
 2899TIP3    H2 8637   6.587   3.338   2.626  0.0051  1.1303 -0.9440
 2900TIP3   OH2 8638   6.222   2.690   3.084 -0.4415 -0.4847  0.2905
 2900TIP3    H1 8639   6.308   2.732   3.082 -0.9797  0.6392  0.5070
 2900TIP3    H2 8640   6.166   2.745   3.029 -0.7838 -1.7782 -0.7065
 2901TIP3   OH2 8641   1.556   6.953   6.453 -0.0402 -0.1210  0.4717
 2901TIP3    H1 8642   1.520   6.867   6.474  0.9122 -0.8285 -0.7227
 2901TIP3    H2 8643   1.480   7.008   6.436 -0.6065 -1.0849 -0.0851
 2902TIP3   OH2 8644   6.427   2.460   2.131  0.2604 -0.4582 -0.8836
 2902TIP3    H1 8645   6.342   2.481   2.170  0.6667  0.5356 -0.5143
 2902TIP3    H2 8646   6.417   2.481   2.038  1.0526  2.7228 -0.3193
 2903TIP3   OH2 8647   7.134   1.479   3.228  0.8305  0.6866 -0.0000
 2903TIP3    H1 8648   7.217   1.482   3.182  0.6015  0.4927 -0.4255
 2903TIP3    H2 8649   7.128   1.390   3.263  1.0054  0.8345  0.4068
 2904TIP3   OH2 8650   4.600   7.814   3.249  0.4259 -0.6153  0.2746
 2904TIP3    H1 8651   4.597   7.730   3.204 -0.1660 -0.2360 -0.4021
 2904TIP3    H2 8652   4.519   7.817   3.300 -0.8531  0.6879 -1.7909
 2905TIP3   OH2 8653   6.140   1.595   4.032  0.4469  0.2205 -0.4275
 2905TIP3    H1 8654   6.067   1.577   3.973  1.4970 -1.4439 -1.2303
 2905TIP3    H2 8655   6.108   1.567   4.118  0.0332 -0.2177 -0.7230
 2906TIP3   OH2 8656   5.949   0.410   4.488 -0.6480  0.3915  0.3887
 2906TIP3    H1 8657   5.950   0.354   4.565 -1.2002  0.7126  0.6366
 2906TIP3    H2 8658   6.028   0.386   4.440 -1.1201 -0.9473  0.2393
 2907TIP3   OH2 8659   0.178   0.338   3.056  0.1088  0.2153  0.0860
 2907TIP3    H1 8660   0.163   0.415   3.002  2.1474 -0.2287 -1.1678
 2907TIP3    H2 8661   0.107   0.278   3.033 -1.0102  1.3683  0.4672
 2908TIP3   OH2 8662   3.641   7.672   2.671 -0.5360 -0.0221  0.3194
 2908TIP3    H1 8663   3.675   7.683   2.582  0.0195  1.8615  0.7409
 2908TIP3    H2 8664   3.652   7.579   2.690  1.6747  0.0198 -0.6428
 2909TIP3   OH2 8665   4.673   1.180   4.668 -0.0354  0.0303 -0.0945
 2909TIP3    H1 8666   4.597   1.123   4.665 -0.6801  0.8940 -0.3962
 2909TIP3    H2 8667   4.729   1.150   4.596  0.0537 -0.7932  0.3150
 2910TIP3   OH2 8668   5.335   1.934   2.555  0.1875  0.4951  0.1768
 2910TIP3    H1 8669   5.348   1.862   2.616 -1.2053 -0.1834 -0.3094
 2910TIP3    H2 8670   5.423   1.967   2.538  0.6156  0.5838  2.4011
 2911TIP3   OH2 8671   6.096   2.006   3.357 -0.1070 -0.0475 -0.1797
 2911TIP3    H1 8672   6.022   2.019   3.416  1.2286  1.8741  1.1520
 2911TIP3    H2 8673   6.101   2.087   3.306  0.9243 -0.2376 -0.3991
 2912TIP3   OH2 8674   7.646   2.884   2.922 -0.1649 -0.4599  0.5105
 2912TIP3    H1 8675   7.575   2.821   2.907 -1.3224  0.6842  1.0637
 2912TIP3    H2 8676   7.667   2.874   3.015  0.1625 -0.5534  0.4258
 2913TIP3   OH2 8677   5.194   2.048   2.224 -0.4146 -0.0301 -0.1359
 2913TIP3    H1 8678   5.135   2.058   2.299 -0.1412  1.1141 -0.0560
 2913TIP3    H2 8679   5.210   2.138   2.194  1.8899 -0.2517  0.3256
 2914TIP3   OH2 8680   6.929   0.212   2.118  0.1348 -0.1622  0.1932
 2914TIP3    H1 8681   7.009   0.170   2.088 -0.3501 -0.6998 -0.3873
 2914TIP3    H2 8682   6.869   0.139   2.135 -0.2554  0.2368  0.5362
 2915TIP3   OH2 8683   7.118   2.381   1.834 -0.5975  0.5006 -0.4996
 2915TIP3    H1 8684   7.075   2.466   1.843 -1.1332  0.1927 -0.1181
 2915TIP3    H2 8685   7.056   2.329   1.783 -0.5997  0.1030 -0.0833
 2916TIP3   OH2 8686   7.535   2.036   2.776  0.2320  0.2842 -0.1792
 2916TIP3    H1 8687   7.524   1.942   2.769  1.9843 -0.0471  1.1545
 2916TIP3    H2 8688   7.519   2.056   2.868 -1.2703  1.4623 -0.6758
 2917TIP3   OH2 8689   7.358   0.780   0.853 -0.7003 -0.7065 -0.0331
 2917TIP3    H1 8690   7.369   0.838   0.928  2.0677 -0.6834 -0.4006
 2917TIP3    H2 8691   7.309   0.706   0.887 -0.8407  0.0337  1.4252
 2918TIP3   OH2 8692   7.615   2.351   3.367  0.2595 -0.3888 -0.3741
 2918TIP3    H1 8693   7.656   2.290   3.305  0.8530  0.2189 -0.5874
 2918TIP3    H2 8694   7.545   2.300   3.408  2.9003 -2.2802  1.9594
 2919TIP3   OH2 8695   5.324   3.319   1.642  0.2564 -0.0397  0.3208
 2919TIP3    H1 8696   5.250   3.370   1.609  1.8823  2.4752  0.4044
 2919TIP3    H2 8697   5.286   3.260   1.707 -1.7128  0.9269  0.0750
 2920TIP3   OH2 8698   4.880   2.117   3.727 -0.1242 -0.0644 -0.1858
 2920TIP3    H1 8699   4.843   2.199   3.696  0.6725  0.5193  0.3819
 2920TIP3    H2 8700   4.949   2.097   3.664  0.5504  0.3876  0.3956
 2921TIP3   OH2 8701   5.452   3.656   2.852 -0.5351  0.8189  0.3235
 2921TIP3    H1 8702   5.479   3.696   2.935 -3.6612 -1.1223  2.4163
 2921TIP3    H2 8703   5.508   3.579   2.843 -1.4506 -0.0299  1.6718
 2922TIP3   OH2 8704   6.188   2.011   1.590 -0.3863  0.5908  0.0090
 2922TIP3    H1 8705   6.185   2.052   1.504  1.1748 -0.2900 -0.5022
 2922TIP3    H2 8706   6.279   2.022   1.618 -0.3841 -0.8755  0.6536
 2923TIP3   OH2 8707   8.198   2.649   2.549 -0.2984  0.2485 -0.4757
 2923TIP3    H1 8708   8.280   2.679   2.589 -0.7718  0.6087  0.2411
 2923TIP3    H2 8709   8.205   2.675   2.457 -0.2010  1.5098 -0.1165
 2924TIP3   OH2 8710   4.732   0.779   3.353  0.9169  0.1734 -0.5132
 2924TIP3    H1 8711   4.815   0.818   3.324  0.3970  0.8986 -1.0390
 2924TIP3    H2 8712   4.665   0.824   3.301  0.1639 -0.1644  0.1628
 2925TIP3   OH2 8713   5.914   2.231   2.411  0.3031  0.7303  0.1409
 2925TIP3    H1 8714   5.926   2.156   2.354 -0.4844 -0.2188  1.1942
 2925TIP3    H2 8715   5.861   2.292   2.360 -1.5142 -0.6532  0.3088
 2926TIP3   OH2 8716   3.808   0.932   1.581 -0.2094 -0.4201 -0.2777
 2926TIP3    H1 8717   3.788   0.952   1.673 -1.2810  0.6742 -0.7405
 2926TIP3    H2 8718   3.742   0.868   1.556  0.4369 -1.1511 -0.1247
 2927TIP3   OH2 8719   7.846   1.974   1.346 -0.3823  0.3488  0.4550
 2927TIP3    H1 8720   7.827   1.970   1.440 -1.9377 -1.1269  0.1167
 2927TIP3    H2 8721   7.923   1.918   1.334 -0.2636  0.4328  0.8410
 2928TIP3   OH2 8722   3.925   2.513   1.158 -0.3596  0.2708  0.2380
 2928TIP3    H1 8723   3.983   2.552   1.093  1.8884 -2.1589  0.7158
 2928TIP3    H2 8724   3.859   2.466   1.107 -0.7286  1.3534 -0.2935
 2929TIP3   OH2 8725   7.023   1.646   0.888  0.8788  0.0396  0.6784
 2929TIP3    H1 8726   7.099   1.653   0.830 -0.5161  1.5660 -1.0105
 2929TIP3    H2 8727   6.992   1.736   0.900 -0.8179 -0.5768  1.1429
 2930TIP3   OH2 8728   5.219   2.187   1.133  0.6762  0.1773 -0.0433
 2930TIP3    H1 8729   5.186   2.148   1.214 -0.3685 -1.5352 -1.2489
 2930TIP3    H2 8730   5.140   2.216   1.086  0.9997 -1.6415 -1.8008
 2931TIP3   OH2 8731   7.976   3.010   4.279  0.2122  0.2202  0.0062
 2931TIP3    H1 8732   7.886   2.987   4.254 -0.0592  0.0500  1.1064
 2931TIP3    H2 8733   7.968   3.094   4.324  0.8468  1.1038 -1.4711
 2932TIP3   OH2 8734   5.606   4.258   1.772  0.2880  0.1968  0.1159
 2932TIP3    H1 8735   5.567   4.335   1.813  0.8928  0.1473  0.7885
 2932TIP3    H2 8736   5.583   4.266   1.679 -3.5093 -1.1736  0.8650
 2933TIP3   OH2 8737   5.459   2.147   3.536 -0.4482  0.2070 -0.0477
 2933TIP3    H1 8738   5.551   2.150   3.512 -0.8547 -2.4835 -2.2143
 2933TIP3    H2 8739   5.412   2.155   3.452 -2.1569  0.2862  0.8923
 2934TIP3   OH2 8740   5.492   1.153   2.827  0.3294  0.1160  0.2757
 2934TIP3    H1 8741   5.413   1.121   2.870  0.3631 -1.8432 -1.0597
 2934TIP3    H2 8742   5.564   1.112   2.876  0.4189 -0.3596 -0.2391
 2935TIP3   OH2 8743   6.143   1.267   3.976  0.4685  0.5053  0.1080
 2935TIP3    H1 8744   6.218   1.318   4.007  1.0244 -0.1269 -0.1664
 2935TIP3    H2 8745   6.074   1.332   3.962  0.5811  0.9522  1.4913
 2936TIP3   OH2 8746   5.598   1.638   1.110  0.4222 -0.0905  0.0233
 2936TIP3    H1 8747   5.627   1.722   1.145 -2.7556  1.0319  0.1163
 2936TIP3    H2 8748   5.588   1.582   1.186 -1.0742  0.6288  0.3718
 2937TIP3   OH2 8749   5.975   4.628   1.057 -0.2494 -0.0227 -0.1985
 2937TIP3    H1 8750   5.903   4.626   1.120 -0.4568  1.9305 -0.3304
 2937TIP3    H2 8751   6.054   4.612   1.110 -0.7032 -1.5834  0.0342
 2938TIP3   OH2 8752   0.799   1.381   3.600  0.1932  0.4566 -0.6206
 2938TIP3    H1 8753   0.856   1.306   3.584 -0.9370 -1.0311  2.0151
 2938TIP3    H2 8754   0.712   1.343   3.612 -0.7530  2.3863 -1.1295
 2939TIP3   OH2 8755   6.130   2.087   2.322 -0.2201  0.4882  0.2492
 2939TIP3    H1 8756   6.204   2.137   2.288  0.3392 -0.5570 -0.0853
 2939TIP3    H2 8757   6.140   2.000   2.283 -0.5856 -0.1959  1.6675
 2940TIP3   OH2 8758   5.771   1.375   4.188 -0.1115 -0.1526  1.0964
 2940TIP3    H1 8759   5.694   1.408   4.142 -0.0441  0.2619  1.2838
 2940TIP3    H2 8760   5.738   1.347   4.273 -0.5306 -2.3798  0.2472
 2941TIP3   OH2 8761   6.699   0.600   3.801 -0.0284  0.0895  0.1286
 2941TIP3    H1 8762   6.715   0.694   3.802  1.9282 -0.2216  0.2778
 2941TIP3    H2 8763   6.659   0.581   3.886 -2.2464  1.0576 -0.6685
 2942TIP3   OH2 8764   0.604   6.504   6.815 -0.1119  0.2875 -0.3804
 2942TIP3    H1 8765   0.590   6.562   6.891 -0.7137 -0.3894  0.0315
 2942TIP3    H2 8766   0.516   6.495   6.776  0.0021 -0.2505 -0.5143
 2943TIP3   OH2 8767   6.358   1.898   1.942 -0.1535  0.7425  0.1905
 2943TIP3    H1 8768   6.332   1.815   1.982 -0.7916  1.0516  0.4299
 2943TIP3    H2 8769   6.447   1.913   1.975  0.1495 -0.0747 -0.2284
 2944TIP3   OH2 8770   6.174   1.103   1.091  0.6237 -0.3384  0.1114
 2944TIP3    H1 8771   6.223   1.022   1.080  0.2532 -0.4239 -0.8842
 2944TIP3    H2 8772   6.111   1.084   1.161  0.2479 -1.0473 -0.4175
 2945TIP3   OH2 8773   3.350   7.635   2.084 -0.0970 -0.4807 -0.0740
 2945TIP3    H1 8774   3.353   7.713   2.029 -1.3421 -2.2295 -2.7405
 2945TIP3    H2 8775   3.375   7.563   2.025 -3.6222 -2.7249  1.0199
 2946TIP3   OH2 8776   4.605   0.044   0.247  0.6976 -0.2088 -0.0615
 2946TIP3    H1 8777   4.597  -0.051   0.254  0.1183 -0.2270 -0.8942
 2946TIP3    H2 8778   4.529   0.071   0.196  0.6285  0.7553  0.5298
 2947TIP3   OH2 8779   6.454   1.928   1.421  0.0792  0.0091  0.5349
 2947TIP3    H1 8780   6.478   1.949   1.511  1.5800  0.7434 -0.0023
 2947TIP3    H2 8781   6.401   1.849   1.427  2.3973 -1.5018  1.8596
 2948TIP3   OH2 8782   5.986   0.870   3.422 -0.4316 -0.0804  0.3445
 2948TIP3    H1 8783   6.022   0.869   3.511  2.2488  3.0399 -0.6188
 2948TIP3    H2 8784   5.937   0.952   3.416 -1.0323 -0.5088 -0.8923
 2949TIP3   OH2 8785   6.425   0.259   3.097 -0.0542  0.2108  0.7273
 2949TIP3    H1 8786   6.441   0.249   3.191 -0.8367 -0.1027  0.8356
 2949TIP3    H2 8787   6.379   0.179   3.072  2.1580 -0.7501 -0.3974
 2950TIP3   OH2 8788   3.663   2.062   1.618  0.7340 -0.0221  0.5745
 2950TIP3    H1 8789   3.748   2.067   1.574  0.3837  1.3131  0.0226
 2950TIP3    H2 8790   3.629   1.976   1.594  0.2336  0.9416 -2.3774
 2951TIP3   OH2 8791   4.873   3.035   2.443 -0.4575  0.4228  0.4431
 2951TIP3    H1 8792   4.800   3.009   2.387 -0.0825  0.3255 -0.0053
 2951TIP3    H2 8793   4.842   3.113   2.489 -0.9191  0.2576  0.4152
 2952TIP3   OH2 8794   1.119   7.208   4.061  0.4390  0.4222  0.4194
 2952TIP3    H1 8795   1.124   7.237   3.970 -1.2857 -0.6496 -0.0345
 2952TIP3    H2 8796   1.144   7.285   4.112 -0.6240  1.6562 -0.8823
 2953TIP3   OH2 8797   6.671   1.532   3.667 -0.2979  0.3039  0.4031
 2953TIP3    H1 8798   6.753   1.528   3.618  0.2702  2.0016  1.1640
 2953TIP3    H2 8799   6.605   1.498   3.607  0.8564 -0.4154 -0.4665
 2954TIP3   OH2 8800   0.074   1.925   3.252 -0.0216  0.2161 -0.5332
 2954TIP3    H1 8801   0.138   1.995   3.238 -1.0746  1.2631 -0.1829
 2954TIP3    H2 8802   0.029   1.916   3.168  0.8823 -0.8304 -0.9118
 2955TIP3   OH2 8803   5.064   2.401   3.936  0.1882  0.1992 -0.6034
 2955TIP3    H1 8804   4.998   2.422   3.870 -1.1349  1.8317  1.1710
 2955TIP3    H2 8805   5.023   2.335   3.992 -0.0330  1.3277  0.5975
 2956TIP3   OH2 8806   2.633   6.896   2.192  0.0023  0.1419  0.3376
 2956TIP3    H1 8807   2.684   6.928   2.266  0.0109 -2.1288  1.3211
 2956TIP3    H2 8808   2.692   6.838   2.144 -1.6716 -2.7367  1.6466
 2957TIP3   OH2 8809   7.533   1.138   3.962  0.2508 -0.1829  0.2344
 2957TIP3    H1 8810   7.532   1.199   3.888 -1.4494  0.9722  1.1553
 2957TIP3    H2 8811   7.440   1.121   3.979  0.6834 -2.0886  0.7873
 2958TIP3   OH2 8812   6.262   0.606   1.963  0.1573  0.4047  0.5669
 2958TIP3    H1 8813   6.319   0.538   1.927 -0.1218 -0.1052  1.0940
 2958TIP3    H2 8814   6.277   0.682   1.906  1.0175  0.1313  0.4222
 2959TIP3   OH2 8815   5.868   4.178   1.758 -0.3959 -0.2918 -0.1226
 2959TIP3    H1 8816   5.875   4.192   1.664 -1.3089 -1.3663 -0.3669
 2959TIP3    H2 8817   5.780   4.207   1.780 -0.1815 -0.0376  0.4056
 2960TIP3   OH2 8818   4.886   3.258   2.031 -0.5230 -0.0309 -0.5514
 2960TIP3    H1 8819   4.915   3.192   2.093  1.9519  1.0758 -0.4593
 2960TIP3    H2 8820   4.824   3.213   1.973 -0.1985 -1.9319  0.5707
 2961TIP3   OH2 8821   2.946   6.990   4.721 -0.0791  0.1459  0.2206
 2961TIP3    H1 8822   2.922   7.012   4.631 -1.6928 -2.6720 -0.0787
 2961TIP3    H2 8823   2.911   7.062   4.773  1.6891  2.2858 -1.4727
 2962TIP3   OH2 8824   8.083   1.629   3.022 -0.0085  0.2076  0.1778
 2962TIP3    H1 8825   8.116   1.545   3.055  1.5857  1.2384  1.2724
 2962TIP3    H2 8826   8.001   1.642   3.070 -1.2247 -1.5790 -1.3379
 2963TIP3   OH2 8827   5.748   2.331   1.201  0.5269 -0.0422 -0.0690
 2963TIP3    H1 8828   5.661   2.295   1.217 -0.8816  2.3609 -2.0669
 2963TIP3    H2 8829   5.764   2.390   1.275  0.3868 -0.3382  0.1968
 2964TIP3   OH2 8830   5.184   2.585   2.834  0.0609  0.0584  0.5949
 2964TIP3    H1 8831   5.165   2.663   2.782 -2.6568 -1.2540 -0.5432
 2964TIP3    H2 8832   5.164   2.610   2.924  0.1057  0.9685  0.3509
 2965TIP3   OH2 8833   6.510   2.097   3.341 -0.1004 -0.0062  0.2599
 2965TIP3    H1 8834   6.511   2.100   3.436 -2.6673 -0.8318  0.3446
 2965TIP3    H2 8835   6.493   2.187   3.313  1.5576  0.4047  0.5364
 2966TIP3   OH2 8836   5.796   3.839   1.505 -0.2185 -0.2233  0.4209
 2966TIP3    H1 8837   5.826   3.925   1.474 -0.1110 -0.0239  1.0797
 2966TIP3    H2 8838   5.875   3.785   1.508 -0.1477 -0.0974  0.8290
 2967TIP3   OH2 8839   8.166   2.741   2.293 -0.2902 -0.0053 -0.2451
 2967TIP3    H1 8840   8.084   2.787   2.312  0.2028  0.2541  1.2708
 2967TIP3    H2 8841   8.230   2.810   2.277  0.4062 -0.1524  1.8444
 2968TIP3   OH2 8842   7.122   1.265   5.068  0.0298 -0.6735  0.5394
 2968TIP3    H1 8843   7.158   1.352   5.048  1.0095 -1.3457 -0.6571
 2968TIP3    H2 8844   7.030   1.271   5.040  0.5710 -0.5921 -1.2682
 2969TIP3   OH2 8845   0.767   6.342   6.400 -0.3398  0.1814 -0.0930
 2969TIP3    H1 8846   0.818   6.298   6.467 -0.9972 -0.5748 -0.0814
 2969TIP3    H2 8847   0.810   6.427   6.389 -0.9635  0.8426  2.2053
 2970TIP3   OH2 8848   5.078   3.057   2.210 -0.8202  0.8269  0.2145
 2970TIP3    H1 8849   5.093   3.062   2.305 -1.3089 -1.1431  0.4174
 2970TIP3    H2 8850   5.025   2.979   2.199  2.1363 -0.9547 -2.0258
 2971TIP3   OH2 8851   5.707   1.519   3.798  0.1068  0.1931  0.9065
 2971TIP3    H1 8852   5.777   1.550   3.740  2.3728 -1.4324  2.6637
 2971TIP3    H2 8853   5.669   1.445   3.751  0.3608  0.3263  0.4802
 2972TIP3   OH2 8854   7.347   3.769   1.304  0.1120  0.1759 -0.2827
 2972TIP3    H1 8855   7.266   3.813   1.277  0.1674  0.7319  0.4342
 2972TIP3    H2 8856   7.409   3.841   1.317  0.4203 -0.1670  0.1515
 2973TIP3   OH2 8857   6.014   0.404   2.844  0.2851  0.1240  0.1734
 2973TIP3    H1 8858   5.985   0.488   2.808 -0.9196 -0.2562  0.2404
 2973TIP3    H2 8859   6.053   0.359   2.770  1.4223  0.9540  0.2553
 2974TIP3   OH2 8860   7.113   3.024   2.006 -0.4373 -0.1459 -1.1429
 2974TIP3    H1 8861   7.166   3.091   1.964  0.2201  0.2318  0.2467
 2974TIP3    H2 8862   7.050   2.996   1.939 -0.6774  1.8188 -1.7569
 2975TIP3   OH2 8863   7.851   2.817   3.318  0.6064 -0.0366  0.0022
 2975TIP3    H1 8864   7.933   2.769   3.324  0.5181 -0.4216 -1.4992
 2975TIP3    H2 8865   7.792   2.771   3.377  1.7925  0.9827  2.0342
 2976TIP3   OH2 8866   7.253   1.911   4.319 -0.5056  0.3247  0.3592
 2976TIP3    H1 8867   7.231   1.904   4.226  0.4559 -0.0759  0.1585
 2976TIP3    H2 8868   7.329   1.969   4.321 -0.3432  0.0969  0.8707
 2977TIP3   OH2 8869   6.732   3.735   3.280 -0.3152 -0.1177  0.1020
 2977TIP3    H1 8870   6.801   3.769   3.222 -0.7548  1.3520  0.4087
 2977TIP3    H2 8871   6.654   3.784   3.255 -0.8746 -0.6219  0.8535
 2978TIP3   OH2 8872   5.422   1.089   3.536 -0.2563  0.6415 -0.2557
 2978TIP3    H1 8873   5.364   1.129   3.471  0.4671  2.1725  0.0098
 2978TIP3    H2 8874   5.427   1.154   3.607  0.5846 -0.1179  0.3908
 2979TIP3   OH2 8875   5.498   0.189   4.539 -0.6484  0.4220 -0.4667
 2979TIP3    H1 8876   5.553   0.230   4.472  0.5748 -0.0710  0.2045
 2979TIP3    H2 8877   5.550   0.115   4.570 -0.3590  1.7218  2.3429
 2980TIP3   OH2 8878   6.695   1.310   2.247  0.0888  0.3867 -0.4353
 2980TIP3    H1 8879   6.603   1.294   2.227  0.3978  0.8882 -2.3593
 2980TIP3    H2 8880   6.738   1.314   2.162  1.7926  0.7886  0.4124
 2981TIP3   OH2 8881   5.879   2.790   1.356  0.0237 -0.3322 -0.0262
 2981TIP3    H1 8882   5.870   2.716   1.297  1.5736 -0.2991 -0.3020
 2981TIP3    H2 8883   5.881   2.867   1.298  1.9378 -0.3287  0.0389
 2982TIP3   OH2 8884   7.866   1.719   3.216 -0.1608 -0.1611  0.1426
 2982TIP3    H1 8885   7.787   1.735   3.165 -0.5465 -0.3718  0.6609
 2982TIP3    H2 8886   7.871   1.795   3.275  0.8584  0.6082 -0.9096
 2983TIP3   OH2 8887   4.694   1.837   2.368 -0.1555 -0.0638  0.0751
 2983TIP3    H1 8888   4.767   1.858   2.425  0.2236 -0.8996 -0.0975
 2983TIP3    H2 8889   4.698   1.742   2.357 -0.7076 -0.0071 -0.6796
 2984TIP3   OH2 8890   7.608   1.484   3.081  0.1089  0.3941  1.2331
 2984TIP3    H1 8891   7.662   1.489   3.160  1.9964 -3.2767  0.2910
 2984TIP3    H2 8892   7.649   1.415   3.029 -1.9624  1.7466 -2.3159
 2985TIP3   OH2 8893   7.523   0.970   2.865 -0.1077  0.1509  0.0395
 2985TIP3    H1 8894   7.577   0.964   2.944  0.8424  0.1197 -0.6063
 2985TIP3    H2 8895   7.506   1.063   2.854  1.5401  0.3575 -0.8979
 2986TIP3   OH2 8896   6.116   2.423   2.403  0.2605  0.7882  0.9071
 2986TIP3    H1 8897   6.104   2.399   2.311  0.4658 -0.9130  1.3212
 2986TIP3    H2 8898   6.048   2.374   2.449  0.6630  1.0343  1.7624
 2987TIP3   OH2 8899   6.517   0.835   2.231  0.1105 -0.4299  0.3487
 2987TIP3    H1 8900   6.466   0.754   2.222 -1.6678  0.5862  1.0191
 2987TIP3    H2 8901   6.460   0.904   2.199  0.7806  0.8326  1.7625
 2988TIP3   OH2 8902   0.056   1.132   3.394 -0.0384  0.4594  0.3316
 2988TIP3    H1 8903   0.110   1.059   3.424 -1.6002 -0.9645 -0.2878
 2988TIP3    H2 8904   0.089   1.151   3.306 -1.9246 -1.8259 -0.9069
 2989TIP3   OH2 8905   6.377   3.678   2.494  0.0509 -0.6591 -0.0959
 2989TIP3    H1 8906   6.312   3.728   2.544  1.1475 -1.0097  1.7369
 2989TIP3    H2 8907   6.357   3.696   2.403 -2.7639 -0.9187  0.4222
 2990TIP3   OH2 8908   6.768   2.130   3.178 -0.1229 -0.0334 -0.0293
 2990TIP3    H1 8909   6.831   2.102   3.245  0.4751 -1.7313 -1.2652
 2990TIP3    H2 8910   6.683   2.110   3.215  0.1894 -0.5230  0.4305
 2991TIP3   OH2 8911   6.230   3.095   1.753 -0.2115  0.4482 -0.6053
 2991TIP3    H1 8912   6.282   3.015   1.753 -0.8618  0.0197  0.1395
 2991TIP3    H2 8913   6.249   3.137   1.669  0.2137 -0.4277 -0.9449
 2992TIP3   OH2 8914   6.071   0.661   4.102  0.0473 -0.0737 -0.6372
 2992TIP3    H1 8915   6.081   0.592   4.168 -1.2259 -1.3242 -1.7292
 2992TIP3    H2 8916   6.058   0.741   4.153  0.1720 -0.8471  0.6345
 2993TIP3   OH2 8917   5.586   1.706   0.307 -0.0730  0.0375  0.4003
 2993TIP3    H1 8918   5.660   1.664   0.350 -0.4736  0.3869  1.4473
 2993TIP3    H2 8919   5.567   1.783   0.361 -0.2719  0.7629 -0.6805
 2994TIP3   OH2 8920   5.466   2.330   1.521 -0.2870 -0.3912  0.1023
 2994TIP3    H1 8921   5.446   2.405   1.577 -1.0122 -2.1479  2.2358
 2994TIP3    H2 8922   5.402   2.263   1.545 -1.7998 -0.6215 -4.0828
 2995TIP3   OH2 8923   3.273   7.934   0.417  0.1288  0.2480 -0.2350
 2995TIP3    H1 8924   3.344   7.906   0.359  0.2465  0.1816 -0.0593
 2995TIP3    H2 8925   3.213   7.859   0.420  0.4791 -0.0174  0.2901
 2996TIP3   OH2 8926   6.130   1.723   3.465  0.2408 -0.0755 -0.0974
 2996TIP3    H1 8927   6.130   1.816   3.443 -0.0639 -0.0998 -0.2112
 2996TIP3    H2 8928   6.095   1.679   3.387  1.0886 -0.3614 -0.3248
 2997TIP3   OH2 8929   3.623   7.906   2.869 -0.2219  0.2031  0.5341
 2997TIP3    H1 8930   3.700   7.853   2.885  0.5636  1.3846  0.7721
 2997TIP3    H2 8931   3.565   7.851   2.817  0.7082 -0.7528  0.5156
 2998TIP3   OH2 8932   6.622   0.443   3.062  0.2044 -0.1770 -0.8287
 2998TIP3    H1 8933   6.582   0.357   3.074 -0.4419  0.3565  0.9149
 2998TIP3    H2 8934   6.583   0.476   2.981  0.4284 -1.5032 -1.4913
 2999TIP3   OH2 8935   3.945   1.643   1.962 -0.3135  0.7689  0.1894
 2999TIP3    H1 8936   3.907   1.567   2.007  0.3806  1.0293  1.2264
 2999TIP3    H2 8937   3.942   1.713   2.026  0.3430  1.2523 -0.3010
 3000TIP3   OH2 8938   5.987   2.649   1.587 -1.0151  0.2663  0.2248
 3000TIP3    H1 8939   5.967   2.708   1.514 -0.9727  1.5200  1.2215
 3000TIP3    H2 8940   5.907   2.646   1.639  0.0156  2.0504  1.9621
 3001TIP3   OH2 8941   5.249   2.177   1.611 -0.7790 -0.5308 -0.1502
 3001TIP3    H1 8942   5.251   2.126   1.692 -2.7099 -2.9185 -1.5547
 3001TIP3    H2 8943   5.185   2.246   1.627 -1.6556 -1.4071  0.1470
 3002TIP3   OH2 8944   5.676   0.778   1.791 -0.0194 -0.2722  0.5103
 3002TIP3    H1 8945   5.596   0.770   1.740  0.2043 -1.9627  0.3988
 3002TIP3    H2 8946   5.654   0.838   1.862 -1.3352 -0.6452  0.4208
 3003TIP3   OH2 8947   5.355   3.063   1.413  0.3650  0.0944 -0.3602
 3003TIP3    H1 8948   5.299   3.042   1.488  0.1463  0.1773 -0.4960
 3003TIP3    H2 8949   5.425   3.117   1.450 -0.0475  0.5990 -0.3037
 3004TIP3   OH2 8950   6.736   5.000   2.148  0.2836  0.0409  0.4225
 3004TIP3    H1 8951   6.726   4.922   2.093 -0.0296  0.0104  0.5204
 3004TIP3    H2 8952   6.657   5.001   2.202  0.1925  0.5399  0.2794
 3005TIP3   OH2 8953   5.916   2.137   3.611 -0.1307  0.2396  0.3473
 3005TIP3    H1 8954   5.856   2.206   3.582 -0.3431  0.1882  0.6616
 3005TIP3    H2 8955   5.860   2.073   3.654  0.3257  0.9102  1.9795
 3006TIP3   OH2 8956   4.836   1.427   4.296 -0.5187  0.0540 -0.0227
 3006TIP3    H1 8957   4.813   1.419   4.203  0.4426 -1.4286 -0.1486
 3006TIP3    H2 8958   4.864   1.339   4.321  0.7938  0.8185  1.2510
 3007TIP3   OH2 8959   5.466   1.869   5.204 -0.4229 -0.4576  0.4388
 3007TIP3    H1 8960   5.523   1.926   5.256  1.5715  1.5407 -3.6806
 3007TIP3    H2 8961   5.384   1.917   5.196  0.3414  0.6727 -0.7987
 3008TIP3   OH2 8962   6.427   2.037   1.696  0.1511 -0.0314  0.4573
 3008TIP3    H1 8963   6.390   1.982   1.765 -1.9398 -0.4084 -0.9221
 3008TIP3    H2 8964   6.491   2.093   1.741  0.2319 -1.6027  2.3425
 3009TIP3   OH2 8965   5.676   1.584   3.457 -0.2813 -0.2948  0.0351
 3009TIP3    H1 8966   5.703   1.581   3.365  0.7528  1.8592  0.2485
 3009TIP3    H2 8967   5.582   1.600   3.454  0.0453  1.5815 -0.6450
 3010TIP3   OH2 8968   6.242   0.703   3.891 -0.1901 -1.0581 -0.3685
 3010TIP3    H1 8969   6.191   0.675   3.967  0.6074 -1.8984 -0.1203
 3010TIP3    H2 8970   6.286   0.783   3.920  0.9904 -1.9813  0.4603
 3011TIP3   OH2 8971   6.738   1.492   4.118  0.3095 -0.2804  0.2635
 3011TIP3    H1 8972   6.830   1.521   4.112  0.5772 -1.0639  0.5727
 3011TIP3    H2 8973   6.743   1.398   4.134 -0.4971  0.1360  3.3478
 3012TIP3   OH2 8974   8.282   3.130   2.410  1.0801  0.0430  0.1654
 3012TIP3    H1 8975   8.257   3.107   2.321 -0.6402 -0.4187  0.7536
 3012TIP3    H2 8976   8.222   3.201   2.434  0.2694 -1.1048  1.6059
 3013TIP3   OH2 8977   8.432   6.449   5.406 -0.5173  0.0658  0.0091
 3013TIP3    H1 8978   8.519   6.467   5.442 -0.6761 -0.2500  0.5463
 3013TIP3    H2 8979   8.404   6.533   5.369  0.0981  0.1213 -0.3503
 3014TIP3   OH2 8980   6.371   2.190   2.182  0.3349 -0.1349 -0.1835
 3014TIP3    H1 8981   6.431   2.124   2.218  0.9951 -1.3796 -3.3923
 3014TIP3    H2 8982   6.420   2.272   2.186  0.5162 -0.3024  1.3783
 3015TIP3   OH2 8983   5.223   3.276   2.180 -0.1254  0.1593 -0.8414
 3015TIP3    H1 8984   5.308   3.241   2.155 -0.5800 -2.0873  0.6375
 3015TIP3    H2 8985   5.168   3.199   2.195 -1.7868  1.5214  0.3537
 3016TIP3   OH2 8986   6.776   1.121   3.273  0.0914  0.1314  0.4352
 3016TIP3    H1 8987   6.739   1.043   3.232  2.2269 -0.7219  0.0854
 3016TIP3    H2 8988   6.767   1.189   3.206 -0.7621 -0.0655  0.3381
 3017TIP3   OH2 8989   5.645   0.467   1.778  0.2501 -0.1901 -0.1649
 3017TIP3    H1 8990   5.551   0.473   1.797  0.4921 -1.1630  1.4630
 3017TIP3    H2 8991   5.680   0.553   1.801 -0.0785 -0.1497  0.1891
 3018TIP3   OH2 8992   4.903   2.215   1.185  0.6507  0.8192 -0.1063
 3018TIP3    H1 8993   4.811   2.212   1.158  0.3356  0.5698  0.9615
 3018TIP3    H2 8994   4.913   2.142   1.245  1.5245  0.9187 -0.1232
 3019TIP3   OH2 8995   3.650   7.464   3.638 -0.0275 -0.2630 -0.4551
 3019TIP3    H1 8996   3.679   7.477   3.728 -0.1208 -2.1949 -0.1165
 3019TIP3    H2 8997   3.719   7.412   3.598 -0.7251 -0.7461 -1.0509
 3020TIP3   OH2 8998   1.701   3.509   5.055 -0.1815  0.2567  0.2460
 3020TIP3    H1 8999   1.795   3.508   5.035 -0.2148  0.2946  0.0858
 3020TIP3    H2 9000   1.661   3.548   4.977 -0.3111  0.4238  0.3985
 3021TIP3   OH2 9001   5.140   1.828   2.388 -0.3256  0.7891 -0.2697
 3021TIP3    H1 9002   5.165   1.838   2.296 -1.1924  0.5286 -0.5387
 3021TIP3    H2 9003   5.218   1.856   2.437  0.1234  0.9795 -1.0767
 3022TIP3   OH2 9004   6.710   2.399   3.913  0.2519 -0.6437 -0.0448
 3022TIP3    H1 9005   6.777   2.440   3.967  1.0420 -0.4577 -1.1632
 3022TIP3    H2 9006   6.638   2.462   3.911 -0.0652 -0.9395  1.3356
 3023TIP3   OH2 9007   5.796   0.611   3.256 -0.6035  0.1198 -0.2397
 3023TIP3    H1 9008   5.739   0.542   3.289  0.6225 -0.4905  0.6535
 3023TIP3    H2 9009   5.883   0.586   3.286 -0.1147  1.9558 -0.0767
 3024TIP3   OH2 9010   5.455   0.409   3.721  0.1485 -0.0150  0.6824
 3024TIP3    H1 9011   5.408   0.422   3.804  0.2993  0.7177  0.6544
 3024TIP3    H2 9012   5.404   0.458   3.657 -0.7501 -1.6945  0.0555
 3025TIP3   OH2 9013   6.189   2.187   2.582  0.1468  0.5384  0.1541
 3025TIP3    H1 9014   6.128   2.166   2.511  1.1429 -1.8642 -0.0077
 3025TIP3    H2 9015   6.263   2.230   2.538  0.0068  0.5839 -0.0385
 3026TIP3   OH2 9016   8.241   2.546   2.981 -0.1843  0.0729 -0.4945
 3026TIP3    H1 9017   8.293   2.626   2.983  0.2833 -0.2393  0.2464
 3026TIP3    H2 9018   8.252   2.512   2.892 -1.7604  1.7079 -1.3316
 3027TIP3   OH2 9019   7.634   2.135   3.735 -0.0270 -0.2608  1.0142
 3027TIP3    H1 9020   7.661   2.086   3.657  0.4110  0.0934  0.9406
 3027TIP3    H2 9021   7.689   2.213   3.735 -0.2245 -0.1159  1.5250
 3028TIP3   OH2 9022   5.742   1.356   4.480  0.2615 -0.2910  0.0830
 3028TIP3    H1 9023   5.650   1.338   4.499  0.1596 -0.1237 -0.2458
 3028TIP3    H2 9024   5.790   1.317   4.553 -0.1681  1.0317  1.0770
 3029TIP3   OH2 9025   3.543   7.644   3.135  0.0415 -0.9445 -0.1877
 3029TIP3    H1 9026   3.525   7.555   3.165  0.2226 -0.5764  1.0819
 3029TIP3    H2 9027   3.606   7.633   3.064  0.1231 -1.8370  0.0129
 3030TIP3   OH2 9028   6.979   1.046   4.603  0.1230  0.0104 -0.0512
 3030TIP3    H1 9029   7.055   1.089   4.643  0.7254 -1.6884  0.6586
 3030TIP3    H2 9030   6.911   1.053   4.670 -0.0091  0.5088 -0.2338
 3031TIP3   OH2 9031   7.923   1.570   4.467 -0.4764  0.0134  0.1448
 3031TIP3    H1 9032   7.839   1.539   4.432 -2.2461  2.1975  2.2509
 3031TIP3    H2 9033   7.966   1.611   4.393 -1.7424 -0.2435 -0.7568
 3032TIP3   OH2 9034   7.519   0.933   4.167 -0.1682 -0.3920  0.6631
 3032TIP3    H1 9035   7.607   0.906   4.193 -0.5463 -2.3316  0.0440
 3032TIP3    H2 9036   7.533   1.006   4.106  1.0840 -1.5637 -0.4943
 3033TIP3   OH2 9037   3.228   7.611   2.901  0.0802 -0.1705 -0.0243
 3033TIP3    H1 9038   3.272   7.616   2.816 -0.5468  2.2853 -0.2378
 3033TIP3    H2 9039   3.156   7.674   2.895 -1.1129 -1.3118  1.6916
 3034TIP3   OH2 9040   7.920   0.495   3.045  0.0879  0.8929 -0.2037
 3034TIP3    H1 9041   7.872   0.556   2.989  0.1652 -0.1679 -1.4482
 3034TIP3    H2 9042   8.005   0.485   3.001 -0.9496 -2.3189 -1.5880
 3035TIP3   OH2 9043   0.615   1.097   2.825 -0.2006  0.0390 -0.3840
 3035TIP3    H1 9044   0.682   1.164   2.808  0.4446 -0.6206 -0.4755
 3035TIP3    H2 9045   0.534   1.147   2.835  0.4175  0.9190  0.4432
 3036TIP3   OH2 9046   0.062   2.514   2.025  0.8216 -0.0281  0.0192
 3036TIP3    H1 9047   0.139   2.465   1.994  0.4782  0.6274 -1.9248
 3036TIP3    H2 9048   0.001   2.512   1.951 -1.6260 -1.6805  1.9744
 3037TIP3   OH2 9049   4.692   2.161   2.586  0.6041  0.4687 -0.8364
 3037TIP3    H1 9050   4.610   2.191   2.625  0.5570  0.1682 -0.7057
 3037TIP3    H2 9051   4.713   2.080   2.633  0.4680  0.0245 -1.5382
 3038TIP3   OH2 9052   6.313   1.977   3.174  0.6809 -0.6552  0.1033
 3038TIP3    H1 9053   6.244   1.960   3.238  0.8040  0.7274  0.6283
 3038TIP3    H2 9054   6.386   2.011   3.226  0.4763  1.3224 -0.8531
 3039TIP3   OH2 9055   5.063   2.629   3.457 -0.1721 -0.5118 -0.1296
 3039TIP3    H1 9056   5.133   2.579   3.500 -0.0243 -0.0723  0.1396
 3039TIP3    H2 9057   5.090   2.635   3.365  1.1680  1.4365  0.3679
 3040TIP3   OH2 9058   6.527   3.407   1.460  0.3115  0.2392 -0.3137
 3040TIP3    H1 9059   6.479   3.442   1.385  0.7162  0.7725 -0.3298
 3040TIP3    H2 9060   6.580   3.336   1.423  0.2619  0.2865 -0.4778
 3041TIP3   OH2 9061   4.618   2.410   2.736 -0.3234 -0.6139  0.0224
 3041TIP3    H1 9062   4.708   2.426   2.708 -0.0293  1.2710  1.8668
 3041TIP3    H2 9063   4.627   2.364   2.820 -1.0494 -0.4832  0.1780
 3042TIP3   OH2 9064   5.867   1.722   2.328 -0.3685 -0.4852 -0.1000
 3042TIP3    H1 9065   5.953   1.706   2.288 -1.2413 -0.9420 -1.8287
 3042TIP3    H2 9066   5.876   1.691   2.417  0.4286 -3.1769 -1.0749
 3043TIP3   OH2 9067   6.760   4.104   2.726 -0.2611 -0.1013 -0.3614
 3043TIP3    H1 9068   6.793   4.023   2.686 -0.1743 -1.3053  2.0230
 3043TIP3    H2 9069   6.667   4.105   2.704 -0.6839 -1.8884  1.1711
 3044TIP3   OH2 9070   6.924   1.889   0.603 -0.4371  0.4127  0.4522
 3044TIP3    H1 9071   6.876   1.879   0.521 -0.0598 -1.7590  0.4538
 3044TIP3    H2 9072   7.013   1.911   0.576 -0.4612  0.3208  0.3012
 3045TIP3   OH2 9073   6.108   2.208   2.829 -0.2135 -0.1748  0.1736
 3045TIP3    H1 9074   6.120   2.298   2.861  1.6016 -0.6646  0.9328
 3045TIP3    H2 9075   6.168   2.202   2.754 -1.2929 -0.3658 -0.6919
 3046TIP3   OH2 9076   6.888   4.428   0.302  0.0782 -0.4362 -0.3340
 3046TIP3    H1 9077   6.951   4.367   0.341  0.3741 -0.0436 -0.1942
 3046TIP3    H2 9078   6.802   4.390   0.320  0.3285 -1.7819 -1.8829
 3047TIP3   OH2 9079   6.468   3.560   3.217  0.2693 -0.6765  0.3321
 3047TIP3    H1 9080   6.535   3.509   3.172  0.0442 -0.4133 -0.3024
 3047TIP3    H2 9081   6.452   3.635   3.160  0.6608  0.1488  1.3022
 3048TIP3   OH2 9082   7.976   2.030   2.767  0.1607 -0.1370  0.3733
 3048TIP3    H1 9083   8.007   2.087   2.697 -0.6872  0.5419  0.5371
 3048TIP3    H2 9084   8.055   1.986   2.799  0.3734 -1.4438 -1.8676
 3049TIP3   OH2 9085   6.945   2.103   3.372  0.0183 -0.4635 -1.1651
 3049TIP3    H1 9086   7.026   2.138   3.335  1.7859 -1.8811  1.2034
 3049TIP3    H2 9087   6.892   2.180   3.392  1.9263  0.6570 -0.2841
 3050TIP3   OH2 9088   5.799   2.538   1.771  0.1097 -0.1891 -0.5519
 3050TIP3    H1 9089   5.791   2.553   1.866  0.1151  1.6670 -0.8215
 3050TIP3    H2 9090   5.831   2.448   1.764  0.8759 -0.0882  1.2464
 3051TIP3   OH2 9091   0.351   1.518   2.779  0.3313  0.3593 -0.1009
 3051TIP3    H1 9092   0.284   1.585   2.766 -0.0835  0.0099  0.1957
 3051TIP3    H2 9093   0.432   1.559   2.750  0.0302  0.8767 -0.2237
 3052TIP3   OH2 9094   5.953   1.420   2.358  0.3211 -0.1888 -0.2683
 3052TIP3    H1 9095   6.041   1.401   2.326  0.2147 -0.0259 -0.6620
 3052TIP3    H2 9096   5.946   1.370   2.439  0.3354 -1.1655 -0.8723
 3053TIP3   OH2 9097   8.235   3.449   2.767  0.2806  0.1978  0.4708
 3053TIP3    H1 9098   8.308   3.486   2.717 -0.3482  0.4109 -0.3168
 3053TIP3    H2 9099   8.210   3.519   2.827 -0.8132  1.0373 -0.9151
 3054TIP3   OH2 9100   7.052   2.868   5.417  0.3475 -0.4900 -0.1092
 3054TIP3    H1 9101   7.089   2.876   5.329  1.0327  2.4766  0.4219
 3054TIP3    H2 9102   7.123   2.831   5.470  0.4585 -0.7495 -0.4362
 3055TIP3   OH2 9103   5.904   0.973   3.962 -0.4177 -0.0447 -0.4902
 3055TIP3    H1 9104   5.859   1.057   3.955  1.5085  0.8669 -2.5145
 3055TIP3    H2 9105   5.915   0.944   3.871  2.2137 -0.6896  0.0133
 3056TIP3   OH2 9106   6.477   4.673   3.055  0.3786  0.4582  0.2701
 3056TIP3    H1 9107   6.566   4.662   3.088 -0.3306  1.4503  2.6007
 3056TIP3    H2 9108   6.421   4.642   3.126 -1.2252  3.8663  0.6083
 3057TIP3   OH2 9109   6.411   0.852   3.382  0.3098  0.6629  0.2165
 3057TIP3    H1 9110   6.472   0.789   3.344  0.7545  1.1068  0.1865
 3057TIP3    H2 9111   6.406   0.828   3.475  0.6124  0.6923  0.2398
 3058TIP3   OH2 9112   3.094   1.004   2.345  0.1965 -0.1895 -0.1327
 3058TIP3    H1 9113   3.184   0.971   2.353  0.9752  1.3152 -2.2080
 3058TIP3    H2 9114   3.090   1.079   2.404 -0.3207 -1.4424  1.4562
 3059TIP3   OH2 9115   6.399   1.713   3.129 -0.1159  0.2224 -0.1156
 3059TIP3    H1 9116   6.466   1.709   3.198 -2.0802  0.3599  1.8649
 3059TIP3    H2 9117   6.381   1.807   3.119  1.7536  0.3792 -2.4670
 3060TIP3   OH2 9118   7.410   0.885   3.490  0.1610 -0.4006 -0.1277
 3060TIP3    H1 9119   7.361   0.872   3.409 -0.0900  1.0602 -0.2176
 3060TIP3    H2 9120   7.492   0.838   3.477 -0.9458 -2.4078 -0.2001
 3061TIP3   OH2 9121   3.515   7.808   4.513 -0.5957 -0.6513 -0.5378
 3061TIP3    H1 9122   3.583   7.749   4.481  0.7295  0.2167  0.6686
 3061TIP3    H2 9123   3.556   7.894   4.517 -1.2052 -0.4400  1.9115
 3062TIP3   OH2 9124   6.769   0.592   2.719 -0.2673  0.0854  0.2929
 3062TIP3    H1 9125   6.686   0.586   2.766  1.3219 -2.7408  2.9241
 3062TIP3    H2 9126   6.760   0.530   2.647 -0.9177  0.8029 -0.2532
 3063TIP3   OH2 9127   7.081   2.763   0.822 -0.2984 -0.4023  1.0306
 3063TIP3    H1 9128   7.078   2.690   0.884 -3.0949  0.0535  1.4905
 3063TIP3    H2 9129   7.034   2.834   0.867 -1.4367  0.2846 -1.1837
 3064TIP3   OH2 9130   4.615   4.108   2.304  0.1577 -0.5924 -0.3512
 3064TIP3    H1 9131   4.659   4.175   2.251  0.3770 -0.5460 -0.1096
 3064TIP3    H2 9132   4.574   4.157   2.376 -0.3950 -0.6202 -0.6439
 3065TIP3   OH2 9133   6.624   4.897   0.879 -0.5268  0.7709 -0.1675
 3065TIP3    H1 9134   6.553   4.833   0.871  0.6369 -0.5342 -0.4036
 3065TIP3    H2 9135   6.628   4.916   0.973  0.3190 -0.9362  0.1627
 3066TIP3   OH2 9136   6.358   0.517   4.530 -0.3459  0.0546  0.2351
 3066TIP3    H1 9137   6.337   0.435   4.574  1.2541 -1.0648 -1.0477
 3066TIP3    H2 9138   6.357   0.582   4.599  1.4191 -1.5475  1.8155
 3067TIP3   OH2 9139   3.672   2.622   4.677 -0.2047 -0.1926 -0.3374
 3067TIP3    H1 9140   3.745   2.584   4.724 -0.9158  0.5140  1.3952
 3067TIP3    H2 9141   3.711   2.668   4.603  1.0217 -0.5424  0.0955
 3068TIP3   OH2 9142   6.228   1.728   3.755 -0.2543 -0.0140  0.3030
 3068TIP3    H1 9143   6.161   1.734   3.687  0.4860 -0.2917 -0.4588
 3068TIP3    H2 9144   6.302   1.777   3.719 -0.2372  0.7545  1.3722
 3069TIP3   OH2 9145   5.242   0.609   3.842 -0.0426 -0.4872  0.5615
 3069TIP3    H1 9146   5.301   0.684   3.847 -0.7433  0.0551  0.7180
 3069TIP3    H2 9147   5.238   0.575   3.931  0.1749 -0.6353  0.5154
 3070TIP3   OH2 9148   5.592   2.969   2.009  0.2393 -0.4579  0.5188
 3070TIP3    H1 9149   5.528   2.899   1.998  0.0951 -0.0644 -1.1918
 3070TIP3    H2 9150   5.572   3.006   2.095 -1.1359 -1.0291  0.4578
 3071TIP3   OH2 9151   0.026   2.399   2.935 -0.4166  0.8259  0.4368
 3071TIP3    H1 9152   0.006   2.428   2.846 -1.5660 -1.3570 -0.0416
 3071TIP3    H2 9153   0.097   2.335   2.925 -2.1564 -1.2330  0.8010
 3072TIP3   OH2 9154   5.628   1.662   1.982 -0.6982  0.4498 -0.1000
 3072TIP3    H1 9155   5.573   1.663   2.061 -0.2749  1.4467  0.1941
 3072TIP3    H2 9156   5.707   1.709   2.008 -0.3939  0.4369 -1.0072
 3073TIP3   OH2 9157   4.562   2.233   2.973  0.4112 -0.6611 -0.4259
 3073TIP3    H1 9158   4.609   2.278   3.043 -0.0260 -0.8358 -0.0177
 3073TIP3    H2 9159   4.476   2.275   2.971 -0.4380 -2.2773  0.7840
 3074TIP3   OH2 9160   4.244   1.793   2.392  0.2982 -0.2035  0.5510
 3074TIP3    H1 9161   4.222   1.712   2.438  0.4852 -0.9911 -0.7280
 3074TIP3    H2 9162   4.326   1.821   2.433  0.8915 -1.3338  0.1846
 3075TIP3   OH2 9163   6.622   3.738   1.619  0.0540 -0.3258 -0.2957
 3075TIP3    H1 9164   6.532   3.766   1.601 -0.3429 -2.4890 -1.8625
 3075TIP3    H2 9165   6.614   3.647   1.648  1.7917 -0.8178 -1.2895
 3076TIP3   OH2 9166   5.877   2.110   1.287 -0.1003  0.0879 -0.1928
 3076TIP3    H1 9167   5.948   2.146   1.340  0.4271 -0.4004 -0.5501
 3076TIP3    H2 9168   5.836   2.187   1.247 -0.4315  0.4421  0.8322
 3077TIP3   OH2 9169   4.464   2.708   4.256  0.1776  0.8274  0.5743
 3077TIP3    H1 9170   4.436   2.677   4.342  1.8098 -1.2333  0.3942
 3077TIP3    H2 9171   4.453   2.632   4.199  0.0967  1.8877 -0.8351
 3078TIP3   OH2 9172   5.467   3.866   4.796  0.4861 -0.2678  0.3962
 3078TIP3    H1 9173   5.435   3.874   4.886 -1.8633  0.9269 -0.5215
 3078TIP3    H2 9174   5.450   3.951   4.757  0.8111 -1.0078 -1.4031
 3079TIP3   OH2 9175   6.760   2.369   3.642  0.0664  0.0285  0.8321
 3079TIP3    H1 9176   6.725   2.356   3.730  1.0762  1.1007  1.4071
 3079TIP3    H2 9177   6.683   2.376   3.586 -0.6228  0.9166  1.8750
 3080TIP3   OH2 9178   4.058   7.612   2.481 -0.3618  0.2110 -0.4000
 3080TIP3    H1 9179   4.038   7.690   2.533 -0.9028  1.0856 -1.9211
 3080TIP3    H2 9180   3.973   7.569   2.470 -0.0253 -0.7845  0.6892
 3081TIP3   OH2 9181   6.459   1.321   3.206  0.3673 -0.4104 -0.7645
 3081TIP3    H1 9182   6.490   1.234   3.231  0.5707  0.3070  1.6112
 3081TIP3    H2 9183   6.378   1.333   3.256 -0.7383  0.0050 -2.5914
 3082TIP3   OH2 9184   3.230   8.012   2.243  0.0784 -0.5309 -0.1989
 3082TIP3    H1 9185   3.140   7.992   2.216 -0.0912  1.2115 -0.9322
 3082TIP3    H2 9186   3.284   7.953   2.191 -0.5247 -0.3906 -0.9893
 3083TIP3   OH2 9187   4.910   1.461   3.256  0.3829 -0.3117  0.1607
 3083TIP3    H1 9188   4.962   1.430   3.182  0.5545 -2.1387  1.0377
 3083TIP3    H2 9189   4.903   1.386   3.314  0.8495  1.3144  2.3642
 3084TIP3   OH2 9190   6.578   1.265   1.259 -0.2036 -0.3615  0.2682
 3084TIP3    H1 9191   6.550   1.175   1.276  0.8781 -0.8744 -0.5823
 3084TIP3    H2 9192   6.657   1.256   1.206 -2.2691  1.1444 -3.2297
 3085TIP3   OH2 9193   6.369   3.272   1.915 -0.8056 -0.5687 -0.4353
 3085TIP3    H1 9194   6.370   3.223   1.998 -2.5602 -1.0103 -0.6660
 3085TIP3    H2 9195   6.312   3.221   1.858 -1.7175  1.1442 -1.0563
 3086TIP3   OH2 9196   6.162   0.405   3.071 -0.2378 -0.0979  0.1783
 3086TIP3    H1 9197   6.236   0.352   3.043 -1.3590 -0.3663 -2.4281
 3086TIP3    H2 9198   6.095   0.389   3.004 -2.5076  0.4220  2.2815
 3087TIP3   OH2 9199   5.644   2.997   1.303 -0.5877  0.3281 -0.6020
 3087TIP3    H1 9200   5.700   3.062   1.345 -0.8208  0.4003 -0.3992
 3087TIP3    H2 9201   5.685   2.980   1.219 -0.2264  0.3317 -0.4272
 3088TIP3   OH2 9202   5.677   1.531   1.602 -0.2489  0.3014  0.0510
 3088TIP3    H1 9203   5.769   1.556   1.603 -0.5949  1.5894  2.0152
 3088TIP3    H2 9204   5.629   1.614   1.598 -1.3613 -0.0189  4.0065
 3089TIP3   OH2 9205   7.769   2.099   2.450  0.3351 -0.3904  0.9881
 3089TIP3    H1 9206   7.786   2.191   2.468 -0.5319 -0.3137  1.4511
 3089TIP3    H2 9207   7.678   2.097   2.419  0.0401 -1.1979  1.8726
 3090TIP3   OH2 9208   3.780   3.102   3.108 -0.4085  0.1564  0.0506
 3090TIP3    H1 9209   3.688   3.081   3.093 -1.0495  0.8868  2.6931
 3090TIP3    H2 9210   3.794   3.083   3.201  1.4463  2.3739  0.2740
 3091TIP3   OH2 9211   2.507   7.068   1.177  0.6483 -0.0297 -0.1164
 3091TIP3    H1 9212   2.581   7.128   1.182 -0.7388  1.5937  2.8459
 3091TIP3    H2 9213   2.536   6.990   1.224  0.5351  0.5751  0.9746
 3092TIP3   OH2 9214   0.634   7.804   2.098  0.4990 -0.3690 -0.4726
 3092TIP3    H1 9215   0.604   7.770   2.183  0.7853 -1.9213 -0.9857
 3092TIP3    H2 9216   0.729   7.811   2.107  0.5985 -1.1968 -0.9097
 3093TIP3   OH2 9217   6.432   1.908   3.729  0.1867 -0.1691 -0.4931
 3093TIP3    H1 9218   6.443   1.889   3.822 -1.3480 -0.4786 -0.3646
 3093TIP3    H2 9219   6.441   2.004   3.723 -1.9680  0.1088  0.3301
 3094TIP3   OH2 9220   5.157   4.267   0.510 -0.3097 -0.1358  0.1612
 3094TIP3    H1 9221   5.097   4.245   0.581  0.0107  0.2931  0.5666
 3094TIP3    H2 9222   5.110   4.242   0.430 -0.0091 -2.2259  0.5866
 3095TIP3   OH2 9223   7.959   2.349   4.264  0.3096 -0.2026 -0.0219
 3095TIP3    H1 9224   8.022   2.284   4.293  0.3161  0.8297  2.4129
 3095TIP3    H2 9225   8.006   2.432   4.270  0.1014  0.1412 -2.4748
 3096TIP3   OH2 9226   7.940   3.572   2.422 -0.1895 -0.3499  0.0494
 3096TIP3    H1 9227   7.852   3.583   2.459 -1.3731 -0.0678 -2.6866
 3096TIP3    H2 9228   7.966   3.660   2.396  0.3099 -0.6411 -0.4396
 3097TIP3   OH2 9229   8.144   2.727   3.368  0.3698 -0.2888  0.3094
 3097TIP3    H1 9230   8.198   2.803   3.347 -0.1857  0.2956  0.9504
 3097TIP3    H2 9231   8.205   2.653   3.367  1.6369  0.6318  3.0726
 3098TIP3   OH2 9232   8.390   0.549   2.741  0.1288  0.1291  0.4115
 3098TIP3    H1 9233   8.298   0.522   2.740  0.0531  0.3832  0.5718
 3098TIP3    H2 9234   8.394   0.622   2.680  0.2655 -0.0168  0.2478
 3099TIP3   OH2 9235   8.015   3.659   1.667 -0.7797 -0.2559  0.1615
 3099TIP3    H1 9236   8.046   3.658   1.576 -1.0408 -0.4306  0.0739
 3099TIP3    H2 9237   8.002   3.567   1.689 -2.1394 -0.1268 -0.1130
 3100TIP3   OH2 9238   5.708   1.742   2.949 -0.4820  0.4765  0.3197
 3100TIP3    H1 9239   5.714   1.681   2.876  1.4186  1.0246 -0.0050
 3100TIP3    H2 9240   5.615   1.744   2.971 -0.8690 -0.7959 -1.1380
 3101TIP3   OH2 9241   7.304   6.334   3.223 -0.4792  0.4258  0.5437
 3101TIP3    H1 9242   7.232   6.344   3.161 -2.1054  0.5975  2.4008
 3101TIP3    H2 9243   7.296   6.243   3.254  0.0688  0.4691  0.8151
 3102TIP3   OH2 9244   2.101   7.454   6.867  0.0757 -0.1459  0.2643
 3102TIP3    H1 9245   2.193   7.452   6.894  0.0292 -1.2157  0.3816
 3102TIP3    H2 9246   2.066   7.534   6.905  0.5742 -0.5039  1.4887
 3103TIP3   OH2 9247   4.689   5.968   5.748 -0.0273  0.3594 -0.4133
 3103TIP3    H1 9248   4.754   6.022   5.792 -0.6544  1.4714 -0.8104
 3103TIP3    H2 9249   4.633   5.934   5.818  0.2929  0.3280 -0.1750
 3104TIP3   OH2 9250   6.532   3.020   2.708 -0.1269  0.6871  0.3623
 3104TIP3    H1 9251   6.548   2.945   2.765  0.9739 -0.3942 -1.3040
 3104TIP3    H2 9252   6.587   3.090   2.743  0.8308 -0.0818  0.3976
 3105TIP3   OH2 9253   7.071   2.513   0.949 -0.0807  0.7313  0.6669
 3105TIP3    H1 9254   7.084   2.440   1.010 -0.4055 -0.0558 -0.2033
 3105TIP3    H2 9255   7.124   2.491   0.873  0.3031  1.7051  0.6496
 3106TIP3   OH2 9256   8.391   3.204   3.965 -0.0591 -0.2790 -0.2057
 3106TIP3    H1 9257   8.309   3.176   4.007  0.9290 -0.1585  1.8663
 3106TIP3    H2 9258   8.363   3.244   3.883 -2.3013  2.1469  1.6464
 3107TIP3   OH2 9259   1.127   3.336   1.121 -0.0074 -0.3562 -0.2933
 3107TIP3    H1 9260   1.166   3.307   1.038 -0.0597  1.3087 -0.9295
 3107TIP3    H2 9261   1.080   3.260   1.154 -2.5803 -0.2095 -3.3636
 3108TIP3   OH2 9262   0.351   2.790   4.558 -0.5699  0.2850  0.8639
 3108TIP3    H1 9263   0.353   2.884   4.579  0.9379  0.4943 -0.1102
 3108TIP3    H2 9264   0.294   2.752   4.625 -0.5718  1.7807  1.7469
 3109TIP3   OH2 9265   6.647   3.683   2.480  0.1834 -0.1460 -0.2235
 3109TIP3    H1 9266   6.654   3.655   2.389 -0.0574  0.7421 -0.5125
 3109TIP3    H2 9267   6.554   3.683   2.499  0.2091  0.0906 -0.0995
 3110TIP3   OH2 9268   7.107   3.540   2.788  0.2547 -0.0387  0.5203
 3110TIP3    H1 9269   7.050   3.617   2.785  0.8882  0.5068  1.9902
 3110TIP3    H2 9270   7.177   3.565   2.847  0.9656 -1.4286  0.2809
 3111TIP3   OH2 9271   0.024   2.581   0.450 -0.1154  0.2998  0.2544
 3111TIP3    H1 9272   0.078   2.504   0.435 -2.6217 -1.3413 -0.8047
 3111TIP3    H2 9273  -0.052   2.547   0.497 -0.8015  2.2955  0.6036
 3112TIP3   OH2 9274   0.874   5.176   6.652 -0.3566  0.0207  0.5776
 3112TIP3    H1 9275   0.842   5.105   6.596 -0.8000 -0.3955  1.3484
 3112TIP3    H2 9276   0.794   5.223   6.678 -0.1074  0.5144  0.4495
 3113TIP3   OH2 9277   4.933   4.054   3.314 -0.1288 -0.0926  0.2665
 3113TIP3    H1 9278   4.998   4.053   3.384  2.1076  1.2228 -1.7053
 3113TIP3    H2 9279   4.909   3.962   3.302  2.4933 -0.7924  0.0735
 3114TIP3   OH2 9280   8.416   1.338   4.018 -0.1233 -0.6090  0.2621
 3114TIP3    H1 9281   8.442   1.259   4.066 -0.0300  0.2630  1.6867
 3114TIP3    H2 9282   8.486   1.401   4.036 -0.7669  0.1602  0.0731
 3115TIP3   OH2 9283   5.605   2.755   2.200 -0.2120  0.4486 -0.0179
 3115TIP3    H1 9284   5.670   2.825   2.211 -0.7927  1.1086 -0.6986
 3115TIP3    H2 9285   5.607   2.707   2.282 -1.0773  2.3518  1.1408
 3116TIP3   OH2 9286   8.480   3.352   2.129 -0.0784 -0.1398  1.1180
 3116TIP3    H1 9287   8.521   3.373   2.045  2.3319 -2.1681  1.7293
 3116TIP3    H2 9288   8.405   3.411   2.134  0.9990  1.5560 -1.4546
 3117TIP3   OH2 9289   7.820   4.277   5.568 -0.0222  0.3521  1.0503
 3117TIP3    H1 9290   7.883   4.231   5.512 -0.7632  0.0606  0.4411
 3117TIP3    H2 9291   7.800   4.358   5.521 -0.2946  0.3251  1.1185
 3118TIP3   OH2 9292   7.387   1.555   3.505  0.5457  0.1278 -0.0038
 3118TIP3    H1 9293   7.309   1.501   3.516 -0.4426  1.5711  0.1747
 3118TIP3    H2 9294   7.374   1.600   3.422  0.8401  0.9407  0.3845
 3119TIP3   OH2 9295   5.810   3.661   2.101 -0.4049  0.1470 -0.2367
 3119TIP3    H1 9296   5.841   3.578   2.066 -0.5291  0.2234 -0.5290
 3119TIP3    H2 9297   5.727   3.640   2.143  0.6202 -0.2847  1.6095
 3120TIP3   OH2 9298   1.104   5.573   6.482  0.2697 -0.5329 -0.6587
 3120TIP3    H1 9299   1.109   5.632   6.407  0.1597 -0.0981 -0.3218
 3120TIP3    H2 9300   1.168   5.607   6.544  0.7724 -1.2208 -0.7839
 3121TIP3   OH2 9301   7.406   4.531   1.860  0.3820  0.2932 -0.2082
 3121TIP3    H1 9302   7.491   4.501   1.829  0.6286 -0.5116  1.2150
 3121TIP3    H2 9303   7.399   4.496   1.949 -0.3814  2.4270  0.5945
 3122TIP3   OH2 9304   6.678   2.400   2.847 -0.5408  0.0262  0.0340
 3122TIP3    H1 9305   6.651   2.449   2.770  2.6615 -0.6241 -1.6229
 3122TIP3    H2 9306   6.649   2.310   2.830 -0.3814  0.0068 -0.1405
 3123TIP3   OH2 9307   5.553   5.733   1.378 -0.3080  0.1508  0.1024
 3123TIP3    H1 9308   5.593   5.774   1.454 -0.4221  2.8078 -1.1897
 3123TIP3    H2 9309   5.459   5.733   1.398 -0.2512 -0.0691  0.3742
 3124TIP3   OH2 9310   7.720   3.025   3.189 -0.1158  0.5428  0.4634
 3124TIP3    H1 9311   7.730   3.094   3.254 -0.1180  1.0801 -0.1017
 3124TIP3    H2 9312   7.782   2.958   3.215  0.1163  0.8999  0.8324
 3125TIP3   OH2 9313   7.306   2.778   2.542 -0.0130 -0.2213 -0.0421
 3125TIP3    H1 9314   7.252   2.705   2.511  2.7390 -1.1373 -2.9189
 3125TIP3    H2 9315   7.284   2.851   2.485  1.0637 -0.3387 -0.6279
 3126TIP3   OH2 9316   0.778   2.542   4.076 -0.5795 -0.5429  0.4343
 3126TIP3    H1 9317   0.749   2.605   4.141  0.1616  0.6662 -0.3912
 3126TIP3    H2 9318   0.787   2.460   4.124 -0.9805  0.1107  1.6315
 3127TIP3   OH2 9319   0.240   3.597   4.293 -0.5109 -0.2795 -0.1728
 3127TIP3    H1 9320   0.151   3.561   4.294 -0.6211 -0.1790 -3.3418
 3127TIP3    H2 9321   0.228   3.690   4.309 -0.8467 -0.4523  0.6293
 3128TIP3   OH2 9322   1.512   2.573   3.365 -0.3412  0.2136  0.3771
 3128TIP3    H1 9323   1.483   2.596   3.277 -1.3022  0.0043  0.6269
 3128TIP3    H2 9324   1.449   2.506   3.394  0.9463 -0.9264  0.5934
 3129TIP3   OH2 9325   6.300   0.443   3.358  0.1873 -0.0134  0.1798
 3129TIP3    H1 9326   6.277   0.356   3.392 -1.3832  0.5264  0.5298
 3129TIP3    H2 9327   6.220   0.474   3.316  0.0302  2.2340  2.0882
 3130TIP3   OH2 9328   8.010   2.335   0.329 -0.1712  0.0815 -0.3128
 3130TIP3    H1 9329   8.086   2.305   0.279  0.9852  1.0647  0.8218
 3130TIP3    H2 9330   7.948   2.366   0.262  0.4492 -0.6422 -1.2400
 3131TIP3   OH2 9331   7.727   3.073   1.418 -0.2189 -0.1152  0.2750
 3131TIP3    H1 9332   7.816   3.088   1.385 -0.4967  0.7370 -0.0964
 3131TIP3    H2 9333   7.703   3.156   1.460 -2.4063  1.1390 -3.2569
 3132TIP3   OH2 9334   5.962   0.526   2.030 -0.6360 -0.1206  0.4437
 3132TIP3    H1 9335   6.057   0.534   2.043 -0.2664  1.5901 -2.8147
 3132TIP3    H2 9336   5.946   0.432   2.028  0.9586 -0.4315  1.2693
 3133TIP3   OH2 9337   0.088   2.387   3.846 -0.2783  0.3699  0.3036
 3133TIP3    H1 9338   0.030   2.450   3.803 -0.4958 -0.1649 -0.1962
 3133TIP3    H2 9339   0.125   2.336   3.773 -0.2932 -0.2392  0.7232
 3134TIP3   OH2 9340   1.903   0.998   3.640 -0.2620 -0.2344 -0.5059
 3134TIP3    H1 9341   1.808   0.989   3.630 -0.3702  1.1154 -0.7784
 3134TIP3    H2 9342   1.939   0.937   3.576 -0.9317 -1.7081  0.5019
 3135TIP3   OH2 9343   5.879   2.262   1.727  0.3653  0.1816 -0.2612
 3135TIP3    H1 9344   5.866   2.215   1.645 -0.1191 -1.0403  0.5038
 3135TIP3    H2 9345   5.969   2.295   1.722  0.9457 -1.4151 -0.5163
 3136TIP3   OH2 9346   5.631   3.731   3.599  0.0964 -0.4617 -0.7093
 3136TIP3    H1 9347   5.576   3.753   3.523 -0.0376  0.5244 -0.3332
 3136TIP3    H2 9348   5.711   3.697   3.560  0.4543  1.0373 -1.3373
 3137TIP3   OH2 9349   6.828   2.806   1.611  0.0249 -0.2109 -0.1577
 3137TIP3    H1 9350   6.866   2.738   1.554  0.5813 -0.6253  0.7005
 3137TIP3    H2 9351   6.752   2.764   1.651 -0.1348 -0.0442 -0.2812
 3138TIP3   OH2 9352   0.163   3.219   1.557  0.2068 -0.1794  0.4795
 3138TIP3    H1 9353   0.105   3.168   1.613  0.9844 -1.6617 -0.0352
 3138TIP3    H2 9354   0.250   3.210   1.597  0.6597 -0.7501 -0.6124
 3139TIP3   OH2 9355   6.421   2.771   0.199  0.3994 -0.0260 -0.4994
 3139TIP3    H1 9356   6.454   2.703   0.257  0.4647 -0.2557 -0.8011
 3139TIP3    H2 9357   6.411   2.848   0.254 -2.2768 -1.0010  0.4751
 3140TIP3   OH2 9358   5.464   4.722   2.579 -0.2695  0.4042  0.4135
 3140TIP3    H1 9359   5.493   4.813   2.585 -2.1497  1.0519  0.0274
 3140TIP3    H2 9360   5.388   4.725   2.521 -1.1512 -1.2288  1.4456
 3141TIP3   OH2 9361   8.105   2.848   2.745  0.0406 -0.4138 -0.7098
 3141TIP3    H1 9362   8.145   2.800   2.672  0.0393  2.1179 -2.4264
 3141TIP3    H2 9363   8.066   2.925   2.704  1.1333  1.7067  2.1606
 3142TIP3   OH2 9364   0.350   3.471   1.411  0.3123 -0.3248  0.4387
 3142TIP3    H1 9365   0.259   3.455   1.437  0.8977  0.0120  2.8406
 3142TIP3    H2 9366   0.364   3.413   1.336 -1.2706 -1.9224  1.3269
 3143TIP3   OH2 9367   0.455   2.592   5.073 -0.1584 -0.6228 -0.3424
 3143TIP3    H1 9368   0.481   2.513   5.026  1.0170 -0.4710  0.0283
 3143TIP3    H2 9369   0.483   2.576   5.163  0.8898  0.5604 -0.4347
 3144TIP3   OH2 9370   6.520   4.180   2.599 -0.0478 -0.3831  0.6627
 3144TIP3    H1 9371   6.435   4.196   2.640  0.4302 -0.5105  1.7223
 3144TIP3    H2 9372   6.499   4.145   2.512 -1.0789  2.3261 -0.2141
 3145TIP3   OH2 9373   7.737   0.797   3.466 -0.4279 -0.3189 -0.4667
 3145TIP3    H1 9374   7.675   0.758   3.404 -2.3325  0.0932  1.1143
 3145TIP3    H2 9375   7.719   0.752   3.548  0.6289  0.5986  0.2714
 3146TIP3   OH2 9376   6.178   1.748   2.719  0.3234  0.0917 -0.2630
 3146TIP3    H1 9377   6.089   1.729   2.690 -0.6026  2.6964  0.8282
 3146TIP3    H2 9378   6.169   1.816   2.785  3.1402  0.5125 -0.2324
 3147TIP3   OH2 9379   7.431   5.084   0.808 -0.2538  0.2526  0.1550
 3147TIP3    H1 9380   7.473   5.090   0.894  1.0529  1.4686 -0.5326
 3147TIP3    H2 9381   7.412   5.175   0.784  0.9107  0.0772 -1.5512
 3148TIP3   OH2 9382   7.486   3.333   1.818 -0.3769  0.2306 -0.0594
 3148TIP3    H1 9383   7.536   3.255   1.841  0.6020  0.4542 -1.3446
 3148TIP3    H2 9384   7.476   3.328   1.723  0.1588  1.9209 -0.2296
 3149TIP3   OH2 9385   6.567   3.789   0.189  0.9644 -0.8705  0.9150
 3149TIP3    H1 9386   6.660   3.770   0.202  1.7918  1.4299 -1.2617
 3149TIP3    H2 9387   6.566   3.872   0.141 -2.1591 -1.8802 -0.9015
 3150TIP3   OH2 9388   5.517   0.236   3.077 -0.4609  0.0183 -0.5503
 3150TIP3    H1 9389   5.519   0.320   3.030  0.2093  0.3914  0.1316
 3150TIP3    H2 9390   5.541   0.258   3.167  0.0416 -0.9498 -0.4406
 3151TIP3   OH2 9391   6.222   5.507   2.909 -0.1886 -0.4674  0.1830
 3151TIP3    H1 9392   6.290   5.570   2.934 -1.7376  1.0125  0.7617
 3151TIP3    H2 9393   6.163   5.505   2.984 -1.9534 -0.1011 -1.1627
 3152TIP3   OH2 9394   7.808   2.312   1.151  0.3908 -0.1061  0.6397
 3152TIP3    H1 9395   7.770   2.236   1.107 -0.4741  0.4553  0.4050
 3152TIP3    H2 9396   7.735   2.373   1.161  0.9961  0.5444  1.1650
 3153TIP3   OH2 9397   6.406   2.880   1.692  0.0351  0.1236 -0.9593
 3153TIP3    H1 9398   6.481   2.861   1.749  0.3846  1.1263 -1.0792
 3153TIP3    H2 9399   6.360   2.796   1.685 -0.3408  0.1064  1.2579
 3154TIP3   OH2 9400   6.504   1.344   2.943 -0.0443 -0.2867 -0.2598
 3154TIP3    H1 9401   6.470   1.341   3.032  1.2986  2.4658  0.3776
 3154TIP3    H2 9402   6.591   1.305   2.949  1.0639  2.1977  0.1510
 3155TIP3   OH2 9403   7.935   2.921   2.968  0.2203  0.3243  0.4131
 3155TIP3    H1 9404   7.981   2.887   2.891 -0.6382 -0.2300  0.1392
 3155TIP3    H2 9405   7.844   2.927   2.941 -0.3414 -1.3694  1.9004
 3156TIP3   OH2 9406   5.875   4.771   0.624 -0.2022  0.6339 -0.8759
 3156TIP3    H1 9407   5.933   4.800   0.695 -1.6379  0.7496  0.2606
 3156TIP3    H2 9408   5.841   4.853   0.587 -0.2026  0.5447 -1.0714
 3157TIP3   OH2 9409   6.915   2.344   0.123  0.1537 -0.6343 -0.1463
 3157TIP3    H1 9410   6.968   2.349   0.202 -0.1525 -0.0180  0.0212
 3157TIP3    H2 9411   6.971   2.301   0.059 -0.1891 -2.6905  0.8954
 3158TIP3   OH2 9412   7.734   3.112   0.950 -0.1005 -0.6551  0.3087
 3158TIP3    H1 9413   7.750   3.102   0.856 -0.2923  0.1264  0.1802
 3158TIP3    H2 9414   7.811   3.076   0.993  0.1819 -0.6181 -0.1700
 3159TIP3   OH2 9415   2.035   5.944   5.568  0.1792  0.3443  0.2761
 3159TIP3    H1 9416   2.085   5.929   5.648  1.2035  0.4963 -0.3193
 3159TIP3    H2 9417   2.023   6.039   5.565  0.0041  0.3236  0.3294
 3160TIP3   OH2 9418   8.168   0.807   2.793 -0.1889 -0.1494  0.0922
 3160TIP3    H1 9419   8.099   0.740   2.788 -1.3188  1.0223 -0.2419
 3160TIP3    H2 9420   8.192   0.823   2.702  0.2374 -0.2390  0.1857
 3161TIP3   OH2 9421   6.151   1.179   1.736  0.1606 -0.0738  0.1443
 3161TIP3    H1 9422   6.112   1.226   1.662 -1.1156 -2.3968 -0.7088
 3161TIP3    H2 9423   6.230   1.140   1.700 -0.3719 -1.0623  0.0324
 3162TIP3   OH2 9424   6.592   2.489   2.362 -0.1073  0.0226 -0.1977
 3162TIP3    H1 9425   6.533   2.498   2.288 -0.4687  2.3777  0.3315
 3162TIP3    H2 9426   6.668   2.543   2.339  1.0760 -1.5749 -0.1111
 3163TIP3   OH2 9427   6.370   1.153   3.565  0.6146  0.8410 -0.0882
 3163TIP3    H1 9428   6.318   1.154   3.485  0.1499  0.7742  0.2116
 3163TIP3    H2 9429   6.459   1.171   3.536  0.2492  2.0696 -0.4708
 3164TIP3   OH2 9430   6.195   4.986   1.088  0.7129 -0.0382 -0.0491
 3164TIP3    H1 9431   6.260   5.047   1.123 -0.3867 -0.1280  2.2031
 3164TIP3    H2 9432   6.111   5.031   1.097  0.1432 -0.9865 -0.4907
 3165TIP3   OH2 9433   6.077   3.459   2.499  0.2651  0.4937 -0.0174
 3165TIP3    H1 9434   6.148   3.439   2.438 -0.1015  2.2869 -1.0937
 3165TIP3    H2 9435   6.076   3.386   2.560  1.1801 -0.9631 -1.6936
 3166TIP3   OH2 9436   7.198   2.547   2.201  0.2598 -0.0471 -0.1443
 3166TIP3    H1 9437   7.283   2.507   2.182  1.7534  2.4021  1.1042
 3166TIP3    H2 9438   7.209   2.639   2.178 -1.1676  0.8457  2.4912
 3167TIP3   OH2 9439   8.002   3.936   0.950  0.7914  0.5754 -0.0111
 3167TIP3    H1 9440   7.958   3.865   0.902 -1.6581  2.0103  0.0056
 3167TIP3    H2 9441   7.992   4.012   0.893  2.4395  1.1572  0.4708
 3168TIP3   OH2 9442   8.339   2.780   2.866  0.3475  0.2581 -0.0747
 3168TIP3    H1 9443   8.343   2.839   2.941  2.3043  0.9113 -0.6527
 3168TIP3    H2 9444   8.282   2.824   2.804 -0.3080  0.2845  0.5396
 3169TIP3   OH2 9445   0.356   2.290   1.540 -1.1354  0.3755  0.1099
 3169TIP3    H1 9446   0.441   2.275   1.582 -1.3253 -1.6133 -0.1737
 3169TIP3    H2 9447   0.356   2.230   1.466 -1.8277  2.0696 -1.2952
 3170TIP3   OH2 9448   8.231   3.321   1.015 -0.0815 -0.1143 -0.0186
 3170TIP3    H1 9449   8.285   3.263   1.068  0.2447 -1.7768 -2.0720
 3170TIP3    H2 9450   8.213   3.270   0.935 -0.4288  2.3477 -1.5572
 3171TIP3   OH2 9451   1.216   2.488   0.323  0.0339  0.2688  0.2102
 3171TIP3    H1 9452   1.207   2.578   0.356 -2.2954  0.2246 -0.2202
 3171TIP3    H2 9453   1.197   2.495   0.229 -0.2243 -0.7045  0.1865
 3172TIP3   OH2 9454   7.806   4.553   0.414  0.0351  0.2829  0.1550
 3172TIP3    H1 9455   7.879   4.568   0.473  0.4955  2.2661 -0.8631
 3172TIP3    H2 9456   7.845   4.552   0.326 -0.9977  0.2598 -0.3176
 3173TIP3   OH2 9457   0.389   1.268   2.605 -0.4914  0.0174  0.3083
 3173TIP3    H1 9458   0.346   1.235   2.525 -1.0384  0.6702  0.3283
 3173TIP3    H2 9459   0.351   1.355   2.618 -0.3753 -0.0736  1.2673
 3174TIP3   OH2 9460   7.777   3.377   2.203  0.6140  0.0659 -0.1526
 3174TIP3    H1 9461   7.814   3.437   2.137  0.4246  1.9142  1.3808
 3174TIP3    H2 9462   7.682   3.387   2.193  0.5432 -1.4029 -1.1344
 3175TIP3   OH2 9463   7.542   2.953   1.219 -0.4035 -0.5233 -0.3989
 3175TIP3    H1 9464   7.455   2.928   1.249 -0.6494 -0.6998 -1.2394
 3175TIP3    H2 9465   7.575   3.012   1.287 -1.6407  0.4525 -0.6248
 3176TIP3   OH2 9466   1.942   1.034   4.934 -0.1480  0.1664  0.4578
 3176TIP3    H1 9467   2.033   1.040   4.964 -0.3873  2.0893  0.8408
 3176TIP3    H2 9468   1.890   1.047   5.013 -0.7792 -1.3592  0.3136
 3177TIP3   OH2 9469   1.151   2.057   3.046  0.6467  0.1020 -0.2043
 3177TIP3    H1 9470   1.162   2.141   3.003 -0.1785 -0.3289 -1.2732
 3177TIP3    H2 9471   1.172   1.992   2.979  3.0128 -0.5436  1.1019
 3178TIP3   OH2 9472   7.726   2.713   2.377 -0.1294 -0.4311  0.1359
 3178TIP3    H1 9473   7.681   2.757   2.449 -0.5373 -0.9803  0.2183
 3178TIP3    H2 9474   7.817   2.743   2.384 -0.4018  0.3798  0.2020
 3179TIP3   OH2 9475   7.102   0.407   1.477  0.5000 -0.0791  0.2858
 3179TIP3    H1 9476   7.080   0.389   1.568 -0.0163 -1.2964 -0.0679
 3179TIP3    H2 9477   7.119   0.321   1.439  1.9968  0.5132 -0.4485
 3180TIP3   OH2 9478   5.414   3.497   1.843 -0.3429 -0.3300 -0.0940
 3180TIP3    H1 9479   5.475   3.554   1.797 -0.1260  0.4348  1.1285
 3180TIP3    H2 9480   5.388   3.432   1.777  0.1959  0.5567 -1.2004
 3181TIP3   OH2 9481   6.978   2.263   1.527 -0.5792  0.1491 -0.2369
 3181TIP3    H1 9482   6.959   2.226   1.614 -1.8315  0.3769 -0.4067
 3181TIP3    H2 9483   7.031   2.196   1.484  1.0843  0.5388  1.1290
 3182TIP3   OH2 9484   7.545   2.575   3.180  0.1117  0.0655  0.7307
 3182TIP3    H1 9485   7.497   2.632   3.240  0.4211  0.0565  0.9840
 3182TIP3    H2 9486   7.554   2.492   3.228 -0.2426 -0.1657  0.4068
 3183TIP3   OH2 9487   7.405   2.850   3.786  0.0964  0.2887  0.1582
 3183TIP3    H1 9488   7.434   2.938   3.812 -0.1670  1.0526 -2.0197
 3183TIP3    H2 9489   7.332   2.866   3.727 -0.8033 -1.4604  0.7585
 3184TIP3   OH2 9490   7.984   2.626   3.071 -0.2180 -0.6812  0.2022
 3184TIP3    H1 9491   8.005   2.719   3.069 -1.6681 -0.2017  3.7852
 3184TIP3    H2 9492   8.066   2.582   3.048  1.4480  1.4019  2.0398
 3185TIP3   OH2 9493   0.471   4.346   0.557  0.0072 -0.3017  0.4912
 3185TIP3    H1 9494   0.432   4.334   0.471  0.5121  1.9296 -0.0802
 3185TIP3    H2 9495   0.404   4.395   0.606  0.5369  0.1887  0.7260
 3186TIP3   OH2 9496   6.432   3.036   1.409 -0.2326  0.5542 -0.3022
 3186TIP3    H1 9497   6.336   3.035   1.417 -0.2508  1.2583 -0.4346
 3186TIP3    H2 9498   6.462   3.001   1.493 -0.5992  0.6166 -0.1407
 3187TIP3   OH2 9499   7.279   1.200   3.270 -0.1188 -0.0569 -0.1648
 3187TIP3    H1 9500   7.283   1.114   3.229  3.1021  0.1012 -0.3653
 3187TIP3    H2 9501   7.319   1.189   3.356 -0.2235  1.1056  0.0518
 3188TIP3   OH2 9502   7.773   3.212   2.705 -0.4524 -0.2887  0.1048
 3188TIP3    H1 9503   7.762   3.285   2.766 -1.5700 -0.2473 -0.1452
 3188TIP3    H2 9504   7.686   3.173   2.698  0.6161 -3.2508  2.2565
 3189TIP3   OH2 9505   6.974   4.043   3.239  0.5781  0.1793 -0.0006
 3189TIP3    H1 9506   7.064   4.027   3.266  0.5955 -0.7087 -0.5929
 3189TIP3    H2 9507   6.955   3.975   3.175 -0.8815 -0.3176  0.9499
 3190TIP3   OH2 9508   1.440   2.684   1.974 -0.5383 -0.4140 -0.4305
 3190TIP3    H1 9509   1.508   2.744   1.943 -0.5046  0.9523  2.1921
 3190TIP3    H2 9510   1.453   2.604   1.923  1.0501  0.9075 -2.1447
 3191TIP3   OH2 9511   7.511   5.071   2.361 -0.4795  0.1103  0.4413
 3191TIP3    H1 9512   7.539   5.101   2.447  1.4161  2.3529 -0.8729
 3191TIP3    H2 9513   7.576   5.005   2.336 -0.1336  0.5727  0.1062
 3192TIP3   OH2 9514   5.241   3.859   2.097 -0.1555 -0.2831  0.8208
 3192TIP3    H1 9515   5.157   3.880   2.138 -0.3231 -1.1812  0.9438
 3192TIP3    H2 9516   5.221   3.792   2.033  0.0347  1.4572 -1.1173
 3193TIP3   OH2 9517   0.421   2.081   2.603  0.3636 -0.6176 -0.0899
 3193TIP3    H1 9518   0.433   1.987   2.590 -1.9421 -1.0161  0.3676
 3193TIP3    H2 9519   0.332   2.097   2.571  0.6121  1.3471  0.1908
 3194TIP3   OH2 9520   7.080   4.322   2.155  0.0012 -1.0944  0.6785
 3194TIP3    H1 9521   7.046   4.287   2.237 -0.5757 -1.0231  0.4783
 3194TIP3    H2 9522   7.015   4.296   2.090 -0.3366  0.1661  0.4926
 3195TIP3   OH2 9523   5.470   1.973   6.034 -0.6642  0.2688 -0.1844
 3195TIP3    H1 9524   5.488   2.063   6.008 -1.3290  0.3806 -0.2685
 3195TIP3    H2 9525   5.536   1.921   5.987 -0.1546  0.7244  0.0178
 3196TIP3   OH2 9526   6.071   4.457   1.807 -0.4227 -0.2081 -0.3928
 3196TIP3    H1 9527   6.019   4.537   1.818  0.8121  0.7192 -1.1221
 3196TIP3    H2 9528   6.021   4.404   1.744 -1.1041  0.1122 -0.1290
 3197TIP3   OH2 9529   6.503   1.826   0.285 -0.2628  0.2262 -0.4434
 3197TIP3    H1 9530   6.530   1.738   0.257 -2.5510 -0.6964  0.1004
 3197TIP3    H2 9531   6.531   1.883   0.214  0.5085 -1.0749 -1.2076
 3198TIP3   OH2 9532   7.252   3.857   2.024 -0.2081 -0.0964  0.7894
 3198TIP3    H1 9533   7.162   3.862   2.057  0.1450 -0.5396  1.8406
 3198TIP3    H2 9534   7.252   3.914   1.946 -0.7051  2.0963  2.3377
 3199TIP3   OH2 9535   7.592   1.998   4.813  0.3440  0.3377  0.2145
 3199TIP3    H1 9536   7.524   1.931   4.805 -0.5093  1.3096 -0.9467
 3199TIP3    H2 9537   7.667   1.952   4.850 -0.7577 -0.8859  0.9637
 3200TIP3   OH2 9538   5.814   2.953   2.179 -0.7102  0.0135  0.0880
 3200TIP3    H1 9539   5.831   3.044   2.207  2.8614 -0.3031 -0.7694
 3200TIP3    H2 9540   5.759   2.962   2.101 -0.6810  1.4419  0.2124
 3201TIP3   OH2 9541   5.630   4.108   2.472  0.1952 -0.6441 -0.1153
 3201TIP3    H1 9542   5.609   4.196   2.503 -1.5380 -1.1784  0.2759
 3201TIP3    H2 9543   5.683   4.122   2.394 -1.2427  0.7610 -0.8628
 3202TIP3   OH2 9544   0.369   2.458   2.392  0.0800 -0.6139 -0.2039
 3202TIP3    H1 9545   0.284   2.490   2.424 -0.6787  0.0781 -2.8069
 3202TIP3    H2 9546   0.427   2.465   2.468 -2.4598 -2.2875  1.9980
 3203TIP3   OH2 9547   6.276   2.820   2.151  0.1470  0.3430  0.6745
 3203TIP3    H1 9548   6.286   2.793   2.243  0.1512 -1.3685  0.1871
 3203TIP3    H2 9549   6.181   2.831   2.140  0.0697 -0.3629  0.6319
 3204TIP3   OH2 9550   7.540   1.478   2.431  0.2669 -0.1138  0.0125
 3204TIP3    H1 9551   7.538   1.500   2.524  1.9998  1.2352 -0.2338
 3204TIP3    H2 9552   7.633   1.480   2.408 -0.0257 -1.8969 -1.4101
 3205TIP3   OH2 9553   0.626   1.087   2.437  0.1623 -0.0842  0.2366
 3205TIP3    H1 9554   0.710   1.131   2.453 -0.0633  0.3720  0.1912
 3205TIP3    H2 9555   0.576   1.101   2.518  0.1960 -0.5042  0.3287
 3206TIP3   OH2 9556   5.860   4.298   0.720 -0.1989 -0.3170  0.1338
 3206TIP3    H1 9557   5.901   4.268   0.639 -2.9311 -2.6941 -0.4791
 3206TIP3    H2 9558   5.796   4.363   0.692  0.2974  0.3886  0.6238
 3207TIP3   OH2 9559   1.607   2.884   1.901  0.1241  0.0500 -0.2556
 3207TIP3    H1 9560   1.609   2.933   1.818  1.3833  0.9013  0.2648
 3207TIP3    H2 9561   1.613   2.952   1.969 -0.5809 -0.6692  0.5344
 3208TIP3   OH2 9562   1.304   1.923   4.122 -0.3952  0.6345 -0.0578
 3208TIP3    H1 9563   1.396   1.950   4.130 -1.1442  2.7260  2.0412
 3208TIP3    H2 9564   1.279   1.899   4.211 -1.7234 -0.5631 -0.7404
 3209TIP3   OH2 9565   8.396   2.173   5.186  0.2617  0.0234  0.2424
 3209TIP3    H1 9566   8.319   2.228   5.203 -0.1814  0.4171 -2.6221
 3209TIP3    H2 9567   8.471   2.232   5.196 -0.0024  0.3583  0.2542
 3210TIP3   OH2 9568   2.272   3.912   3.087  0.1897 -0.3917  0.0194
 3210TIP3    H1 9569   2.343   3.856   3.055 -0.3487 -0.3749 -1.2557
 3210TIP3    H2 9570   2.311   3.964   3.157  0.9278 -1.7343  0.6105
 3211TIP3   OH2 9571   7.166   4.381   2.766  0.1065  0.3697 -0.5662
 3211TIP3    H1 9572   7.078   4.349   2.748 -0.1305  0.8501 -0.2839
 3211TIP3    H2 9573   7.158   4.477   2.764 -0.0634  0.4804  2.5342
 3212TIP3   OH2 9574   7.822   2.363   3.796  0.5759 -0.0287  0.0615
 3212TIP3    H1 9575   7.855   2.451   3.775  1.7990 -0.3460  0.6245
 3212TIP3    H2 9576   7.798   2.368   3.889  0.5362 -0.2515  0.0636
 3213TIP3   OH2 9577   8.150   5.104   2.631 -0.4488 -0.5778 -0.1023
 3213TIP3    H1 9578   8.160   5.010   2.620 -1.3755 -0.6695 -0.2066
 3213TIP3    H2 9579   8.168   5.120   2.723  0.2585 -0.7832 -0.2045
 3214TIP3   OH2 9580   1.175   3.985   1.685  0.0728 -0.1347  0.0891
 3214TIP3    H1 9581   1.092   3.967   1.640  0.6405 -0.1872 -0.9431
 3214TIP3    H2 9582   1.215   3.899   1.697  0.5075 -0.0052 -0.4336
 3215TIP3   OH2 9583   2.630   3.980   3.341 -0.0143  0.1152 -0.2177
 3215TIP3    H1 9584   2.676   3.904   3.304  0.2365  0.1863 -0.0548
 3215TIP3    H2 9585   2.647   3.975   3.435  1.5549  1.3820 -0.4006
 3216TIP3   OH2 9586   5.931   2.775   2.988  0.3760  0.0218  0.1236
 3216TIP3    H1 9587   5.883   2.722   2.924 -0.2937  0.9871 -0.1774
 3216TIP3    H2 9588   5.930   2.723   3.068  0.1654 -0.6512 -0.3139
 3217TIP3   OH2 9589   7.650   2.205   5.815  0.1751  0.3446 -0.3724
 3217TIP3    H1 9590   7.577   2.143   5.815 -0.0510  0.6093  0.0016
 3217TIP3    H2 9591   7.610   2.291   5.803  0.4115  0.4997 -0.0868
 3218TIP3   OH2 9592   1.099   2.314   2.918  0.5473  0.6575  1.1915
 3218TIP3    H1 9593   1.010   2.290   2.896  1.2749 -0.8365 -0.2265
 3218TIP3    H2 9594   1.136   2.348   2.837  1.5819  0.2646  1.4866
 3219TIP3   OH2 9595   7.972   5.497   3.748 -0.3034  0.1269  0.3045
 3219TIP3    H1 9596   7.891   5.541   3.770 -0.0668  0.3164  0.8059
 3219TIP3    H2 9597   7.966   5.412   3.791 -0.5817 -0.1726 -0.3226
 3220TIP3   OH2 9598   0.791   4.232   1.265  0.0487 -0.4567 -0.1934
 3220TIP3    H1 9599   0.737   4.160   1.231 -1.1414  0.5995 -0.5973
 3220TIP3    H2 9600   0.871   4.229   1.213  0.5642 -2.2703  0.6432
 3221TIP3   OH2 9601   1.487   3.219   3.204  0.7145 -0.1532  0.2516
 3221TIP3    H1 9602   1.502   3.127   3.184 -1.1204 -0.3163 -0.4716
 3221TIP3    H2 9603   1.442   3.219   3.288  0.8527  0.0924  0.3270
 3222TIP3   OH2 9604   7.487   3.280   3.430 -0.5062 -0.0153  0.1342
 3222TIP3    H1 9605   7.477   3.350   3.366 -0.8041 -0.4180 -0.2557
 3222TIP3    H2 9606   7.580   3.259   3.427 -0.4761  0.1317  0.0127
 3223TIP3   OH2 9607   7.009   5.955   2.301  0.3486  0.0290 -0.0974
 3223TIP3    H1 9608   7.079   5.910   2.254 -0.4174 -1.3139 -0.0056
 3223TIP3    H2 9609   7.041   6.044   2.315  1.7285 -0.3725 -0.6801
 3224TIP3   OH2 9610   1.163   2.995   2.693 -0.1470 -0.2285 -0.3982
 3224TIP3    H1 9611   1.256   2.979   2.708 -0.0149 -0.2860 -1.2639
 3224TIP3    H2 9612   1.139   2.936   2.622 -0.9300 -0.4639  0.0570
 3225TIP3   OH2 9613   1.431   2.804   4.917 -0.0214  0.0339 -0.1469
 3225TIP3    H1 9614   1.516   2.799   4.960  0.9349 -1.5754 -2.1490
 3225TIP3    H2 9615   1.406   2.896   4.924  2.5169  0.8003 -0.7561
 3226TIP3   OH2 9616   8.440   2.558   4.475 -0.5388 -0.4109  0.3356
 3226TIP3    H1 9617   8.357   2.524   4.441  0.5954 -1.2237 -1.7129
 3226TIP3    H2 9618   8.495   2.480   4.487  0.3665  0.2338  0.4349
 3227TIP3   OH2 9619   7.960   3.064   3.461  0.2187 -0.2728  0.5177
 3227TIP3    H1 9620   7.940   2.976   3.431  0.0357 -0.3130  0.7503
 3227TIP3    H2 9621   8.055   3.067   3.467  0.1893 -0.7737  1.4318
 3228TIP3   OH2 9622   1.164   4.512   3.662  0.2283  0.8083 -0.1706
 3228TIP3    H1 9623   1.161   4.589   3.719 -2.5048  0.5486  0.0912
 3228TIP3    H2 9624   1.225   4.537   3.593  0.8253  2.5047  0.9137
 3229TIP3   OH2 9625   0.965   2.816   4.256 -0.1797  0.7994 -0.0546
 3229TIP3    H1 9626   0.936   2.841   4.168  2.4159 -0.0339 -1.1841
 3229TIP3    H2 9627   0.954   2.895   4.308 -0.9387  1.5515 -1.3357
 3230TIP3   OH2 9628   1.610   1.579   2.512 -0.1546  0.7601 -0.0992
 3230TIP3    H1 9629   1.624   1.617   2.425 -1.0456  2.8684  0.6320
 3230TIP3    H2 9630   1.638   1.488   2.504 -1.3263  0.5870 -2.9151
 3231TIP3   OH2 9631   0.545   4.831   0.014 -0.0292 -0.5359 -0.4443
 3231TIP3    H1 9632   0.528   4.861  -0.075  0.3282  0.9469 -0.0272
 3231TIP3    H2 9633   0.485   4.881   0.068 -0.5589 -1.7577  0.1159
 3232TIP3   OH2 9634   2.312   1.956   0.060 -0.4342  0.0747 -0.1548
 3232TIP3    H1 9635   2.376   1.897   0.101 -0.2874  0.6426  0.4353
 3232TIP3    H2 9636   2.233   1.948   0.114 -0.5384  0.1314 -0.2976
 3233TIP3   OH2 9637   8.049   3.159   3.010  0.5018  0.6039 -0.2317
 3233TIP3    H1 9638   7.978   3.224   3.015 -1.0551 -1.0101 -0.6271
 3233TIP3    H2 9639   8.004   3.075   3.019  2.4532 -0.4312 -0.0002
 3234TIP3   OH2 9640   8.118   1.698   4.288 -0.6703 -0.7740  0.8781
 3234TIP3    H1 9641   8.195   1.695   4.345  0.9274  2.4898 -0.9534
 3234TIP3    H2 9642   8.115   1.788   4.256 -2.8881 -1.8806 -2.3066
 3235TIP3   OH2 9643   7.010   3.791   2.801 -0.0006  0.1156  0.6804
 3235TIP3    H1 9644   6.945   3.838   2.749 -0.1415 -0.6837  0.1297
 3235TIP3    H2 9645   7.092   3.804   2.754  0.0168  0.0705  0.6982
 3236TIP3   OH2 9646   1.355   2.805   2.969  0.3950 -0.6388 -0.4092
 3236TIP3    H1 9647   1.368   2.786   2.875  1.2383 -0.7544 -0.2780
 3236TIP3    H2 9648   1.260   2.802   2.981  0.2828 -0.7185 -1.2439
 3237TIP3   OH2 9649   8.366   4.834   6.353  0.2112  0.3687 -0.1055
 3237TIP3    H1 9650   8.394   4.802   6.438  2.0025  0.3718 -0.6535
 3237TIP3    H2 9651   8.445   4.828   6.298 -1.1411 -0.5421 -2.0242
 3238TIP3   OH2 9652   6.552   5.420   3.754  0.3494 -0.1329  0.2827
 3238TIP3    H1 9653   6.648   5.418   3.749  0.3470  1.2539 -0.6408
 3238TIP3    H2 9654   6.532   5.499   3.805 -0.3316  0.9202 -1.5528
 3239TIP3   OH2 9655   8.355   3.494   5.521 -0.1206 -0.6108 -0.0830
 3239TIP3    H1 9656   8.326   3.407   5.549 -0.5105 -0.7497 -0.9052
 3239TIP3    H2 9657   8.375   3.540   5.602 -1.0598 -1.0697  0.4090
 3240TIP3   OH2 9658   0.096   4.841   3.733 -0.2097  0.1071  0.0222
 3240TIP3    H1 9659   0.133   4.803   3.654  0.4127 -3.3368  1.8843
 3240TIP3    H2 9660   0.168   4.889   3.773  0.3692 -0.8302  0.1158
 3241TIP3   OH2 9661   1.379   5.317   2.944  0.5456 -0.3327 -0.1744
 3241TIP3    H1 9662   1.331   5.253   2.996  1.5454  1.3761  3.0166
 3241TIP3    H2 9663   1.471   5.289   2.950  0.4640 -1.2090 -2.6805
 3242TIP3   OH2 9664   8.433   4.638   3.781 -0.0612 -0.3525 -0.8456
 3242TIP3    H1 9665   8.494   4.707   3.758  0.3704 -0.4649 -0.0792
 3242TIP3    H2 9666   8.355   4.684   3.814  0.5584 -0.2351  0.4758
 3243TIP3   OH2 9667   0.511   3.013   2.844 -0.2322  0.6016  0.4415
 3243TIP3    H1 9668   0.432   3.006   2.897 -0.4089  0.2208  0.1290
 3243TIP3    H2 9669   0.488   2.973   2.760  0.2424  0.6265  0.2957
 3244TIP3   OH2 9670   0.713   3.288   3.933 -0.0543 -0.0788  0.3539
 3244TIP3    H1 9671   0.661   3.366   3.953 -0.5953 -0.5355  0.7263
 3244TIP3    H2 9672   0.803   3.315   3.948 -0.1563  0.8089 -0.5871
 3245TIP3   OH2 9673   0.824   3.320   2.057 -0.4164  0.2176  0.0407
 3245TIP3    H1 9674   0.876   3.258   2.006 -0.5218  1.9547 -2.2273
 3245TIP3    H2 9675   0.889   3.377   2.098 -0.4070  0.0367  0.2797
 3246TIP3   OH2 9676   0.503   3.118   4.104 -0.4753  0.7444  0.3720
 3246TIP3    H1 9677   0.551   3.079   4.178  0.6443  0.4187 -0.5125
 3246TIP3    H2 9678   0.544   3.203   4.090 -0.7245  0.8325  0.1721
 3247TIP3   OH2 9679   1.099   1.848   3.698 -0.2476  0.2631  0.1617
 3247TIP3    H1 9680   1.084   1.940   3.677 -3.5190 -0.0816  0.6421
 3247TIP3    H2 9681   1.072   1.801   3.619 -1.4674 -0.4005  0.9492
 3248TIP3   OH2 9682   8.322   3.056   3.655  0.2956  0.1704 -0.1318
 3248TIP3    H1 9683   8.401   3.100   3.687  1.1242 -0.6891 -0.9620
 3248TIP3    H2 9684   8.272   3.126   3.613  0.0450  0.9487  1.4514
 3249TIP3   OH2 9685   7.584   3.111   1.927  0.1250 -0.8330 -0.0992
 3249TIP3    H1 9686   7.676   3.137   1.939 -0.6332  1.1211  1.7221
 3249TIP3    H2 9687   7.566   3.054   2.002 -0.8783  0.8483  0.9504
 3250TIP3   OH2 9688   0.734   4.590   5.273 -0.4207 -0.2572  0.2789
 3250TIP3    H1 9689   0.682   4.575   5.352 -1.6461 -0.5603 -0.5639
 3250TIP3    H2 9690   0.670   4.620   5.208  0.2976 -1.5071 -1.0348
 3251TIP3   OH2 9691   7.724   3.702   3.000 -0.2846 -0.1381 -0.2368
 3251TIP3    H1 9692   7.652   3.641   3.015 -0.6906  0.7989  1.6944
 3251TIP3    H2 9693   7.757   3.678   2.913 -1.5223 -1.9826 -0.2314
 3252TIP3   OH2 9694   0.456   3.209   5.603 -0.0684  0.5469  0.8101
 3252TIP3    H1 9695   0.482   3.276   5.540 -2.1365  0.5492 -0.0782
 3252TIP3    H2 9696   0.380   3.247   5.648  0.4180 -0.1037  2.1957
 3253TIP3   OH2 9697   6.071   4.980   2.598 -0.5629 -0.2875 -0.3588
 3253TIP3    H1 9698   6.110   4.983   2.685  2.7368 -0.2252 -1.7904
 3253TIP3    H2 9699   5.978   4.995   2.613  0.1528  1.1097  3.0236
 3254TIP3   OH2 9700   6.414   3.263   2.889 -0.0723 -0.6023  0.5476
 3254TIP3    H1 9701   6.434   3.198   2.957 -0.9836 -0.8852  0.5445
 3254TIP3    H2 9702   6.356   3.326   2.932  0.2511 -0.1687  0.3506
 3255TIP3   OH2 9703   0.438   4.040   4.073  0.5160  0.4104  0.1586
 3255TIP3    H1 9704   0.411   4.054   4.164 -0.2382  0.7809 -0.1188
 3255TIP3    H2 9705   0.362   4.000   4.031  0.9070  0.1154 -0.2852
 3256TIP3   OH2 9706   1.758   3.003   4.535  0.3019  0.5245 -0.1581
 3256TIP3    H1 9707   1.694   2.937   4.512  1.7439 -0.9027 -0.1937
 3256TIP3    H2 9708   1.838   2.953   4.552  1.0510  2.1297  1.1877
 3257TIP3   OH2 9709   1.335   3.116   4.128  0.3890  0.5445  0.2276
 3257TIP3    H1 9710   1.352   3.107   4.221  0.6944  0.9139  0.2120
 3257TIP3    H2 9711   1.314   3.209   4.116  3.5631  1.2357 -0.5447
 3258TIP3   OH2 9712   3.117   1.457   2.938  0.1981 -0.3651  0.3032
 3258TIP3    H1 9713   3.197   1.432   2.894 -0.0119 -0.3818 -0.0708
 3258TIP3    H2 9714   3.144   1.478   3.027  0.8769  1.1865 -0.2524
 3259TIP3   OH2 9715   1.737   2.037   2.615  0.5015 -0.2750 -0.0916
 3259TIP3    H1 9716   1.824   2.049   2.654  0.5512 -1.3986  0.1760
 3259TIP3    H2 9717   1.684   2.000   2.685  0.2704 -1.1817 -0.7315
 3260TIP3   OH2 9718   0.848   3.921   1.865 -0.4078  0.0614  0.0161
 3260TIP3    H1 9719   0.889   3.993   1.913 -0.9312  0.1186  0.3830
 3260TIP3    H2 9720   0.922   3.869   1.834 -0.0575 -0.0488  0.9988
 3261TIP3   OH2 9721   6.687   2.925   5.899 -0.1946  0.4444  0.0652
 3261TIP3    H1 9722   6.696   2.908   5.993  3.5941 -2.2489 -0.6877
 3261TIP3    H2 9723   6.774   2.955   5.872 -1.2869  1.3419 -2.5924
 3262TIP3   OH2 9724   7.337   3.711   2.686  0.3027 -0.4550  0.1713
 3262TIP3    H1 9725   7.331   3.626   2.642 -1.2359 -0.7649  0.9554
 3262TIP3    H2 9726   7.286   3.770   2.632  0.5017 -0.2658  0.1912
 3263TIP3   OH2 9727   0.813   2.528   6.191 -0.3312  0.1522 -0.0133
 3263TIP3    H1 9728   0.805   2.506   6.283  0.1112  1.5670  0.3647
 3263TIP3    H2 9729   0.790   2.621   6.185 -0.4347  0.0620 -1.3342
 3264TIP3   OH2 9730   5.586   3.679   1.711 -0.1370 -0.2676  0.0777
 3264TIP3    H1 9731   5.668   3.708   1.749  0.9580 -0.7261 -1.8636
 3264TIP3    H2 9732   5.596   3.694   1.617 -2.3740 -0.0631 -0.1769
 3265TIP3   OH2 9733   0.088   3.430   1.395  0.2608 -0.1730 -0.4298
 3265TIP3    H1 9734   0.019   3.480   1.439  0.3760  0.5433 -1.0650
 3265TIP3    H2 9735   0.106   3.357   1.455 -0.1635  0.3356  0.3266
 3266TIP3   OH2 9736   7.316   2.473   3.582  0.7000 -0.1343 -0.3878
 3266TIP3    H1 9737   7.248   2.538   3.566  0.8469  0.8773  2.5998
 3266TIP3    H2 9738   7.295   2.400   3.525 -2.1115  0.7040 -0.4859
 3267TIP3   OH2 9739   1.478   4.023   3.588 -0.3870 -0.1783  0.2068
 3267TIP3    H1 9740   1.542   4.017   3.517 -0.7246  1.1947 -0.2317
 3267TIP3    H2 9741   1.432   3.939   3.588 -0.1394 -0.3107 -0.9543
 3268TIP3   OH2 9742   0.693   2.234   3.862  0.2428  0.3116  0.0751
 3268TIP3    H1 9743   0.633   2.304   3.838 -0.0688  0.1726  0.4433
 3268TIP3    H2 9744   0.644   2.153   3.846  0.3452  0.1973  0.3337
 3269TIP3   OH2 9745  -0.003   0.148   3.276 -0.6342  0.1644  0.0063
 3269TIP3    H1 9746   0.082   0.106   3.258  0.4730  2.8277 -1.2898
 3269TIP3    H2 9747  -0.066   0.077   3.270  1.4198 -1.7448  0.1940
 3270TIP3   OH2 9748   0.629   1.557   2.067 -0.1149  0.0330 -0.1342
 3270TIP3    H1 9749   0.626   1.461   2.073  0.1095 -0.0628 -1.4186
 3270TIP3    H2 9750   0.539   1.583   2.050 -0.1424  0.0403  0.0197
 3271TIP3   OH2 9751   0.911   1.525   2.413  0.0407 -0.3431 -0.6171
 3271TIP3    H1 9752   0.962   1.503   2.491 -0.3205 -0.7165 -0.4863
 3271TIP3    H2 9753   0.927   1.452   2.353 -0.3394 -0.4625 -0.5745
 3272TIP3   OH2 9754   8.340   2.924   2.221 -0.3822 -0.2771 -0.3778
 3272TIP3    H1 9755   8.351   2.954   2.131 -2.2291 -0.8699 -0.8268
 3272TIP3    H2 9756   8.418   2.870   2.237 -0.3234 -0.6600 -1.8259
 3273TIP3   OH2 9757   0.062   4.096   2.892  0.6254 -0.1196 -0.1418
 3273TIP3    H1 9758  -0.025   4.133   2.877  0.8137 -0.2029 -1.4524
 3273TIP3    H2 9759   0.050   4.002   2.878  0.5367 -0.3659  1.4598
 3274TIP3   OH2 9760   0.439   3.872   3.294 -0.4900 -0.2072 -0.5733
 3274TIP3    H1 9761   0.360   3.823   3.314 -0.1317 -0.0253  1.4205
 3274TIP3    H2 9762   0.413   3.964   3.303  0.0235 -0.1553  0.5083
 3275TIP3   OH2 9763   7.496   1.770   4.147 -0.0489  0.4020 -0.3530
 3275TIP3    H1 9764   7.544   1.809   4.074  2.0692 -0.6879  0.4008
 3275TIP3    H2 9765   7.540   1.803   4.225 -1.5742  0.6719  0.4083
 3276TIP3   OH2 9766   0.284   3.051   1.899  0.9913  0.4706  0.1715
 3276TIP3    H1 9767   0.359   3.090   1.945  1.2142 -1.1996  1.3002
 3276TIP3    H2 9768   0.207   3.090   1.940  1.2046 -0.5119  1.5503
 3277TIP3   OH2 9769   0.054   2.977   3.936 -0.4978  0.4421 -0.3346
 3277TIP3    H1 9770   0.129   2.969   3.995 -2.0318 -0.8374  1.5039
 3277TIP3    H2 9771   0.010   3.057   3.963 -0.6733  0.3563 -0.3649
 3278TIP3   OH2 9772   0.247   3.580   4.003  0.4999 -0.1549  0.0604
 3278TIP3    H1 9773   0.242   3.486   4.020  2.1075  0.0463  1.6742
 3278TIP3    H2 9774   0.242   3.621   4.089 -0.7922  1.2922 -0.6641
 3279TIP3   OH2 9775   2.553   5.005   4.007  0.3863  0.2967  0.8632
 3279TIP3    H1 9776   2.511   4.988   3.923  1.1512 -0.7923  0.6903
 3279TIP3    H2 9777   2.647   5.009   3.986  0.5226  0.7820  1.5418
 3280TIP3   OH2 9778   1.554   2.410   1.377 -0.1873  0.7801 -0.2233
 3280TIP3    H1 9779   1.563   2.328   1.327 -0.9073  1.2168 -1.0848
 3280TIP3    H2 9780   1.601   2.475   1.325  1.5494  0.6681  1.1355
 3281TIP3   OH2 9781   1.559   2.491   5.106  0.3346  0.5818  0.0076
 3281TIP3    H1 9782   1.517   2.421   5.055  2.3528 -0.7157  0.0812
 3281TIP3    H2 9783   1.570   2.563   5.043  1.0918 -0.3225 -0.8982
 3282TIP3   OH2 9784   2.961   3.747   2.554  0.3188  0.4491  0.2307
 3282TIP3    H1 9785   3.024   3.715   2.489  0.2672  0.7687  0.0242
 3282TIP3    H2 9786   3.002   3.727   2.638 -0.4995 -1.7410  0.1226
 3283TIP3   OH2 9787   8.387   2.494   2.309 -0.5116 -0.4567 -0.1772
 3283TIP3    H1 9788   8.305   2.542   2.297 -0.7049 -0.4933  0.9968
 3283TIP3    H2 9789   8.403   2.452   2.224 -0.9876  0.6717 -0.8357
 3284TIP3   OH2 9790   7.230   3.002   2.352  0.0647  0.3003  0.4387
 3284TIP3    H1 9791   7.141   3.024   2.324  0.7278  0.4152 -1.7086
 3284TIP3    H2 9792   7.257   3.076   2.406 -0.8647  0.6452  0.4422
 3285TIP3   OH2 9793   0.866   2.804   4.810 -0.1904  0.1641 -0.4289
 3285TIP3    H1 9794   0.790   2.822   4.755 -0.7071  0.1004  0.2609
 3285TIP3    H2 9795   0.854   2.860   4.886 -0.2322 -0.8350  0.3069
 3286TIP3   OH2 9796   7.216   2.214   6.587 -0.3709  0.0287  0.1571
 3286TIP3    H1 9797   7.280   2.158   6.544 -0.1114  0.5568 -0.1600
 3286TIP3    H2 9798   7.144   2.156   6.610 -0.8656 -0.1025 -1.7314
 3287TIP3   OH2 9799   0.726   2.992   3.053 -0.0335 -0.1033 -0.7390
 3287TIP3    H1 9800   0.776   2.951   2.982  0.7911 -0.9231  0.2851
 3287TIP3    H2 9801   0.635   2.985   3.025  0.2061 -1.2811 -1.2831
 3288TIP3   OH2 9802   2.982   2.443   5.090 -0.8414 -0.0183 -0.6927
 3288TIP3    H1 9803   2.958   2.457   4.998 -1.3304  0.8003 -0.4439
 3288TIP3    H2 9804   3.057   2.384   5.086 -1.1066 -0.3114 -1.6028
 3289TIP3   OH2 9805   1.630   3.052   5.960  0.1601 -0.2938  0.1653
 3289TIP3    H1 9806   1.724   3.055   5.976 -0.0059  0.3217  1.0802
 3289TIP3    H2 9807   1.598   2.984   6.019 -0.0502 -0.0764  0.3025
 3290TIP3   OH2 9808   0.560   3.036   5.363  0.0560  0.4160  0.2957
 3290TIP3    H1 9809   0.488   2.985   5.400  1.2548 -0.2146  1.7974
 3290TIP3    H2 9810   0.576   2.996   5.277 -0.8847  0.0922  0.2635
 3291TIP3   OH2 9811   8.013   4.410   3.854  0.1757 -0.0446 -0.3117
 3291TIP3    H1 9812   8.066   4.409   3.934 -0.5263 -1.5973  0.1500
 3291TIP3    H2 9813   8.077   4.412   3.783  0.8057  1.5243  0.2764
 3292TIP3   OH2 9814   7.571   2.090   2.242 -0.5212 -0.2190 -0.4588
 3292TIP3    H1 9815   7.492   2.141   2.261 -1.1996 -1.0356 -1.0193
 3292TIP3    H2 9816   7.573   2.084   2.146  1.1913  1.2809 -0.5317
 3293TIP3   OH2 9817   2.278   3.981   2.706 -0.0127 -0.5082 -1.0125
 3293TIP3    H1 9818   2.347   3.988   2.773  0.1664  0.8796 -1.3316
 3293TIP3    H2 9819   2.246   4.070   2.696 -1.1186 -0.9817 -1.6592
 3294TIP3   OH2 9820   1.736   4.828   3.677 -0.0455  0.0626 -0.0095
 3294TIP3    H1 9821   1.828   4.799   3.676 -0.6538 -1.9374 -1.0953
 3294TIP3    H2 9822   1.688   4.753   3.642 -1.9083  1.7826 -1.1995
 3295TIP3   OH2 9823   7.823   2.936   3.805  0.2665  0.2176  0.0191
 3295TIP3    H1 9824   7.917   2.946   3.793  0.4047 -1.6084 -0.5850
 3295TIP3    H2 9825   7.803   2.850   3.768 -1.9191  1.2957 -1.4257
 3296TIP3   OH2 9826   0.883   2.959   3.283  0.0223  0.0842 -0.6065
 3296TIP3    H1 9827   0.839   2.971   3.199  0.1535  0.5458 -0.6115
 3296TIP3    H2 9828   0.859   3.036   3.335  0.7765  0.3209 -0.5907
 3297TIP3   OH2 9829   8.117   3.208   2.118 -0.3027  0.0937 -0.3054
 3297TIP3    H1 9830   8.115   3.281   2.180  0.1739  0.0031 -0.1755
 3297TIP3    H2 9831   8.026   3.187   2.102 -0.4504  1.1161 -0.8046
 3298TIP3   OH2 9832   1.984   3.529   3.628  0.0944  0.5533  0.3692
 3298TIP3    H1 9833   1.916   3.590   3.600  0.3502  1.9886  2.7442
 3298TIP3    H2 9834   2.066   3.571   3.604  0.2081  0.1268  0.0169
 3299TIP3   OH2 9835   1.676   3.981   3.383 -0.3289 -0.2036 -0.1860
 3299TIP3    H1 9836   1.677   4.032   3.301  1.1173 -1.0659 -0.7331
 3299TIP3    H2 9837   1.652   3.893   3.356  1.5237 -0.8188  0.0837
 3300TIP3   OH2 9838   2.362   5.085   3.031  0.1972  0.4381  0.1791
 3300TIP3    H1 9839   2.421   5.068   2.958  1.5261 -0.9420  1.5217
 3300TIP3    H2 9840   2.274   5.077   2.994  0.8494 -1.8678 -0.9198
 3301TIP3   OH2 9841   7.791   3.572   3.532  0.9280 -0.8697 -0.1741
 3301TIP3    H1 9842   7.788   3.564   3.436  1.5010 -1.2112 -0.1618
 3301TIP3    H2 9843   7.704   3.605   3.555  1.1154  0.1506 -0.9016
 3302TIP3   OH2 9844   0.082   1.867   2.486 -0.2615  0.7109  0.2306
 3302TIP3    H1 9845   0.076   1.835   2.576 -0.0784  1.0399  0.3643
 3302TIP3    H2 9846   0.073   1.789   2.432  1.1706  0.2807  0.5687
 3303TIP3   OH2 9847   0.267   3.939   4.599 -0.4537  0.1254 -0.0368
 3303TIP3    H1 9848   0.252   3.931   4.505 -1.6469 -0.8097  0.2134
 3303TIP3    H2 9849   0.297   3.852   4.626 -3.3069 -0.6331  0.9598
 3304TIP3   OH2 9850   7.384   2.306   3.795 -0.0954 -0.0089 -0.1753
 3304TIP3    H1 9851   7.359   2.336   3.707  0.9471 -0.4519 -0.6335
 3304TIP3    H2 9852   7.437   2.228   3.780  0.6566  0.2929  0.8079
 3305TIP3   OH2 9853   0.824   1.839   5.094  0.2646  0.0851 -0.3079
 3305TIP3    H1 9854   0.871   1.826   5.012  1.7814  1.4737  0.3071
 3305TIP3    H2 9855   0.749   1.894   5.071  0.3756  0.0011 -0.8683
 3306TIP3   OH2 9856   1.766   0.934   1.588 -0.2869 -0.7004  0.0915
 3306TIP3    H1 9857   1.706   0.973   1.524  0.4035 -2.0377 -1.4191
 3306TIP3    H2 9858   1.777   0.844   1.558  1.7561 -0.7312  0.8496
 3307TIP3   OH2 9859   0.770   2.252   4.136  0.4134 -0.5512 -0.5877
 3307TIP3    H1 9860   0.714   2.182   4.171  0.4473  0.0072  0.6079
 3307TIP3    H2 9861   0.742   2.262   4.046 -0.9755 -0.7257 -0.1864
 3308TIP3   OH2 9862   0.798   0.624   2.983  0.2999  0.3873 -0.0244
 3308TIP3    H1 9863   0.722   0.622   3.042 -0.6101  0.5188 -1.1734
 3308TIP3    H2 9864   0.762   0.600   2.898  1.7750 -0.7032 -0.3509
 3309TIP3   OH2 9865   1.403   2.806   3.481 -0.4520 -0.3323  0.5093
 3309TIP3    H1 9866   1.335   2.826   3.417 -0.6917 -0.7214  0.6393
 3309TIP3    H2 9867   1.458   2.741   3.439 -0.0552  0.1155  0.3367
 3310TIP3   OH2 9868   0.480   1.599   3.571 -0.0459 -0.2014  0.7373
 3310TIP3    H1 9869   0.467   1.657   3.646  0.6537 -1.3795  1.8024
 3310TIP3    H2 9870   0.549   1.642   3.520 -2.3521  1.9665 -0.6996
 3311TIP3   OH2 9871   8.055   1.616   3.538 -0.2401  0.1795  0.4538
 3311TIP3    H1 9872   8.128   1.565   3.572 -2.0956 -2.4942  0.5782
 3311TIP3    H2 9873   8.062   1.607   3.443 -0.2903  0.1036  0.4573
 3312TIP3   OH2 9874   7.597   2.111   1.970 -0.1851 -0.5572 -0.1676
 3312TIP3    H1 9875   7.684   2.090   1.936  0.4803 -0.1966  1.2510
 3312TIP3    H2 9876   7.590   2.206   1.962 -0.3131 -0.5493  0.0239
 3313TIP3   OH2 9877   0.692   3.521   3.402 -0.2891 -0.0787 -0.3667
 3313TIP3    H1 9878   0.608   3.525   3.449  0.4069  4.0813  0.7041
 3313TIP3    H2 9879   0.691   3.596   3.343  2.0213 -0.9234 -1.5556
 3314TIP3   OH2 9880   6.178   7.430   1.753 -0.4940 -0.1276  0.6394
 3314TIP3    H1 9881   6.158   7.478   1.834  2.9182  0.7358  1.0247
 3314TIP3    H2 9882   6.219   7.495   1.696 -2.5628 -0.8112 -1.7194
 3315TIP3   OH2 9883   0.040   4.403   1.941  0.1729 -0.5444 -0.1634
 3315TIP3    H1 9884   0.029   4.480   1.887 -0.0479 -0.5743 -0.1601
 3315TIP3    H2 9885   0.133   4.403   1.964  0.4621 -1.0465 -1.3111
 3316TIP3   OH2 9886   0.343   4.627   3.194 -0.2180  0.3151 -0.1399
 3316TIP3    H1 9887   0.367   4.565   3.263  0.6492  1.5501  0.6916
 3316TIP3    H2 9888   0.363   4.580   3.112  1.9881  0.0868  0.4928
 3317TIP3   OH2 9889   0.807   4.591   3.068  0.3594  0.3376  0.2442
 3317TIP3    H1 9890   0.721   4.599   3.026 -0.1224 -0.9981  0.9514
 3317TIP3    H2 9891   0.792   4.533   3.142  1.7424  0.6399  0.7719
 3318TIP3   OH2 9892   0.741   3.635   2.944 -0.4619  0.3864 -0.7898
 3318TIP3    H1 9893   0.737   3.547   2.906 -1.4037 -0.1412  0.4673
 3318TIP3    H2 9894   0.834   3.648   2.963 -0.1174  0.2633 -2.3342
 3319TIP3   OH2 9895   1.465   1.999   2.173 -0.2612 -0.0741 -0.0856
 3319TIP3    H1 9896   1.503   1.939   2.109 -0.4626  0.5971 -0.8268
 3319TIP3    H2 9897   1.533   2.008   2.240  0.4361  0.2185 -0.8303
 3320TIP3   OH2 9898   7.899   4.620   5.323  0.3636 -0.7564 -0.2663
 3320TIP3    H1 9899   7.891   4.716   5.323  0.2649 -0.7620  0.2923
 3320TIP3    H2 9900   7.954   4.601   5.247  2.1883 -0.1007  0.8534
 3321TIP3   OH2 9901   7.224   2.855   3.001  0.1504  0.4094  0.4133
 3321TIP3    H1 9902   7.247   2.768   2.969 -1.7573 -0.0444  0.2142
 3321TIP3    H2 9903   7.303   2.886   3.045  1.5826 -0.5066 -1.4331
 3322TIP3   OH2 9904   0.113   1.719   1.608  0.0876 -0.4957  0.2006
 3322TIP3    H1 9905   0.076   1.797   1.650  1.1221  0.0419  0.1584
 3322TIP3    H2 9906   0.127   1.657   1.679 -0.9115 -0.7202  0.2091
 3323TIP3   OH2 9907   7.949   3.798   3.335  0.3460  0.7515 -0.0103
 3323TIP3    H1 9908   7.972   3.869   3.275  2.3122  0.6051  0.5318
 3323TIP3    H2 9909   7.918   3.841   3.414 -0.6175  0.9658 -0.4991
 3324TIP3   OH2 9910   8.273   3.556   2.118 -0.3602  0.0926  0.7868
 3324TIP3    H1 9911   8.195   3.503   2.135 -1.3532 -0.0182 -3.5246
 3324TIP3    H2 9912   8.248   3.645   2.139 -1.6044  0.0064 -0.2611
 3325TIP3   OH2 9913   0.144   3.753   6.273 -0.0601 -0.4254  0.3271
 3325TIP3    H1 9914   0.200   3.678   6.257  1.2862  0.2102  1.8992
 3325TIP3    H2 9915   0.064   3.717   6.312  0.1284 -1.1297  0.0556
 3326TIP3   OH2 9916   0.057   1.746   6.504  0.3700  0.2633 -0.2500
 3326TIP3    H1 9917  -0.022   1.780   6.462 -0.4993  0.5656  1.5617
 3326TIP3    H2 9918   0.129   1.797   6.467 -0.7649  3.2491  1.4604
 3327TIP3   OH2 9919   1.269   2.134   1.290 -0.0201  0.0640 -0.1032
 3327TIP3    H1 9920   1.205   2.091   1.233 -0.0399 -0.5803  0.4067
 3327TIP3    H2 9921   1.350   2.135   1.239  0.5109 -2.3548  0.6213
 3328TIP3   OH2 9922   0.254   3.282   5.205  0.1689 -0.2638 -0.2991
 3328TIP3    H1 9923   0.228   3.278   5.113 -1.8487 -2.8917  0.3206
 3328TIP3    H2 9924   0.187   3.338   5.246  0.4574  0.0313 -0.2288
 3329TIP3   OH2 9925   1.098   3.060   1.706 -0.5742 -0.8200 -0.0951
 3329TIP3    H1 9926   1.149   2.981   1.725  0.1070 -0.2156  0.6315
 3329TIP3    H2 9927   1.158   3.116   1.657 -0.9628 -0.6171 -0.3468
 3330TIP3   OH2 9928   0.063   3.128   5.569 -0.4362  0.3200 -0.0955
 3330TIP3    H1 9929   0.121   3.062   5.608 -1.2726 -1.0079 -1.0665
 3330TIP3    H2 9930   0.067   3.110   5.475  1.7663  3.6337 -0.7457
 3331TIP3   OH2 9931   2.714   1.012   5.213  0.1367  0.9726 -0.3138
 3331TIP3    H1 9932   2.691   1.024   5.120  0.7105  1.3337 -0.4099
 3331TIP3    H2 9933   2.790   1.069   5.226  0.6309  0.2137  0.1461
 3332TIP3   OH2 9934   1.265   2.406   4.157 -0.1554 -0.2065  0.0025
 3332TIP3    H1 9935   1.264   2.500   4.179 -0.8509  0.7457 -3.7850
 3332TIP3    H2 9936   1.199   2.368   4.215 -2.8626  2.3813 -1.2531
 3333TIP3   OH2 9937   8.416   3.903   2.547 -0.3028  0.1012  0.5408
 3333TIP3    H1 9938   8.324   3.886   2.531 -0.6256  0.1423  2.2376
 3333TIP3    H2 9939   8.424   3.902   2.643  1.1193  1.7145  0.4686
 3334TIP3   OH2 9940   1.599   2.309   3.158 -0.3629 -0.2673 -0.1748
 3334TIP3    H1 9941   1.683   2.303   3.203 -0.2949 -0.4745 -0.3290
 3334TIP3    H2 9942   1.556   2.386   3.197 -0.0569 -0.0937 -0.1761
 3335TIP3   OH2 9943   1.123   2.875   4.737  0.5977  0.0469 -0.4249
 3335TIP3    H1 9944   1.035   2.847   4.763 -0.8947  2.2308 -2.8591
 3335TIP3    H2 9945   1.170   2.885   4.819 -2.2658  1.4136  1.1260
 3336TIP3   OH2 9946   2.747   1.678   3.718 -0.1234  0.1586 -0.1086
 3336TIP3    H1 9947   2.817   1.633   3.671  1.9354  1.2668  1.7796
 3336TIP3    H2 9948   2.740   1.633   3.801 -0.8004  0.8360  0.2129
 3337TIP3   OH2 9949   1.704   4.175   3.722  1.0904 -0.1562  0.2728
 3337TIP3    H1 9950   1.747   4.092   3.705  1.5636 -0.4087  2.4611
 3337TIP3    H2 9951   1.611   4.156   3.720  1.2103 -0.9246  1.5202
 3338TIP3   OH2 9952   2.923   3.360   4.010 -0.0214  0.4523 -0.2798
 3338TIP3    H1 9953   2.898   3.404   4.092 -0.1387 -1.7719  0.9404
 3338TIP3    H2 9954   2.938   3.431   3.948 -0.0820  2.1997  1.6344
 3339TIP3   OH2 9955   0.565   2.166   4.523 -0.7272 -0.6002 -0.2027
 3339TIP3    H1 9956   0.511   2.242   4.503 -0.2659 -0.3262 -0.4224
 3339TIP3    H2 9957   0.616   2.192   4.600  0.1312 -0.3298 -0.8532
 3340TIP3   OH2 9958   0.122   3.323   3.692 -0.2374 -0.0175  0.1694
 3340TIP3    H1 9959   0.142   3.305   3.784  0.7976 -1.3926 -0.3195
 3340TIP3    H2 9960   0.140   3.417   3.681 -2.0907  0.5678  1.8022
 3341TIP3   OH2 9961   1.465   0.723   5.426 -0.1367 -0.5182 -0.3394
 3341TIP3    H1 9962   1.401   0.660   5.460 -0.2138  0.7330  1.9040
 3341TIP3    H2 9963   1.412   0.798   5.399  0.2084 -0.3564 -0.5661
 3342TIP3   OH2 9964   0.309   3.554   2.881  0.0201  0.3661 -1.0171
 3342TIP3    H1 9965   0.272   3.605   2.952  1.9952  0.6295 -0.1508
 3342TIP3    H2 9966   0.263   3.470   2.885  0.1985  0.3401  0.6300
 3343TIP3   OH2 9967   6.254   4.319   2.706  0.7829 -0.1888  0.0502
 3343TIP3    H1 9968   6.289   4.286   2.788 -1.5542 -2.8506  0.0530
 3343TIP3    H2 9969   6.160   4.324   2.720  0.5640  1.3806 -1.7784
 3344TIP3   OH2 9970   2.954   4.188   3.698  0.2444 -0.4675 -0.7626
 3344TIP3    H1 9971   2.887   4.125   3.671  1.5749 -1.5664 -1.5893
 3344TIP3    H2 9972   2.929   4.269   3.654 -1.0160 -0.6396 -0.3747
 3345TIP3   OH2 9973   0.967   4.811   2.160 -0.7833  0.6810  0.4762
 3345TIP3    H1 9974   0.887   4.850   2.195 -0.0695  1.1535  1.5748
 3345TIP3    H2 9975   1.036   4.872   2.183 -0.0319  0.0686 -0.1220
 3346TIP3   OH2 9976   8.430   4.394   5.102 -0.2657 -0.0140 -0.1323
 3346TIP3    H1 9977   8.336   4.376   5.101 -0.0357 -1.3042 -0.3925
 3346TIP3    H2 9978   8.456   4.381   5.193 -0.4809  1.1569  0.1005
 3347TIP3   OH2 9979   1.867   4.803   1.775 -0.5075  0.4882 -0.3799
 3347TIP3    H1 9980   1.804   4.871   1.800 -1.7146 -0.6874 -0.2139
 3347TIP3    H2 9981   1.946   4.852   1.752 -0.9123  1.8673  1.0935
 3348TIP3   OH2 9982   0.779   2.346   2.907 -0.0828  0.0812 -0.3719
 3348TIP3    H1 9983   0.727   2.404   2.852 -0.6929 -0.8236 -0.7467
 3348TIP3    H2 9984   0.720   2.275   2.931 -0.0005  0.7324  1.9322
 3349TIP3   OH2 9985   3.540   4.430   3.291  0.3852 -0.0659 -0.4498
 3349TIP3    H1 9986   3.550   4.359   3.354  0.4192 -0.1201 -0.5158
 3349TIP3    H2 9987   3.449   4.423   3.261  0.2409  0.2371 -0.0789
 3350TIP3   OH2 9988   8.463   3.482   4.280 -0.0908 -0.8086  0.1793
 3350TIP3    H1 9989   8.384   3.529   4.252 -0.3890 -0.9504  0.7926
 3350TIP3    H2 9990   8.445   3.455   4.370 -0.3917 -3.1497 -0.5512
 3351TIP3   OH2 9991   8.490   2.227   3.167  0.3410 -0.0326 -0.1735
 3351TIP3    H1 9992   8.397   2.232   3.189  0.4090 -1.0867  0.3979
 3351TIP3    H2 9993   8.499   2.282   3.090 -0.4313  1.5019  0.7921
 3352TIP3   OH2 9994   2.379   1.564   2.394 -0.0553 -0.2812  0.2134
 3352TIP3    H1 9995   2.377   1.470   2.410 -0.5577 -0.4439 -0.7813
 3352TIP3    H2 9996   2.445   1.576   2.326 -0.4197  0.0199 -0.0887
 3353TIP3   OH2 9997   1.565   5.440   3.468  0.1773 -0.3820 -0.3978
 3353TIP3    H1 9998   1.590   5.378   3.537 -1.4625  0.8706  1.3745
 3353TIP3    H2 9999   1.547   5.522   3.514  1.1284  1.1181 -2.5726
 3354TIP3   OH210000   1.618   4.763   4.663 -0.3714  0.3515 -0.1746
 3354TIP3    H110001   1.539   4.722   4.699 -0.2063 -0.0394 -0.2562
 3354TIP3    H210002   1.654   4.814   4.736 -0.5588  0.3249 -0.0637
 3355TIP3   OH210003   8.363   3.320   4.540  0.0615 -0.0810  0.5339
 3355TIP3    H110004   8.350   3.349   4.630 -0.7829  0.3686  0.2788
 3355TIP3    H210005   8.419   3.243   4.547 -0.8926 -0.7057  1.5445
 3356TIP3   OH210006   0.991   2.652   1.534 -0.0025  0.6531 -0.7841
 3356TIP3    H110007   0.941   2.722   1.576 -0.4109  0.2208 -0.5505
 3356TIP3    H210008   1.073   2.648   1.583 -0.6997 -0.2194  0.3322
 3357TIP3   OH210009   3.980   2.460   3.982 -0.1255  0.1600  0.0951
 3357TIP3    H110010   3.904   2.431   4.032 -0.8850  0.7415 -0.6908
 3357TIP3    H210011   3.942   2.502   3.904  0.9842  1.0927  0.0470
 3358TIP3   OH210012   7.169   3.625   3.149 -0.4374  0.3773  0.7090
 3358TIP3    H110013   7.225   3.684   3.099 -0.6257  1.7631  2.1155
 3358TIP3    H210014   7.197   3.636   3.240 -1.2421 -0.8608  1.1272
 3359TIP3   OH210015   8.122   3.885   2.716  0.1717  0.5671 -0.1582
 3359TIP3    H110016   8.103   3.834   2.637  1.4286  3.0592 -2.1471
 3359TIP3    H210017   8.043   3.936   2.731 -0.9539 -1.6400  1.6232
 3360TIP3   OH210018   0.992   1.297   5.147 -0.1896  0.0263 -0.2728
 3360TIP3    H110019   0.909   1.251   5.137  0.2657 -0.6867 -0.8498
 3360TIP3    H210020   1.015   1.287   5.239  1.0421 -2.9165 -0.8421
 3361TIP3   OH210021   1.404   1.184   6.096  0.3249 -0.1931 -0.2634
 3361TIP3    H110022   1.328   1.159   6.042  1.6728 -4.6821 -0.2724
 3361TIP3    H210023   1.369   1.190   6.185 -0.8365  2.1264 -0.8097
 3362TIP3   OH210024   2.212   2.316   3.947  0.0754 -0.3049 -0.1050
 3362TIP3    H110025   2.179   2.227   3.933  0.8802 -0.5236 -0.6210
 3362TIP3    H210026   2.299   2.304   3.984  1.0187  0.2483 -2.0886
 3363TIP3   OH210027   7.017   2.584   3.067 -0.1289  0.6304  0.2875
 3363TIP3    H110028   7.054   2.569   3.154  1.9288 -0.3493 -0.7120
 3363TIP3    H210029   6.958   2.509   3.053  0.0210  0.4571  0.5890
 3364TIP3   OH210030   8.328   2.521   3.856  0.4675  0.3303 -0.4852
 3364TIP3    H110031   8.315   2.614   3.875  1.6965  0.1038  1.6862
 3364TIP3    H210032   8.311   2.477   3.940  2.7640 -1.0893 -0.7029
 3365TIP3   OH210033   1.848   3.903   3.013  0.3281  0.4569 -0.4758
 3365TIP3    H110034   1.868   3.960   2.939 -1.2748  0.6165 -0.8115
 3365TIP3    H210035   1.818   3.821   2.972  0.7674  0.0606 -0.0047
 3366TIP3   OH210036   1.381   4.910   4.406 -0.3086  0.3155  0.6763
 3366TIP3    H110037   1.469   4.948   4.404 -0.3605  0.3790 -0.3109
 3366TIP3    H210038   1.394   4.819   4.379 -0.8374  0.8996 -1.6409
 3367TIP3   OH210039   0.438   2.079   3.509  0.1090  0.6393  0.0326
 3367TIP3    H110040   0.409   1.998   3.467 -1.9924  2.8416 -2.8426
 3367TIP3    H210041   0.512   2.108   3.456  0.2208  1.1512  0.4708
 3368TIP3   OH210042   0.277   0.803   1.555  0.7380 -0.5313 -0.0453
 3368TIP3    H110043   0.251   0.778   1.644 -0.1594 -0.4394 -0.2751
 3368TIP3    H210044   0.243   0.892   1.544 -1.6139 -1.5546 -1.4426
 3369TIP3   OH210045   8.165   5.524   2.921 -0.9304  0.3123 -0.3051
 3369TIP3    H110046   8.259   5.516   2.938 -0.9456  0.0253 -0.3489
 3369TIP3    H210047   8.148   5.463   2.848 -1.2562 -0.0828  0.0979
 3370TIP3   OH210048   0.532   3.998   5.081 -0.6665 -0.1112 -0.1681
 3370TIP3    H110049   0.622   3.988   5.049 -0.4736 -0.7819  0.5781
 3370TIP3    H210050   0.482   4.026   5.004  0.3328  1.0606 -0.3914
 3371TIP3   OH210051   0.897   3.473   4.669  0.2031  0.0154 -0.2892
 3371TIP3    H110052   0.871   3.483   4.761  0.3355  1.3638 -0.3849
 3371TIP3    H210053   0.814   3.472   4.621  0.1796  0.6555 -0.2690
 3372TIP3   OH210054   6.996   3.827   3.748 -0.6288 -0.3068 -0.0727
 3372TIP3    H110055   6.951   3.911   3.738 -2.0481 -1.2505 -1.8581
 3372TIP3    H210056   7.072   3.834   3.689 -0.9463 -0.4210 -0.4936
 3373TIP3   OH210057   0.308   4.413   3.371 -0.1609  0.3399  0.0966
 3373TIP3    H110058   0.281   4.338   3.318  1.1945  0.1038 -0.2868
 3373TIP3    H210059   0.273   4.394   3.458 -1.0719 -0.0258 -0.3459
 3374TIP3   OH210060   8.274   3.909   4.348  0.5723 -0.0321  0.5832
 3374TIP3    H110061   8.180   3.922   4.353  0.6052  1.6128 -1.6780
 3374TIP3    H210062   8.311   3.991   4.381  1.2432 -1.0979  2.5082
 3375TIP3   OH210063   8.403   3.547   5.065 -0.2335 -0.0830  0.0287
 3375TIP3    H110064   8.460   3.523   5.138 -0.0512  1.1281  0.2967
 3375TIP3    H210065   8.319   3.566   5.106 -0.5395 -0.8177 -0.2482
 3376TIP3   OH210066   0.212   3.558   5.508 -0.1811 -0.1383 -0.5370
 3376TIP3    H110067   0.156   3.592   5.438 -0.3032 -0.3535 -0.5441
 3376TIP3    H210068   0.211   3.626   5.575 -0.2029 -0.0082 -0.6703
 3377TIP3   OH210069   1.131   4.277   2.852 -0.0912 -0.2758  0.3553
 3377TIP3    H110070   1.104   4.270   2.944 -2.1964 -2.1872 -0.3522
 3377TIP3    H210071   1.170   4.192   2.833  0.0806  0.0201 -0.6093
 3378TIP3   OH210072   7.824   1.330   0.385 -0.0120 -0.1522  0.2677
 3378TIP3    H110073   7.807   1.423   0.369 -1.2203 -0.3034  0.5726
 3378TIP3    H210074   7.755   1.285   0.336  0.7984 -0.9102 -0.1963
 3379TIP3   OH210075   0.094   1.994   3.548  0.0010 -0.6103  0.3113
 3379TIP3    H110076   0.007   1.996   3.508  0.1460 -0.5853 -0.0005
 3379TIP3    H210077   0.126   2.084   3.542  0.0198 -0.6050  0.4888
 3380TIP3   OH210078   7.606   0.908   1.136  0.2798  0.1619 -0.2585
 3380TIP3    H110079   7.557   0.972   1.085 -0.4553 -2.1096 -2.5774
 3380TIP3    H210080   7.637   0.845   1.070  0.1125 -2.3777  1.9923
 3381TIP3   OH210081   7.712   2.046   3.484 -0.3640  0.3715 -0.2480
 3381TIP3    H110082   7.751   2.102   3.416  0.7533 -0.7794 -0.5708
 3381TIP3    H210083   7.752   1.960   3.470 -2.0191 -0.5005  0.2859
 3382TIP3   OH210084   0.674   4.186   4.644 -0.2025  0.3634 -0.8832
 3382TIP3    H110085   0.751   4.202   4.699 -0.5895 -1.2283  0.1545
 3382TIP3    H210086   0.619   4.263   4.657  0.4032  0.6965 -0.2361
 3383TIP3   OH210087   2.443   1.597   2.661  0.3715 -0.9997 -0.0587
 3383TIP3    H110088   2.444   1.608   2.566  0.7395 -0.3687  0.0134
 3383TIP3    H210089   2.477   1.680   2.695 -1.5965 -0.4696  0.6978
 3384TIP3   OH210090   7.900   4.807   3.812  0.3125  0.3191 -0.0261
 3384TIP3    H110091   7.885   4.728   3.864 -0.6703 -0.9953 -2.2359
 3384TIP3    H210092   7.926   4.775   3.726 -0.8255  2.3971 -1.1872
 3385TIP3   OH210093   7.856   3.695   2.758 -0.2108 -0.1027  0.1458
 3385TIP3    H110094   7.767   3.673   2.730  0.0416 -0.0007 -0.7556
 3385TIP3    H210095   7.865   3.788   2.738 -0.0261 -0.0274  0.5805
 3386TIP3   OH210096   8.172   3.247   3.495  0.3383  0.1634  0.4306
 3386TIP3    H110097   8.194   3.286   3.411  0.0337  0.5093  0.5077
 3386TIP3    H210098   8.090   3.290   3.520  0.8331  0.6425  1.2755
 3387TIP3   OH210099   1.608   1.916   3.804  0.1296  0.2462 -0.3701
 3387TIP3    H110100   1.603   1.994   3.859 -2.3138 -0.7001  0.8182
 3387TIP3    H210101   1.526   1.914   3.756  0.9500 -0.6127 -1.7909
 3388TIP3   OH210102   1.380   2.577   3.122 -0.3876 -0.4416 -0.1373
 3388TIP3    H110103   1.291   2.551   3.144 -0.0404 -1.4917  0.0785
 3388TIP3    H210104   1.371   2.664   3.084 -1.3477  0.1049  1.2704
 3389TIP3   OH210105   7.941   5.820   5.151  0.0915  0.0663  0.3244
 3389TIP3    H110106   7.945   5.756   5.079  0.2734  0.3082  0.1204
 3389TIP3    H210107   7.883   5.780   5.215  1.0449 -0.7965  0.6720
 3390TIP3   OH210108   3.716   2.769   3.393  0.3167  0.5882  0.3153
 3390TIP3    H110109   3.764   2.746   3.313  0.4806  1.1595  0.2457
 3390TIP3    H210110   3.784   2.797   3.454  0.1968  0.0815  0.6833
 3391TIP3   OH210111   1.331   3.344   5.040 -0.2895  1.0682 -0.2378
 3391TIP3    H110112   1.290   3.357   5.126  1.8183  1.3032  0.7504
 3391TIP3    H210113   1.301   3.418   4.988 -0.7599  1.4808  0.6079
 3392TIP3   OH210114   1.901   2.216   1.676  0.9667 -0.6724 -0.2300
 3392TIP3    H110115   1.842   2.153   1.717  1.0474 -0.7326 -0.2066
 3392TIP3    H210116   1.909   2.186   1.585  0.4380 -0.2854 -0.4043
 3393TIP3   OH210117   5.273   3.660   3.223 -0.5970 -0.4158  0.7099
 3393TIP3    H110118   5.268   3.735   3.163 -1.1057 -0.4781  0.6666
 3393TIP3    H210119   5.335   3.600   3.181  0.2017  0.2033  0.9995
 3394TIP3   OH210120   2.814   5.011   2.767 -0.1240  0.0388 -0.6862
 3394TIP3    H110121   2.760   5.084   2.796 -1.1626 -0.4621 -1.3083
 3394TIP3    H210122   2.897   5.050   2.742  0.6108  0.5705  2.3490
 3395TIP3   OH210123   1.132   4.368   1.894  0.3305 -0.3760 -0.5764
 3395TIP3    H110124   1.118   4.462   1.885  0.3066 -0.3123  0.1370
 3395TIP3    H210125   1.183   4.344   1.816  1.0671  0.3756 -0.3303
 3396TIP3   OH210126   7.967   4.553   0.637 -0.3809 -0.0024  0.6421
 3396TIP3    H110127   7.993   4.481   0.579  1.7474 -0.2887  1.8923
 3396TIP3    H210128   8.042   4.613   0.636 -0.3473  0.0445  3.0074
 3397TIP3   OH210129   8.456   4.827   2.646 -0.0518  0.0918 -0.2687
 3397TIP3    H110130   8.361   4.813   2.646 -0.0254 -0.0910 -0.8817
 3397TIP3    H210131   8.493   4.740   2.660  0.0384  0.0800 -0.5793
 3398TIP3   OH210132   1.447   3.537   2.739 -0.0196  0.1761 -0.6720
 3398TIP3    H110133   1.464   3.463   2.797  0.2451  2.2296  1.9134
 3398TIP3    H210134   1.479   3.507   2.653  1.5291 -2.1086  0.6466
 3399TIP3   OH210135   4.638   2.928   2.305  0.4976 -0.3228  0.2367
 3399TIP3    H110136   4.590   2.851   2.334  0.2250  0.0701  0.8524
 3399TIP3    H210137   4.572   2.998   2.303  1.1208  0.3300  1.5564
 3400TIP3   OH210138   3.423   2.861   4.404 -0.5180  0.3843 -0.0684
 3400TIP3    H110139   3.367   2.925   4.359 -1.6767  0.6090  1.6625
 3400TIP3    H210140   3.379   2.844   4.487  2.2764  0.9800  1.6132
 3401TIP3   OH210141   4.424   3.582   3.635  0.4116 -0.4974  0.5861
 3401TIP3    H110142   4.436   3.571   3.730  0.1158  0.7968  0.7772
 3401TIP3    H210143   4.335   3.615   3.626  0.6037 -0.1731 -0.1214
 3402TIP3   OH210144   2.102   2.840   3.432  0.2046  0.0933  0.5619
 3402TIP3    H110145   2.180   2.790   3.455  0.6796  0.4636 -0.2289
 3402TIP3    H210146   2.050   2.779   3.379  0.5305  0.2504  0.0567
 3403TIP3   OH210147   3.256   3.099   4.361  0.0479  0.3123 -0.4058
 3403TIP3    H110148   3.195   3.084   4.432  1.2651  2.5911  1.1953
 3403TIP3    H210149   3.242   3.190   4.336 -2.0967 -1.0858 -4.8349
 3404TIP3   OH210150   0.871   2.008   2.514 -0.3787 -0.5489  0.4095
 3404TIP3    H110151   0.802   1.962   2.467  1.4753 -0.6817 -2.2781
 3404TIP3    H210152   0.867   2.098   2.479  0.1272 -0.2861  1.0245
 3405TIP3   OH210153   2.826   4.728   4.167  0.2806  0.2405 -0.8628
 3405TIP3    H110154   2.827   4.723   4.071 -0.8369  0.4563 -0.8893
 3405TIP3    H210155   2.914   4.759   4.190  0.1009  1.5595 -1.9043
 3406TIP3   OH210156   1.777   2.778   2.349  0.1999 -0.5165  0.0319
 3406TIP3    H110157   1.804   2.693   2.313  0.9639  0.0005 -0.6314
 3406TIP3    H210158   1.821   2.783   2.433  0.5296 -0.5819 -0.1339
 3407TIP3   OH210159   2.205   3.647   4.760  0.5796 -0.6406 -0.2690
 3407TIP3    H110160   2.271   3.579   4.750  0.1042 -1.1144 -0.2213
 3407TIP3    H210161   2.144   3.632   4.688  1.3127  0.6999 -1.1850
 3408TIP3   OH210162   1.016   4.692   4.085  0.0941  0.1630  0.7595
 3408TIP3    H110163   1.094   4.671   4.136 -1.0031 -0.2758  2.2909
 3408TIP3    H210164   1.048   4.701   3.995  2.2340  2.1077  1.6728
 3409TIP3   OH210165   3.963   1.962   3.339 -0.4140  0.4374 -0.2885
 3409TIP3    H110166   3.925   2.022   3.274 -0.0191  0.0753 -0.8540
 3409TIP3    H210167   4.038   1.923   3.295  1.5482  2.2696  1.3088
 3410TIP3   OH210168   2.407   0.954   3.666 -0.3360 -0.1163 -0.3752
 3410TIP3    H110169   2.483   0.992   3.623  0.9815  0.6271  2.5405
 3410TIP3    H210170   2.341   1.023   3.666 -0.4681 -0.2356 -1.4645
 3411TIP3   OH210171   2.692   0.668   3.477 -0.5719 -0.2366  0.6897
 3411TIP3    H110172   2.679   0.644   3.569 -0.6445  0.2761  0.8164
 3411TIP3    H210173   2.711   0.586   3.433  0.8847 -0.3093  1.4225
 3412TIP3   OH210174   1.313   3.404   3.355 -0.1021 -0.0851 -0.3269
 3412TIP3    H110175   1.392   3.425   3.305  0.2308  0.4312  0.4079
 3412TIP3    H210176   1.251   3.370   3.290  0.2603  0.7494 -1.1095
 3413TIP3   OH210177   3.262   5.385   1.879 -0.0884  0.3680 -0.4137
 3413TIP3    H110178   3.177   5.355   1.847 -0.1443  1.2942 -1.1778
 3413TIP3    H210179   3.311   5.406   1.800  1.2885 -1.2789 -0.0177
 3414TIP3   OH210180   5.318   2.961   4.017 -0.2090 -0.4448 -0.3107
 3414TIP3    H110181   5.362   2.992   4.097 -0.3667 -1.9507  0.3757
 3414TIP3    H210182   5.236   2.922   4.049  0.1640 -1.8975 -1.1023
 3415TIP3   OH210183   3.448   1.134   4.562 -0.1017  0.2411 -0.4708
 3415TIP3    H110184   3.478   1.192   4.491  2.5399 -0.0053  0.3747
 3415TIP3    H210185   3.472   1.046   4.533  0.1535  0.0483  0.3136
 3416TIP3   OH210186   0.522   3.349   1.801 -0.0134 -0.3971  0.4776
 3416TIP3    H110187   0.489   3.418   1.858  0.7685 -0.0311  0.4951
 3416TIP3    H210188   0.609   3.380   1.774  1.6437 -2.6981  2.8521
 3417TIP3   OH210189   3.746   4.346   2.482  0.0922 -0.2805  0.2959
 3417TIP3    H110190   3.733   4.309   2.394 -1.9653  1.6433 -0.2524
 3417TIP3    H210191   3.690   4.293   2.538 -1.1248  0.5332 -0.1223
 3418TIP3   OH210192   3.404   3.167   2.258  0.3726 -0.3548  0.0851
 3418TIP3    H110193   3.322   3.202   2.224  0.1722 -0.7177  0.1908
 3418TIP3    H210194   3.425   3.222   2.333 -0.2235 -0.8048  0.5835
 3419TIP3   OH210195   3.217   2.977   3.617 -0.4892 -0.3139 -0.7747
 3419TIP3    H110196   3.151   3.021   3.564 -0.1570  2.4712  1.0677
 3419TIP3    H210197   3.301   3.009   3.584 -0.1418 -1.3292 -0.9223
 3420TIP3   OH210198   2.598   3.022   2.856 -0.2196  0.0034  0.3699
 3420TIP3    H110199   2.632   2.968   2.786 -3.6196  0.3566 -1.6653
 3420TIP3    H210200   2.612   3.112   2.827 -0.0068  0.1782  0.9917
 3421TIP3   OH210201   0.549   4.686   4.027  0.1705  0.1466 -0.3590
 3421TIP3    H110202   0.490   4.687   4.103  1.1639  0.5110  0.4128
 3421TIP3    H210203   0.604   4.763   4.038 -0.2671  0.6817 -1.9305
 3422TIP3   OH210204   4.364   4.151   2.689 -0.3673 -0.3295 -0.3699
 3422TIP3    H110205   4.427   4.182   2.624 -0.3536  0.9539  0.2451
 3422TIP3    H210206   4.320   4.230   2.719 -2.4215 -1.2382 -0.9281
 3423TIP3   OH210207   4.349   2.837   3.662 -0.1818  0.5979 -0.2665
 3423TIP3    H110208   4.433   2.841   3.617 -0.3393  0.7282 -0.5473
 3423TIP3    H210209   4.332   2.927   3.688  0.1157  0.4556  0.4364
 3424TIP3   OH210210   7.130   3.212   3.050  0.1522  0.6830 -0.7899
 3424TIP3    H110211   7.155   3.262   3.128  0.5405 -0.7573  0.0239
 3424TIP3    H210212   7.070   3.144   3.083 -0.0543  0.3591 -1.8168
 3425TIP3   OH210213   1.805   3.417   1.078  0.6717  0.3305  0.2632
 3425TIP3    H110214   1.786   3.352   1.146 -0.1294  0.5464  0.2582
 3425TIP3    H210215   1.899   3.430   1.082  0.6155  0.3996  1.3855
 3426TIP3   OH210216   1.632   3.092   2.861  0.1190  0.2138 -0.2050
 3426TIP3    H110217   1.726   3.109   2.866  0.0079  0.7342  0.1704
 3426TIP3    H210218   1.611   3.044   2.941  0.1873 -0.5240 -0.6227
 3427TIP3   OH210219   3.486   5.545   3.031  0.0342 -0.2768  0.0846
 3427TIP3    H110220   3.497   5.454   3.059 -1.6177 -0.0697  1.4491
 3427TIP3    H210221   3.491   5.595   3.112  0.7484  0.8514 -0.6449
 3428TIP3   OH210222   1.641   6.182   2.890  0.3624  0.1006 -0.3639
 3428TIP3    H110223   1.736   6.176   2.877  0.3772  1.0010 -0.7398
 3428TIP3    H210224   1.605   6.108   2.840  0.7425  0.9375 -1.9075
 3429TIP3   OH210225   1.449   3.794   2.137  0.0984  0.1953 -0.3241
 3429TIP3    H110226   1.513   3.806   2.067  0.8379  2.7964  0.7488
 3429TIP3    H210227   1.502   3.773   2.214 -0.6112 -1.1089 -0.1743
 3430TIP3   OH210228   0.299   2.473   4.834 -0.1122 -0.3571 -0.7953
 3430TIP3    H110229   0.281   2.379   4.836 -1.4257 -0.1161 -0.7113
 3430TIP3    H210230   0.390   2.481   4.863  0.0972 -1.6190 -1.0857
 3431TIP3   OH210231   2.854   1.674   1.436 -0.3727  0.1211 -0.1565
 3431TIP3    H110232   2.848   1.581   1.460  0.7319 -0.6410 -2.6938
 3431TIP3    H210233   2.771   1.693   1.394 -0.4718  0.2117  0.0768
 3432TIP3   OH210234   2.455   4.811   2.026 -0.5105 -0.3294 -0.5311
 3432TIP3    H110235   2.420   4.722   2.029 -0.0776 -0.4828 -0.0055
 3432TIP3    H210236   2.389   4.865   2.068 -0.6348 -0.4483 -0.5746
 3433TIP3   OH210237   3.038   2.596   3.955  0.0003 -0.1983 -0.4877
 3433TIP3    H110238   2.942   2.597   3.952 -0.0183 -3.0121 -3.7526
 3433TIP3    H210239   3.062   2.688   3.960 -2.8643  0.6087 -0.2645
 3434TIP3   OH210240   0.412   3.881   2.627  0.3588  0.0606  0.4602
 3434TIP3    H110241   0.461   3.939   2.685 -0.6852  0.9192  0.4735
 3434TIP3    H210242   0.388   3.807   2.683 -1.1767  1.1710  1.3012
 3435TIP3   OH210243   2.769   3.579   1.081 -0.5228 -0.1159 -0.0841
 3435TIP3    H110244   2.758   3.575   1.177 -0.2312  0.1389 -0.0396
 3435TIP3    H210245   2.824   3.504   1.060 -1.3562 -0.7169 -0.1665
 3436TIP3   OH210246   2.729   2.178   1.076  0.4117  0.4652  0.3857
 3436TIP3    H110247   2.666   2.223   1.131  0.3281  0.9106 -0.0713
 3436TIP3    H210248   2.788   2.247   1.045 -0.6754  0.5298 -1.6119
 3437TIP3   OH210249   1.917   3.551   3.985 -0.0436 -0.0793 -0.3150
 3437TIP3    H110250   1.831   3.526   3.951  0.0559  0.0971 -0.7105
 3437TIP3    H210251   1.933   3.491   4.057 -0.5354 -0.0589 -0.1891
 3438TIP3   OH210252   4.849   3.567   4.771 -0.4857 -0.2251  0.1314
 3438TIP3    H110253   4.944   3.569   4.778 -0.0283  0.4392 -4.8494
 3438TIP3    H210254   4.819   3.629   4.837  2.5788  0.5731  0.8481
 3439TIP3   OH210255   2.643   3.475   2.076  0.0135 -0.5827  0.3221
 3439TIP3    H110256   2.735   3.462   2.097  0.2906  0.3091 -0.2980
 3439TIP3    H210257   2.611   3.535   2.143  0.9448  2.4106 -1.8335
 3440TIP3   OH210258   3.025   5.644   2.439  0.2690 -0.2874 -0.0722
 3440TIP3    H110259   2.980   5.701   2.502  0.4015 -0.8505  0.5311
 3440TIP3    H210260   3.113   5.634   2.475  0.2973 -0.7374 -0.2687
 3441TIP3   OH210261   1.710   4.492   2.439  0.1736  0.3013 -0.5153
 3441TIP3    H110262   1.745   4.573   2.476 -2.4347  0.5884  1.4912
 3441TIP3    H210263   1.615   4.507   2.435 -0.0704 -1.6087 -2.8096
 3442TIP3   OH210264   3.669   0.843   1.988  0.3735  0.0697 -0.3572
 3442TIP3    H110265   3.636   0.796   1.911 -0.6176  1.0679 -0.5644
 3442TIP3    H210266   3.701   0.926   1.953  0.6997  0.1764  0.2008
 3443TIP3   OH210267   2.576   3.554   3.374 -0.3652 -0.2156 -0.6707
 3443TIP3    H110268   2.496   3.536   3.425 -0.3943 -2.0097 -1.3128
 3443TIP3    H210269   2.609   3.467   3.350  0.5994  0.5727 -2.2517
 3444TIP3   OH210270   5.802   3.387   3.192 -0.0960  0.2379 -0.1835
 3444TIP3    H110271   5.728   3.345   3.236 -0.9108  2.1820  0.3745
 3444TIP3    H210272   5.832   3.323   3.128 -2.0412 -0.7232 -0.1715
 3445TIP3   OH210273   2.479   3.766   3.669  0.2421 -0.2485 -0.2943
 3445TIP3    H110274   2.425   3.721   3.604  0.0393 -1.0819  0.4476
 3445TIP3    H210275   2.418   3.822   3.717 -0.0653 -1.5218  0.8385
 3446TIP3   OH210276   1.290   4.032   2.876 -0.6588  0.0356  0.5636
 3446TIP3    H110277   1.284   3.975   2.952  0.8791 -0.1107  0.5993
 3446TIP3    H210278   1.368   4.002   2.830 -1.4557  0.2628 -0.9602
 3447TIP3   OH210279   2.096   3.370   4.583  0.2589 -0.2597  0.1113
 3447TIP3    H110280   2.180   3.328   4.601 -0.8202 -2.3888  0.3940
 3447TIP3    H210281   2.063   3.324   4.505  1.1567  3.2872 -2.4712
 3448TIP3   OH210282   2.196   5.315   1.830  0.1151 -0.2525 -0.3299
 3448TIP3    H110283   2.227   5.275   1.749  0.3144 -0.4552 -0.1552
 3448TIP3    H210284   2.163   5.401   1.803  1.8336  0.4339 -0.3748
 3449TIP3   OH210285   1.703   3.998   1.666  0.2209 -0.0229 -0.0070
 3449TIP3    H110286   1.783   4.009   1.717 -0.3442  0.7830  0.7108
 3449TIP3    H210287   1.642   3.955   1.725 -0.2091  0.2801 -0.2326
 3450TIP3   OH210288   2.603   2.245   2.813 -0.2013 -0.0410 -0.3821
 3450TIP3    H110289   2.525   2.292   2.783  0.3574 -0.0080 -1.8340
 3450TIP3    H210290   2.674   2.308   2.801 -0.0417  0.2094  1.6799
 3451TIP3   OH210291   3.612   4.331   1.887 -0.6949 -0.2485 -0.0865
 3451TIP3    H110292   3.555   4.285   1.826  0.1343  0.1073 -1.1555
 3451TIP3    H210293   3.587   4.299   1.973 -3.7734  1.2403 -0.3653
 3452TIP3   OH210294   0.031   3.154   3.391  0.2664  0.1828  0.1261
 3452TIP3    H110295   0.116   3.175   3.430  0.0688  2.9853 -0.8664
 3452TIP3    H210296   0.045   3.163   3.297 -0.6388 -1.3198 -0.1748
 3453TIP3   OH210297   2.529   3.790   2.973 -0.2942  0.2620 -0.1502
 3453TIP3    H110298   2.622   3.769   2.975  0.3856  3.1143  0.1558
 3453TIP3    H210299   2.486   3.715   3.015  2.1389  0.2889  2.5407
 3454TIP3   OH210300   3.469   3.453   3.703  0.0596  0.4213  0.6937
 3454TIP3    H110301   3.531   3.525   3.690 -0.3213  0.6675  0.2475
 3454TIP3    H210302   3.418   3.478   3.780 -1.8713  1.8955 -1.0242
 3455TIP3   OH210303   1.168   3.445   3.596 -0.2452  0.3198  0.6133
 3455TIP3    H110304   1.080   3.409   3.581  0.1428 -0.9025  1.1923
 3455TIP3    H210305   1.209   3.445   3.510 -1.0623  1.5978  0.2083
 3456TIP3   OH210306   1.921   3.248   3.556 -0.1546 -0.3064 -0.1574
 3456TIP3    H110307   1.952   3.336   3.577 -0.3347 -0.6563  1.6205
 3456TIP3    H210308   1.939   3.238   3.462 -1.3230  2.0973 -0.6620
 3457TIP3   OH210309   1.134   4.352   4.200 -0.1731 -0.7159  0.4118
 3457TIP3    H110310   1.177   4.435   4.221 -0.9343 -0.3582  0.5650
 3457TIP3    H210311   1.110   4.361   4.108 -0.9012 -0.4810  0.6258
 3458TIP3   OH210312   2.709   3.990   3.646  0.1164 -0.6253  0.2701
 3458TIP3    H110313   2.709   3.899   3.617 -1.5006 -0.4736 -0.2893
 3458TIP3    H210314   2.753   3.989   3.731 -0.5492 -2.0398  0.6104
 3459TIP3   OH210315   2.522   1.897   2.493 -0.0663 -0.2813  1.1064
 3459TIP3    H110316   2.445   1.865   2.446  0.3880  1.2987 -0.7690
 3459TIP3    H210317   2.494   1.981   2.529  0.6298  0.0688  0.8298
 3460TIP3   OH210318   2.793   4.455   4.200  0.2445  0.7006  0.3505
 3460TIP3    H110319   2.809   4.549   4.194  0.5623  0.6115 -0.2635
 3460TIP3    H210320   2.792   4.425   4.109  0.6949  0.0233  0.5618
 3461TIP3   OH210321   0.821   2.218   3.471 -0.0918  0.6857 -1.0718
 3461TIP3    H110322   0.808   2.303   3.513  1.5649  0.0804  0.7660
 3461TIP3    H210323   0.872   2.237   3.392 -1.0985  1.5720 -1.5065
 3462TIP3   OH210324   7.607   4.180   3.934  0.2532  0.5798 -0.1352
 3462TIP3    H110325   7.702   4.172   3.933  0.1048 -1.1876 -1.3405
 3462TIP3    H210326   7.575   4.091   3.923 -1.5483  1.1740  0.1513
 3463TIP3   OH210327   2.879   5.173   4.302 -0.1181 -0.6522 -0.0720
 3463TIP3    H110328   2.832   5.195   4.382  2.0573  0.9316  0.8186
 3463TIP3    H210329   2.889   5.256   4.256  3.0804 -0.6405  0.5136
 3464TIP3   OH210330   3.793   3.657   4.883 -0.3098 -0.2734  0.1799
 3464TIP3    H110331   3.799   3.682   4.791  0.8856 -2.6143 -0.3988
 3464TIP3    H210332   3.883   3.662   4.915 -0.3809 -1.6338  0.6276
 3465TIP3   OH210333   2.051   3.759   1.886  0.2808 -0.3657  0.3842
 3465TIP3    H110334   2.049   3.685   1.825  0.2789 -1.2660  1.4640
 3465TIP3    H210335   2.006   3.830   1.840  0.5137 -0.9580 -0.7601
 3466TIP3   OH210336   3.149   3.348   4.311  0.0503 -0.7487 -0.2986
 3466TIP3    H110337   3.093   3.368   4.236  1.3189  1.4021 -0.7013
 3466TIP3    H210338   3.089   3.348   4.386 -0.5540  1.1264 -0.7739
 3467TIP3   OH210339   2.094   1.797   4.301  0.4409 -0.4965 -0.3719
 3467TIP3    H110340   2.174   1.745   4.312 -0.6089 -1.8631  0.9245
 3467TIP3    H210341   2.023   1.733   4.304 -0.8410  0.9358  0.8249
 3468TIP3   OH210342   0.308   2.938   2.608  0.1825 -0.0624 -0.5397
 3468TIP3    H110343   0.381   2.898   2.561  0.5324  0.8414 -0.7713
 3468TIP3    H210344   0.251   2.974   2.540 -0.6699 -1.0710 -0.3776
 3469TIP3   OH210345   0.619   2.884   4.739  0.6226  0.0383 -0.1094
 3469TIP3    H110346   0.631   2.942   4.814  1.6219 -0.7536  0.3604
 3469TIP3    H210347   0.539   2.835   4.758  0.5672  0.2444  0.1836
 3470TIP3   OH210348   3.792   4.492   2.915  0.1505  0.0891 -0.0829
 3470TIP3    H110349   3.753   4.524   2.997  1.1902  0.1925  0.3792
 3470TIP3    H210350   3.798   4.570   2.860  2.8528  0.7973  1.1118
 3471TIP3   OH210351   3.880   3.713   1.839 -0.2677  0.0921 -0.1751
 3471TIP3    H110352   3.889   3.737   1.931 -1.6727  0.2696 -0.0674
 3471TIP3    H210353   3.814   3.643   1.839 -0.3070  0.1209 -1.0397
 3472TIP3   OH210354   4.457   3.635   2.925  0.0870  0.1315  0.3601
 3472TIP3    H110355   4.461   3.700   2.855  0.4856  2.3032  2.3223
 3472TIP3    H210356   4.368   3.643   2.961  0.8334  1.2291  2.0588
 3473TIP3   OH210357   3.868   0.988   4.853  0.2368 -0.4330 -0.1901
 3473TIP3    H110358   3.871   0.985   4.758 -0.5105  0.2649 -0.2423
 3473TIP3    H210359   3.807   0.919   4.877 -2.3434  1.6909 -0.4184
 3474TIP3   OH210360   3.047   5.830   3.285 -0.2031 -0.0959 -0.5108
 3474TIP3    H110361   3.123   5.884   3.264 -1.0787  0.8018 -1.3835
 3474TIP3    H210362   3.025   5.786   3.203 -0.3525 -0.7151 -0.1465
 3475TIP3   OH210363   2.442   3.217   1.073 -0.5765  0.2729 -0.4418
 3475TIP3    H110364   2.433   3.207   1.167 -0.7416  1.8295 -0.2752
 3475TIP3    H210365   2.435   3.311   1.058  0.6164  0.1518 -1.8893
 3476TIP3   OH210366   0.477   4.969   1.565 -1.1888 -0.2839 -1.1946
 3476TIP3    H110367   0.511   4.984   1.476  2.2229  0.2055  0.1197
 3476TIP3    H210368   0.551   4.987   1.622 -3.5050 -0.0061  1.8427
 3477TIP3   OH210369   2.744   4.021   0.739 -0.1082 -0.0923 -0.0714
 3477TIP3    H110370   2.823   4.054   0.696  0.0302 -1.2536 -0.7318
 3477TIP3    H210371   2.733   3.933   0.703  0.2339 -1.2599  2.5503
 3478TIP3   OH210372   1.808   4.407   4.308 -0.6484  0.1465 -0.2851
 3478TIP3    H110373   1.766   4.490   4.329  0.4058  0.6447 -0.1404
 3478TIP3    H210374   1.886   4.404   4.364 -1.0663 -1.2717  0.2366
 3479TIP3   OH210375   2.982   5.494   2.211  0.2210  0.5305 -0.0496
 3479TIP3    H110376   2.998   5.517   2.303  1.5060  0.8524 -0.3358
 3479TIP3    H210377   3.058   5.530   2.165  1.6738 -3.2179 -0.6988
 3480TIP3   OH210378   3.346   2.684   1.147 -0.2049  0.1655  0.1129
 3480TIP3    H110379   3.436   2.696   1.179 -1.2336  1.9767  2.5545
 3480TIP3    H210380   3.350   2.707   1.054  1.4936  2.2547  0.6470
 3481TIP3   OH210381   3.704   2.305   3.025 -0.6004 -0.0081 -0.4476
 3481TIP3    H110382   3.725   2.391   2.989  2.5653 -0.9299 -0.9883
 3481TIP3    H210383   3.674   2.254   2.949  0.1072 -0.1442 -0.6406
 3482TIP3   OH210384   2.890   3.328   2.144 -0.1592 -0.5180 -0.0829
 3482TIP3    H110385   2.879   3.277   2.064  0.6729 -1.5091  0.4132
 3482TIP3    H210386   2.858   3.271   2.214  0.7696 -0.3764  0.4764
 3483TIP3   OH210387   5.000   3.922   2.166  0.2648  0.2528  0.3881
 3483TIP3    H110388   4.965   3.994   2.218 -0.0728  0.6273 -0.3534
 3483TIP3    H210389   4.942   3.848   2.186 -1.8415  1.2163 -1.8748
 3484TIP3   OH210390   3.728   3.498   3.344 -0.0520  0.1563  0.1896
 3484TIP3    H110391   3.766   3.414   3.368 -0.5316 -0.1896 -0.2701
 3484TIP3    H210392   3.756   3.512   3.253 -0.1251  0.4112  0.2053
 3485TIP3   OH210393   1.640   4.942   3.203  0.4934  0.6597  0.0995
 3485TIP3    H110394   1.626   4.857   3.245  1.6683 -0.0090 -0.8517
 3485TIP3    H210395   1.553   4.970   3.176  0.3633 -1.3237 -1.6531
 3486TIP3   OH210396   3.383   3.211   2.902 -0.6706 -0.1241  0.0564
 3486TIP3    H110397   3.432   3.146   2.951  0.0653  0.0269 -0.4664
 3486TIP3    H210398   3.448   3.249   2.842 -1.2329  0.6554 -0.0596
 3487TIP3   OH210399   0.952   4.580   2.013  0.5868 -0.5355 -0.7271
 3487TIP3    H110400   0.873   4.620   1.976  1.2935  0.9574 -0.6686
 3487TIP3    H210401   0.979   4.641   2.081  1.1493 -1.6243  0.0218
 3488TIP3   OH210402   2.114   3.601   2.936  0.1959 -0.2326 -0.2025
 3488TIP3    H110403   2.188   3.580   2.993 -0.7213 -1.0825  0.7159
 3488TIP3    H210404   2.046   3.633   2.996  0.7267  3.1492 -1.3295
 3489TIP3   OH210405   2.427   5.081   2.526 -0.4661  0.3198  0.1741
 3489TIP3    H110406   2.521   5.102   2.529 -0.2769 -0.7535  2.5079
 3489TIP3    H210407   2.421   5.006   2.467  0.2147  0.0301  0.4706
 3490TIP3   OH210408   3.328   1.737   4.486  0.1595  0.6610 -0.3529
 3490TIP3    H110409   3.325   1.717   4.580 -0.0483  0.7765 -0.3353
 3490TIP3    H210410   3.252   1.794   4.471 -0.5854 -0.4337 -0.8394
 3491TIP3   OH210411   2.503   5.080   2.809  0.0642  0.4225  0.0230
 3491TIP3    H110412   2.588   5.119   2.787  0.5342 -1.4268 -1.5633
 3491TIP3    H210413   2.449   5.092   2.731 -1.1878  1.6563  1.0559
 3492TIP3   OH210414   3.521   3.220   1.267  0.1187  0.3004  0.4292
 3492TIP3    H110415   3.509   3.299   1.215  0.6786  0.4096  0.4647
 3492TIP3    H210416   3.437   3.207   1.311  0.5974  1.8858  1.8328
 3493TIP3   OH210417   3.360   4.486   1.569  0.1246 -0.1324 -0.1072
 3493TIP3    H110418   3.353   4.390   1.570 -0.6636 -0.0893 -0.8187
 3493TIP3    H210419   3.345   4.510   1.477  2.8342  0.4901 -0.4230
 3494TIP3   OH210420   2.052   3.008   3.694 -0.1747 -0.5623 -0.2057
 3494TIP3    H110421   2.015   2.945   3.632 -1.1541 -0.0711 -0.1253
 3494TIP3    H210422   2.055   3.091   3.646 -2.3370  0.1629  0.8664
 3495TIP3   OH210423   1.437   4.847   2.447  0.2041  0.0181 -0.2098
 3495TIP3    H110424   1.503   4.906   2.411 -0.6725  1.3441  0.3092
 3495TIP3    H210425   1.462   4.761   2.415 -0.1765  1.0437 -3.4929
 3496TIP3   OH210426   3.031   4.102   3.298 -0.5116 -0.5299  0.2890
 3496TIP3    H110427   3.063   4.180   3.344 -1.8077 -0.3052  0.8301
 3496TIP3    H210428   3.035   4.126   3.205 -1.9627  0.5934  0.5077
 3497TIP3   OH210429   2.624   3.319   2.799 -0.0859  0.1458  0.0759
 3497TIP3    H110430   2.616   3.391   2.737  1.5980 -0.5154 -0.9440
 3497TIP3    H210431   2.694   3.264   2.764 -0.9893 -1.7307  1.0926
 3498TIP3   OH210432   0.802   3.881   3.410  0.0204  0.2494 -0.1332
 3498TIP3    H110433   0.867   3.826   3.453  1.1174  1.3129 -0.3994
 3498TIP3    H210434   0.770   3.830   3.336  1.7221  0.3296 -0.9443
 3499TIP3   OH210435   3.295   2.750   4.041 -0.3713  0.0530 -0.0335
 3499TIP3    H110436   3.235   2.767   4.114 -1.1678 -0.6769 -0.5122
 3499TIP3    H210437   3.317   2.657   4.050 -1.3881 -0.3368 -1.3949
 3500TIP3   OH210438   4.186   2.728   4.838  0.6473 -0.0704  0.6432
 3500TIP3    H110439   4.202   2.753   4.929 -0.7924  0.0185  0.8803
 3500TIP3    H210440   4.105   2.774   4.815  1.2444  0.2624 -0.8254
 3501TIP3   OH210441   3.361   3.753   3.685 -0.6183  0.1483  0.4699
 3501TIP3    H110442   3.436   3.718   3.637 -1.0869  1.3669 -1.1853
 3501TIP3    H210443   3.323   3.676   3.729 -0.3521 -1.0581 -1.3644
 3502TIP3   OH210444   2.437   3.853   0.102  0.1261  0.0065  0.4059
 3502TIP3    H110445   2.348   3.819   0.094  0.5007 -1.4981  2.3237
 3502TIP3    H210446   2.428   3.947   0.088 -1.8624 -0.0484  1.1460
 3503TIP3   OH210447   2.320   4.570   2.476  0.6704 -0.7089  0.4385
 3503TIP3    H110448   2.267   4.530   2.408  0.7305 -1.6462  0.9295
 3503TIP3    H210449   2.371   4.498   2.513 -0.6813 -0.5533  2.6965
 3504TIP3   OH210450   3.530   3.653   4.977  0.4736 -0.0839 -0.5252
 3504TIP3    H110451   3.479   3.589   4.927  1.7456 -1.8497  0.3692
 3504TIP3    H210452   3.619   3.645   4.942  1.2798 -0.9885  1.6036
 3505TIP3   OH210453   3.167   1.959   3.659 -0.8754  0.5693 -0.1374
 3505TIP3    H110454   3.148   2.049   3.685 -0.0544  0.2360  1.6546
 3505TIP3    H210455   3.253   1.964   3.616 -1.0591  0.7083 -0.4945
 3506TIP3   OH210456   7.817   4.287   1.915 -0.1223 -0.4360 -0.2722
 3506TIP3    H110457   7.891   4.227   1.922  0.6261  0.5937  0.6669
 3506TIP3    H210458   7.809   4.326   2.001  1.6054  3.4044 -1.7296
 3507TIP3   OH210459   1.569   3.598   4.168 -0.3617  0.0754  0.2438
 3507TIP3    H110460   1.631   3.583   4.239  0.1968  2.3348  0.2810
 3507TIP3    H210461   1.516   3.673   4.197 -0.0509  1.1151 -1.7527
 3508TIP3   OH210462   4.398   2.559   4.773  0.1258 -0.3356  0.1074
 3508TIP3    H110463   4.346   2.630   4.812  0.2092  0.0739 -0.5226
 3508TIP3    H210464   4.344   2.481   4.786 -0.9640  0.1942 -1.1471
 3509TIP3   OH210465   1.857   2.917   4.845 -0.1350  0.0045 -0.1941
 3509TIP3    H110466   1.908   2.984   4.891 -1.6015  0.4550  0.8373
 3509TIP3    H210467   1.798   2.967   4.788 -1.6912 -0.3477  1.0577
 3510TIP3   OH210468   0.141   4.999   2.751  0.0465  0.0702  0.4605
 3510TIP3    H110469   0.067   4.953   2.711 -1.5665  2.5497  0.4398
 3510TIP3    H210470   0.191   5.032   2.676  0.0178  0.1700  0.4862
 3511TIP3   OH210471   1.980   2.586   2.550  0.2985 -0.6635  0.4384
 3511TIP3    H110472   2.061   2.595   2.500  0.2660 -0.2908  0.4574
 3511TIP3    H210473   1.958   2.675   2.578  2.0241 -1.2046  3.8190
 3512TIP3   OH210474   3.513   5.728   4.628  0.7994 -0.0050  0.1049
 3512TIP3    H110475   3.572   5.680   4.570  0.1235 -0.5289 -0.1560
 3512TIP3    H210476   3.462   5.783   4.569  1.5534  1.0232  0.4033
 3513TIP3   OH210477   2.963   2.154   3.331 -0.1268 -0.1774  0.2724
 3513TIP3    H110478   2.958   2.080   3.392  2.1691  0.0848  0.8292
 3513TIP3    H210479   3.055   2.155   3.302 -0.7815  0.7632 -1.8670
 3514TIP3   OH210480   1.835   2.975   2.104  0.3942  0.1548  0.2340
 3514TIP3    H110481   1.750   3.017   2.089  0.3780 -0.3802 -1.1957
 3514TIP3    H210482   1.822   2.923   2.183 -0.5372  0.2983  0.1834
 3515TIP3   OH210483   0.891   4.110   2.684  0.6860  0.9726  0.3875
 3515TIP3    H110484   0.828   4.058   2.634  1.7860 -1.4389  1.4410
 3515TIP3    H210485   0.888   4.073   2.772  0.7472  3.4043  1.4561
 3516TIP3   OH210486   1.025   5.095   4.658 -0.9398  0.3411 -0.0144
 3516TIP3    H110487   1.108   5.139   4.670 -0.6394  0.2712 -1.7574
 3516TIP3    H210488   1.048   5.002   4.648 -1.2612  0.2604 -0.0289
 3517TIP3   OH210489   3.148   3.152   2.179  0.4340 -0.2764  0.9387
 3517TIP3    H110490   3.068   3.177   2.226  0.1130  0.1039  0.1896
 3517TIP3    H210491   3.119   3.134   2.090  1.3368  0.7915  0.4211
 3518TIP3   OH210492   6.568   3.747   3.805  0.5717  0.5848 -0.0213
 3518TIP3    H110493   6.629   3.753   3.732 -1.5215  1.9087 -1.7562
 3518TIP3    H210494   6.531   3.659   3.798  2.6139 -0.4112  1.3568
 3519TIP3   OH210495   3.032   5.099   2.644  0.2517 -0.2427  0.6838
 3519TIP3    H110496   3.038   5.024   2.585 -0.5625  0.8608 -0.8286
 3519TIP3    H210497   3.042   5.175   2.587 -0.2244  0.8371  2.0173
 3520TIP3   OH210498   0.685   3.368   4.287  0.2462 -0.0517  0.2840
 3520TIP3    H110499   0.752   3.388   4.221  0.2690  1.6271  0.8188
 3520TIP3    H210500   0.605   3.409   4.253  0.1119  0.2702  0.9921
 3521TIP3   OH210501   2.278   3.640   2.030  0.2167  0.0069  0.2469
 3521TIP3    H110502   2.183   3.633   2.030  0.1674  0.7183  0.2739
 3521TIP3    H210503   2.298   3.692   1.952  0.6987 -1.7637 -0.8605
 3522TIP3   OH210504   3.517   2.976   4.771 -0.0501 -0.6184 -0.5056
 3522TIP3    H110505   3.597   3.019   4.803 -1.7614  0.9633  1.8695
 3522TIP3    H210506   3.519   2.889   4.811  0.5117 -0.5896 -0.4682
 3523TIP3   OH210507   1.723   6.634   1.573  0.1414  0.4515 -0.1298
 3523TIP3    H110508   1.697   6.583   1.649  1.7033 -0.8542 -0.4469
 3523TIP3    H210509   1.785   6.699   1.607  0.0737  0.5158 -0.1285
 3524TIP3   OH210510   1.635   3.751   2.329  0.1586 -0.0393  0.5430
 3524TIP3    H110511   1.714   3.796   2.300  0.4522 -0.9206 -0.0401
 3524TIP3    H210512   1.644   3.662   2.294 -0.7514 -0.3434  1.0764
 3525TIP3   OH210513   1.188   2.712   5.554  0.0331 -0.1372 -0.0645
 3525TIP3    H110514   1.110   2.671   5.590 -0.8128  0.2834 -1.3989
 3525TIP3    H210515   1.247   2.722   5.629 -1.3193 -0.1549  1.0033
 3526TIP3   OH210516   0.654   4.522   1.638  0.3413  0.1844 -0.3214
 3526TIP3    H110517   0.566   4.545   1.668  0.4894  0.1640  0.1484
 3526TIP3    H210518   0.644   4.504   1.545 -0.0895  0.5114 -0.3425
 3527TIP3   OH210519   5.154   3.595   3.465 -0.2268 -0.3872  0.2248
 3527TIP3    H110520   5.192   3.620   3.381  0.3382 -0.9453  0.3108
 3527TIP3    H210521   5.081   3.537   3.442  0.3074 -1.0302  0.1417
 3528TIP3   OH210522   3.537   2.853   2.937 -0.5194 -0.2358 -0.6979
 3528TIP3    H110523   3.519   2.923   3.000 -0.5805 -0.4010 -0.5297
 3528TIP3    H210524   3.457   2.802   2.934 -0.8125  0.2634 -1.5570
 3529TIP3   OH210525   1.757   4.758   2.529 -0.3546 -0.1362 -0.0432
 3529TIP3    H110526   1.673   4.804   2.538 -0.6144 -0.2649 -1.5418
 3529TIP3    H210527   1.813   4.797   2.595 -1.6286 -0.1084  1.0394
 3530TIP3   OH210528   2.769   4.064   2.080 -0.1474 -0.2505 -0.2199
 3530TIP3    H110529   2.675   4.076   2.099 -0.1675 -0.5616 -0.1218
 3530TIP3    H210530   2.772   4.039   1.988 -0.2774 -1.8166  0.1974
 3531TIP3   OH210531   3.075   0.522   5.183 -0.1038  0.2994 -0.0330
 3531TIP3    H110532   3.142   0.579   5.146 -0.6153  0.5474 -0.5973
 3531TIP3    H210533   3.003   0.582   5.206 -1.2426 -0.2682 -1.9899
 3532TIP3   OH210534   2.353   3.532   3.552 -0.3247 -0.5245 -0.1631
 3532TIP3    H110535   2.307   3.456   3.587 -2.5604  1.5118  1.5126
 3532TIP3    H210536   2.284   3.582   3.506  0.9235  0.8900 -0.5424
 3533TIP3   OH210537   1.369   2.005   3.610  0.0436  0.1282  0.5045
 3533TIP3    H110538   1.283   2.041   3.588  0.6542  1.1605 -0.2145
 3533TIP3    H210539   1.374   2.013   3.705 -0.2896  0.8889  0.4595
 3534TIP3   OH210540   2.548   4.648   3.567 -0.2385 -0.4550 -0.2192
 3534TIP3    H110541   2.606   4.598   3.508 -1.0141 -0.5579 -0.9042
 3534TIP3    H210542   2.568   4.739   3.548  0.8201 -0.4877  0.6719
 3535TIP3   OH210543   2.738   5.134   3.611  0.6152  0.2527 -0.0839
 3535TIP3    H110544   2.719   5.155   3.702  1.0746 -0.2238  0.1278
 3535TIP3    H210545   2.831   5.155   3.600  0.6556 -0.0476 -0.3380
 3536TIP3   OH210546   1.777   2.294   4.016 -0.1724  0.7151 -0.4761
 3536TIP3    H110547   1.850   2.248   3.975 -0.0448 -2.5484  3.1507
 3536TIP3    H210548   1.704   2.232   4.009 -1.1673  1.7433  0.6391
 3537TIP3   OH210549   7.999   2.116   3.542  0.0931  0.4668  0.0775
 3537TIP3    H110550   8.084   2.100   3.583  0.2377  1.9221  0.3554
 3537TIP3    H210551   7.954   2.175   3.603 -0.3001  1.3845 -1.0896
 3538TIP3   OH210552   0.936   2.085   5.445 -0.3739  0.1215 -0.4917
 3538TIP3    H110553   0.989   2.160   5.471 -0.4550  0.2016 -0.5586
 3538TIP3    H210554   0.977   2.010   5.488 -1.4624  0.4692  1.1695
 3539TIP3   OH210555   3.161   1.730   2.896 -0.2663 -0.2542  0.1570
 3539TIP3    H110556   3.141   1.639   2.918  0.5246 -0.4494  0.1008
 3539TIP3    H210557   3.181   1.772   2.979  1.1128 -0.5803 -0.0056
 3540TIP3   OH210558   4.085   1.028   3.626 -0.1063  0.8196 -0.8269
 3540TIP3    H110559   4.102   1.007   3.717 -0.2272  1.1889 -0.7180
 3540TIP3    H210560   4.130   1.111   3.611 -0.5588  1.0450 -0.9465
 3541TIP3   OH210561   2.914   1.053   4.801 -0.3373  0.1491 -0.1934
 3541TIP3    H110562   2.888   1.080   4.712  0.2015 -0.4899 -0.5491
 3541TIP3    H210563   2.926   1.136   4.848 -1.1363  0.4847 -0.5643
 3542TIP3   OH210564   2.143   2.909   3.928 -0.2906  0.4959  0.8006
 3542TIP3    H110565   2.124   2.969   3.855 -0.7610  0.4237  0.8632
 3542TIP3    H210566   2.198   2.842   3.889  0.0823  0.8674  0.6852
 3543TIP3   OH210567   1.799   3.798   4.490  0.9098 -0.5859 -0.0537
 3543TIP3    H110568   1.720   3.852   4.483  1.8048  0.7358 -0.2078
 3543TIP3    H210569   1.773   3.713   4.456 -0.5411 -0.2596  0.1914
 3544TIP3   OH210570   1.563   6.886   1.785 -0.1084 -0.3904  0.2766
 3544TIP3    H110571   1.476   6.875   1.746 -0.0152 -1.4117  0.3358
 3544TIP3    H210572   1.552   6.859   1.876  0.0644  0.3541  0.5167
 3545TIP3   OH210573   8.319   3.287   1.552  0.4411  0.0364  0.1025
 3545TIP3    H110574   8.366   3.230   1.613 -0.2762 -0.7688 -0.0822
 3545TIP3    H210575   8.320   3.239   1.469  0.6300  0.7163 -0.2870
 3546TIP3   OH210576   2.393   5.526   3.672 -0.1883 -0.4615  0.1528
 3546TIP3    H110577   2.407   5.520   3.767  0.2708 -1.0313  0.0552
 3546TIP3    H210578   2.305   5.562   3.663  0.6103  1.7656  0.8050
 3547TIP3   OH210579   2.365   5.597   2.611 -0.2801  0.2496 -0.2015
 3547TIP3    H110580   2.422   5.528   2.644 -0.7878  1.2802  2.9879
 3547TIP3    H210581   2.277   5.570   2.636 -0.5657  1.5890  0.2938
 3548TIP3   OH210582   4.364   5.234   3.722 -0.1628 -0.0747 -0.4724
 3548TIP3    H110583   4.410   5.165   3.673 -0.5366  0.0694 -1.0316
 3548TIP3    H210584   4.377   5.313   3.669 -0.3755  0.1274 -0.2200
 3549TIP3   OH210585   3.469   3.788   4.599 -0.2327  0.3015  0.1883
 3549TIP3    H110586   3.468   3.881   4.574  0.7795  0.2923  0.0985
 3549TIP3    H210587   3.404   3.781   4.669 -0.2938  1.0828  0.2142
 3550TIP3   OH210588   3.893   4.487   3.515  0.1882 -0.3313  0.1731
 3550TIP3    H110589   3.923   4.412   3.464  0.4136 -0.2580  0.1953
 3550TIP3    H210590   3.864   4.450   3.598 -1.9300 -0.6790 -0.6842
 3551TIP3   OH210591   3.594   5.084   2.786 -0.5744 -0.3517  0.3364
 3551TIP3    H110592   3.548   5.008   2.750  0.1646 -0.9178  0.5916
 3551TIP3    H210593   3.680   5.083   2.745  0.4127 -1.2078  2.3317
 3552TIP3   OH210594   2.846   4.510   1.217  0.2145 -0.1396  0.4231
 3552TIP3    H110595   2.789   4.494   1.142 -0.5667 -0.3139  1.0527
 3552TIP3    H210596   2.934   4.509   1.181 -0.1745  0.0105 -0.5358
 3553TIP3   OH210597   2.993   6.517   2.124  0.1245  0.1858 -0.5138
 3553TIP3    H110598   2.901   6.535   2.139 -0.2340 -0.4833 -1.7872
 3553TIP3    H210599   3.015   6.566   2.045  0.7090 -0.1004 -0.5371
 3554TIP3   OH210600   2.603   3.097   3.136 -0.0516  0.7151 -0.4817
 3554TIP3    H110601   2.572   3.097   3.046  2.5786  0.7421 -1.4224
 3554TIP3    H210602   2.680   3.039   3.135  1.5126  2.6967  1.1768
 3555TIP3   OH210603   5.507   4.248   5.157  0.0674  0.0192  0.1660
 3555TIP3    H110604   5.570   4.311   5.194  1.0128 -2.0347  2.1519
 3555TIP3    H210605   5.422   4.276   5.191  0.5363 -0.0182  1.3764
 3556TIP3   OH210606   0.667   3.463   4.531 -0.2633  0.1528  0.2131
 3556TIP3    H110607   0.680   3.422   4.445 -0.7396 -1.2760  0.8086
 3556TIP3    H210608   0.639   3.553   4.511  0.0885 -0.0260 -1.1190
 3557TIP3   OH210609   2.996   2.573   0.644 -0.2410 -0.0849 -0.0350
 3557TIP3    H110610   3.034   2.581   0.731  0.9641 -1.5852 -0.3937
 3557TIP3    H210611   2.923   2.512   0.654 -0.4091  0.1277  0.0230
 3558TIP3   OH210612   4.059   5.049   3.248  0.0154 -0.1182  0.2463
 3558TIP3    H110613   4.141   5.028   3.294  1.2824  0.2675 -1.7470
 3558TIP3    H210614   4.037   4.968   3.201 -1.2373 -0.4945  1.4705
 3559TIP3   OH210615   4.655   2.863   4.136 -0.1008  0.2125  0.0251
 3559TIP3    H110616   4.657   2.926   4.208 -0.3973  0.0720  0.1585
 3559TIP3    H210617   4.612   2.786   4.174 -0.1288  0.0878 -0.2633
 3560TIP3   OH210618   3.290   2.711   2.900  0.9520  0.5257 -0.6217
 3560TIP3    H110619   3.287   2.622   2.934  0.5205 -0.5260 -3.3099
 3560TIP3    H210620   3.234   2.762   2.959 -1.8685 -1.7563 -1.2606
 3561TIP3   OH210621   3.626   1.594   3.143 -0.1602 -0.3035 -0.2140
 3561TIP3    H110622   3.700   1.654   3.140  0.0801 -0.6806 -2.5379
 3561TIP3    H210623   3.627   1.559   3.232  2.0723  0.1785 -0.0309
 3562TIP3   OH210624   4.522   5.190   2.946  0.1975  0.2569  0.3464
 3562TIP3    H110625   4.607   5.227   2.922 -0.8858  2.6724  0.0632
 3562TIP3    H210626   4.487   5.157   2.863  0.1863  0.7310  0.1559
 3563TIP3   OH210627   0.417   3.754   3.732  0.7204 -0.1593 -0.6168
 3563TIP3    H110628   0.411   3.659   3.727  0.0847 -0.0840 -1.3445
 3563TIP3    H210629   0.511   3.772   3.741  0.7268 -0.9200  1.1125
 3564TIP3   OH210630   4.707   3.268   4.785 -0.0912 -0.8125  0.0593
 3564TIP3    H110631   4.696   3.198   4.849 -0.0183  0.2713  1.2776
 3564TIP3    H210632   4.756   3.336   4.832  0.4000 -0.2000 -1.2948
 3565TIP3   OH210633   1.238   4.548   2.205  0.0235 -0.0381  0.1919
 3565TIP3    H110634   1.315   4.548   2.148  0.1842 -2.6203  0.3623
 3565TIP3    H210635   1.256   4.481   2.270 -2.0744 -0.1892  0.6499
 3566TIP3   OH210636   0.996   3.969   3.105 -0.3370 -0.4933 -0.5743
 3566TIP3    H110637   1.053   3.918   3.162  0.2871 -1.0322 -1.6640
 3566TIP3    H210638   1.027   4.059   3.113  0.0843 -0.6480 -0.4740
 3567TIP3   OH210639   7.976   1.846   4.771  0.1243  0.2300 -0.2768
 3567TIP3    H110640   8.062   1.852   4.813  0.6300  0.5927 -1.3673
 3567TIP3    H210641   7.943   1.760   4.799 -0.3326  1.2096  2.3421
 3568TIP3   OH210642   3.791   3.732   4.261 -0.3009  0.0233 -0.1372
 3568TIP3    H110643   3.732   3.698   4.328 -2.0276  1.7071 -0.7770
 3568TIP3    H210644   3.781   3.671   4.187  2.2678 -2.3455  1.3822
 3569TIP3   OH210645   0.843   1.611   4.144  0.2696 -0.2358  0.0388
 3569TIP3    H110646   0.899   1.585   4.070  0.9477  0.7974  0.1697
 3569TIP3    H210647   0.843   1.707   4.141  0.1046 -0.1950  1.2343
 3570TIP3   OH210648   2.839   2.947   3.168  0.3184  0.3031 -0.3189
 3570TIP3    H110649   2.890   3.014   3.214  3.0376 -0.9461 -1.3917
 3570TIP3    H210650   2.828   2.877   3.232  0.3617  0.3749 -0.2334
 3571TIP3   OH210651   2.067   4.182   2.208 -0.5409 -0.4591 -0.2659
 3571TIP3    H110652   2.001   4.193   2.140 -0.3239  0.1590 -0.3852
 3571TIP3    H210653   2.103   4.095   2.193  0.4745  0.2019 -1.8314
 3572TIP3   OH210654   1.621   2.499   3.900 -0.1184 -0.4433  0.0122
 3572TIP3    H110655   1.665   2.580   3.875 -2.2505  1.1042  1.1695
 3572TIP3    H210656   1.676   2.464   3.971 -0.8072  1.5565  1.5630
 3573TIP3   OH210657   0.515   3.577   2.365  0.3035  0.2260 -0.4275
 3573TIP3    H110658   0.539   3.575   2.272  0.5713  0.5231 -0.3662
 3573TIP3    H210659   0.440   3.636   2.368  1.0131  1.1298 -0.2953
 3574TIP3   OH210660   0.550   4.259   4.407  0.6456  0.0046 -0.0494
 3574TIP3    H110661   0.575   4.218   4.489  0.4251  1.6458  0.8536
 3574TIP3    H210662   0.632   4.291   4.370  0.7835 -1.0081 -0.6188
 3575TIP3   OH210663   2.988   5.689   3.001  0.0625  0.3580  0.1361
 3575TIP3    H110664   3.076   5.707   2.966  0.3289 -1.4048 -0.1227
 3575TIP3    H210665   2.938   5.768   2.982  1.1165  0.7013 -1.2886
 3576TIP3   OH210666   1.460   4.815   2.722  0.1165  0.7433  0.2729
 3576TIP3    H110667   1.459   4.815   2.627 -2.4679  0.2695  0.2550
 3576TIP3    H210668   1.384   4.868   2.747  1.4621  1.8869  2.0828
 3577TIP3   OH210669   1.548   3.628   3.039 -0.1810  0.2317 -0.1706
 3577TIP3    H110670   1.490   3.563   2.999 -1.6113  1.8023 -0.7183
 3577TIP3    H210671   1.619   3.639   2.977  1.0975 -2.1982  0.8077
 3578TIP3   OH210672   1.820   3.922   3.682 -1.0726  0.3070  0.6185
 3578TIP3    H110673   1.767   3.866   3.739  2.2242 -0.0002  3.5646
 3578TIP3    H210674   1.821   3.877   3.598 -1.8032 -1.9634  1.7966
 3579TIP3   OH210675   7.408   4.370   3.882  0.1768 -0.0579  0.1003
 3579TIP3    H110676   7.423   4.374   3.788  0.5225  1.8090  0.1951
 3579TIP3    H210677   7.480   4.317   3.916  2.3155  2.4324 -0.3161
 3580TIP3   OH210678   6.192   0.645   2.444  0.0713  0.0457 -0.4979
 3580TIP3    H110679   6.169   0.736   2.429  0.3672  0.3824  0.9856
 3580TIP3    H210680   6.254   0.623   2.376 -1.5321  0.3430 -2.0922
 3581TIP3   OH210681   2.584   5.261   3.410 -0.1671 -0.4317  0.1229
 3581TIP3    H110682   2.524   5.195   3.445 -0.7472 -0.2842 -0.5653
 3581TIP3    H210683   2.659   5.260   3.469 -0.4440 -1.2731  0.4672
 3582TIP3   OH210684   3.626   4.031   1.577  0.3096 -0.1844 -0.2351
 3582TIP3    H110685   3.668   3.949   1.603  0.6651 -0.2941 -1.1318
 3582TIP3    H210686   3.609   4.077   1.659 -2.5832 -2.4442  0.5256
 3583TIP3   OH210687   1.212   2.782   3.279 -0.4255 -0.2283  0.2950
 3583TIP3    H110688   1.176   2.867   3.305 -1.4976 -0.2362 -1.0900
 3583TIP3    H210689   1.186   2.772   3.187  0.6122 -1.5759  0.1322
 3584TIP3   OH210690   1.874   5.319   1.843 -0.1283 -0.4332 -0.2464
 3584TIP3    H110691   1.840   5.406   1.861  0.2685 -0.0035 -1.5398
 3584TIP3    H210692   1.945   5.307   1.907 -0.1406  0.2082 -0.1134
 3585TIP3   OH210693   2.795   4.310   3.258  0.0608  0.6608  0.5906
 3585TIP3    H110694   2.774   4.351   3.174 -0.5550  0.3578  0.5881
 3585TIP3    H210695   2.790   4.216   3.241 -0.1968  0.5967  0.9906
 3586TIP3   OH210696   3.128   1.392   4.181  0.2748 -0.1723 -0.5968
 3586TIP3    H110697   3.101   1.482   4.164 -2.8134 -1.0397 -0.6695
 3586TIP3    H210698   3.210   1.381   4.133  0.7214  2.5984 -0.5266
 3587TIP3   OH210699   2.377   3.666   4.453  0.5143  0.4007 -0.6833
 3587TIP3    H110700   2.381   3.702   4.542  0.1082  0.9666 -0.8959
 3587TIP3    H210701   2.297   3.614   4.452  0.0912  1.0669 -0.9781
 3588TIP3   OH210702   2.666   2.806   4.262  0.6895  0.0765 -0.3189
 3588TIP3    H110703   2.702   2.889   4.293  0.7153 -0.6630  1.6741
 3588TIP3    H210704   2.702   2.740   4.321 -0.5318 -1.1838 -0.9378
 3589TIP3   OH210705   1.370   0.980   3.627 -0.0615 -0.6044 -0.0817
 3589TIP3    H110706   1.330   0.940   3.551  0.1885 -1.4823  0.2444
 3589TIP3    H210707   1.297   1.012   3.679 -0.2516 -0.4723 -0.4294
 3590TIP3   OH210708   3.508   0.310   1.378 -0.6426  0.6649 -0.7780
 3590TIP3    H110709   3.427   0.338   1.337 -0.5259 -0.0387 -1.4957
 3590TIP3    H210710   3.567   0.291   1.305  0.2121  1.2968 -0.2673
 3591TIP3   OH210711   2.105   3.374   3.841  0.3761  0.0896  0.3822
 3591TIP3    H110712   2.063   3.332   3.916 -1.0451 -1.7857 -1.3910
 3591TIP3    H210713   2.047   3.446   3.818  0.2558  0.0127  0.4426
 3592TIP3   OH210714   4.308   2.927   4.685 -0.3339  0.5324 -0.4133
 3592TIP3    H110715   4.245   2.884   4.744 -0.9961  0.8287 -0.8983
 3592TIP3    H210716   4.344   2.856   4.633 -0.1682  0.3424 -0.0414
 3593TIP3   OH210717   2.013   3.828   3.225  0.0650  0.3005  0.4065
 3593TIP3    H110718   2.082   3.858   3.166 -1.2118 -0.5595 -1.5918
 3593TIP3    H210719   1.931   3.845   3.177 -1.0389  0.2127  2.2191
 3594TIP3   OH210720   1.513   4.701   3.051  0.1952  0.0408 -0.4932
 3594TIP3    H110721   1.461   4.652   2.988 -1.9762  1.1819  0.3286
 3594TIP3    H210722   1.541   4.635   3.115  1.7947 -0.9890 -2.2068
 3595TIP3   OH210723   2.705   3.836   2.464 -0.3412 -0.1426 -0.3229
 3595TIP3    H110724   2.720   3.926   2.435 -1.9169  0.1889 -0.1659
 3595TIP3    H210725   2.790   3.806   2.494 -0.4746  2.4797  2.8918
 3596TIP3   OH210726   4.304   2.391   3.030  0.0033 -0.3268 -0.8975
 3596TIP3    H110727   4.303   2.410   3.124 -0.3585  0.1436 -0.9949
 3596TIP3    H210728   4.343   2.469   2.991  0.4731 -0.6654 -1.1092
 3597TIP3   OH210729   2.137   4.556   1.394  0.2828  0.1254 -0.0006
 3597TIP3    H110730   2.188   4.593   1.466 -0.9002  0.8824  0.4657
 3597TIP3    H210731   2.053   4.532   1.434  0.5020 -1.7408 -0.6069
 3598TIP3   OH210732   4.457   5.725   3.279 -0.4816  0.2609  0.8790
 3598TIP3    H110733   4.432   5.733   3.371  0.4079  1.4463  1.0332
 3598TIP3    H210734   4.486   5.813   3.254  0.5742 -0.3589 -0.1490
 3599TIP3   OH210735   1.680   2.461   4.485 -0.4729  0.3860 -0.7168
 3599TIP3    H110736   1.740   2.466   4.560 -1.1155 -1.2232 -0.0657
 3599TIP3    H210737   1.737   2.469   4.408  0.3667  0.6375 -0.0775
 3600TIP3   OH210738   1.619   4.054   3.111  0.2198  0.7521  0.0385
 3600TIP3    H110739   1.618   4.139   3.066  0.5778  0.2802 -0.8586
 3600TIP3    H210740   1.707   4.020   3.096 -0.7305 -0.9568 -1.8126
 3601TIP3   OH210741   1.334   3.118   3.628 -0.3323  0.6164  0.4726
 3601TIP3    H110742   1.402   3.143   3.691 -1.3973 -0.0555  1.9106
 3601TIP3    H210743   1.273   3.192   3.628 -0.2887  0.6532  0.1656
 3602TIP3   OH210744   2.852   3.467   4.261 -0.1966 -0.2714 -0.0107
 3602TIP3    H110745   2.806   3.405   4.318 -1.0469 -1.0152 -1.4724
 3602TIP3    H210746   2.808   3.551   4.277 -0.0653 -0.3607  0.8356
 3603TIP3   OH210747   3.583   4.154   2.072  0.8911 -0.1297 -0.2394
 3603TIP3    H110748   3.537   4.077   2.107 -0.7210  1.2083  0.6288
 3603TIP3    H210749   3.604   4.129   1.982 -0.2168 -1.3411 -0.1924
 3604TIP3   OH210750   5.934   7.848   6.691  0.0254  0.5134 -0.2186
 3604TIP3    H110751   5.976   7.762   6.699  0.9516  0.8902 -0.8424
 3604TIP3    H210752   5.905   7.870   6.780 -0.7242 -0.6923 -0.1651
 3605TIP3   OH210753   2.678   4.616   1.613  0.1196 -0.3099 -0.1385
 3605TIP3    H110754   2.638   4.588   1.695 -0.6888  0.7964 -0.1514
 3605TIP3    H210755   2.771   4.592   1.623 -0.3361 -2.0182  0.2649
 3606TIP3   OH210756   4.390   3.114   2.955  0.2279 -0.5389 -0.0744
 3606TIP3    H110757   4.347   3.125   2.870 -0.3469 -2.4106 -0.0576
 3606TIP3    H210758   4.458   3.048   2.939  0.8007 -0.1422  0.6887
 3607TIP3   OH210759   5.441   4.179   1.310 -0.2460 -0.3760 -0.2607
 3607TIP3    H110760   5.416   4.094   1.346 -0.2388  0.2830  1.3359
 3607TIP3    H210761   5.536   4.171   1.295 -0.2828 -0.7167 -0.3231
 3608TIP3   OH210762   2.475   2.768   2.959  0.1964 -0.2270  0.2135
 3608TIP3    H110763   2.503   2.845   2.910 -1.2053 -0.2688 -0.6875
 3608TIP3    H210764   2.398   2.737   2.913 -1.6069  0.1426  2.8701
 3609TIP3   OH210765   3.198   3.073   2.553  0.0811 -0.2621  0.1539
 3609TIP3    H110766   3.247   3.023   2.488  0.8606 -0.5172  0.9370
 3609TIP3    H210767   3.264   3.110   2.611 -0.5338  0.9459  0.1203
 3610TIP3   OH210768   1.736   3.667   2.830  0.5743  0.0133  0.0476
 3610TIP3    H110769   1.736   3.716   2.748  0.9506  2.5040  1.5137
 3610TIP3    H210770   1.731   3.575   2.802 -0.1494  0.8426 -2.7326
 3611TIP3   OH210771   5.290   2.978   2.048  0.2105  0.5302 -0.5777
 3611TIP3    H110772   5.340   3.048   2.089 -0.6718  1.2956 -0.8131
 3611TIP3    H210773   5.213   2.967   2.103 -0.0182  0.2456 -0.9499
 3612TIP3   OH210774   4.402   4.528   1.218  0.0118  0.3341  0.2096
 3612TIP3    H110775   4.365   4.475   1.289 -1.6968  1.0913 -0.0930
 3612TIP3    H210776   4.412   4.467   1.145 -0.9310  0.1912  0.2008
 3613TIP3   OH210777   5.454   3.424   3.917  0.2612  0.1253  0.3694
 3613TIP3    H110778   5.382   3.431   3.980 -0.2657  1.8700 -0.3769
 3613TIP3    H210779   5.424   3.357   3.855 -1.5958  2.1393 -0.9860
 3614TIP3   OH210780   6.074   6.754   2.438 -0.4178  0.0096 -0.0544
 3614TIP3    H110781   6.006   6.800   2.389 -1.0327 -0.1143  0.6702
 3614TIP3    H210782   6.026   6.694   2.495  0.2758  0.3549  0.9013
 3615TIP3   OH210783   5.423   3.586   3.705 -0.0418 -0.6838  0.5091
 3615TIP3    H110784   5.477   3.548   3.774  0.5666  2.8236  2.0681
 3615TIP3    H210785   5.482   3.645   3.658 -1.2233 -0.7305 -1.0714
 3616TIP3   OH210786   1.213   0.510   6.160 -0.8350 -0.0251 -0.0340
 3616TIP3    H110787   1.188   0.430   6.207  1.9068 -1.2534 -0.5991
 3616TIP3    H210788   1.244   0.569   6.229 -1.2790 -0.0549  0.1951
 3617TIP3   OH210789   3.633   2.105   2.471  0.1373 -0.3550  0.1816
 3617TIP3    H110790   3.625   2.025   2.524  0.3847 -0.4660  0.0548
 3617TIP3    H210791   3.706   2.152   2.511  1.3152 -1.1492 -0.9615
 3618TIP3   OH210792   5.786   3.443   2.432  0.4182  0.2163  0.0627
 3618TIP3    H110793   5.875   3.470   2.454  0.3189  0.5567  0.0577
 3618TIP3    H210794   5.764   3.376   2.497  0.1613  1.1439  0.9445
 3619TIP3   OH210795   4.672   2.773   3.608 -0.1194  0.4348  0.0946
 3619TIP3    H110796   4.669   2.758   3.703 -0.7454  0.7502  0.1251
 3619TIP3    H210797   4.693   2.866   3.598  2.0996 -0.0569 -0.0941
 3620TIP3   OH210798   4.571   2.842   3.052 -0.3122 -0.7899 -0.3132
 3620TIP3    H110799   4.546   2.750   3.056  0.3614 -0.9440  0.4290
 3620TIP3    H210800   4.651   2.848   3.104 -0.0450  0.1137 -0.8099
 3621TIP3   OH210801   1.704   3.715   1.581 -0.5760  0.4734 -0.0776
 3621TIP3    H110802   1.680   3.731   1.672 -1.4625  1.4700 -0.4796
 3621TIP3    H210803   1.622   3.688   1.540  0.1215 -1.4375 -0.2590
 3622TIP3   OH210804   3.391   5.347   3.526  0.3754  0.1655 -0.0751
 3622TIP3    H110805   3.405   5.265   3.479  1.1900 -0.3463  1.0182
 3622TIP3    H210806   3.296   5.353   3.535  0.2985 -0.5576 -0.3496
 3623TIP3   OH210807   3.022   3.124   0.165  0.6022 -0.1399  0.0876
 3623TIP3    H110808   2.929   3.111   0.180  1.2829 -3.0713  2.2257
 3623TIP3    H210809   3.041   3.075   0.085  0.5989 -0.8577  0.5271
 3624TIP3   OH210810   4.587   0.624   2.388  0.1193 -0.0498 -0.3655
 3624TIP3    H110811   4.641   0.573   2.329 -0.5810  0.3064 -1.3146
 3624TIP3    H210812   4.528   0.561   2.428  0.0493 -0.1601 -0.6475
 3625TIP3   OH210813   3.076   4.660   4.918 -0.0735  0.0174  0.1559
 3625TIP3    H110814   3.140   4.597   4.951  0.3552  0.1135 -0.4840
 3625TIP3    H210815   3.034   4.616   4.845  0.5718  0.6574 -0.6068
 3626TIP3   OH210816   5.732   7.282   6.069  0.3516 -0.5535 -0.1519
 3626TIP3    H110817   5.730   7.363   6.121  0.2165 -0.6701  0.0270
 3626TIP3    H210818   5.808   7.292   6.012 -0.5369  0.3713 -1.2081
 3627TIP3   OH210819   4.815   4.168   1.404 -0.1912  0.0121  0.1151
 3627TIP3    H110820   4.834   4.080   1.436  0.8106  0.4842  0.8310
 3627TIP3    H210821   4.836   4.164   1.310 -0.0544 -0.4831  0.1655
 3628TIP3   OH210822   4.178   3.664   2.824  0.2652 -0.0727  0.1368
 3628TIP3    H110823   4.195   3.710   2.742  2.3086  0.4101  0.7902
 3628TIP3    H210824   4.098   3.705   2.858 -0.2960  0.0934 -1.3356
 3629TIP3   OH210825   3.981   2.811   2.523 -0.0337  0.4359  0.2572
 3629TIP3    H110826   3.989   2.735   2.465  0.6557  0.2900  0.5415
 3629TIP3    H210827   3.908   2.860   2.487  0.5404  0.4706 -0.8858
 3630TIP3   OH210828   4.181   4.253   1.725 -0.4121  0.6344 -0.5077
 3630TIP3    H110829   4.234   4.326   1.756 -0.4605  1.1943 -1.7090
 3630TIP3    H210830   4.168   4.271   1.632 -1.6192 -0.1750 -0.5036
 3631TIP3   OH210831   4.848   4.963   3.935  0.1889 -0.2714  0.2804
 3631TIP3    H110832   4.788   5.022   3.981  1.1167  1.6960 -0.9733
 3631TIP3    H210833   4.935   5.003   3.946  0.7787 -1.1753 -0.9412
 3632TIP3   OH210834   5.098   4.124   1.980 -0.1529  0.1648 -0.0407
 3632TIP3    H110835   5.080   4.063   2.051  3.6160  0.5709  1.3709
 3632TIP3    H210836   5.105   4.210   2.022 -0.6986  0.8572 -1.3186
 3633TIP3   OH210837   2.154   2.285   2.387  0.5773  0.2296 -0.3238
 3633TIP3    H110838   2.176   2.266   2.478 -1.5144  0.0399  0.1506
 3633TIP3    H210839   2.159   2.380   2.381 -0.9931  0.3771  0.4558
 3634TIP3   OH210840   3.810   1.847   1.835  0.7565 -0.2703 -0.0358
 3634TIP3    H110841   3.735   1.872   1.889 -0.2015  0.1472 -1.5226
 3634TIP3    H210842   3.833   1.759   1.864 -0.0701 -0.2530  0.6841
 3635TIP3   OH210843   3.183   3.917   2.837 -0.3761 -0.1669 -0.6310
 3635TIP3    H110844   3.215   3.936   2.749 -0.4326 -0.2711 -0.6732
 3635TIP3    H210845   3.150   3.828   2.833 -0.1795 -0.2500 -0.4491
 3636TIP3   OH210846   5.309   3.613   1.285 -0.3126  0.0792  0.3915
 3636TIP3    H110847   5.314   3.708   1.275 -1.8527 -0.0487 -2.0687
 3636TIP3    H210848   5.400   3.585   1.296  0.0203  1.9705  2.9010
 3637TIP3   OH210849   3.956   3.045   4.133 -0.4751  0.1311 -0.0056
 3637TIP3    H110850   3.907   2.964   4.118  0.0068 -0.2018  0.2162
 3637TIP3    H210851   4.038   3.016   4.172  0.2963  0.6118 -1.2587
 3638TIP3   OH210852   3.918   1.564   2.344 -0.5765  0.0883 -0.2339
 3638TIP3    H110853   3.864   1.489   2.319 -0.5087 -0.6047  1.6009
 3638TIP3    H210854   3.995   1.525   2.385 -0.7093  1.1544  1.0517
 3639TIP3   OH210855   4.239   3.383   1.160  0.5540 -0.0394  0.0299
 3639TIP3    H110856   4.331   3.356   1.163  0.7705  0.5860 -0.8437
 3639TIP3    H210857   4.193   3.307   1.123  1.1935  0.8493 -2.6380
 3640TIP3   OH210858   4.216   3.776   3.270  0.4249 -0.3605 -0.3368
 3640TIP3    H110859   4.279   3.810   3.334  1.0265 -2.4216  0.2072
 3640TIP3    H210860   4.241   3.817   3.187  1.2057  0.3957  0.2617
 3641TIP3   OH210861   5.546   5.379   3.896  0.2117 -0.0375  0.2631
 3641TIP3    H110862   5.605   5.450   3.921 -1.4106  1.5243 -0.2873
 3641TIP3    H210863   5.585   5.343   3.816  1.3021 -0.1273  0.8201
 3642TIP3   OH210864   4.078   5.136   2.921 -0.0462  0.1223  0.0288
 3642TIP3    H110865   4.041   5.053   2.951  0.8776  0.2311  1.5277
 3642TIP3    H210866   4.072   5.194   2.997 -0.2190  1.2752 -0.8502
 3643TIP3   OH210867   2.662   4.198   1.626 -0.3316  0.2380  0.4546
 3643TIP3    H110868   2.660   4.128   1.691 -1.4550 -0.6591 -0.5259
 3643TIP3    H210869   2.638   4.277   1.675 -0.0309 -0.2320  1.3617
 3644TIP3   OH210870   4.476   3.160   3.257 -0.4929 -0.9079  0.9690
 3644TIP3    H110871   4.436   3.073   3.261 -1.0553 -0.5675  3.0597
 3644TIP3    H210872   4.427   3.206   3.189  0.3740 -2.4897 -0.7619
 3645TIP3   OH210873   2.241   4.921   4.246  0.1679 -0.0955 -0.3780
 3645TIP3    H110874   2.221   4.924   4.153 -0.2567 -0.9010 -0.3210
 3645TIP3    H210875   2.282   4.835   4.260 -2.4315 -1.2286  0.6632
 3646TIP3   OH210876   2.537   4.203   3.626  0.6546 -0.0620  0.5123
 3646TIP3    H110877   2.546   4.272   3.692  1.9247 -0.9290  1.2828
 3646TIP3    H210878   2.607   4.141   3.647 -0.1743 -1.3536 -0.4503
 3647TIP3   OH210879   5.903   4.530   0.444 -0.3892  0.1962  0.1629
 3647TIP3    H110880   5.834   4.475   0.481 -1.0524 -0.0351 -1.3601
 3647TIP3    H210881   5.885   4.618   0.478 -0.2569 -0.2253  1.3468
 3648TIP3   OH210882   4.599   3.270   2.466  0.1743  0.1106  0.1692
 3648TIP3    H110883   4.560   3.252   2.381 -0.1631  1.2641  0.0781
 3648TIP3    H210884   4.578   3.192   2.518 -1.4890  0.3146 -0.1455
 3649TIP3   OH210885   3.715   4.615   2.493 -0.3677 -0.2180  0.1083
 3649TIP3    H110886   3.655   4.617   2.567 -1.6300 -1.6852 -0.8472
 3649TIP3    H210887   3.745   4.524   2.488  3.5530  0.8840  1.8027
 3650TIP3   OH210888   2.762   3.732   3.352 -0.3524  0.3323  0.4167
 3650TIP3    H110889   2.683   3.679   3.352 -0.3782  0.3355  2.0545
 3650TIP3    H210890   2.830   3.673   3.386  0.0680  0.7116  0.2378
 3651TIP3   OH210891   5.599   3.585   2.267 -0.0110  0.0524 -0.1034
 3651TIP3    H110892   5.594   3.655   2.332  2.3332 -0.3199  0.5613
 3651TIP3    H210893   5.668   3.527   2.301  0.3059 -0.8635 -2.2456
 3652TIP3   OH210894   6.776   5.909   3.393 -0.0485  0.1433  0.2318
 3652TIP3    H110895   6.729   5.890   3.312 -0.1796 -2.1911  0.8172
 3652TIP3    H210896   6.715   5.960   3.446 -0.2200  1.0534 -0.8360
 3653TIP3   OH210897   5.312   4.133   1.737 -0.1445 -0.1633 -0.2422
 3653TIP3    H110898   5.366   4.208   1.713 -1.4732  1.0537  0.4397
 3653TIP3    H210899   5.260   4.115   1.658 -1.7711  1.3993  0.4314
 3654TIP3   OH210900   3.585   3.578   0.853  0.4275  0.3903 -0.0786
 3654TIP3    H110901   3.506   3.611   0.810 -0.2485 -0.8024  0.2511
 3654TIP3    H210902   3.645   3.653   0.852 -0.9182  1.4852  0.2267
 3655TIP3   OH210903   1.838   5.425   2.808  0.4117 -0.1853 -0.0310
 3655TIP3    H110904   1.856   5.518   2.826  1.9401 -0.2857 -0.9439
 3655TIP3    H210905   1.909   5.378   2.852 -0.0809 -0.8869  0.0081
 3656TIP3   OH210906   4.871   4.365   1.879 -0.5331 -0.2345  0.5073
 3656TIP3    H110907   4.897   4.309   1.807  0.3888 -0.1857  0.7928
 3656TIP3    H210908   4.775   4.371   1.873 -0.5538 -1.1414 -0.0216
 3657TIP3   OH210909   1.946   4.668   0.561 -0.5528  0.0034 -0.8826
 3657TIP3    H110910   2.022   4.715   0.527 -0.1897  0.5718  0.6406
 3657TIP3    H210911   1.966   4.576   0.546  1.0301  0.0631  0.5841
 3658TIP3   OH210912   4.065   2.751   4.399 -0.2471 -0.0643  0.4170
 3658TIP3    H110913   4.054   2.679   4.462  0.0039 -0.2669  0.2320
 3658TIP3    H210914   4.101   2.709   4.321 -2.4309 -0.1415 -0.5846
 3659TIP3   OH210915   1.148   3.390   2.789 -0.2452 -0.1047  0.4284
 3659TIP3    H110916   1.133   3.472   2.742 -0.8890 -0.0566  0.7134
 3659TIP3    H210917   1.160   3.417   2.880  0.2195 -0.2671  0.4144
 3660TIP3   OH210918   5.157   3.515   1.505 -0.6665 -0.3616  0.3708
 3660TIP3    H110919   5.101   3.590   1.487  0.5188  0.7311  1.0744
 3660TIP3    H210920   5.225   3.519   1.438 -1.1870 -1.4166 -0.2162
 3661TIP3   OH210921   4.620   5.034   4.273 -0.5679  0.0452  0.0769
 3661TIP3    H110922   4.586   5.118   4.244  0.8852  0.8084  0.5252
 3661TIP3    H210923   4.603   5.032   4.367 -0.5271 -0.1274  0.0822
 3662TIP3   OH210924   5.114   5.728   2.361 -0.2303 -0.4760  0.0585
 3662TIP3    H110925   5.083   5.743   2.272 -1.5602 -0.6025  0.5024
 3662TIP3    H210926   5.185   5.792   2.372  0.3513 -0.8626 -1.2901
 3663TIP3   OH210927   3.318   2.164   1.501  0.4457  0.1208 -0.3357
 3663TIP3    H110928   3.225   2.167   1.478  0.0541  2.9932  1.3748
 3663TIP3    H210929   3.360   2.118   1.428 -2.1867 -0.4339 -1.5272
 3664TIP3   OH210930   3.329   3.014   1.196  0.2355  0.4963  0.4824
 3664TIP3    H110931   3.318   2.980   1.285 -2.4036 -0.9856 -0.3569
 3664TIP3    H210932   3.290   3.101   1.199 -0.4409  0.1919  0.6210
 3665TIP3   OH210933   3.098   2.229   4.274 -0.0179 -0.0886 -0.4659
 3665TIP3    H110934   3.039   2.172   4.224 -0.9126  0.0487  0.4308
 3665TIP3    H210935   3.182   2.183   4.271 -0.7692 -1.5661  0.3930
 3666TIP3   OH210936   5.226   4.086   3.413  0.3791  0.0248  0.3591
 3666TIP3    H110937   5.201   4.162   3.359  1.3094  0.7067  0.8744
 3666TIP3    H210938   5.205   4.112   3.502 -1.1985 -1.1258  0.3425
 3667TIP3   OH210939   1.804   5.061   3.012  0.4821  0.1966  0.3700
 3667TIP3    H110940   1.772   5.036   3.099 -0.6306 -0.7504 -0.3013
 3667TIP3    H210941   1.754   5.007   2.951  0.6346  1.4545 -0.9146
 3668TIP3   OH210942   3.967   2.809   4.021 -0.2182  0.0831 -0.1164
 3668TIP3    H110943   4.049   2.841   3.983 -0.8764  3.3508  1.0624
 3668TIP3    H210944   3.921   2.767   3.948  0.6430  2.0456 -1.8373
 3669TIP3   OH210945   1.828   4.229   2.985 -0.0025 -0.3702  0.3908
 3669TIP3    H110946   1.811   4.319   2.955 -1.9328 -0.9712 -0.4136
 3669TIP3    H210947   1.910   4.205   2.943  0.7645  1.1694  0.9617
 3670TIP3   OH210948   4.615   1.638   1.734 -0.4709  0.4671 -0.0202
 3670TIP3    H110949   4.624   1.543   1.732 -0.7075  0.3558  2.3537
 3670TIP3    H210950   4.630   1.661   1.826  0.7848  2.8518 -0.7805
 3671TIP3   OH210951   5.526   6.936   6.324 -0.2364 -0.0820 -0.1304
 3671TIP3    H110952   5.514   6.874   6.252  0.5079 -1.1585  0.6651
 3671TIP3    H210953   5.438   6.945   6.362 -0.6697  0.6327 -1.2727
 3672TIP3   OH210954   3.577   1.954   3.796 -0.1874 -0.2084 -0.3646
 3672TIP3    H110955   3.505   1.986   3.850  0.5590 -0.1589  0.6185
 3672TIP3    H210956   3.655   1.996   3.833  0.2934  0.1158 -1.7092
 3673TIP3   OH210957   2.651   2.909   4.976  0.6278 -0.0164  0.2265
 3673TIP3    H110958   2.720   2.900   5.042 -0.2105  1.5656  1.3642
 3673TIP3    H210959   2.569   2.898   5.025 -0.0090  1.3428 -0.5051
 3674TIP3   OH210960   5.005   4.917   3.359  1.0929 -0.2974 -0.3258
 3674TIP3    H110961   4.914   4.903   3.333  0.8153  2.2931 -0.9514
 3674TIP3    H210962   5.008   5.009   3.386  3.9875  0.3327 -2.4841
 3675TIP3   OH210963   3.787   4.219   0.122  0.5241 -0.3108 -0.8221
 3675TIP3    H110964   3.838   4.277   0.179  0.9458 -1.5202  0.0487
 3675TIP3    H210965   3.850   4.155   0.090 -0.3555 -1.6184 -0.0142
 3676TIP3   OH210966   2.396   1.846   1.434 -0.1195  0.5716  0.7889
 3676TIP3    H110967   2.370   1.900   1.508  1.8407  0.2556  1.7578
 3676TIP3    H210968   2.343   1.767   1.442 -0.8066  1.0582  1.1276
 3677TIP3   OH210969   3.107   5.275   2.436 -0.1464  0.8166  0.1418
 3677TIP3    H110970   3.098   5.280   2.341  0.1356  1.5179  0.1426
 3677TIP3    H210971   3.163   5.350   2.458 -1.4200  1.5341  1.0121
 3678TIP3   OH210972   5.486   2.897   4.687  0.0663  0.4696  0.6428
 3678TIP3    H110973   5.397   2.896   4.723 -0.0705  2.6401  0.3926
 3678TIP3    H210974   5.543   2.894   4.763 -0.2260  0.4579  0.8622
 3679TIP3   OH210975   2.272   4.522   3.590 -0.0383  0.3972  0.1100
 3679TIP3    H110976   2.333   4.596   3.583  0.0881  0.4942  1.9675
 3679TIP3    H210977   2.191   4.561   3.625 -1.2495  0.3008 -2.4805
 3680TIP3   OH210978   5.423   7.047   3.068  0.1626  0.5834 -0.0518
 3680TIP3    H110979   5.499   7.043   3.009  0.8920  0.2652  0.9014
 3680TIP3    H210980   5.409   6.956   3.095 -0.3027  0.7026  0.1059
 3681TIP3   OH210981   2.575   3.705   5.080 -0.4263  0.3144  0.6394
 3681TIP3    H110982   2.627   3.719   5.001  0.6557  0.0481  1.2969
 3681TIP3    H210983   2.609   3.767   5.144 -1.1657  0.3937  0.9721
 3682TIP3   OH210984   3.527   4.671   1.737 -0.3085  0.3841 -0.6256
 3682TIP3    H110985   3.615   4.663   1.773 -0.7820 -0.1051  0.4467
 3682TIP3    H210986   3.501   4.581   1.717 -0.4125  0.5643 -1.3276
 3683TIP3   OH210987   2.029   3.764   4.145 -0.0940  0.9052  0.6697
 3683TIP3    H110988   2.014   3.694   4.082 -1.3726  0.5745  1.3187
 3683TIP3    H210989   2.124   3.763   4.160  0.1959  0.8420 -1.0550
 3684TIP3   OH210990   5.529   4.905   0.681  0.1379  0.0210  1.0047
 3684TIP3    H110991   5.457   4.956   0.716 -0.4728  0.1452 -0.3933
 3684TIP3    H210992   5.575   4.965   0.622 -0.6231 -1.0382 -0.7015
 3685TIP3   OH210993   5.052   3.495   2.602  0.2752  0.2746 -0.5295
 3685TIP3    H110994   5.053   3.532   2.514  0.1526  0.2994 -0.5207
 3685TIP3    H210995   4.972   3.443   2.605  0.4152  0.0576 -0.5224
 3686TIP3   OH210996   5.477   5.381   4.572  0.0001  0.2344  0.5780
 3686TIP3    H110997   5.437   5.442   4.633  0.1104 -0.5220  1.4247
 3686TIP3    H210998   5.409   5.364   4.507  0.1464  1.6299  0.0631
 3687TIP3   OH210999   5.213   1.111   2.894 -0.0576 -0.1287 -0.1783
 3687TIP3    H111000   5.177   1.034   2.850 -0.2586 -0.6059  0.7911
 3687TIP3    H211001   5.169   1.112   2.979 -0.0123  1.0292 -0.1653
 3688TIP3   OH211002   2.264   3.294   3.647  0.5598 -0.6031 -0.1535
 3688TIP3    H111003   2.297   3.206   3.666  1.4353 -0.2754 -0.1443
 3688TIP3    H211004   2.184   3.300   3.698  1.0006 -1.0500  0.6087
 3689TIP3   OH211005   2.963   2.142   2.663 -0.1362  0.4029  0.3645
 3689TIP3    H111006   2.935   2.149   2.755  0.3457 -0.4555  0.5838
 3689TIP3    H211007   2.907   2.075   2.625  1.6584 -1.3997  0.8379
 3690TIP3   OH211008   4.881   3.356   4.579  0.1666  0.0350 -0.5204
 3690TIP3    H111009   4.862   3.415   4.652  0.1678  0.5430 -0.9231
 3690TIP3    H211010   4.796   3.317   4.558  0.3642 -0.9561  0.4638
 3691TIP3   OH211011   5.171   3.729   2.337  0.8128 -0.5444  0.0978
 3691TIP3    H111012   5.241   3.751   2.275 -0.3357  0.8869 -0.7331
 3691TIP3    H211013   5.164   3.806   2.394  1.1459 -1.4265  1.3627
 3692TIP3   OH211014   4.284   4.376   2.878  0.1243 -0.8005  0.1470
 3692TIP3    H111015   4.220   4.384   2.948 -0.9866  0.1026 -0.9546
 3692TIP3    H211016   4.364   4.416   2.914 -0.6175  0.2286  0.6730
 3693TIP3   OH211017   2.453   5.529   3.405  0.0311 -0.2522  0.2570
 3693TIP3    H111018   2.462   5.442   3.366 -0.5319  0.1284 -0.7372
 3693TIP3    H211019   2.435   5.512   3.498 -2.8395 -1.2602 -0.4518
 3694TIP3   OH211020   3.869   4.008   3.438 -0.1020 -0.1362 -0.0251
 3694TIP3    H111021   3.818   3.981   3.361  1.0029 -2.3152 -0.0378
 3694TIP3    H211022   3.805   4.049   3.496 -1.9037 -2.7441 -0.0675
 3695TIP3   OH211023   5.133   2.837   4.181 -0.1559 -0.0407  0.5076
 3695TIP3    H111024   5.096   2.757   4.147  1.0376  0.3736 -1.8904
 3695TIP3    H211025   5.063   2.902   4.174 -0.1896 -0.1665 -0.4591
 3696TIP3   OH211026   4.112   6.070   2.592 -0.0831  0.4664  0.0325
 3696TIP3    H111027   4.035   6.119   2.562 -1.4523 -2.2576 -1.1117
 3696TIP3    H211028   4.090   6.045   2.682 -0.0637  0.5827  0.0701
 3697TIP3   OH211029   3.016   2.490   2.238 -0.3628  0.1651  0.1067
 3697TIP3    H111030   2.934   2.533   2.263  0.8198  2.7276 -0.3616
 3697TIP3    H211031   3.061   2.473   2.320 -0.8077 -0.1847  0.2839
 3698TIP3   OH211032   4.035   4.639   3.072 -0.1008  0.0745 -0.3285
 3698TIP3    H111033   4.033   4.669   3.163  1.9624 -1.9760  0.4334
 3698TIP3    H211034   4.061   4.716   3.022  3.5238  0.0476  1.3897
 3699TIP3   OH211035   2.691   3.313   3.278  0.0859  0.0516  0.0931
 3699TIP3    H111036   2.631   3.253   3.235  0.5952 -0.4213  0.0450
 3699TIP3    H211037   2.759   3.258   3.315 -0.7918  0.3781  2.2532
 3700TIP3   OH211038   4.492   3.198   1.444  0.3026  0.1794  0.2572
 3700TIP3    H111039   4.471   3.283   1.404  1.7003  0.6250  0.4438
 3700TIP3    H211040   4.585   3.187   1.428 -0.1019 -1.9037 -0.8330
 3701TIP3   OH211041   5.001   4.369   2.952 -0.8748 -0.3214 -0.1817
 3701TIP3    H111042   5.060   4.397   3.022 -0.4979 -2.6057  0.4583
 3701TIP3    H211043   4.943   4.304   2.993 -2.1370 -0.0310 -1.4386
 3702TIP3   OH211044   3.377   5.984   2.425 -0.2094  0.1028 -0.0033
 3702TIP3    H111045   3.356   6.077   2.425 -1.6459 -0.1859  1.8948
 3702TIP3    H211046   3.446   5.975   2.490 -1.3112 -0.3875  1.1217
 3703TIP3   OH211047   3.922   6.537   2.215  0.0940  0.4776 -0.5876
 3703TIP3    H111048   3.946   6.570   2.301 -0.6647 -1.6702  0.4939
 3703TIP3    H211049   4.006   6.518   2.172  0.5015  2.7994 -0.8620
 3704TIP3   OH211050   4.108   4.384   3.064  0.1443  0.7605  0.2502
 3704TIP3    H111051   4.067   4.469   3.080  0.7093  0.8378  1.3277
 3704TIP3    H211052   4.163   4.369   3.141  1.9133  0.5296 -1.0006
 3705TIP3   OH211053   3.406   3.885   0.748 -0.1892  0.3374  0.2829
 3705TIP3    H111054   3.388   3.874   0.655 -0.0540  1.4977  0.1173
 3705TIP3    H211055   3.336   3.943   0.780 -1.1763 -1.3409  1.2454
 3706TIP3   OH211056   4.030   5.236   3.544  0.3241 -0.0303 -0.5074
 3706TIP3    H111057   4.053   5.162   3.599 -0.3136  0.3148  0.2462
 3706TIP3    H211058   3.985   5.198   3.469  0.7502 -0.4666 -0.5421
 3707TIP3   OH211059   3.138   2.828   3.111  0.7430  0.5818  0.2841
 3707TIP3    H111060   3.140   2.901   3.172 -1.6558 -0.8274  2.1349
 3707TIP3    H211061   3.199   2.764   3.149  1.6822  0.9697 -0.5326
 3708TIP3   OH211062   4.295   4.320   3.302 -0.2617  0.0365  0.2552
 3708TIP3    H111063   4.359   4.300   3.234 -0.1455 -0.4420  0.5091
 3708TIP3    H211064   4.344   4.317   3.383 -0.1254  1.8215  0.2693
 3709TIP3   OH211065   5.664   4.428   0.601 -0.0673 -0.3215  0.3194
 3709TIP3    H111066   5.624   4.515   0.608  2.0082  0.7276 -0.6278
 3709TIP3    H211067   5.589   4.368   0.591 -1.4153  1.5715 -1.2608
 3710TIP3   OH211068   2.598   4.799   3.156 -0.0922 -0.7467  0.6811
 3710TIP3    H111069   2.655   4.876   3.159 -0.2623 -0.6487  1.3500
 3710TIP3    H211070   2.571   4.794   3.064  1.4520 -1.1267  0.2308
 3711TIP3   OH211071   2.852   4.001   1.751 -0.1228  0.1867 -0.2153
 3711TIP3    H111072   2.892   3.989   1.665  0.5280  0.7542  0.0066
 3711TIP3    H211073   2.875   3.922   1.800  0.1712  0.2183 -0.3026
 3712TIP3   OH211074   4.409   4.317   1.010  0.2355  0.1485 -0.3136
 3712TIP3    H111075   4.402   4.286   0.919  1.2167  2.4757 -1.2193
 3712TIP3    H211076   4.456   4.247   1.055 -0.2166 -1.0221 -1.6028
 3713TIP3   OH211077   4.791   2.459   1.543 -0.6652  0.3853  0.1519
 3713TIP3    H111078   4.876   2.457   1.498 -0.9360  0.3150 -0.3541
 3713TIP3    H211079   4.810   2.423   1.630 -0.0977  0.7234  0.1706
 3714TIP3   OH211080   5.350   4.199   2.847  0.5714  0.1186  0.0113
 3714TIP3    H111081   5.444   4.193   2.866  0.3770  2.4603  1.9420
 3714TIP3    H211082   5.345   4.252   2.767  0.9578 -2.1061 -1.5476
 3715TIP3   OH211083   4.938   2.757   2.461 -0.4006  0.0856 -0.2414
 3715TIP3    H111084   4.993   2.742   2.384 -0.8576  0.0124 -0.5488
 3715TIP3    H211085   4.909   2.847   2.453  0.3536  0.3878  0.3549
 3716TIP3   OH211086   4.302   3.595   4.319  0.0494 -0.3277 -0.3520
 3716TIP3    H111087   4.332   3.619   4.407 -2.0684 -0.1575  0.3358
 3716TIP3    H211088   4.337   3.664   4.262 -1.2598  1.3333  0.8299
 3717TIP3   OH211089   5.228   1.666   1.696 -0.4717 -0.2159  0.3526
 3717TIP3    H111090   5.311   1.688   1.737 -0.5834  0.1909  0.3612
 3717TIP3    H211091   5.163   1.718   1.743 -0.4071  1.5217 -1.4247
 3718TIP3   OH211092   4.203   6.382   2.968 -0.0411 -0.0329  0.2954
 3718TIP3    H111093   4.244   6.296   2.976  0.2886 -0.0344 -1.3661
 3718TIP3    H211094   4.276   6.443   2.963 -0.2755  0.2358  0.1724
 3719TIP3   OH211095   6.819   5.195   5.060 -0.2617  0.8387  0.3686
 3719TIP3    H111096   6.812   5.101   5.080 -2.4224  1.0156  0.5253
 3719TIP3    H211097   6.907   5.219   5.090 -0.0798 -0.8970  1.3043
 3720TIP3   OH211098   4.211   4.910   0.909  0.1875  0.5878 -0.2540
 3720TIP3    H111099   4.116   4.911   0.921  0.0874 -0.1767 -0.9888
 3720TIP3    H211100   4.244   4.853   0.979  0.1270  1.0613  0.1588
 3721TIP3   OH211101   3.678   3.812   2.631  0.6158  0.0579  0.0777
 3721TIP3    H111102   3.590   3.852   2.628 -0.2149 -1.8026 -1.6360
 3721TIP3    H211103   3.734   3.875   2.587 -0.6350 -0.4868 -2.3802
 3722TIP3   OH211104   3.709   4.297   3.785  0.1333  0.0946 -0.6080
 3722TIP3    H111105   3.761   4.372   3.816 -0.5840  0.0513  0.7611
 3722TIP3    H211106   3.635   4.336   3.739  0.5849  0.1866 -1.2675
 3723TIP3   OH211107   4.183   4.198   0.729 -0.2202 -0.3507  0.3658
 3723TIP3    H111108   4.130   4.277   0.732 -1.6870 -1.2984 -0.2062
 3723TIP3    H211109   4.150   4.144   0.802 -0.4177 -1.1706 -0.3215
 3724TIP3   OH211110   3.785   3.030   2.469  0.2625  0.1612 -0.3032
 3724TIP3    H111111   3.782   3.101   2.406 -2.3359  0.5367  0.1804
 3724TIP3    H211112   3.743   2.956   2.425  2.6862 -1.0402 -0.7035
 3725TIP3   OH211113   3.267   3.714   1.383  0.2563  0.4888  0.4008
 3725TIP3    H111114   3.347   3.666   1.365  0.1580  0.2919  0.4812
 3725TIP3    H211115   3.295   3.793   1.428  0.1841 -1.1220  3.4658
 3726TIP3   OH211116   7.501   0.724   2.236 -0.1143  0.4628  0.5701
 3726TIP3    H111117   7.501   0.819   2.247  0.2458  0.5080  0.1826
 3726TIP3    H211118   7.480   0.690   2.323 -1.2612  0.9242  0.4796
 3727TIP3   OH211119   4.857   1.806   1.642 -0.1344 -0.1797 -0.1291
 3727TIP3    H111120   4.821   1.733   1.592 -1.2149  0.1644  0.1407
 3727TIP3    H211121   4.804   1.882   1.617  0.8551  0.4872 -0.2622
 3728TIP3   OH211122   5.162   5.777   4.024 -0.0495 -0.3802 -0.7888
 3728TIP3    H111123   5.198   5.834   4.092 -0.1983 -0.1294 -0.9204
 3728TIP3    H211124   5.191   5.689   4.049  0.4341 -0.2082 -0.7517
 3729TIP3   OH211125   5.265   3.168   4.668 -0.1819  0.2167 -0.2845
 3729TIP3    H111126   5.253   3.209   4.583 -2.0639 -0.4073 -0.3230
 3729TIP3    H211127   5.177   3.157   4.703  0.5353  0.0271  1.5428
 3730TIP3   OH211128   3.849   2.676   3.783  0.0236  0.1631  0.4459
 3730TIP3    H111129   3.868   2.590   3.745  0.8077  0.3592  0.3772
 3730TIP3    H211130   3.756   2.672   3.805 -0.4276  0.0258 -1.3959
 3731TIP3   OH211131   2.270   4.319   1.929  0.0671 -0.2597  0.3363
 3731TIP3    H111132   2.255   4.232   1.892  0.2208  0.2167 -0.8847
 3731TIP3    H211133   2.270   4.305   2.024  2.2314 -1.9515  0.1396
 3732TIP3   OH211134   5.406   4.921   3.562  0.8321 -0.0891  0.0955
 3732TIP3    H111135   5.329   4.975   3.577  0.7586 -0.4328  1.0250
 3732TIP3    H211136   5.452   4.920   3.646  3.0179  1.8968 -1.0145
 3733TIP3   OH211137   3.475   3.038   0.966 -0.3039  0.2798 -0.5595
 3733TIP3    H111138   3.429   3.005   1.043  0.9264  2.7508  1.3110
 3733TIP3    H211139   3.407   3.082   0.914 -0.9698 -0.5670 -0.4020
 3734TIP3   OH211140   0.088   5.136   4.526  0.1580  0.2784  0.5266
 3734TIP3    H111141  -0.002   5.149   4.497 -0.1260 -0.6974  0.9517
 3734TIP3    H211142   0.095   5.183   4.609  0.6191  2.0321 -0.4810
 3735TIP3   OH211143   5.590   7.468   6.692  0.2606 -0.5090 -0.1720
 3735TIP3    H111144   5.650   7.466   6.617 -1.8708 -0.2794 -1.9055
 3735TIP3    H211145   5.576   7.561   6.709 -0.4945 -0.5634 -0.4903
 3736TIP3   OH211146   3.702   5.191   2.380  0.0935 -0.1201  0.6015
 3736TIP3    H111147   3.729   5.267   2.432  1.4727  0.4801 -0.9630
 3736TIP3    H211148   3.772   5.180   2.315 -1.0140 -1.5908 -0.3661
 3737TIP3   OH211149   2.792   5.964   0.121  0.4625 -0.1734  0.0855
 3737TIP3    H111150   2.772   6.011   0.040 -0.6279  0.1127  0.5125
 3737TIP3    H211151   2.738   5.885   0.117  0.7885 -0.4075  0.2941
 3738TIP3   OH211152   5.699   6.238   3.670 -0.8100  0.2769 -0.5564
 3738TIP3    H111153   5.682   6.242   3.575  1.3328 -0.9308 -1.0073
 3738TIP3    H211154   5.706   6.330   3.696 -1.0019  0.6082 -1.6446
 3739TIP3   OH211155   1.952   2.615   4.003 -0.2440  0.2973  0.4330
 3739TIP3    H111156   1.890   2.685   4.022 -0.9155  0.2318 -1.3860
 3739TIP3    H211157   2.036   2.647   4.036 -1.0487  0.8106  2.0129
 3740TIP3   OH211158   1.886   4.070   2.512 -0.0409 -0.1805 -0.3586
 3740TIP3    H111159   1.956   4.103   2.455  1.0435 -1.7881  0.0097
 3740TIP3    H211160   1.808   4.117   2.484  0.8168  0.2504 -2.0692
 3741TIP3   OH211161   3.424   7.140   2.381  0.3983 -0.0205  0.1631
 3741TIP3    H111162   3.365   7.067   2.400  1.2425 -0.5916  0.6186
 3741TIP3    H211163   3.374   7.196   2.321 -0.2317 -1.0006 -0.2446
 3742TIP3   OH211164   3.334   4.177   0.402  0.0300  0.0951  0.2182
 3742TIP3    H111165   3.390   4.175   0.324 -0.9132 -3.4405 -0.4589
 3742TIP3    H211166   3.264   4.239   0.381  0.4702  0.1157 -1.2260
 3743TIP3   OH211167   2.932   4.549   3.722 -0.3247  0.2633  0.9600
 3743TIP3    H111168   2.994   4.614   3.690 -0.4877  0.9298  1.9831
 3743TIP3    H211169   2.911   4.496   3.645  0.7694  0.6273  0.3955
 3744TIP3   OH211170   3.330   2.722   2.220  0.4729 -0.1100 -0.6452
 3744TIP3    H111171   3.341   2.806   2.265  4.2503 -0.3618 -0.9161
 3744TIP3    H211172   3.292   2.745   2.135 -1.4340  0.9542  0.4620
 3745TIP3   OH211173   2.014   2.921   3.061 -0.0418 -0.1485  0.4216
 3745TIP3    H111174   2.092   2.921   3.116  0.0273  2.1166  0.3529
 3745TIP3    H211175   1.943   2.948   3.119 -0.6119 -1.2091  0.2370
 3746TIP3   OH211176   3.467   2.939   2.543  0.2600 -0.4058 -0.4178
 3746TIP3    H111177   3.480   2.919   2.450 -0.6206  0.6020 -0.7791
 3746TIP3    H211178   3.427   2.859   2.579  0.4262 -0.7349 -0.9537
 3747TIP3   OH211179   3.608   3.248   3.550 -0.1302  0.0254  0.1522
 3747TIP3    H111180   3.663   3.216   3.622 -1.7045 -1.2104  0.8498
 3747TIP3    H211181   3.572   3.330   3.583  0.6801  0.4380  0.0085
 3748TIP3   OH211182   4.295   1.424   4.212  0.1008 -0.3816 -0.8514
 3748TIP3    H111183   4.375   1.449   4.259  0.2241 -0.1531 -1.1863
 3748TIP3    H211184   4.324   1.407   4.123  0.3836 -3.5617 -0.2406
 3749TIP3   OH211185   6.316   3.808   4.796  0.2509  0.6987  0.1136
 3749TIP3    H111186   6.402   3.767   4.789 -0.2689 -0.4943  0.5425
 3749TIP3    H211187   6.335   3.902   4.806  1.5184  0.3822  0.8548
 3750TIP3   OH211188   4.413   2.930   4.040  0.4329 -0.7917 -0.0662
 3750TIP3    H111189   4.365   2.917   4.122  1.7559 -0.5985  0.7590
 3750TIP3    H211190   4.505   2.912   4.063  0.9555  0.2853 -1.2460
 3751TIP3   OH211191   5.367   3.317   3.377  0.0301 -0.7183  0.1045
 3751TIP3    H111192   5.309   3.324   3.302  2.9137 -0.9235 -2.2633
 3751TIP3    H211193   5.361   3.402   3.420 -0.2220  0.0976 -1.5068
 3752TIP3   OH211194   4.561   1.102   4.068 -0.6296  0.3158  0.1421
 3752TIP3    H111195   4.527   1.018   4.100 -1.8978  0.7991  0.1035
 3752TIP3    H211196   4.507   1.122   3.992 -1.0906  1.7032  0.8094
 3753TIP3   OH211197   5.314   3.219   3.850 -0.3229  0.5757  0.5318
 3753TIP3    H111198   5.255   3.205   3.776  0.0029  0.0328  0.3699
 3753TIP3    H211199   5.310   3.136   3.899 -0.6215  0.9676  1.1834
 3754TIP3   OH211200   4.619   5.491   3.320 -0.5728  0.0719 -0.0075
 3754TIP3    H111201   4.612   5.585   3.339 -0.3645  0.1889 -0.4902
 3754TIP3    H211202   4.570   5.480   3.239 -1.0963 -0.3437  0.3601
 3755TIP3   OH211203   2.441   3.312   5.028  0.1328  0.3513  0.3781
 3755TIP3    H111204   2.346   3.308   5.030  0.1888 -3.1928 -0.8042
 3755TIP3    H211205   2.462   3.370   4.955 -1.1327 -0.3647 -0.5672
 3756TIP3   OH211206   1.416   3.384   3.006 -0.4142 -0.1717 -0.0190
 3756TIP3    H111207   1.326   3.401   3.032 -0.1873 -1.3274  1.5680
 3756TIP3    H211208   1.459   3.353   3.086  1.5158  0.8306 -0.6352
 3757TIP3   OH211209   4.634   2.708   5.258  0.8732 -0.2230  0.4550
 3757TIP3    H111210   4.610   2.799   5.271 -1.0599 -0.6654  0.1099
 3757TIP3    H211211   4.700   2.710   5.188 -0.1854  0.7757 -0.5281
 3758TIP3   OH211212   3.688   5.441   2.530 -0.5416  0.2639 -0.0208
 3758TIP3    H111213   3.745   5.446   2.607 -0.5803 -1.0943  0.1129
 3758TIP3    H211214   3.621   5.376   2.554  0.1135 -1.0465 -1.6160
 3759TIP3   OH211215   3.442   4.161   1.792  0.2408  0.1920  0.4186
 3759TIP3    H111216   3.393   4.100   1.847 -0.2602  0.9621  0.8407
 3759TIP3    H211217   3.382   4.182   1.720 -0.0992  1.2145  0.9891
 3760TIP3   OH211218   5.183   5.528   1.460  0.1851 -0.2167 -0.3379
 3760TIP3    H111219   5.102   5.507   1.412 -0.2875  1.1353 -0.1495
 3760TIP3    H211220   5.158   5.524   1.552  0.7272 -1.3343 -0.2350
 3761TIP3   OH211221   3.121   3.178   4.011  0.1299 -0.1461  0.2864
 3761TIP3    H111222   3.207   3.218   4.025 -0.2738  0.7523  0.2687
 3761TIP3    H211223   3.060   3.252   4.015 -0.5252 -0.6063 -0.8630
 3762TIP3   OH211224   5.363   5.636   2.294 -0.5544  0.1403  0.5247
 3762TIP3    H111225   5.375   5.723   2.331  0.6292 -0.4083  1.4655
 3762TIP3    H211226   5.274   5.612   2.319 -0.7504  0.9206  0.5985
 3763TIP3   OH211227   3.384   2.483   4.089  0.8369 -0.4595  0.0390
 3763TIP3    H111228   3.311   2.466   4.148 -0.5893  0.7212 -1.3033
 3763TIP3    H211229   3.441   2.543   4.138 -0.5071  0.7984  0.1178
 3764TIP3   OH211230   4.202   5.430   3.513  0.6034  0.0488  0.3848
 3764TIP3    H111231   4.147   5.354   3.532  1.1939 -0.6574 -0.7393
 3764TIP3    H211232   4.139   5.500   3.494  0.0796 -0.6364 -0.4182
 3765TIP3   OH211233   4.738   4.458   2.587  0.5967 -0.2454  0.3467
 3765TIP3    H111234   4.773   4.547   2.591  1.5750 -0.5360 -1.4553
 3765TIP3    H211235   4.781   4.418   2.512 -3.3263 -0.7637 -1.7915
 3766TIP3   OH211236   4.797   6.098   2.775 -0.0871 -0.5446 -0.2255
 3766TIP3    H111237   4.792   6.113   2.870  0.3274  0.2992 -0.3309
 3766TIP3    H211238   4.868   6.155   2.746 -1.2790  0.4443 -1.2814
 3767TIP3   OH211239   5.388   2.200   1.987  0.4650 -0.0299  0.5713
 3767TIP3    H111240   5.331   2.123   1.983  1.5128 -0.7199 -1.9689
 3767TIP3    H211241   5.475   2.165   2.004  1.2562  0.3729 -2.4112
 3768TIP3   OH211242   6.041   6.157   2.024 -0.6885 -0.1122 -0.2074
 3768TIP3    H111243   6.048   6.107   1.942  0.4864  0.9150 -0.7384
 3768TIP3    H211244   6.104   6.115   2.082 -0.4376  0.0968 -0.3250
 3769TIP3   OH211245   3.963   3.703   1.036 -0.6815 -0.4319  0.1699
 3769TIP3    H111246   3.982   3.769   0.969 -1.4084 -1.2618 -0.8709
 3769TIP3    H211247   3.912   3.636   0.990 -1.9508 -0.5983  1.7571
 3770TIP3   OH211248   2.946   3.192   1.214  0.2157  0.4096 -0.2967
 3770TIP3    H111249   2.974   3.271   1.167  1.9093 -0.5795 -0.9774
 3770TIP3    H211250   2.946   3.123   1.148  0.5616 -0.5531  0.6922
 3771TIP3   OH211251   3.795   2.776   2.264 -0.2892  0.6299  0.1825
 3771TIP3    H111252   3.781   2.838   2.192 -0.5863  0.2595 -0.0787
 3771TIP3    H211253   3.865   2.719   2.233 -1.2993 -0.3337 -0.3338
 3772TIP3   OH211254   5.225   3.826   3.813  0.2216 -0.1640 -0.0427
 3772TIP3    H111255   5.199   3.905   3.766  1.6726  0.5145  0.2565
 3772TIP3    H211256   5.296   3.855   3.871  0.4317 -1.5843  0.4344
 3773TIP3   OH211257   2.724   3.185   3.912  0.0987  0.4232  0.7418
 3773TIP3    H111258   2.792   3.234   3.957  0.3406 -1.1067  2.0999
 3773TIP3    H211259   2.652   3.181   3.974 -1.2195  1.9240 -0.6412
 3774TIP3   OH211260   6.231   3.476   3.008 -0.7655  0.4568  0.3812
 3774TIP3    H111261   6.270   3.560   3.029  4.3769 -1.1385 -1.9152
 3774TIP3    H211262   6.220   3.432   3.092 -0.5821  2.2109  1.3400
 3775TIP3   OH211263   4.706   5.495   1.343 -0.1447  0.0080  0.2192
 3775TIP3    H111264   4.683   5.527   1.256  0.4949 -0.5483 -0.1544
 3775TIP3    H211265   4.790   5.537   1.363  0.0073 -0.3406  0.3135
 3776TIP3   OH211266   5.460   2.264   1.031  0.7114 -0.6511 -0.4729
 3776TIP3    H111267   5.368   2.269   1.054  0.5218 -1.6073 -1.0335
 3776TIP3    H211268   5.501   2.221   1.106  0.7202 -0.1723 -0.1978
 3777TIP3   OH211269   3.843   4.012   2.460  0.4393 -0.1059 -0.0964
 3777TIP3    H111270   3.890   4.054   2.532 -2.0877  1.6157  0.6474
 3777TIP3    H211271   3.836   4.081   2.393 -1.4194 -0.1334  0.0315
 3778TIP3   OH211272   5.802   4.591   2.090 -0.2919 -0.5202  0.1785
 3778TIP3    H111273   5.726   4.577   2.147  0.0555 -0.9081  0.5510
 3778TIP3    H211274   5.873   4.542   2.132  0.3268  0.3649  0.1825
 3779TIP3   OH211275   4.079   2.776   1.356 -0.2173 -0.1369 -0.2397
 3779TIP3    H111276   4.126   2.709   1.406 -0.0242 -0.0938 -0.3601
 3779TIP3    H211277   4.128   2.857   1.375 -0.9245  0.1166  0.5529
 3780TIP3   OH211278   4.975   3.165   3.046 -0.3078 -0.8489 -0.3279
 3780TIP3    H111279   4.908   3.160   3.113  1.1067  1.4644  1.3526
 3780TIP3    H211280   4.985   3.259   3.029  1.5250 -1.2304 -1.5382
 3781TIP3   OH211281   5.788   1.623   3.201  0.3302  0.7570 -0.0338
 3781TIP3    H111282   5.761   1.578   3.121  0.3888 -0.0033  0.3625
 3781TIP3    H211283   5.758   1.713   3.190 -1.9411  0.0771  0.1579
 3782TIP3   OH211284   5.882   3.552   3.972 -0.1108  0.2558  0.6465
 3782TIP3    H111285   5.906   3.567   4.064  0.0364  0.0440  0.6429
 3782TIP3    H211286   5.833   3.630   3.947  0.4623  0.6377  0.6953
 3783TIP3   OH211287   2.606   4.341   3.953  0.1451  0.3024  0.0532
 3783TIP3    H111288   2.593   4.434   3.937 -0.1962  0.5519  1.7292
 3783TIP3    H211289   2.520   4.302   3.937  0.5902  0.0803 -1.9018
 3784TIP3   OH211290   5.098   3.417   1.957 -0.0820 -0.0365 -0.2337
 3784TIP3    H111291   5.130   3.446   2.043  1.6911  0.1680 -0.9447
 3784TIP3    H211292   5.014   3.374   1.976  0.4667 -0.3173  1.6389
 3785TIP3   OH211293   3.980   1.441   3.366 -0.4135  0.6209 -0.0093
 3785TIP3    H111294   3.922   1.438   3.442 -0.8499  0.1695 -0.3644
 3785TIP3    H211295   4.028   1.358   3.369 -1.4390 -0.0132 -1.0271
 3786TIP3   OH211296   1.325   2.085   3.353 -0.1599  0.2624 -0.1487
 3786TIP3    H111297   1.362   2.016   3.408 -1.3416 -0.7429 -0.5843
 3786TIP3    H211298   1.238   2.102   3.390  0.0358  1.3714 -0.1716
 3787TIP3   OH211299   5.180   5.242   2.719  0.3959 -0.5674 -0.5319
 3787TIP3    H111300   5.162   5.323   2.766 -0.2703 -0.0294 -1.6970
 3787TIP3    H211301   5.272   5.250   2.693  0.2153  0.0270 -1.0218
 3788TIP3   OH211302   3.805   4.023   1.083  0.3220 -0.6202  0.1465
 3788TIP3    H111303   3.760   4.059   1.159  0.6718 -0.7621  0.4220
 3788TIP3    H211304   3.735   3.987   1.028  0.1237 -1.1300  0.7276
 3789TIP3   OH211305   4.121   2.191   3.003  0.5624 -0.7592 -0.9847
 3789TIP3    H111306   4.075   2.232   2.929  1.0687 -0.3870 -1.0946
 3789TIP3    H211307   4.192   2.252   3.024 -1.0523  0.3692  1.4123
 3790TIP3   OH211308   4.503   0.662   2.722  0.4687 -0.2652  0.6021
 3790TIP3    H111309   4.522   0.730   2.657  1.3377 -1.4177 -0.3757
 3790TIP3    H211310   4.433   0.699   2.775 -0.4323  0.6120 -1.1313
 3791TIP3   OH211311   3.975   3.849   3.776  0.2886  0.1350  0.0022
 3791TIP3    H111312   3.881   3.833   3.785  0.5520 -0.6240  1.4770
 3791TIP3    H211313   4.007   3.860   3.865  1.5123  0.9687 -0.5169
 3792TIP3   OH211314   4.250   5.135   2.126 -0.0086 -0.3349  0.2625
 3792TIP3    H111315   4.269   5.106   2.216  1.5659 -2.4968 -0.7120
 3792TIP3    H211316   4.165   5.095   2.106 -0.0235 -0.4472  0.5390
 3793TIP3   OH211317   3.490   4.617   3.510 -0.3029 -0.2608  0.0508
 3793TIP3    H111318   3.584   4.599   3.513 -0.5023 -1.6687 -1.5525
 3793TIP3    H211319   3.450   4.540   3.549 -0.8872 -0.6144 -1.2340
 3794TIP3   OH211320   1.706   5.051   3.465  0.2358 -0.0578  0.5512
 3794TIP3    H111321   1.732   5.014   3.549  3.0755  1.1096  0.2216
 3794TIP3    H211322   1.749   4.996   3.399  0.2850  0.7082 -0.0646
 3795TIP3   OH211323   4.561   4.730   2.528  0.1688 -0.0407 -0.3582
 3795TIP3    H111324   4.628   4.769   2.582  1.2080 -0.8281 -1.0535
 3795TIP3    H211325   4.481   4.778   2.550  1.0460  1.2246  0.1199
 3796TIP3   OH211326   6.751   4.875   3.298  0.1972 -0.0564  0.4210
 3796TIP3    H111327   6.688   4.867   3.369 -1.0735 -1.7396 -0.8581
 3796TIP3    H211328   6.722   4.951   3.248 -0.2916 -0.2945  0.3428
 3797TIP3   OH211329   2.837   6.796   2.823  0.2367  0.1080 -0.0641
 3797TIP3    H111330   2.880   6.807   2.908  1.8219  0.2866 -0.8682
 3797TIP3    H211331   2.790   6.713   2.830  3.1992 -1.6584 -0.1565
 3798TIP3   OH211332   5.184   6.882   3.383  0.0349  0.2006  0.2058
 3798TIP3    H111333   5.106   6.912   3.335  0.0286 -1.8414 -1.1511
 3798TIP3    H211334   5.244   6.956   3.379 -1.2544  1.2569 -0.0758
 3799TIP3   OH211335   3.896   4.819   1.631 -0.3904 -0.1036 -0.2690
 3799TIP3    H111336   3.837   4.786   1.563 -0.9144  0.9794 -0.3569
 3799TIP3    H211337   3.983   4.815   1.592 -0.5295 -0.7531 -0.5107
 3800TIP3   OH211338   3.594   2.200   2.791 -0.0082 -0.8330 -0.4759
 3800TIP3    H111339   3.538   2.150   2.732 -0.0414 -1.6074  0.2028
 3800TIP3    H211340   3.535   2.227   2.862 -0.4011  1.6586 -1.6893
 3801TIP3   OH211341   4.260   5.052   1.388 -0.2007 -0.4878 -0.2769
 3801TIP3    H111342   4.341   5.036   1.339 -0.2640  0.9339 -0.8997
 3801TIP3    H211343   4.199   5.085   1.323 -0.3375  1.2976  0.7052
 3802TIP3   OH211344   4.771   3.822   4.453 -0.5494  0.7495  0.1082
 3802TIP3    H111345   4.809   3.813   4.365  2.4413  0.9982  1.3208
 3802TIP3    H211346   4.811   3.902   4.487 -0.9891  0.1491  2.0375
 3803TIP3   OH211347   6.210   4.021   2.629  0.1418 -0.2894 -0.2242
 3803TIP3    H111348   6.167   4.106   2.622 -0.2178 -0.5445 -1.2255
 3803TIP3    H211349   6.185   3.975   2.549  1.6500 -0.7343 -0.4518
 3804TIP3   OH211350   6.063   4.771   1.906 -0.0052 -0.0654 -0.1373
 3804TIP3    H111351   6.129   4.722   1.954 -1.0911 -0.4465  1.0076
 3804TIP3    H211352   6.110   4.845   1.868  1.3485 -1.1200 -0.5617
 3805TIP3   OH211353   3.148   4.256   2.262 -0.2208 -0.7487 -0.0366
 3805TIP3    H111354   3.225   4.302   2.229 -0.9631 -0.2899 -1.1910
 3805TIP3    H211355   3.166   4.241   2.355  0.2452  1.4473  0.2519
 3806TIP3   OH211356   4.002   3.601   1.484  0.4221 -0.1779 -0.4101
 3806TIP3    H111357   4.022   3.635   1.571  0.2596 -1.0593 -0.0188
 3806TIP3    H211358   4.057   3.523   1.476  0.6000  0.0286 -1.1846
 3807TIP3   OH211359   4.929   2.256   3.239  0.0240 -0.0320 -0.2547
 3807TIP3    H111360   4.944   2.171   3.282  1.9851  0.1133 -0.5863
 3807TIP3    H211361   4.851   2.242   3.186 -0.1635 -1.3982  0.3474
 3808TIP3   OH211362   5.809   1.929   3.352 -0.6557 -0.1582 -0.1147
 3808TIP3    H111363   5.851   1.937   3.267  0.4480 -0.2837  0.4166
 3808TIP3    H211364   5.715   1.927   3.332 -0.3457 -2.3641 -1.5161
 3809TIP3   OH211365   3.281   3.644   0.335  0.0260 -0.0569  0.5171
 3809TIP3    H111366   3.290   3.736   0.312  0.4039 -0.0146  0.8325
 3809TIP3    H211367   3.208   3.613   0.281  0.4112  0.2240 -0.1790
 3810TIP3   OH211368   4.271   3.734   1.426  0.1716  0.2530  0.1368
 3810TIP3    H111369   4.235   3.657   1.469  1.3362 -0.0694  0.5487
 3810TIP3    H211370   4.254   3.719   1.333 -0.9801  0.2322  0.3431
 3811TIP3   OH211371   3.875   2.689   3.188  0.4306 -0.2848 -0.7539
 3811TIP3    H111372   3.806   2.637   3.147  0.6576 -0.8340 -0.4446
 3811TIP3    H211373   3.939   2.704   3.118  0.9680 -1.4800 -0.5340
 3812TIP3   OH211374   4.211   2.975   4.263 -0.3116 -0.3784 -0.2012
 3812TIP3    H111375   4.178   2.914   4.329 -0.2714  0.3208  0.4759
 3812TIP3    H211376   4.248   3.047   4.314 -0.0776  0.0609 -0.9880
 3813TIP3   OH211377   4.526   5.108   2.490 -0.5818 -0.3041 -0.1528
 3813TIP3    H111378   4.590   5.110   2.419  0.1040  0.9412  0.4798
 3813TIP3    H211379   4.551   5.033   2.543  1.8134  1.4732  1.3689
 3814TIP3   OH211380   3.968   6.056   0.996  0.0056  0.3952 -0.0345
 3814TIP3    H111381   4.037   6.082   0.934  0.1025 -0.3084 -0.2329
 3814TIP3    H211382   4.003   6.078   1.082  0.4402  0.1346 -0.1418
 3815TIP3   OH211383   3.133   2.697   3.653 -0.3142  0.2135  0.1381
 3815TIP3    H111384   3.147   2.790   3.669  0.7850  0.4224 -1.7977
 3815TIP3    H211385   3.222   2.660   3.649 -0.6887 -0.6373 -0.6062
 3816TIP3   OH211386   3.748   2.073   4.545 -0.1131 -0.0037  0.4042
 3816TIP3    H111387   3.655   2.085   4.561 -0.5729 -0.2926 -1.8803
 3816TIP3    H211388   3.778   2.017   4.617 -1.5501  0.5865  1.4939
 3817TIP3   OH211389   3.136   2.469   0.884  0.1281  0.2345  0.0617
 3817TIP3    H111390   3.220   2.453   0.839 -0.4851 -0.5236 -0.8350
 3817TIP3    H211391   3.147   2.554   0.926  2.0988 -0.7889  1.7161
 3818TIP3   OH211392   6.216   4.287   4.457 -0.6084 -0.1521  0.8366
 3818TIP3    H111393   6.275   4.322   4.523 -1.2417  2.5227  0.0789
 3818TIP3    H211394   6.240   4.334   4.377 -1.8074 -1.1789 -0.1451
 3819TIP3   OH211395   3.960   5.169   3.942 -0.0991 -0.0039  1.1620
 3819TIP3    H111396   4.047   5.153   3.980  0.9477 -1.2799 -1.6398
 3819TIP3    H211397   3.929   5.082   3.918 -1.4625  0.6205  0.6584
 3820TIP3   OH211398   3.377   4.124   1.262 -0.0982  0.1645 -0.5655
 3820TIP3    H111399   3.319   4.050   1.274 -0.9311  0.8484 -0.3054
 3820TIP3    H211400   3.320   4.194   1.230  0.8608  0.3805 -1.8749
 3821TIP3   OH211401   6.208   2.649   3.723 -0.2759  0.1885  0.2379
 3821TIP3    H111402   6.250   2.645   3.810 -0.2685  0.0651  0.2289
 3821TIP3    H211403   6.206   2.558   3.694  1.4023  0.4204 -0.6861
 3822TIP3   OH211404   5.103   3.451   3.814  0.6860 -0.0062 -0.2982
 3822TIP3    H111405   5.160   3.375   3.822 -0.5396 -0.8968  0.1965
 3822TIP3    H211406   5.054   3.452   3.897 -2.8727 -1.6293 -2.2511
 3823TIP3   OH211407   5.138   4.971   0.768 -0.1070  0.2176  0.2368
 3823TIP3    H111408   5.112   4.963   0.676 -0.7748 -0.8476  0.5132
 3823TIP3    H211409   5.058   4.954   0.817  0.4458 -0.1359  1.0276
 3824TIP3   OH211410   5.546   2.438   3.492 -0.5032 -0.5184  0.1592
 3824TIP3    H111411   5.578   2.349   3.478  1.0265 -0.3094  2.1449
 3824TIP3    H211412   5.593   2.469   3.570 -1.3746  1.8465 -0.2035
 3825TIP3   OH211413   6.423   3.103   2.140 -0.0660  0.4618  0.4549
 3825TIP3    H111414   6.459   3.131   2.224 -0.4134  0.6477  0.5406
 3825TIP3    H211415   6.374   3.023   2.159  1.5900 -0.6650  0.0767
 3826TIP3   OH211416   4.438   2.554   1.913  0.0349 -0.2709 -0.6552
 3826TIP3    H111417   4.422   2.641   1.947  0.6914 -0.6795  0.7248
 3826TIP3    H211418   4.534   2.545   1.914 -0.0762 -1.4683  0.4079
 3827TIP3   OH211419   6.727   5.245   0.614 -0.1823  0.3800  0.0367
 3827TIP3    H111420   6.719   5.192   0.694 -1.4059 -1.7487 -1.4330
 3827TIP3    H211421   6.743   5.334   0.646 -0.7044 -0.4014  2.6491
 3828TIP3   OH211422   5.978   5.255   2.993  0.2056 -0.3441 -0.4166
 3828TIP3    H111423   6.056   5.232   2.942 -0.6156 -2.5712 -0.7206
 3828TIP3    H211424   5.939   5.171   3.016 -1.5603  0.7297  0.6026
 3829TIP3   OH211425   4.400   5.233   3.185 -0.3491  0.4722  0.3134
 3829TIP3    H111426   4.385   5.327   3.191 -1.2819  0.4261 -0.9489
 3829TIP3    H211427   4.422   5.219   3.093  0.5881 -0.4426  0.6657
 3830TIP3   OH211428   3.575   1.699   2.679 -0.3469 -0.0638 -0.4070
 3830TIP3    H111429   3.663   1.714   2.646 -0.3429 -0.6223 -0.6535
 3830TIP3    H211430   3.585   1.636   2.749 -0.6709 -0.9509 -1.1465
 3831TIP3   OH211431   6.621   2.663   1.830  0.9712 -0.1919  0.2513
 3831TIP3    H111432   6.676   2.607   1.884  1.0209  0.9609  1.4199
 3831TIP3    H211433   6.540   2.673   1.880  0.4313 -0.3229 -0.5784
 3832TIP3   OH211434   3.062   5.210   2.154 -0.2817 -0.3621 -0.2290
 3832TIP3    H111435   3.031   5.298   2.132 -1.2664 -0.8057 -0.5938
 3832TIP3    H211436   3.006   5.151   2.105 -0.4618 -1.2480  1.0101
 3833TIP3   OH211437   6.836   3.569   3.534  0.3236 -0.0791 -0.4082
 3833TIP3    H111438   6.807   3.638   3.474  0.8740 -0.2369 -0.8585
 3833TIP3    H211439   6.931   3.565   3.522  0.1295 -1.9700 -1.5159
 3834TIP3   OH211440   5.281   2.741   4.431 -0.0487  0.6093  0.0354
 3834TIP3    H111441   5.251   2.810   4.373 -1.1207 -0.4797 -0.7137
 3834TIP3    H211442   5.323   2.677   4.374  1.6122  0.9805  0.8056
 3835TIP3   OH211443   7.020   5.016   4.419 -0.2710  0.0702 -0.0901
 3835TIP3    H111444   7.085   4.988   4.483  0.9200  2.6096 -0.1315
 3835TIP3    H211445   7.013   4.942   4.358  0.7386 -1.2093  1.3071
 3836TIP3   OH211446   3.131   0.524   6.335 -0.2004 -0.4203  0.0631
 3836TIP3    H111447   3.223   0.498   6.344 -0.7071 -1.4492  2.4147
 3836TIP3    H211448   3.084   0.442   6.322 -0.9806 -0.0194  0.3675
 3837TIP3   OH211449   4.973   3.073   1.234 -0.0023 -0.2670  0.0875
 3837TIP3    H111450   5.014   3.037   1.155 -0.4492  2.1436 -1.3213
 3837TIP3    H211451   5.027   3.149   1.256  0.5010 -1.3200  2.5181
 3838TIP3   OH211452   5.272   3.270   3.123 -0.2081  0.1795  0.3057
 3838TIP3    H111453   5.186   3.273   3.080  0.4917  0.6739 -1.1042
 3838TIP3    H211454   5.286   3.177   3.142  0.1819 -0.2853 -2.0876
 3839TIP3   OH211455   4.890   5.191   2.582 -0.2207 -0.0382 -0.1042
 3839TIP3    H111456   4.883   5.261   2.516 -1.6774 -1.2591 -1.2612
 3839TIP3    H211457   4.984   5.183   2.597  0.1506  0.1639 -2.1567
 3840TIP3   OH211458   4.104   3.148   1.523 -0.0961 -0.4613  0.6491
 3840TIP3    H111459   4.147   3.170   1.605  0.7057 -2.3639  0.7595
 3840TIP3    H211460   4.016   3.119   1.549 -0.1093 -0.3056  0.7760
 3841TIP3   OH211461   4.844   3.974   0.729  0.2085  0.3133  0.2178
 3841TIP3    H111462   4.858   4.002   0.638 -0.7510 -0.8135 -0.3013
 3841TIP3    H211463   4.751   3.948   0.731  0.5334 -0.8106  1.2033
 3842TIP3   OH211464   7.010   4.673   1.398  0.4098  0.2190  0.1585
 3842TIP3    H111465   7.059   4.623   1.463 -2.6313 -0.7024  1.8277
 3842TIP3    H211466   7.012   4.619   1.319  0.3207 -0.7959  0.8465
 3843TIP3   OH211467   5.466   4.767   2.031 -0.0019  0.2217 -0.0857
 3843TIP3    H111468   5.400   4.726   2.086 -0.3876  0.1649 -0.5922
 3843TIP3    H211469   5.533   4.798   2.093  0.0078 -0.6401  0.3419
 3844TIP3   OH211470   3.480   1.765   2.246  0.4482 -0.0761  0.2330
 3844TIP3    H111471   3.445   1.712   2.318 -0.5109 -0.5322 -0.5542
 3844TIP3    H211472   3.539   1.706   2.199 -1.6170 -0.8944 -1.4169
 3845TIP3   OH211473   0.155   3.078   1.296  0.2006  0.0745  0.4476
 3845TIP3    H111474   0.226   3.117   1.245 -0.1303  1.3143  0.9122
 3845TIP3    H211475   0.160   3.122   1.381  0.8040 -2.0159  1.5331
 3846TIP3   OH211476   6.169   2.987   1.432  0.3567  0.1212  0.3411
 3846TIP3    H111477   6.136   3.059   1.379 -0.8302 -1.2294 -0.8230
 3846TIP3    H211478   6.108   2.980   1.505 -0.4064 -0.6433 -0.3557
 3847TIP3   OH211479   3.141   3.486   2.508  0.8633 -0.2130  0.0552
 3847TIP3    H111480   3.226   3.454   2.538  0.7793 -0.1526  0.3604
 3847TIP3    H211481   3.158   3.573   2.473  1.1537 -0.7208 -1.0932
 3848TIP3   OH211482   5.850   3.050   3.692 -0.0003 -0.3045  0.0670
 3848TIP3    H111483   5.846   3.076   3.600  0.6225 -0.6310 -0.0534
 3848TIP3    H211484   5.803   3.120   3.739 -0.7948 -0.4248 -0.5486
 3849TIP3   OH211485   7.654   2.421   2.386  0.9626  0.1374 -0.0045
 3849TIP3    H111486   7.670   2.513   2.410 -0.2356  0.3393  0.0251
 3849TIP3    H211487   7.624   2.380   2.467  0.7951 -0.1113 -0.1932
 3850TIP3   OH211488   5.857   5.407   1.898 -0.2898  0.0032  0.7064
 3850TIP3    H111489   5.936   5.358   1.872 -0.5184  0.1642 -0.3080
 3850TIP3    H211490   5.789   5.340   1.905  0.0522 -0.2078  2.0933
 3851TIP3   OH211491   5.322   4.018   1.012  0.1658  0.0509  0.2362
 3851TIP3    H111492   5.407   4.012   0.968  0.2743  0.5515  0.3745
 3851TIP3    H211493   5.259   4.031   0.941  0.3800  1.1996  0.2581
 3852TIP3   OH211494   5.425   4.281   0.636 -0.6310  0.4772 -0.4230
 3852TIP3    H111495   5.406   4.322   0.720 -1.0101 -0.8314  0.1422
 3852TIP3    H211496   5.340   4.252   0.603 -0.2413 -0.7988 -0.3130
 3853TIP3   OH211497   5.501   3.675   4.065 -0.0882  0.0530 -0.3408
 3853TIP3    H111498   5.417   3.630   4.074 -0.9971  1.2286 -2.5204
 3853TIP3    H211499   5.562   3.606   4.039 -0.7815 -0.5069 -0.5051
 3854TIP3   OH211500   6.130   2.401   2.080 -0.4720 -0.3335 -0.1032
 3854TIP3    H111501   6.130   2.310   2.050 -0.1949 -0.2039 -0.5087
 3854TIP3    H211502   6.106   2.451   2.003  0.5562  0.0279 -0.1946
 3855TIP3   OH211503   6.159   4.521   3.119 -0.1542  0.0180  0.3798
 3855TIP3    H111504   6.243   4.526   3.165 -0.7891  1.8247  1.4148
 3855TIP3    H211505   6.106   4.461   3.171  0.1266 -0.2754  0.3291
 3856TIP3   OH211506   6.448   3.978   1.836 -0.8690 -0.1871  0.0481
 3856TIP3    H111507   6.402   4.060   1.820 -1.7905 -0.8375 -0.7071
 3856TIP3    H211508   6.499   3.963   1.757  0.7035  0.5630  0.9095
 3857TIP3   OH211509   7.646   3.261   4.128 -0.1232  0.0494 -0.4478
 3857TIP3    H111510   7.597   3.326   4.076  0.5331  0.4145 -0.6202
 3857TIP3    H211511   7.736   3.291   4.124 -0.2712  1.0047  2.2656
 3858TIP3   OH211512   6.392   4.693   0.917  0.2551  0.1755  0.3885
 3858TIP3    H111513   6.362   4.737   0.837 -3.0474 -2.1780  0.1767
 3858TIP3    H211514   6.420   4.606   0.887  0.8757 -0.0247  1.5322
 3859TIP3   OH211515   4.897   4.536   2.204  0.0626  1.4180  0.5332
 3859TIP3    H111516   4.889   4.613   2.148  0.1739  1.4861  0.6107
 3859TIP3    H211517   4.813   4.532   2.251 -0.7049  0.3814 -0.8917
 3860TIP3   OH211518   5.505   4.634   0.685  0.1495 -0.4725 -0.5440
 3860TIP3    H111519   5.512   4.729   0.690 -1.4828 -0.3682 -0.2528
 3860TIP3    H211520   5.411   4.616   0.685  0.4377 -2.0719 -0.9024
 3861TIP3   OH211521   5.493   3.380   2.078 -0.0495 -0.0943  0.3617
 3861TIP3    H111522   5.510   3.441   2.149 -0.5361  0.1677  0.2538
 3861TIP3    H211523   5.436   3.427   2.018  1.0495 -0.0087 -0.6366
 3862TIP3   OH211524   4.184   5.814   1.362 -0.1228 -0.6093 -0.1788
 3862TIP3    H111525   4.135   5.892   1.334  1.7823  0.5507 -0.3676
 3862TIP3    H211526   4.169   5.810   1.457 -0.2303 -0.0039 -0.1641
 3863TIP3   OH211527   5.104   4.680   3.521 -0.0872  0.0953  0.3186
 3863TIP3    H111528   5.066   4.765   3.498 -0.4800 -0.4595 -1.2125
 3863TIP3    H211529   5.056   4.652   3.599 -1.3333  0.3938 -0.3289
 3864TIP3   OH211530   4.941   3.750   1.823 -0.1409  0.3134  0.2182
 3864TIP3    H111531   4.907   3.838   1.805  1.2427  1.0182  0.9733
 3864TIP3    H211532   5.032   3.765   1.850  0.5068 -1.4637 -0.9444
 3865TIP3   OH211533   4.305   4.760   2.308 -0.1000 -0.3479 -0.0651
 3865TIP3    H111534   4.372   4.812   2.264  0.1481 -0.2032  0.4780
 3865TIP3    H211535   4.269   4.704   2.239  0.5468 -0.3928 -0.3726
 3866TIP3   OH211536   3.638   3.008   1.415 -0.2086  0.0076  0.0447
 3866TIP3    H111537   3.705   2.989   1.349 -0.4885 -0.5488 -0.0820
 3866TIP3    H211538   3.585   3.078   1.375 -1.3795 -1.4610 -1.0218
 3867TIP3   OH211539   5.096   2.711   1.321 -0.3892  0.4019 -0.0979
 3867TIP3    H111540   5.086   2.617   1.310  1.6781 -0.0830  1.7702
 3867TIP3    H211541   5.038   2.749   1.256 -0.6715 -2.1551 -1.4031
 3868TIP3   OH211542   6.288   4.105   3.243 -0.0364  0.2905 -0.0803
 3868TIP3    H111543   6.293   4.181   3.301  0.1115  0.3014 -0.1080
 3868TIP3    H211544   6.360   4.116   3.182 -0.1204  0.2168 -0.1941
 3869TIP3   OH211545   5.060   5.234   3.366 -0.1289  0.2173  0.1099
 3869TIP3    H111546   5.020   5.214   3.281  1.8696  0.4170 -0.8998
 3869TIP3    H211547   5.094   5.323   3.356  0.8664 -0.0805  0.8385
 3870TIP3   OH211548   6.023   0.439   3.833  0.1718 -0.3203  0.5935
 3870TIP3    H111549   6.093   0.477   3.780 -1.0710 -0.7458 -1.4236
 3870TIP3    H211550   5.955   0.415   3.770 -0.6324 -2.4830  2.1884
 3871TIP3   OH211551   6.407   3.744   3.469 -0.1970 -0.5849  0.2591
 3871TIP3    H111552   6.415   3.829   3.512 -1.6443 -0.4848  0.3612
 3871TIP3    H211553   6.495   3.723   3.439  0.4465  0.2561  1.5565
 3872TIP3   OH211554   5.280   4.391   0.831  0.0489 -0.0215 -0.2793
 3872TIP3    H111555   5.248   4.471   0.787  0.9873  0.6371  0.2380
 3872TIP3    H211556   5.236   4.392   0.916 -0.3100 -0.3171 -0.4582
 3873TIP3   OH211557   3.331   2.926   0.652 -0.3598  0.5742 -0.4880
 3873TIP3    H111558   3.401   2.973   0.606  0.1794  2.4232  2.1293
 3873TIP3    H211559   3.263   2.915   0.585  1.2292  1.3339 -2.2974
 3874TIP3   OH211560   4.688   2.953   2.808 -0.1043  0.3396  0.4281
 3874TIP3    H111561   4.709   2.863   2.780 -0.6991  0.2356  0.3021
 3874TIP3    H211562   4.687   2.949   2.903 -1.4315 -0.0985  0.4055
 3875TIP3   OH211563   6.556   5.551   1.282  0.2601 -0.0845  0.1941
 3875TIP3    H111564   6.521   5.613   1.346  0.8694  0.7188 -0.2311
 3875TIP3    H211565   6.522   5.583   1.198  1.2693  0.1801 -0.1173
 3876TIP3   OH211566   4.649   1.933   1.295 -0.5208  0.5445 -0.1675
 3876TIP3    H111567   4.584   1.998   1.321  0.4130  1.6038 -0.4362
 3876TIP3    H211568   4.729   1.958   1.342 -0.1310 -0.3733 -0.3240
 3877TIP3   OH211569   3.710   3.270   2.328 -0.3119 -0.0319 -0.5278
 3877TIP3    H111570   3.693   3.337   2.393 -0.8589 -0.7538  0.0793
 3877TIP3    H211571   3.623   3.246   2.295 -0.2155 -1.2572  0.0876
 3878TIP3   OH211572   4.705   3.261   3.482  0.0612 -0.1078 -0.0563
 3878TIP3    H111573   4.749   3.335   3.524 -1.1497  1.1288 -0.9310
 3878TIP3    H211574   4.651   3.301   3.414  0.1506 -1.8889 -1.2006
 3879TIP3   OH211575   4.500   4.185   1.688 -0.0249  0.1023  0.0583
 3879TIP3    H111576   4.563   4.135   1.740 -0.2551  0.0239  0.2598
 3879TIP3    H211577   4.461   4.121   1.629  0.2322  0.1892 -0.2118
 3880TIP3   OH211578   4.850   3.912   1.554  0.4665 -0.6197 -0.4124
 3880TIP3    H111579   4.910   3.847   1.516 -1.4851 -1.7210 -1.7098
 3880TIP3    H211580   4.769   3.864   1.568 -0.1057  0.8210  1.4294
 3881TIP3   OH211581   2.173   2.422   0.710  0.1929 -0.1682 -0.1012
 3881TIP3    H111582   2.101   2.385   0.761 -0.2844  0.9717  0.0470
 3881TIP3    H211583   2.134   2.445   0.625  0.6586 -0.6864 -0.4644
 3882TIP3   OH211584   4.251   1.586   1.949 -0.4856  0.0900 -0.3042
 3882TIP3    H111585   4.285   1.668   1.912  0.2149 -0.9046 -1.9393
 3882TIP3    H211586   4.157   1.589   1.931 -0.6262  1.0251  0.5981
 3883TIP3   OH211587   5.890   4.259   2.019  0.5980  0.0258 -0.4946
 3883TIP3    H111588   5.859   4.342   1.983 -0.4313 -0.0286  0.2431
 3883TIP3    H211589   5.905   4.204   1.943  0.7437  0.7114 -0.9612
 3884TIP3   OH211590   5.996   4.272   3.165  0.1710 -0.0441  0.3228
 3884TIP3    H111591   5.949   4.288   3.083 -0.2609  1.8259  0.8989
 3884TIP3    H211592   6.002   4.177   3.172 -2.6401 -0.2958 -0.2599
 3885TIP3   OH211593   5.558   2.634   1.423  0.3830 -0.2287  0.9450
 3885TIP3    H111594   5.637   2.583   1.407  0.7159  0.3115  0.8321
 3885TIP3    H211595   5.522   2.599   1.505  0.3398 -0.9652  0.6125
 3886TIP3   OH211596   3.693   2.908   1.102 -0.2092  0.1927 -0.7036
 3886TIP3    H111597   3.640   2.982   1.074 -2.0209 -0.2729  1.3109
 3886TIP3    H211598   3.643   2.831   1.074 -1.0605 -0.2555  1.9027
 3887TIP3   OH211599   6.465   2.048   0.836 -0.3728  0.3712 -0.8621
 3887TIP3    H111600   6.457   1.962   0.794 -0.1431 -0.6534  1.1015
 3887TIP3    H211601   6.386   2.054   0.891 -0.3281  1.3704 -0.9026
 3888TIP3   OH211602   4.800   1.579   0.998 -0.0723 -0.6367  0.0334
 3888TIP3    H111603   4.828   1.603   1.086 -1.0165 -0.5422  0.3185
 3888TIP3    H211604   4.781   1.486   1.003 -1.5206 -0.3372  0.3177
 3889TIP3   OH211605   5.486   5.453   3.489 -0.1355  0.1967 -0.1846
 3889TIP3    H111606   5.455   5.505   3.563 -1.5941 -0.6663 -0.1768
 3889TIP3    H211607   5.547   5.390   3.528 -1.4040 -0.6952  0.4116
 3890TIP3   OH211608   4.807   3.558   2.406 -0.1722 -0.6357  0.5818
 3890TIP3    H111609   4.885   3.538   2.354  0.8059  0.9980  1.3964
 3890TIP3    H211610   4.781   3.474   2.443  2.0300 -0.9625  1.4505
 3891TIP3   OH211611   8.038   1.781   1.376 -0.1969  0.1175 -0.3752
 3891TIP3    H111612   8.081   1.768   1.291 -0.8181 -1.9739 -0.4144
 3891TIP3    H211613   8.060   1.702   1.426 -3.7330 -0.8914 -0.2842
 3892TIP3   OH211614   6.088   3.004   2.985  0.8381  0.2848  0.1572
 3892TIP3    H111615   6.026   2.939   3.018  0.2977  1.4326  1.4662
 3892TIP3    H211616   6.124   2.965   2.905 -0.8629 -0.8054 -0.1030
 3893TIP3   OH211617   3.963   6.064   3.267 -0.3798 -0.7583  0.0257
 3893TIP3    H111618   3.923   5.980   3.245 -2.1361 -0.1753  0.9041
 3893TIP3    H211619   3.927   6.125   3.202 -0.0186 -0.4609  0.1071
 3894TIP3   OH211620   5.951   2.045   1.045 -0.1588  0.1459  0.8103
 3894TIP3    H111621   5.938   2.066   1.138  1.2695 -1.8864  1.5075
 3894TIP3    H211622   5.908   1.960   1.033  2.2405 -1.0752  0.3958
 3895TIP3   OH211623   6.599   4.067   1.629  0.1583 -0.3516 -0.1935
 3895TIP3    H111624   6.562   4.146   1.669 -0.4996 -2.0032  2.5822
 3895TIP3    H211625   6.694   4.076   1.640  0.3119  1.4657 -2.6754
 3896TIP3   OH211626   6.937   2.821   2.873  0.4833 -0.1972  0.4759
 3896TIP3    H111627   7.013   2.840   2.927  2.3523 -2.3149 -1.2847
 3896TIP3    H211628   6.925   2.726   2.881 -0.7665 -0.1550 -0.7801
 3897TIP3   OH211629   2.552   4.020   0.926  0.6706 -0.0270  0.5996
 3897TIP3    H111630   2.605   4.011   0.847  1.4049  0.9892  0.9606
 3897TIP3    H211631   2.535   4.114   0.933 -1.6579 -0.3987  0.1950
 3898TIP3   OH211632   4.323   5.273   0.174  0.2084 -0.2678  0.4697
 3898TIP3    H111633   4.251   5.289   0.234 -0.3472  0.5504 -0.3919
 3898TIP3    H211634   4.282   5.245   0.092  0.6607  2.5709 -0.8139
 3899TIP3   OH211635   6.398   3.274   3.982 -0.0976 -0.5023  0.2345
 3899TIP3    H111636   6.444   3.194   4.004 -1.6515 -1.0531  1.6276
 3899TIP3    H211637   6.355   3.301   4.064 -0.4329  1.1816 -0.4591
 3900TIP3   OH211638   4.782   2.800   3.231  0.5568  0.5398 -0.3331
 3900TIP3    H111639   4.781   2.711   3.266  0.4674  0.1275 -1.3426
 3900TIP3    H211640   4.798   2.856   3.306 -2.3437 -0.1086  0.8501
 3901TIP3   OH211641   5.389   3.665   2.568  0.3662  0.6097 -0.3861
 3901TIP3    H111642   5.384   3.716   2.487  0.3437  0.3825 -0.5258
 3901TIP3    H211643   5.402   3.731   2.636 -0.6951  0.8975 -0.4482
 3902TIP3   OH211644   5.251   3.182   1.192  0.4341 -0.1801 -0.0884
 3902TIP3    H111645   5.278   3.132   1.269 -1.4925  0.1546  0.8193
 3902TIP3    H211646   5.332   3.193   1.141  1.2422 -2.5284  0.6417
 3903TIP3   OH211647   5.820   2.894   1.865  0.3048  0.5631  0.0551
 3903TIP3    H111648   5.737   2.928   1.897 -0.1777 -0.9091  0.3982
 3903TIP3    H211649   5.814   2.898   1.770 -1.6814 -3.0246 -0.0439
 3904TIP3   OH211650   6.387   6.990   0.331 -0.5664  0.1951  0.5408
 3904TIP3    H111651   6.315   7.014   0.273 -0.1668 -0.1277 -0.0969
 3904TIP3    H211652   6.379   7.049   0.406 -1.2313  0.4465  0.2703
 3905TIP3   OH211653   0.328   2.276   0.939 -0.2118  0.2248  0.2419
 3905TIP3    H111654   0.322   2.296   1.032 -1.0600 -1.2538  0.5202
 3905TIP3    H211655   0.256   2.324   0.899  0.1135  0.8078  0.3522
 3906TIP3   OH211656   3.840   2.385   2.154 -0.1032 -0.1658  0.3169
 3906TIP3    H111657   3.773   2.316   2.157 -0.4717  0.2153  0.7550
 3906TIP3    H211658   3.916   2.346   2.199 -0.5889  0.0216  1.3011
 3907TIP3   OH211659   4.544   2.887   1.615 -0.1040 -0.1010  0.5527
 3907TIP3    H111660   4.602   2.859   1.545 -1.3218  0.7021 -0.8250
 3907TIP3    H211661   4.552   2.982   1.617 -1.3147  0.0226  0.3726
 3908TIP3   OH211662   4.974   4.106   2.694  0.7051  0.6249  0.7630
 3908TIP3    H111663   4.927   4.023   2.696  1.8810 -0.1694 -1.8323
 3908TIP3    H211664   5.031   4.103   2.771  1.5621 -1.5354  0.1018
 3909TIP3   OH211665   6.018   3.860   1.189 -0.2466 -0.2529  0.3914
 3909TIP3    H111666   5.924   3.861   1.170 -0.6370 -0.5629  2.2397
 3909TIP3    H211667   6.059   3.881   1.105 -1.9608 -0.0241 -0.4198
 3910TIP3   OH211668   4.679   5.197   1.221  0.5454  0.2949  0.0398
 3910TIP3    H111669   4.671   5.276   1.273  0.8016  0.7267 -0.5685
 3910TIP3    H211670   4.765   5.161   1.244  0.5574  0.3562  0.0883
 3911TIP3   OH211671   5.147   2.712   2.248 -0.6753  0.2328 -0.6809
 3911TIP3    H111672   5.229   2.677   2.213 -0.8759 -0.4164 -0.4999
 3911TIP3    H211673   5.083   2.642   2.236 -1.0886  0.5491 -0.3627
 3912TIP3   OH211674   3.645   4.615   3.112 -0.0638 -0.1922 -0.1102
 3912TIP3    H111675   3.631   4.552   3.183 -0.6740  0.0265 -0.0324
 3912TIP3    H211676   3.666   4.697   3.157  1.0280 -0.4097 -0.2178
 3913TIP3   OH211677   8.105   5.899   1.616  0.2212 -0.0128 -0.2973
 3913TIP3    H111678   8.172   5.837   1.587  0.6831  0.7348 -0.8452
 3913TIP3    H211679   8.023   5.866   1.579 -0.0935 -2.1098  2.0953
 3914TIP3   OH211680   6.508   4.925   1.498 -0.4952  0.0537  0.1313
 3914TIP3    H111681   6.600   4.950   1.503 -0.4641 -0.3129  1.7485
 3914TIP3    H211682   6.460   5.005   1.520 -0.4102 -0.9638  4.5703
 3915TIP3   OH211683   6.128   5.712   2.364  0.2811 -0.0479  0.5481
 3915TIP3    H111684   6.192   5.650   2.400  0.3278  0.1659  0.8349
 3915TIP3    H211685   6.054   5.707   2.424  0.4228  0.4239  0.7653
 3916TIP3   OH211686   6.373   3.575   1.278 -0.2365  0.1590 -0.1909
 3916TIP3    H111687   6.398   3.557   1.188 -0.9302  0.0144 -0.3623
 3916TIP3    H211688   6.410   3.661   1.297  2.9061 -1.2999  0.5508
 3917TIP3   OH211689   6.804   5.173   1.895 -0.0982  0.3493  0.0403
 3917TIP3    H111690   6.750   5.241   1.935  2.9821  3.3560 -0.6304
 3917TIP3    H211691   6.798   5.099   1.956 -1.5557  2.1225  2.1281
 3918TIP3   OH211692   4.990   4.277   1.601  0.0642  0.2042 -0.7502
 3918TIP3    H111693   5.054   4.208   1.584  2.3677  2.3311 -0.9100
 3918TIP3    H211694   4.921   4.262   1.536  1.7416 -0.4739 -2.4318
 3919TIP3   OH211695   6.078   7.483   6.880  0.3465 -0.4529  0.4507
 3919TIP3    H111696   6.107   7.405   6.926 -1.1992 -0.5661  1.2415
 3919TIP3    H211697   6.022   7.529   6.942  0.1358  0.5891 -0.4829
 3920TIP3   OH211698   3.444   4.444   1.098  0.1165  0.0085 -0.0331
 3920TIP3    H111699   3.444   4.360   1.051  1.1186 -0.4173  0.6899
 3920TIP3    H211700   3.461   4.420   1.190 -0.2375  0.9506  0.2879
 3921TIP3   OH211701   8.379   3.345   4.867 -0.0414 -0.3292  0.0140
 3921TIP3    H111702   8.292   3.307   4.881 -0.7115  0.8428 -0.8356
 3921TIP3    H211703   8.385   3.414   4.933 -1.1277  1.7950 -2.0345
 3922TIP3   OH211704   5.146   3.919   2.542  0.2215  0.4371 -0.1163
 3922TIP3    H111705   5.064   3.956   2.574  1.3910  0.8976  2.4802
 3922TIP3    H211706   5.162   3.843   2.598  1.2588 -0.0169 -0.9979
 3923TIP3   OH211707   6.840   3.007   1.810 -0.4794  0.4051 -0.2256
 3923TIP3    H111708   6.827   2.943   1.740 -0.0729 -0.4168  0.4422
 3923TIP3    H211709   6.753   3.018   1.849 -0.8455  1.3955 -1.3039
 3924TIP3   OH211710   3.686   3.991   1.876  0.2320 -0.0304  0.2256
 3924TIP3    H111711   3.751   3.922   1.861 -1.2011 -1.3408 -0.1397
 3924TIP3    H211712   3.602   3.944   1.879 -0.6557  1.5756  1.0870
 3925TIP3   OH211713   5.963   3.155   4.052 -0.0630  0.0782 -0.1867
 3925TIP3    H111714   5.870   3.152   4.075 -0.0073  0.4865  0.1017
 3925TIP3    H211715   5.998   3.072   4.085 -0.2326  0.1279  0.1252
 3926TIP3   OH211716   6.178   3.928   1.384  0.3609 -0.0207 -0.4897
 3926TIP3    H111717   6.128   3.993   1.433  0.0720 -1.4259  1.1283
 3926TIP3    H211718   6.121   3.904   1.311 -1.1593 -1.2789  1.0779
 3927TIP3   OH211719   4.660   3.467   1.142 -0.0305 -0.1804  0.1343
 3927TIP3    H111720   4.629   3.532   1.079 -0.7927  1.2003  1.8782
 3927TIP3    H211721   4.755   3.479   1.143 -0.2163  1.5269  1.0155
 3928TIP3   OH211722   5.662   0.485   1.078  0.8894 -0.3075 -0.5272
 3928TIP3    H111723   5.727   0.550   1.050  1.6268 -0.0576  1.6637
 3928TIP3    H211724   5.714   0.413   1.113  0.0862  0.9850  3.6835
 3929TIP3   OH211725   6.615   2.739   1.235 -0.1931  0.1056 -0.0451
 3929TIP3    H111726   6.685   2.702   1.180  0.7315 -1.6574  2.2431
 3929TIP3    H211727   6.588   2.667   1.292 -0.9608  1.9374  1.9769
 3930TIP3   OH211728   6.027   1.238   2.081  0.4725 -0.1945 -0.5031
 3930TIP3    H111729   6.119   1.214   2.088  0.3410 -0.4597  0.3560
 3930TIP3    H211730   5.997   1.194   2.001  1.0784 -0.1151 -0.7831
 3931TIP3   OH211731   4.542   4.123   1.178 -0.3350  0.3322 -0.0549
 3931TIP3    H111732   4.607   4.097   1.113 -1.0217 -0.2712 -0.5107
 3931TIP3    H211733   4.551   4.058   1.248  0.2115  0.8152  0.3180
 3932TIP3   OH211734   4.906   5.045   2.061 -0.1057 -0.4499  0.4334
 3932TIP3    H111735   4.863   5.107   2.001 -0.6735 -1.1384  0.1250
 3932TIP3    H211736   4.943   5.101   2.129  0.9144  0.3807 -0.7768
 3933TIP3   OH211737   6.116   5.410   2.178  0.1850 -0.0714  0.2193
 3933TIP3    H111738   6.196   5.413   2.231  0.7602 -0.5855 -0.6088
 3933TIP3    H211739   6.119   5.325   2.134  0.6669  1.1181 -2.0965
 3934TIP3   OH211740   5.035   3.400   3.298 -0.0375  0.3268 -0.9628
 3934TIP3    H111741   4.940   3.398   3.308 -0.1508  2.9286 -1.2966
 3934TIP3    H211742   5.049   3.425   3.207  1.0029 -1.9067 -1.4692
 3935TIP3   OH211743   0.835   1.256   5.511 -0.4993  0.1807 -0.7979
 3935TIP3    H111744   0.823   1.213   5.596  0.8198 -0.6757 -1.0327
 3935TIP3    H211745   0.920   1.225   5.480  0.0414  2.1978 -1.4349
 3936TIP3   OH211746   5.092   5.184   2.222  0.3801  0.2260  0.3743
 3936TIP3    H111747   5.161   5.142   2.170 -0.0601 -0.3920  0.2936
 3936TIP3    H211748   5.137   5.257   2.265  1.1351 -0.3027  0.4912
 3937TIP3   OH211749   5.841   3.954   4.167 -0.3188  0.3736  0.2091
 3937TIP3    H111750   5.890   3.969   4.087  0.8527  0.7340  0.9877
 3937TIP3    H211751   5.780   4.028   4.172 -2.1040 -0.8867 -1.5717
 3938TIP3   OH211752   6.714   3.326   1.063 -0.2470 -0.0085 -0.5975
 3938TIP3    H111753   6.661   3.291   1.134 -1.2212 -1.0836 -1.8252
 3938TIP3    H211754   6.804   3.320   1.095 -0.4657 -2.8070 -0.4017
 3939TIP3   OH211755   5.367   2.652   2.124  1.1194 -0.9254 -0.2221
 3939TIP3    H111756   5.451   2.682   2.158 -0.1647  2.2432  0.3141
 3939TIP3    H211757   5.347   2.712   2.052 -1.8924  0.1084  1.3708
 3940TIP3   OH211758   4.559   5.482   1.884 -0.3735 -0.3006 -0.4806
 3940TIP3    H111759   4.520   5.399   1.857 -0.6703  0.3142 -1.9985
 3940TIP3    H211760   4.487   5.545   1.882 -0.3330 -0.1527  1.4766
 3941TIP3   OH211761   6.528   3.885   3.230 -0.2446  0.1780 -0.1785
 3941TIP3    H111762   6.573   3.968   3.243 -0.7603  0.6011 -1.0433
 3941TIP3    H211763   6.439   3.901   3.260  0.3505 -0.8745  2.2387
 3942TIP3   OH211764   6.298   7.950   6.374 -0.0452 -0.1393 -0.4331
 3942TIP3    H111765   6.258   7.998   6.300 -1.5313 -0.9662 -0.1988
 3942TIP3    H211766   6.235   7.961   6.446  0.4011 -1.0399  0.1046
 3943TIP3   OH211767   5.148   4.843   3.128  0.1172  0.0016 -0.0225
 3943TIP3    H111768   5.152   4.748   3.114  3.1937 -0.2638  2.1718
 3943TIP3    H211769   5.107   4.852   3.214  4.3915  0.3400  2.0935
 3944TIP3   OH211770   0.623   0.259   5.480  0.1436  0.1920 -0.3209
 3944TIP3    H111771   0.555   0.194   5.500  0.2901  0.7843  2.2912
 3944TIP3    H211772   0.704   0.208   5.476 -0.2522 -0.3259 -2.1413
 3945TIP3   OH211773   4.723   3.576   1.745  0.6029 -0.5202 -0.6452
 3945TIP3    H111774   4.813   3.601   1.763  0.1581  0.8095 -0.1817
 3945TIP3    H211775   4.687   3.553   1.830  0.3731 -0.6092 -0.7651
 3946TIP3   OH211776   6.688   5.597   1.982  0.2295 -0.3919  0.1388
 3946TIP3    H111777   6.756   5.540   1.945  0.4505  0.2204 -0.4161
 3946TIP3    H211778   6.735   5.654   2.043  0.6559  1.6933 -2.0738
 3947TIP3   OH211779   5.213   4.050   4.011 -0.6938 -0.5560 -0.4426
 3947TIP3    H111780   5.191   4.083   3.924 -0.7664 -0.1804 -0.2823
 3947TIP3    H211781   5.279   4.111   4.044 -0.3945 -0.9129 -0.3841
 3948TIP3   OH211782   5.198   1.860   2.836  0.1038  0.3868 -0.1564
 3948TIP3    H111783   5.124   1.828   2.888  1.1381 -1.1039  0.4259
 3948TIP3    H211784   5.202   1.954   2.855 -2.3083  0.7053 -1.0494
 3949TIP3   OH211785   5.146   4.803   2.702  0.0238 -0.6085 -0.0007
 3949TIP3    H111786   5.111   4.873   2.757 -0.7745 -0.2069 -0.9881
 3949TIP3    H211787   5.205   4.754   2.759 -0.0276  0.3889  0.9232
 3950TIP3   OH211788   6.724   3.683   1.011 -0.4625  0.4113 -0.2919
 3950TIP3    H111789   6.676   3.699   0.930 -1.7670  1.7589  0.7235
 3950TIP3    H211790   6.661   3.700   1.080  0.6065 -0.8635  1.0142
 3951TIP3   OH211791   5.703   4.026   3.559  0.1331  0.9604 -0.2711
 3951TIP3    H111792   5.615   3.991   3.573  0.1057  1.2236  0.2237
 3951TIP3    H211793   5.760   3.949   3.557 -0.2593  0.6908 -1.8472
 3952TIP3   OH211794   5.265   5.351   2.347 -0.6933  0.4100 -0.0726
 3952TIP3    H111795   5.320   5.406   2.292 -2.7734  1.0023 -1.6256
 3952TIP3    H211796   5.229   5.410   2.412 -2.0021  0.6767 -1.0234
 3953TIP3   OH211797   6.135   5.063   3.265  0.0342  0.3695 -0.0529
 3953TIP3    H111798   6.212   5.069   3.208  1.2697 -1.1034  1.3985
 3953TIP3    H211799   6.084   4.991   3.227 -0.0686  0.5873 -0.3377
 3954TIP3   OH211800   4.497   3.063   2.666 -0.0751 -0.0673 -0.2507
 3954TIP3    H111801   4.569   3.030   2.720  0.6467  0.5013 -0.8748
 3954TIP3    H211802   4.445   2.985   2.646 -0.0453 -0.3659  0.8093
 3955TIP3   OH211803   2.975   7.888   2.571  0.4723  0.0997 -0.5012
 3955TIP3    H111804   2.984   7.848   2.658 -1.8976 -1.4026 -0.8948
 3955TIP3    H211805   2.922   7.967   2.587  1.7216  0.9181 -0.3183
 3956TIP3   OH211806   6.898   4.925   3.873  0.8210  0.1700 -0.2689
 3956TIP3    H111807   6.820   4.910   3.927  1.5795  0.9380  1.0544
 3956TIP3    H211808   6.897   4.852   3.811  1.4757 -2.4106  2.5851
 3957TIP3   OH211809   4.958   3.791   4.978  0.4038 -0.0964 -0.4658
 3957TIP3    H111810   4.888   3.833   4.928 -0.9497 -2.1203 -0.3637
 3957TIP3    H211811   4.975   3.849   5.052 -0.5952  0.8205 -0.9572
 3958TIP3   OH211812   4.376   1.950   3.018  0.2068  0.0018  0.4070
 3958TIP3    H111813   4.429   2.022   3.053 -0.3536 -0.3240  1.9898
 3958TIP3    H211814   4.324   1.920   3.093 -1.0769 -0.6990 -0.7301
 3959TIP3   OH211815   5.264   4.043   4.435  0.3962 -0.0134 -0.2824
 3959TIP3    H111816   5.308   3.993   4.503  0.0791 -2.6381 -1.9490
 3959TIP3    H211817   5.300   4.011   4.352 -0.2544  2.0855 -1.4498
 3960TIP3   OH211818   5.891   3.614   2.811 -0.1654  0.2041  0.0812
 3960TIP3    H111819   5.817   3.643   2.757 -0.4309 -0.5535  0.0396
 3960TIP3    H211820   5.963   3.604   2.749 -0.3265 -0.1455 -0.0496
 3961TIP3   OH211821   6.265   4.316   3.440 -0.0135 -0.0572 -0.2572
 3961TIP3    H111822   6.169   4.319   3.445 -0.0765 -1.3492 -0.4585
 3961TIP3    H211823   6.293   4.401   3.474 -1.1382 -0.6016  2.1686
 3962TIP3   OH211824   8.259   1.471   3.639  0.5504 -0.1837  0.2141
 3962TIP3    H111825   8.322   1.523   3.689 -0.8463  1.4370  0.3084
 3962TIP3    H211826   8.309   1.441   3.563  1.1920  1.9054 -0.2300
 3963TIP3   OH211827   7.219   2.950   3.548  0.2059  0.2603 -0.0853
 3963TIP3    H111828   7.157   3.020   3.567  1.0077  1.1372 -0.6252
 3963TIP3    H211829   7.241   2.962   3.455  0.5603 -0.5393 -0.1122
 3964TIP3   OH211830   2.183   4.457   1.709 -0.2401 -0.1014 -0.3948
 3964TIP3    H111831   2.124   4.386   1.684 -0.4623  0.1348 -0.5472
 3964TIP3    H211832   2.218   4.431   1.794 -0.7787 -0.1128 -0.1754
 3965TIP3   OH211833   3.763   2.481   1.609  0.3419 -0.0943 -0.1276
 3965TIP3    H111834   3.799   2.491   1.698  0.1519 -2.6653  0.2616
 3965TIP3    H211835   3.782   2.565   1.567  1.7281  0.6491  1.8775
 3966TIP3   OH211836   4.111   4.751   1.893  0.4016  0.1078 -0.2040
 3966TIP3    H111837   4.171   4.793   1.832  1.0103  0.4266  0.6077
 3966TIP3    H211838   4.067   4.684   1.841  0.4951  0.7606 -1.1324
 3967TIP3   OH211839   3.650   3.608   1.273 -0.4191 -0.1462  0.4650
 3967TIP3    H111840   3.670   3.529   1.324 -1.4219  0.4116  1.7364
 3967TIP3    H211841   3.729   3.662   1.282 -0.2148 -0.4670  0.6236
 3968TIP3   OH211842   7.621   3.712   2.623  0.6765  0.2441  0.7819
 3968TIP3    H111843   7.539   3.688   2.667  1.2900 -1.8056  0.8456
 3968TIP3    H211844   7.594   3.734   2.534  0.1149 -0.8418  0.6780
 3969TIP3   OH211845   6.067   3.318   0.917  0.0716  0.5471 -0.2086
 3969TIP3    H111846   6.063   3.413   0.912 -0.4212  0.4509 -1.9440
 3969TIP3    H211847   6.160   3.298   0.907  0.4590  0.9089  2.2011
 3970TIP3   OH211848   5.240   2.667   3.961  0.3074  0.3854 -0.3774
 3970TIP3    H111849   5.222   2.577   3.936 -0.8217  0.4870  0.0702
 3970TIP3    H211850   5.244   2.665   4.057 -0.1135  0.8885 -0.3498
 3971TIP3   OH211851   4.882   4.950   0.922 -0.2132  0.4695  0.0391
 3971TIP3    H111852   4.889   4.965   1.016  0.3570 -0.6932  0.1866
 3971TIP3    H211853   4.790   4.966   0.902 -1.2354 -3.1482  1.4940
 3972TIP3   OH211854   4.939   5.140   3.108 -0.1939  0.2834 -0.6334
 3972TIP3    H111855   4.851   5.103   3.107 -1.6290  3.5530 -0.5632
 3972TIP3    H211856   4.992   5.078   3.059 -2.4430 -1.9138 -0.3726
 3973TIP3   OH211857   6.234   4.730   1.158  0.4129  0.2222 -0.4912
 3973TIP3    H111858   6.186   4.807   1.188  0.7222 -0.1369  0.9295
 3973TIP3    H211859   6.250   4.747   1.065  1.6368  2.4789  0.0901
 3974TIP3   OH211860   6.018   4.829   1.375 -0.4479 -0.2053 -0.6204
 3974TIP3    H111861   6.049   4.903   1.426 -0.7809 -0.6686  0.2703
 3974TIP3    H211862   5.952   4.867   1.315 -0.5013  0.2388 -0.2822
 3975TIP3   OH211863   8.517   1.805   0.170 -0.2123 -0.4990  0.2051
 3975TIP3    H111864   8.539   1.715   0.196 -0.6299 -0.2299  1.4928
 3975TIP3    H211865   8.427   1.799   0.136  0.3818 -0.8739 -1.3634
 3976TIP3   OH211866   6.403   5.129   0.687 -0.3031 -0.4055  0.6427
 3976TIP3    H111867   6.336   5.190   0.717  0.4323 -0.3711  2.2684
 3976TIP3    H211868   6.391   5.051   0.741  2.0811  0.2700  2.2421
 3977TIP3   OH211869   5.201   3.667   1.905  0.2002 -0.1687  0.1282
 3977TIP3    H111870   5.149   3.587   1.894 -0.8202 -0.2031  4.3954
 3977TIP3    H211871   5.284   3.647   1.861 -1.2742 -2.2421 -1.8492
 3978TIP3   OH211872   6.803   6.962   0.580 -1.0179 -0.5452  0.3134
 3978TIP3    H111873   6.795   6.867   0.587 -1.8768 -0.4799  0.3447
 3978TIP3    H211874   6.731   6.996   0.634 -0.4479  0.1288  0.6667
 3979TIP3   OH211875   4.948   4.539   3.744  0.4651 -0.1172  0.0859
 3979TIP3    H111876   4.986   4.454   3.768  1.2555  0.1459 -0.2316
 3979TIP3    H211877   4.863   4.539   3.787  1.0568 -0.4674  1.2897
 3980TIP3   OH211878   7.297   3.866   1.613  0.1155  0.3479  0.4417
 3980TIP3    H111879   7.381   3.907   1.636 -0.0674  0.0155  1.7875
 3980TIP3    H211880   7.303   3.778   1.650 -1.0253  0.5053  1.0367
 3981TIP3   OH211881   4.970   2.977   1.920  0.0748  0.8640 -0.2072
 3981TIP3    H111882   4.938   2.922   1.991  0.6083  0.9596  0.1150
 3981TIP3    H211883   4.892   3.002   1.871 -0.1878 -0.0723 -0.2794
 3982TIP3   OH211884   7.777   5.762   2.882 -0.1214  0.3634 -0.4366
 3982TIP3    H111885   7.727   5.815   2.819 -4.0571 -0.7088  1.6189
 3982TIP3    H211886   7.836   5.825   2.924 -2.0064  2.3968 -0.7138
 3983TIP3   OH211887   8.195   2.142   1.917  0.6235  0.2337  0.0582
 3983TIP3    H111888   8.100   2.149   1.908  0.4731 -2.1718 -0.5014
 3983TIP3    H211889   8.208   2.080   1.989  1.7395 -1.1744 -1.3050
 3984TIP3   OH211890   5.242   1.814   2.123  0.0163 -0.2797  0.0371
 3984TIP3    H111891   5.166   1.829   2.067  0.3198 -1.0455 -0.5862
 3984TIP3    H211892   5.267   1.901   2.153  0.5016  0.2750 -1.8891
 3985TIP3   OH211893   5.014   4.050   4.317 -0.1721 -0.1159 -0.0856
 3985TIP3    H111894   5.098   4.069   4.358 -0.3705  0.5979  0.0007
 3985TIP3    H211895   4.949   4.083   4.380 -0.5005 -0.0104 -0.4809
 3986TIP3   OH211896   6.546   2.830   2.325 -0.7223  0.2078 -0.7746
 3986TIP3    H111897   6.584   2.833   2.237  1.3882  0.6927  0.1038
 3986TIP3    H211898   6.578   2.910   2.367  0.2059 -1.1292  1.1429
 3987TIP3   OH211899   8.185   5.341   6.143 -0.3909 -0.3447  0.4801
 3987TIP3    H111900   8.231   5.259   6.160 -1.3615 -1.2506 -1.1102
 3987TIP3    H211901   8.234   5.407   6.192  0.6925 -1.7847  1.3834
 3988TIP3   OH211902   5.132   3.265   2.748  0.2490  0.3816  0.2992
 3988TIP3    H111903   5.103   3.336   2.691 -1.4685 -1.2004 -0.8545
 3988TIP3    H211904   5.055   3.243   2.800  0.2160 -1.8097 -0.6161
 3989TIP3   OH211905   4.081   4.669   3.902  0.1796  0.6705 -0.0494
 3989TIP3    H111906   4.148   4.650   3.968 -0.7449  1.2346  1.0681
 3989TIP3    H211907   4.089   4.763   3.887 -0.6537  0.8122  0.4053
 3990TIP3   OH211908   7.228   2.220   3.505 -0.0214 -0.0055 -0.0040
 3990TIP3    H111909   7.162   2.162   3.541  1.4793 -1.0603  1.0977
 3990TIP3    H211910   7.311   2.173   3.518  0.8865  1.0559 -1.8252
 3991TIP3   OH211911   6.404   4.533   1.265  0.0699 -0.2639  0.4204
 3991TIP3    H111912   6.348   4.595   1.217  1.3198  0.6794  0.1658
 3991TIP3    H211913   6.352   4.510   1.343 -0.2629  1.3787  0.7041
 3992TIP3   OH211914   5.764   5.798   2.883  0.7987 -0.2302 -0.1387
 3992TIP3    H111915   5.851   5.818   2.918  0.5960 -0.8063  0.7112
 3992TIP3    H211916   5.772   5.709   2.849  0.1608 -0.8164  1.2310
 3993TIP3   OH211917   6.352   6.267   2.567  0.1101  0.2456 -0.1639
 3993TIP3    H111918   6.403   6.196   2.527 -1.5478 -2.2168  1.9282
 3993TIP3    H211919   6.319   6.317   2.492  1.1870 -1.2791 -1.7129
 3994TIP3   OH211920   5.167   1.920   3.254 -0.1128 -0.0505 -0.0181
 3994TIP3    H111921   5.140   1.833   3.283 -0.8495 -0.3243 -1.4737
 3994TIP3    H211922   5.262   1.921   3.266  0.1308 -1.7057 -1.6862
 3995TIP3   OH211923   4.776   4.467   3.517 -0.2256 -0.2869  0.1337
 3995TIP3    H111924   4.788   4.546   3.571 -2.1481  0.0089  0.1700
 3995TIP3    H211925   4.728   4.407   3.574 -2.1376 -0.0324 -1.1836
 3996TIP3   OH211926   5.121   3.836   4.182 -0.1197  0.3928  0.5526
 3996TIP3    H111927   5.167   3.887   4.114 -0.9941  0.7736  0.2385
 3996TIP3    H211928   5.069   3.901   4.229 -0.5091 -0.0759  0.7671
 3997TIP3   OH211929   5.476   4.743   2.924  0.0285  0.1382  0.2809
 3997TIP3    H111930   5.403   4.683   2.906  0.5980 -0.4962  0.0652
 3997TIP3    H211931   5.473   4.757   3.018 -1.7249  1.8714 -0.0057
 3998TIP3   OH211932   5.554   6.488   2.120 -0.1808 -0.3575  0.3265
 3998TIP3    H111933   5.633   6.434   2.126 -0.2143 -0.3300  0.9658
 3998TIP3    H211934   5.586   6.576   2.100 -0.1021 -0.5112 -0.2552
 3999TIP3   OH211935   5.292   6.456   2.335  0.1880 -0.5483  0.2853
 3999TIP3    H111936   5.353   6.449   2.261 -2.0850 -0.6688 -1.6203
 3999TIP3    H211937   5.213   6.494   2.297 -1.0640 -0.7607  2.6348
 4000TIP3   OH211938   4.676   4.542   0.923 -0.3354  0.3893  0.5623
 4000TIP3    H111939   4.609   4.519   0.859 -0.4153  0.7540  0.5125
 4000TIP3    H211940   4.628   4.590   0.991 -0.1038  0.7800  0.4530
 4001TIP3   OH211941   5.936   6.538   2.276 -0.3705  0.0704 -0.4560
 4001TIP3    H111942   5.942   6.633   2.279 -0.6178  0.0774 -0.1189
 4001TIP3    H211943   5.939   6.516   2.183 -1.1556  0.4678 -0.5762
 4002TIP3   OH211944   5.648   3.227   1.901  0.0032 -0.1075  0.2160
 4002TIP3    H111945   5.602   3.143   1.909 -1.2437  0.1886 -2.9046
 4002TIP3    H211946   5.596   3.288   1.952 -0.5898 -0.6872  0.3147
 4003TIP3   OH211947   5.732   3.781   3.856  0.0921  0.6868  0.1120
 4003TIP3    H111948   5.688   3.766   3.773 -0.0304  3.6466 -0.4138
 4003TIP3    H211949   5.818   3.815   3.832  0.6804 -0.0214  1.1804
 4004TIP3   OH211950   5.768   3.866   1.792 -0.3699  1.3167  0.3089
 4004TIP3    H111951   5.789   3.927   1.721 -1.3204 -0.5109 -1.5874
 4004TIP3    H211952   5.850   3.821   1.810 -0.0425  2.0329  0.6228
 4005TIP3   OH211953   4.458   4.429   2.148  0.1252 -0.8343  0.2442
 4005TIP3    H111954   4.399   4.504   2.138  0.3623 -0.6327  0.3736
 4005TIP3    H211955   4.399   4.355   2.166 -0.2917 -1.1610 -2.3816
 4006TIP3   OH211956   4.469   3.956   1.447 -0.0448  0.1689 -0.2351
 4006TIP3    H111957   4.514   3.909   1.517  1.0188  1.0388 -0.3112
 4006TIP3    H211958   4.390   3.905   1.430 -0.3940  0.0289  1.7014
 4007TIP3   OH211959   3.551   4.553   0.584 -0.5024  0.3807 -0.1179
 4007TIP3    H111960   3.635   4.598   0.585 -0.0960 -0.3958  0.9709
 4007TIP3    H211961   3.516   4.565   0.672 -1.6777  0.9617 -0.6491
 4008TIP3   OH211962   6.403   3.714   2.974 -0.4370  0.6920 -0.1127
 4008TIP3    H111963   6.383   3.799   2.936  1.7667  2.4073  2.3500
 4008TIP3    H211964   6.477   3.682   2.923 -0.6170  0.7325 -0.3977
 4009TIP3   OH211965   4.726   5.081   1.652  0.5367  0.2096 -0.2404
 4009TIP3    H111966   4.744   4.998   1.696 -0.4040  0.8437  1.4155
 4009TIP3    H211967   4.692   5.057   1.566  1.7345 -1.0745 -0.3655
 4010TIP3   OH211968   5.004   0.697   2.661  0.3960  0.1845  0.8254
 4010TIP3    H111969   4.955   0.760   2.608  2.8320  2.0208  0.6626
 4010TIP3    H211970   5.005   0.617   2.608  0.6787  1.2366 -0.8213
 4011TIP3   OH211971   2.402   2.490   0.515 -0.4349  0.3281 -0.1604
 4011TIP3    H111972   2.452   2.445   0.448  0.3072  0.3941  0.3448
 4011TIP3    H211973   2.337   2.426   0.544  1.0887 -0.6999  1.0753
 4012TIP3   OH211974   4.127   4.009   3.608  0.3376 -0.2806  0.5019
 4012TIP3    H111975   4.097   3.944   3.672 -0.8233  1.4101  1.7148
 4012TIP3    H211976   4.047   4.034   3.560  0.4537  1.4311  1.1615
 4013TIP3   OH211977   6.701   3.986   2.062  0.1355  0.0846  0.1114
 4013TIP3    H111978   6.614   3.956   2.037  0.4962 -0.2189 -0.8264
 4013TIP3    H211979   6.761   3.929   2.014  0.8365  1.3377 -0.5490
 4014TIP3   OH211980   5.838   2.898   1.102 -0.6195 -0.4840  0.0836
 4014TIP3    H111981   5.843   2.805   1.078 -0.6473 -0.3853 -0.3116
 4014TIP3    H211982   5.902   2.941   1.045 -0.9094 -0.2005 -0.0328
 4015TIP3   OH211983   1.947   2.096   3.016 -0.5670 -0.0651 -0.0375
 4015TIP3    H111984   2.040   2.111   3.035 -1.5560  3.1958  2.6984
 4015TIP3    H211985   1.915   2.047   3.091 -1.5284  0.9064  0.2052
 4016TIP3   OH211986   4.657   2.624   1.368 -0.2807  0.0013  0.0587
 4016TIP3    H111987   4.575   2.626   1.418 -0.8836  0.7708 -0.9177
 4016TIP3    H211988   4.716   2.571   1.420 -1.5251 -0.8727  0.6191
 4017TIP3   OH211989   3.578   3.144   2.701 -0.3169  0.0095  0.1252
 4017TIP3    H111990   3.611   3.093   2.775 -1.5525  0.4226  0.9631
 4017TIP3    H211991   3.564   3.079   2.631  0.9599 -0.3587  0.1988
 4018TIP3   OH211992   6.350   3.701   2.233  0.0184  0.1403  0.2620
 4018TIP3    H111993   6.299   3.739   2.161 -0.2191  0.4621  0.5989
 4018TIP3    H211994   6.408   3.638   2.190 -0.7015 -0.2696 -0.1221
 4019TIP3   OH211995   5.799   6.279   0.589  0.4823  0.1678  0.4078
 4019TIP3    H111996   5.820   6.187   0.606 -1.0997 -0.0099  1.4768
 4019TIP3    H211997   5.805   6.287   0.494 -1.7850 -1.6818  0.0532
 4020TIP3   OH211998   6.042   2.404   3.480 -0.5907  0.3169  0.1053
 4020TIP3    H111999   5.968   2.463   3.493 -0.1129  0.6539  1.3834
 4020TIP3    H212000   6.035   2.376   3.389 -1.1453  1.8964 -0.3574
 4021TIP3   OH212001   4.757   3.874   3.512  0.0722 -0.4779 -0.3899
 4021TIP3    H112002   4.662   3.868   3.505  0.1226 -1.1692 -0.4589
 4021TIP3    H212003   4.788   3.783   3.508  0.8827 -0.1445 -2.3115
 4022TIP3   OH212004   3.840   2.987   2.727 -0.0762  0.2848  0.0905
 4022TIP3    H112005   3.880   3.063   2.768 -0.5962  1.3788 -1.4056
 4022TIP3    H212006   3.818   3.015   2.638  3.5347 -2.7972 -1.9382
 4023TIP3   OH212007   7.510   5.734   2.630  0.7878  0.1698  0.0712
 4023TIP3    H112008   7.415   5.740   2.632  0.7342 -0.3828 -0.7902
 4023TIP3    H212009   7.540   5.815   2.671 -0.0579 -0.4520  1.9539
 4024TIP3   OH212010   5.932   5.059   3.605  0.2409 -0.3395  0.0654
 4024TIP3    H112011   5.913   4.969   3.580 -0.9783  0.0215 -0.3457
 4024TIP3    H212012   5.896   5.068   3.694 -0.4565 -0.0154 -0.2378
 4025TIP3   OH212013   6.697   2.540   2.080 -0.2522  0.0185 -0.6838
 4025TIP3    H112014   6.741   2.574   2.158  0.0878  0.3203 -1.0046
 4025TIP3    H212015   6.626   2.485   2.114 -0.8674  1.1175 -0.1678
 4026TIP3   OH212016   1.281   6.658   1.958  0.9327 -0.7697  0.2040
 4026TIP3    H112017   1.247   6.730   1.905  0.5579 -0.3361  1.0265
 4026TIP3    H212018   1.284   6.584   1.898 -1.3260 -0.7796  0.0553
 4027TIP3   OH212019   8.403   6.670   2.461 -0.5173  0.1553 -0.2369
 4027TIP3    H112020   8.429   6.608   2.393 -2.4306 -1.0474  0.0681
 4027TIP3    H212021   8.423   6.756   2.425  1.5591 -0.5903 -0.9381
 4028TIP3   OH212022   7.825   2.647   3.766 -1.0600 -0.2388  0.0934
 4028TIP3    H112023   7.735   2.644   3.735 -0.8156 -0.2033 -0.6310
 4028TIP3    H212024   7.877   2.619   3.691 -0.4547 -0.0512  0.4390
 4029TIP3   OH212025   5.713   4.858   2.210  0.1615  0.4158  0.0017
 4029TIP3    H112026   5.644   4.923   2.220  1.2695  1.5801  0.1364
 4029TIP3    H212027   5.701   4.799   2.284 -3.1300 -1.7227 -2.1117
 4030TIP3   OH212028   7.360   4.376   2.096  0.6665  0.0164 -0.5725
 4030TIP3    H112029   7.265   4.378   2.107  0.6952 -0.8007 -0.1614
 4030TIP3    H212030   7.382   4.283   2.092  1.6675  0.1609  1.2974
 4031TIP3   OH212031   5.225   4.611   2.880  0.1400  0.0393  0.5500
 4031TIP3    H112032   5.177   4.592   2.961  3.2127 -1.1924  2.1614
 4031TIP3    H212033   5.172   4.571   2.811 -1.3846 -0.8644  2.2099
 4032TIP3   OH212034   8.208   5.130   3.408 -0.0819 -0.3262 -0.1583
 4032TIP3    H112035   8.234   5.121   3.500  2.1620 -1.0444 -0.8050
 4032TIP3    H212036   8.261   5.203   3.376 -3.4083  2.2449 -0.0579
 4033TIP3   OH212037   7.573   4.209   1.208 -0.2417 -0.1210  0.1872
 4033TIP3    H112038   7.581   4.298   1.243 -1.6709  0.8901 -1.9658
 4033TIP3    H212039   7.635   4.207   1.134 -1.7251 -0.2162 -1.0739
 4034TIP3   OH212040   0.317   3.489   1.123  0.1258 -0.0368 -0.0486
 4034TIP3    H112041   0.318   3.584   1.122 -0.8764  0.0306 -3.4990
 4034TIP3    H212042   0.232   3.466   1.161  0.5292  0.4138  1.1478
 4035TIP3   OH212043   0.032   2.810   3.488  0.7279  0.0156 -0.7513
 4035TIP3    H112044   0.083   2.805   3.569  0.2575 -0.9695 -0.5087
 4035TIP3    H212045  -0.033   2.878   3.506  0.5092 -0.3248 -0.2273
 4036TIP3   OH212046   7.214   2.273   0.581  0.6104  0.0747 -0.4682
 4036TIP3    H112047   7.221   2.276   0.676 -1.6061  0.2543 -0.2674
 4036TIP3    H212048   7.271   2.343   0.550 -1.0422  2.1099  0.9342
 4037TIP3   OH212049   6.916   3.533   0.892  0.3612  0.5126  0.4615
 4037TIP3    H112050   6.828   3.565   0.912 -0.1645 -0.2476 -0.5605
 4037TIP3    H212051   6.974   3.608   0.907 -0.5398  1.1991  0.5268
 4038TIP3   OH212052   6.219   3.500   1.886 -0.2341 -0.5510 -0.5653
 4038TIP3    H112053   6.251   3.442   1.955 -0.5551 -0.7152 -0.5583
 4038TIP3    H212054   6.258   3.585   1.908 -0.9847 -0.4183  0.2758
 4039TIP3   OH212055   7.468   3.591   2.325 -0.3125  0.5120  0.1618
 4039TIP3    H112056   7.403   3.551   2.382 -0.4979 -0.5499 -0.7772
 4039TIP3    H212057   7.476   3.530   2.252  1.3908  0.8615  0.0408
 4040TIP3   OH212058   8.402   3.728   3.052 -0.3126  0.6667 -0.3878
 4040TIP3    H112059   8.448   3.752   3.132 -1.5582  0.1290  0.5034
 4040TIP3    H212060   8.440   3.643   3.027  1.2469  1.6055 -1.3108
 4041TIP3   OH212061   7.442   5.544   3.047  0.1148 -0.0189  0.1939
 4041TIP3    H112062   7.368   5.545   3.108  0.2414  0.3160  0.3409
 4041TIP3    H212063   7.409   5.496   2.971 -0.6364  1.1303 -0.2117
 4042TIP3   OH212064   6.847   5.596   1.636  0.5898  0.6277  0.0202
 4042TIP3    H112065   6.907   5.551   1.695  0.0788 -0.9629 -0.6493
 4042TIP3    H212066   6.764   5.549   1.645 -1.1136  3.7959  2.1955
 4043TIP3   OH212067   6.247   5.266   1.509  0.0498  0.7935 -0.6100
 4043TIP3    H112068   6.194   5.284   1.587  1.3234  1.4940  0.1103
 4043TIP3    H212069   6.255   5.351   1.465  0.9401  0.7787 -0.4817
 4044TIP3   OH212070   6.947   5.502   2.580 -0.3635 -0.2639  0.1914
 4044TIP3    H112071   6.935   5.455   2.663 -0.3490  0.0313  0.3596
 4044TIP3    H212072   7.031   5.547   2.590 -0.3662 -0.2200  0.0193
 4045TIP3   OH212073   6.852   2.531   1.145  0.3776 -0.4909 -0.3613
 4045TIP3    H112074   6.860   2.516   1.050  1.0847 -0.4610 -0.3087
 4045TIP3    H212075   6.910   2.466   1.184 -0.2359 -0.7745  0.0703
 4046TIP3   OH212076   2.368   1.364   6.611 -0.1274  0.3483  0.3813
 4046TIP3    H112077   2.399   1.449   6.579  1.2611  0.1059  1.0366
 4046TIP3    H212078   2.391   1.363   6.704  0.4157 -0.9746  0.2511
 4047TIP3   OH212079   8.412   2.750   4.056  0.3002 -0.5479  0.0565
 4047TIP3    H112080   8.350   2.784   4.120 -1.3840 -1.8990 -0.8333
 4047TIP3    H212081   8.437   2.826   4.005 -0.5978  0.0198  0.4412
 4048TIP3   OH212082   8.457   4.333   2.504 -0.1340  0.1069  0.3400
 4048TIP3    H112083   8.372   4.346   2.462 -0.1323  0.8833  0.5840
 4048TIP3    H212084   8.490   4.252   2.465 -0.6990  0.1501 -0.2344
 4049TIP3   OH212085   0.300   3.761   1.185  0.4268  0.8523 -0.0621
 4049TIP3    H112086   0.357   3.834   1.163  0.9653  0.1679 -0.9850
 4049TIP3    H212087   0.301   3.757   1.281  1.3188  1.3251 -0.0550
 4050TIP3   OH212088   8.095   3.851   4.111 -0.0511  0.2797  0.0595
 4050TIP3    H112089   8.033   3.834   4.040 -0.2694  2.4934 -0.2943
 4050TIP3    H212090   8.145   3.927   4.082  1.4788 -0.2457  1.2418
 4051TIP3   OH212091   7.294   2.146   1.173  0.0406 -0.2397  0.4047
 4051TIP3    H112092   7.354   2.088   1.127 -1.2063  1.0101 -2.9730
 4051TIP3    H212093   7.350   2.213   1.212  1.1299 -1.3238  0.7314
 4052TIP3   OH212094   7.135   5.160   1.572  0.3186 -0.2631  0.0950
 4052TIP3    H112095   7.073   5.094   1.542 -1.6497  1.6658 -0.2006
 4052TIP3    H212096   7.168   5.126   1.655 -2.0348 -0.7622  0.8474
 4053TIP3   OH212097   1.639   6.807   6.843  0.4287  0.3323  0.4202
 4053TIP3    H112098   1.557   6.828   6.888 -0.1309  0.2119 -0.5037
 4053TIP3    H212099   1.662   6.887   6.796  0.8611  0.3803  0.7196
 4054TIP3   OH212100   6.761   2.861   2.129  0.0234 -0.2877  0.6323
 4054TIP3    H112101   6.742   2.901   2.044 -1.3830 -1.7333  0.2340
 4054TIP3    H212102   6.824   2.792   2.109 -0.7433 -1.0069  0.6500
 4055TIP3   OH212103   7.873   6.456   2.633 -0.1010  0.3314  0.1464
 4055TIP3    H112104   7.847   6.535   2.680 -1.6281  0.3463 -0.6865
 4055TIP3    H212105   7.955   6.480   2.590  0.3706  0.8783  1.3337
 4056TIP3   OH212106   6.741   6.172   1.357 -0.2002  0.3919 -0.2278
 4056TIP3    H112107   6.711   6.194   1.269  0.0579 -0.6971 -0.5948
 4056TIP3    H212108   6.830   6.207   1.362  0.6575 -1.5581 -1.2330
 4057TIP3   OH212109   7.292   6.273   0.944  0.2509 -0.3882 -0.1050
 4057TIP3    H112110   7.299   6.274   1.039 -0.0989 -0.1567 -0.0792
 4057TIP3    H212111   7.209   6.317   0.926 -0.4200 -1.7574 -0.4501
 4058TIP3   OH212112   8.020   6.630   3.140  0.1506 -0.0501  0.2554
 4058TIP3    H112113   8.034   6.719   3.107 -0.0733 -0.4049 -0.7916
 4058TIP3    H212114   8.041   6.636   3.234 -0.7372  1.3201  0.3890
 4059TIP3   OH212115   6.373   3.714   1.951  0.0526  0.2397 -0.4553
 4059TIP3    H112116   6.414   3.783   1.899  1.7501 -1.0174 -0.8284
 4059TIP3    H212117   6.443   3.650   1.965 -1.2444 -0.9585  0.6754
 4060TIP3   OH212118   7.641   4.446   1.738  0.3787 -0.1462 -0.0242
 4060TIP3    H112119   7.679   4.482   1.658  0.8198 -0.2675  0.1320
 4060TIP3    H212120   7.716   4.425   1.794  0.0632  0.2654  0.5651
 4061TIP3   OH212121   1.191   0.498   1.124  0.0099  0.4560  0.1352
 4061TIP3    H112122   1.167   0.539   1.207  0.0499  0.6968  0.0286
 4061TIP3    H212123   1.107   0.482   1.080 -0.1605 -1.9479  1.2901
 4062TIP3   OH212124   4.217   0.574   6.467 -0.5029 -0.0788  0.2649
 4062TIP3    H112125   4.232   0.631   6.391 -0.3927  0.8736  0.9929
 4062TIP3    H212126   4.172   0.630   6.530 -0.3544 -0.7890  1.0065
 4063TIP3   OH212127   4.840   4.208   2.147  0.0018  1.2941 -0.0420
 4063TIP3    H112128   4.898   4.240   2.216  1.3405  0.1761 -0.6389
 4063TIP3    H212129   4.861   4.261   2.071  0.0329  1.0913 -0.1754
 4064TIP3   OH212130   7.225   3.487   1.711 -0.4484  0.0778  0.4822
 4064TIP3    H112131   7.316   3.514   1.722 -0.8487  1.4205  0.6401
 4064TIP3    H212132   7.208   3.499   1.618 -0.7989  0.9744  0.6524
 4065TIP3   OH212133   7.742   5.735   4.011 -0.0797 -0.3770 -0.3143
 4065TIP3    H112134   7.780   5.734   4.098  0.1792  0.7621 -0.4087
 4065TIP3    H212135   7.793   5.801   3.963 -1.4799  0.4208 -0.7451
 4066TIP3   OH212136   6.616   5.753   0.521 -0.6802  0.2342 -0.5458
 4066TIP3    H112137   6.589   5.828   0.574 -2.2934 -1.2754  0.8528
 4066TIP3    H212138   6.542   5.692   0.527  1.1844 -2.0795 -0.4366
 4067TIP3   OH212139   4.673   6.158   0.354  0.0147  0.4793  0.1730
 4067TIP3    H112140   4.650   6.250   0.365  2.7928  1.3763 -1.1128
 4067TIP3    H212141   4.609   6.125   0.291 -0.8465  1.5833  0.4489
 4068TIP3   OH212142   1.462   7.766   6.358 -0.1989  0.2818 -0.1516
 4068TIP3    H112143   1.468   7.725   6.272  1.6797  0.1251  0.0399
 4068TIP3    H212144   1.391   7.719   6.402  0.5495 -1.3870 -0.6883
 4069TIP3   OH212145   5.771   6.153   2.010  0.4926 -0.3782 -0.5034
 4069TIP3    H112146   5.723   6.145   2.092 -0.1941  0.0591 -0.8539
 4069TIP3    H212147   5.863   6.158   2.035  0.3853 -1.6357  0.1609
 4070TIP3   OH212148   7.135   3.971   4.446  0.3290 -0.5389  0.3722
 4070TIP3    H112149   7.073   3.923   4.392 -1.6350  1.1799  1.0287
 4070TIP3    H212150   7.221   3.943   4.415 -0.7627 -1.7114 -1.6888
 4071TIP3   OH212151   5.272   2.381   2.150  0.4313  0.1348 -0.4780
 4071TIP3    H112152   5.303   2.470   2.136  0.3564  0.0738 -1.0471
 4071TIP3    H212153   5.283   2.338   2.065 -1.3214  0.1619 -0.7452
 4072TIP3   OH212154   0.158   6.207   3.281  0.1510 -0.3030 -0.6684
 4072TIP3    H112155   0.241   6.167   3.306  0.5881  0.7402 -0.4185
 4072TIP3    H212156   0.143   6.274   3.347 -0.6880 -0.2215 -0.9392
 4073TIP3   OH212157   8.468   5.463   1.203 -0.6551 -0.5578 -0.0216
 4073TIP3    H112158   8.486   5.544   1.250  1.0898 -1.2945  0.6188
 4073TIP3    H212159   8.376   5.470   1.178 -1.3744  0.2456  2.7085
 4074TIP3   OH212160   6.370   5.384   4.729  0.6574  0.5928  0.0753
 4074TIP3    H112161   6.275   5.382   4.741  0.6050  0.7427 -0.3026
 4074TIP3    H212162   6.400   5.297   4.756  0.5613  0.9713  1.4148
 4075TIP3   OH212163   7.340   1.143   0.845  0.0012 -0.1648  0.7020
 4075TIP3    H112164   7.431   1.123   0.871 -0.3515 -2.1310  0.5422
 4075TIP3    H212165   7.347   1.173   0.755  0.3212 -2.2348  0.0105
 4076TIP3   OH212166   8.337   3.961   1.980  0.0564  0.1928 -0.0609
 4076TIP3    H112167   8.249   3.939   2.009  0.2826 -0.7521 -0.0964
 4076TIP3    H212168   8.336   3.947   1.886  0.7195 -1.4510  0.1593
 4077TIP3   OH212169   0.113   4.577   0.403  0.0734 -0.1817  0.0062
 4077TIP3    H112170   0.153   4.497   0.370  0.0230 -0.0373 -0.4125
 4077TIP3    H212171   0.064   4.550   0.480 -2.4251 -1.1198 -1.8158
 4078TIP3   OH212172   4.845   2.502   2.573 -0.8792  0.2668  0.0789
 4078TIP3    H112173   4.871   2.576   2.517 -0.7523  0.2148  0.0693
 4078TIP3    H212174   4.812   2.436   2.513  0.0586 -0.1289 -0.0152
 4079TIP3   OH212175   3.467   6.374   6.669 -0.1583  0.1505 -0.3417
 4079TIP3    H112176   3.441   6.368   6.577  0.8413 -1.1028 -0.5449
 4079TIP3    H212177   3.508   6.290   6.688 -0.0921  0.5196  1.1731
 4080TIP3   OH212178   6.794   4.837   1.497  0.2497  0.0477 -0.0804
 4080TIP3    H112179   6.863   4.771   1.502  1.2574  1.1179  0.6452
 4080TIP3    H212180   6.780   4.850   1.403 -0.3046 -1.5288 -0.2236
 4081TIP3   OH212181   7.684   6.066   1.205 -0.0293  0.2387  0.3798
 4081TIP3    H112182   7.671   6.096   1.294  3.9302  2.1208  0.4400
 4081TIP3    H212183   7.668   6.143   1.150 -1.7900 -0.7270 -0.4984
 4082TIP3   OH212184   8.176   2.628   0.737 -0.2185 -0.4131 -0.2646
 4082TIP3    H112185   8.196   2.610   0.829  0.2092 -1.3779 -0.5413
 4082TIP3    H212186   8.202   2.549   0.691  0.3229  0.3692 -1.3317
 4083TIP3   OH212187   7.102   4.362   0.748 -0.0640  0.1350  0.2016
 4083TIP3    H112188   7.128   4.431   0.809  1.6996 -1.3296  1.1566
 4083TIP3    H212189   7.105   4.404   0.662  2.0422  1.0007  0.6636
 4084TIP3   OH212190   7.359   3.140   0.148 -0.3610  0.0372 -0.1623
 4084TIP3    H112191   7.322   3.159   0.062  0.5328 -1.5087 -0.9143
 4084TIP3    H212192   7.297   3.079   0.188 -0.5126  0.3497  0.0808
 4085TIP3   OH212193   6.620   2.072   0.530  0.7754  0.4444  0.2949
 4085TIP3    H112194   6.542   2.065   0.474  0.1721  1.7613  0.9648
 4085TIP3    H212195   6.638   1.982   0.557  0.7876 -0.1599 -1.6258
 4086TIP3   OH212196   5.052   3.482   2.309 -0.1058  0.0599 -0.8174
 4086TIP3    H112197   5.098   3.564   2.327 -2.2482  0.9378  0.7847
 4086TIP3    H212198   5.122   3.421   2.282  1.7890  1.7609  0.1174
 4087TIP3   OH212199   7.896   5.920   0.365 -0.1197  0.4066 -0.4067
 4087TIP3    H112200   7.832   5.849   0.362  0.3199  0.0079 -0.2002
 4087TIP3    H212201   7.849   5.992   0.408 -0.1508 -0.1669  0.5301
 4088TIP3   OH212202   6.010   3.814   3.815 -0.1562  0.2683 -0.5032
 4088TIP3    H112203   6.094   3.773   3.837 -1.5143 -1.4992  1.5274
 4088TIP3    H212204   6.008   3.894   3.867  0.0736  0.0875 -0.2172
 4089TIP3   OH212205   6.713   4.385   1.719 -0.5556  0.1010 -0.6495
 4089TIP3    H112206   6.788   4.328   1.736  0.6744  1.8312 -0.1049
 4089TIP3    H212207   6.711   4.395   1.624  1.0495  1.5013 -0.5642
 4090TIP3   OH212208   0.157   3.349   2.880  0.3424 -0.1267 -0.0775
 4090TIP3    H112209   0.190   3.334   2.791  0.2775 -0.3487 -0.0642
 4090TIP3    H212210   0.095   3.278   2.895 -1.2223  1.0882 -0.6411
 4091TIP3   OH212211   7.316   4.087   1.855 -0.5178  0.3568 -0.4165
 4091TIP3    H112212   7.331   4.147   1.782 -0.0364  1.5267  0.6276
 4091TIP3    H212213   7.392   4.098   1.911 -1.2611  0.0576  0.6639
 4092TIP3   OH212214   0.581   2.625   2.322 -0.2632  0.1315 -0.9197
 4092TIP3    H112215   0.500   2.577   2.303 -0.2473  0.1200 -0.9585
 4092TIP3    H212216   0.619   2.642   2.236 -0.5018  0.6210 -0.9272
 4093TIP3   OH212217   0.598   5.051   1.307 -0.0098  0.2597  0.7278
 4093TIP3    H112218   0.596   5.057   1.212 -0.0419 -1.3726  0.6247
 4093TIP3    H212219   0.570   5.138   1.336  0.4179  0.9046 -0.7409
 4094TIP3   OH212220   8.242   4.783   0.268 -0.1174 -0.0655  0.2004
 4094TIP3    H112221   8.274   4.783   0.358  0.1194  2.3610  0.1345
 4094TIP3    H212222   8.316   4.750   0.217  0.8563  1.5263  0.5496
 4095TIP3   OH212223   1.044   4.314   2.211 -0.3828  0.4855 -0.4458
 4095TIP3    H112224   1.054   4.357   2.296 -0.0961  0.3747 -0.4219
 4095TIP3    H212225   1.126   4.265   2.200 -1.0889 -0.8042 -0.0541
 4096TIP3   OH212226   8.396   3.105   1.077 -0.1485 -0.3594 -0.1345
 4096TIP3    H112227   8.362   3.024   1.038  1.6334 -0.6375 -1.1699
 4096TIP3    H212228   8.488   3.108   1.050 -0.1673  1.9685 -0.0393
 4097TIP3   OH212229   6.816   5.255   2.835  0.2579  0.3441 -0.0026
 4097TIP3    H112230   6.897   5.282   2.880  0.3848 -1.1279  0.6915
 4097TIP3    H212231   6.845   5.187   2.774 -0.5735 -0.8290  0.8866
 4098TIP3   OH212232   6.747   2.708   0.389  0.5706 -0.2836 -0.4916
 4098TIP3    H112233   6.810   2.724   0.459 -0.2997 -2.1962  0.7702
 4098TIP3    H212234   6.687   2.783   0.394  0.8453 -0.1096  0.4265
 4099TIP3   OH212235   5.049   5.186   3.992  0.3532  0.1296  0.4572
 4099TIP3    H112236   5.043   5.184   3.897 -0.5927  1.1108  0.4889
 4099TIP3    H212237   5.015   5.272   4.017 -0.1234 -0.4151  1.7258
 4100TIP3   OH212238   7.000   3.349   1.081 -0.3998  0.2472 -0.2499
 4100TIP3    H112239   6.977   3.433   1.041 -1.8192 -0.6361 -1.3326
 4100TIP3    H212240   7.070   3.370   1.143 -0.9954  2.2782 -0.2435
 4101TIP3   OH212241   8.416   6.747   2.055  0.5837  0.0128 -0.7571
 4101TIP3    H112242   8.333   6.702   2.071  0.8529 -0.3844 -0.4623
 4101TIP3    H212243   8.439   6.786   2.140  0.8632 -0.1575 -0.7541
 4102TIP3   OH212244   7.574   3.978   1.390  0.0913 -0.5614  0.1698
 4102TIP3    H112245   7.558   3.979   1.484 -1.2374 -1.9459 -0.0190
 4102TIP3    H212246   7.558   4.068   1.362 -2.1666 -0.7174  0.8617
 4103TIP3   OH212247   7.835   6.699   2.171  0.5428 -0.0397 -0.3206
 4103TIP3    H112248   7.835   6.707   2.075 -0.3236 -1.0272 -0.4103
 4103TIP3    H212249   7.752   6.656   2.191  0.9903 -0.3581  0.8367
 4104TIP3   OH212250   6.050   2.492   0.995 -0.1335  0.1373 -0.1405
 4104TIP3    H112251   6.137   2.454   0.985 -0.5674 -0.4455 -1.8341
 4104TIP3    H212252   5.994   2.441   0.937 -1.8216 -0.1429  1.6633
 4105TIP3   OH212253   0.027   3.781   1.561  0.0945  0.8160  0.4658
 4105TIP3    H112254   0.099   3.752   1.617  0.9536 -0.6426 -1.3763
 4105TIP3    H212255  -0.040   3.713   1.569 -0.6167  1.5872  1.2476
 4106TIP3   OH212256   0.129   5.905   0.015  0.1558 -0.3123 -0.3398
 4106TIP3    H112257   0.097   5.896   0.105  0.4176  0.5627 -0.1498
 4106TIP3    H212258   0.091   5.831  -0.032 -0.8781 -0.1535  0.2344
 4107TIP3   OH212259   2.175   0.078   2.216  0.0398  0.0460  0.1264
 4107TIP3    H112260   2.136  -0.008   2.199 -0.2502  0.3475 -0.7717
 4107TIP3    H212261   2.254   0.080   2.161  0.8555 -0.2094  1.2553
 4108TIP3   OH212262   8.510   3.301   2.401  0.2306 -0.0992  0.1406
 4108TIP3    H112263   8.516   3.337   2.312 -2.6750  1.0185  0.3485
 4108TIP3    H212264   8.425   3.257   2.403  0.5947 -0.7540  2.1670
 4109TIP3   OH212265   1.328   0.653   0.941 -0.7075 -0.2371 -0.0245
 4109TIP3    H112266   1.295   0.584   0.999 -3.2602 -1.4329 -2.8015
 4109TIP3    H212267   1.293   0.734   0.979 -1.0597 -0.8370  0.9564
 4110TIP3   OH212268   5.793   5.047   2.405 -0.6324  0.2081 -0.2943
 4110TIP3    H112269   5.830   4.965   2.374  1.1380  0.1772  1.7616
 4110TIP3    H212270   5.845   5.115   2.363  0.5242  0.1852  1.0359
 4111TIP3   OH212271   6.633   5.750   1.064 -0.1841 -0.2029  0.7736
 4111TIP3    H112272   6.593   5.804   1.133  0.2530  1.1243 -0.0013
 4111TIP3    H212273   6.724   5.740   1.092  0.0166  0.4163  0.3445
 4112TIP3   OH212274   4.009   4.429   2.087  0.5454 -0.1895 -0.6441
 4112TIP3    H112275   3.984   4.400   1.999  0.3538 -0.6710 -0.4366
 4112TIP3    H212276   3.926   4.438   2.134  0.6366  0.2526 -0.5666
 4113TIP3   OH212277   7.219   4.011   0.925  0.2650  0.4881  0.6665
 4113TIP3    H112278   7.222   4.091   0.872  1.3900  0.7012  1.0345
 4113TIP3    H212279   7.309   4.000   0.957 -0.2131 -0.0984  1.8437
 4114TIP3   OH212280   2.929   0.723   6.741  0.2526  0.3908 -0.8566
 4114TIP3    H112281   2.924   0.707   6.835 -0.4036  0.8079 -0.8153
 4114TIP3    H212282   3.022   0.738   6.724  0.6270 -1.4724 -0.5806
 4115TIP3   OH212283   6.738   4.966   0.063 -0.3881 -1.0488 -0.2582
 4115TIP3    H112284   6.819   5.013   0.041 -1.4720  0.0948 -1.9135
 4115TIP3    H212285   6.713   5.000   0.148 -1.3767  1.7834 -1.6086
 4116TIP3   OH212286   3.637   6.481   6.431  0.8481  0.1432  0.3002
 4116TIP3    H112287   3.677   6.394   6.429  0.5205 -0.0018 -1.2902
 4116TIP3    H212288   3.545   6.465   6.407  0.5029  0.7870  1.1833
 4117TIP3   OH212289   7.276   3.237   2.483 -0.1350 -0.5353 -0.2663
 4117TIP3    H112290   7.228   3.221   2.564  0.9117 -1.2814  0.2186
 4117TIP3    H212291   7.237   3.317   2.448 -0.8856 -0.4378  0.7539
 4118TIP3   OH212292   7.248   5.742   0.869 -0.2686 -0.0489 -0.1354
 4118TIP3    H112293   7.262   5.836   0.861 -0.2411 -0.0790 -0.4249
 4118TIP3    H212294   7.162   5.726   0.830 -0.5607 -0.0509  0.5018
 4119TIP3   OH212295   2.050   7.500   5.413 -0.1292 -0.2246 -0.2802
 4119TIP3    H112296   2.067   7.590   5.440  0.8248 -0.7091  0.7573
 4119TIP3    H212297   1.960   7.483   5.443 -0.7463  0.7420 -1.5098
 4120TIP3   OH212298   0.598   3.991   3.587 -0.3276  0.5210  0.8846
 4120TIP3    H112299   0.648   3.958   3.513  0.1758 -0.7602  1.7814
 4120TIP3    H212300   0.507   3.970   3.566 -0.2162  0.4317  0.4955
 4121TIP3   OH212301   1.542   5.198   5.351 -0.0076  0.1015 -0.2126
 4121TIP3    H112302   1.543   5.123   5.411  1.5167 -0.1341 -0.5197
 4121TIP3    H212303   1.449   5.220   5.342 -0.3107 -0.4036  1.5506
 4122TIP3   OH212304   6.647   3.876   0.757  0.2050 -0.4452  0.5572
 4122TIP3    H112305   6.554   3.897   0.752  0.2723  0.1355  1.6143
 4122TIP3    H212306   6.675   3.868   0.665 -0.9461 -0.9347  0.2480
 4123TIP3   OH212307   4.320   1.412   6.339  0.1896 -0.5486 -0.6403
 4123TIP3    H112308   4.289   1.337   6.390 -0.5033  0.0483 -0.1600
 4123TIP3    H212309   4.357   1.472   6.405 -3.0010  1.3639 -0.4725
 4124TIP3   OH212310   0.386   4.592   1.011 -0.3670 -0.3676  0.2617
 4124TIP3    H112311   0.426   4.673   0.980  0.8464 -0.9097  0.4018
 4124TIP3    H212312   0.390   4.598   1.106 -0.6297 -0.4268  0.2788
 4125TIP3   OH212313   8.095   4.985   1.541  0.1196 -0.3519  0.2412
 4125TIP3    H112314   8.079   5.048   1.471 -0.1585 -1.0110 -0.2989
 4125TIP3    H212315   8.154   4.920   1.502 -1.6530 -1.8367 -0.0582
 4126TIP3   OH212316   6.904   1.924   1.352 -0.1973 -0.2742 -0.8814
 4126TIP3    H112317   6.816   1.924   1.314 -1.1153  0.4123  1.1858
 4126TIP3    H212318   6.896   1.870   1.431  0.7023  1.6108  0.5223
 4127TIP3   OH212319   1.114   4.514   1.093  0.0450 -0.0736  0.3974
 4127TIP3    H112320   1.054   4.561   1.151  0.7473  0.7165  0.4923
 4127TIP3    H212321   1.166   4.583   1.051  0.3541 -0.7075 -0.2746
 4128TIP3   OH212322   7.217   4.340   0.075  0.0651 -0.0696  0.4382
 4128TIP3    H112323   7.301   4.348   0.031 -0.2723 -1.6821 -0.5366
 4128TIP3    H212324   7.225   4.395   0.153  1.2740  1.4353 -0.7312
 4129TIP3   OH212325   5.638   6.134   1.403 -0.3769  0.4262 -0.3887
 4129TIP3    H112326   5.693   6.082   1.461 -1.8602 -1.7664 -0.9047
 4129TIP3    H212327   5.693   6.209   1.379  0.8872  0.4281  2.3574
 4130TIP3   OH212328   6.513   4.999   3.709  0.1085 -0.0685 -0.1715
 4130TIP3    H112329   6.464   5.076   3.741 -1.0874 -0.2782 -1.4436
 4130TIP3    H212330   6.604   5.027   3.709 -0.1946  0.9535  0.5291
 4131TIP3   OH212331   7.660   5.146   1.151  0.5061 -0.1850 -0.9628
 4131TIP3    H112332   7.602   5.214   1.116 -0.1303 -1.1047 -1.7196
 4131TIP3    H212333   7.601   5.080   1.186  1.1124 -0.7081 -0.9210
 4132TIP3   OH212334   7.325   5.199   1.371  0.4396 -0.2538 -0.1755
 4132TIP3    H112335   7.260   5.171   1.435 -1.2495  1.1140 -1.2434
 4132TIP3    H212336   7.275   5.251   1.308  2.4831  0.3612 -1.3213
 4133TIP3   OH212337   5.552   3.839   2.382 -1.0091 -0.1730 -0.6941
 4133TIP3    H112338   5.563   3.907   2.447 -2.7524  1.4321 -2.0390
 4133TIP3    H212339   5.520   3.884   2.304 -0.3961 -2.2504 -2.2103
 4134TIP3   OH212340   5.099   4.923   0.485  0.0702 -0.4611  0.3122
 4134TIP3    H112341   5.143   4.974   0.417 -0.2978 -0.3969  0.1192
 4134TIP3    H212342   5.010   4.958   0.488 -0.0626 -0.8047  0.4726
 4135TIP3   OH212343   8.216   2.204   4.951 -0.1094  0.1010  0.1541
 4135TIP3    H112344   8.274   2.261   4.899 -0.4523  0.2810 -0.0311
 4135TIP3    H212345   8.276   2.148   4.999  0.3216  2.1432  2.0989
 4136TIP3   OH212346   6.475   4.663   1.590  0.3663 -0.0350  0.5434
 4136TIP3    H112347   6.396   4.621   1.557  0.1667 -0.1832  1.1927
 4136TIP3    H212348   6.478   4.747   1.545  0.1156 -0.2452  0.1338
 4137TIP3   OH212349   7.183   0.299   6.930 -0.0625  0.3847  0.1710
 4137TIP3    H112350   7.182   0.212   6.969  1.9069  1.1498  2.0128
 4137TIP3    H212351   7.171   0.283   6.836 -2.1810 -1.6678  0.7302
 4138TIP3   OH212352   5.687   4.912   2.788  0.0119 -0.0516 -0.0781
 4138TIP3    H112353   5.757   4.872   2.838 -0.4546 -1.6560 -0.6831
 4138TIP3    H212354   5.607   4.890   2.836 -0.1688  0.9004  0.0610
 4139TIP3   OH212355   7.034   4.932   1.392  0.0526 -0.2845 -0.0038
 4139TIP3    H112356   6.951   4.947   1.438  0.5884  0.1190  0.8353
 4139TIP3    H212357   7.045   4.837   1.393  0.7185 -0.1968  1.8746
 4140TIP3   OH212358   6.249   2.754   1.289 -0.4903 -0.3878  0.0184
 4140TIP3    H112359   6.324   2.786   1.239  0.2645 -1.0377  0.7232
 4140TIP3    H212360   6.217   2.832   1.336 -0.6285  0.0183 -0.7502
 4141TIP3   OH212361   7.964   5.735   0.819  0.0588  0.2778  0.1829
 4141TIP3    H112362   7.885   5.737   0.766  0.2938 -0.9796 -0.2257
 4141TIP3    H212363   7.981   5.642   0.835  1.8041  0.5014 -0.2628
 4142TIP3   OH212364   7.497   3.476   4.342  0.0528 -0.6376  0.0911
 4142TIP3    H112365   7.555   3.523   4.283  0.9194 -1.3723  0.3437
 4142TIP3    H212366   7.489   3.388   4.304 -2.3941 -0.0068 -0.9472
 4143TIP3   OH212367   6.850   3.244   0.840  0.1677  0.1667 -0.2169
 4143TIP3    H112368   6.778   3.235   0.902 -1.0853  1.8641 -1.3669
 4143TIP3    H212369   6.887   3.330   0.859 -0.3516  0.7959 -1.8934
 4144TIP3   OH212370   5.447   4.573   1.351 -0.0697 -0.2606 -0.2817
 4144TIP3    H112371   5.373   4.514   1.364  0.0090  0.1727  2.3574
 4144TIP3    H212372   5.471   4.561   1.259 -1.5919 -2.5161 -0.4252
 4145TIP3   OH212373   5.989   4.804   3.193  0.5142  0.2384 -0.0044
 4145TIP3    H112374   6.027   4.717   3.177  0.1465  0.2366 -0.8799
 4145TIP3    H212375   5.946   4.795   3.278  1.5390 -0.0726  0.4918
 4146TIP3   OH212376   6.568   6.963   3.897 -0.4665  0.3237  0.0081
 4146TIP3    H112377   6.620   6.890   3.928  0.2562  0.6727 -0.3769
 4146TIP3    H212378   6.536   7.006   3.976 -0.4380 -0.0841  0.2373
 4147TIP3   OH212379   1.443   2.006   1.734 -0.8686  0.0984 -0.4442
 4147TIP3    H112380   1.468   1.981   1.823  1.5551  1.6464 -0.6498
 4147TIP3    H212381   1.448   1.925   1.684  0.5167 -0.2675  0.2554
 4148TIP3   OH212382   6.243   5.253   2.790  0.1344  0.1543 -0.7953
 4148TIP3    H112383   6.238   5.341   2.826  0.1821  0.4518 -1.5040
 4148TIP3    H212384   6.329   5.221   2.815  0.1476  0.3438 -0.6059
 4149TIP3   OH212385   6.851   5.292   2.184 -0.1484  0.2885  0.1417
 4149TIP3    H112386   6.855   5.384   2.159  1.5218  0.2256  0.1671
 4149TIP3    H212387   6.772   5.286   2.238  0.9600  2.1799  2.0464
 4150TIP3   OH212388   6.352   4.899   2.157  0.1992  0.1071 -0.0510
 4150TIP3    H112389   6.318   4.863   2.239  1.9935  1.4311  1.2956
 4150TIP3    H212390   6.373   4.990   2.177 -0.3338  0.7508 -2.2780
 4151TIP3   OH212391   3.942   2.463   1.872 -1.0428 -0.1059  0.2661
 4151TIP3    H112392   3.905   2.438   1.956 -0.0323  0.9863  1.0451
 4151TIP3    H212393   4.024   2.414   1.867 -1.0594 -0.1021 -0.0548
 4152TIP3   OH212394   7.412   3.137   2.993  0.5518  0.0933  0.4865
 4152TIP3    H112395   7.318   3.130   3.010  0.2135  1.7902 -0.5617
 4152TIP3    H212396   7.445   3.048   3.009 -1.3397 -0.7192  0.1327
 4153TIP3   OH212397   7.350   5.051   2.723  0.2226 -0.3600  0.1818
 4153TIP3    H112398   7.293   5.117   2.685 -0.0027 -0.7899 -0.2254
 4153TIP3    H212399   7.336   4.972   2.670 -0.7983 -1.2301  1.7126
 4154TIP3   OH212400   6.815   3.867   2.581  0.1973 -0.2461  0.2459
 4154TIP3    H112401   6.781   3.779   2.566 -0.7706 -0.4850  3.4979
 4154TIP3    H212402   6.772   3.921   2.515 -0.8929 -1.8081 -0.3617
 4155TIP3   OH212403   0.340   3.785   2.343 -0.0171 -0.3927 -0.2094
 4155TIP3    H112404   0.343   3.830   2.428  0.0058  0.1918 -0.5125
 4155TIP3    H212405   0.250   3.753   2.336  0.1957 -1.1291  0.3806
 4156TIP3   OH212406   7.074   4.022   2.261  0.2658  0.0222  0.0135
 4156TIP3    H112407   7.145   4.043   2.323 -0.5073  0.2956  0.8270
 4156TIP3    H212408   7.003   4.081   2.286 -0.4079 -0.5678 -0.5046
 4157TIP3   OH212409   5.377   5.669   1.590  0.0074 -0.1701 -0.5181
 4157TIP3    H112410   5.371   5.623   1.673  0.4385  0.8849  0.1111
 4157TIP3    H212411   5.311   5.627   1.534  1.4550 -2.5799 -0.4792
 4158TIP3   OH212412   6.293   5.814   1.821 -0.3654  0.0132 -0.8136
 4158TIP3    H112413   6.298   5.816   1.726 -0.6395  0.4851 -0.8223
 4158TIP3    H212414   6.379   5.844   1.850 -0.6444  0.9242 -0.9194
 4159TIP3   OH212415   6.229   3.910   2.076  0.1471  0.1580 -0.0943
 4159TIP3    H112416   6.193   3.985   2.029  1.3927  0.9359  0.1703
 4159TIP3    H212417   6.267   3.855   2.008  0.3434  0.3865 -0.1701
 4160TIP3   OH212418   7.401   7.031   1.201 -0.5818 -0.2982  0.9812
 4160TIP3    H112419   7.313   7.062   1.221 -1.0234 -1.9430  1.7048
 4160TIP3    H212420   7.418   6.964   1.267  0.7978 -0.7329  0.2022
 4161TIP3   OH212421   7.653   5.619   2.108 -0.3125 -0.0149  0.2338
 4161TIP3    H112422   7.727   5.612   2.048  0.0098  0.4297  0.5783
 4161TIP3    H212423   7.584   5.566   2.067  0.1743 -0.3839 -0.1143
 4162TIP3   OH212424   1.636   5.237   2.912 -0.2930 -0.3057  0.6248
 4162TIP3    H112425   1.705   5.177   2.942  0.5014  0.9408  1.3445
 4162TIP3    H212426   1.683   5.304   2.862 -1.2471 -0.6255 -0.7264
 4163TIP3   OH212427   1.233   4.751   0.988 -0.0884  0.1906  0.3136
 4163TIP3    H112428   1.235   4.840   0.952  0.8033 -0.2652 -0.7745
 4163TIP3    H212429   1.308   4.748   1.047  0.2923 -0.0455 -0.1735
 4164TIP3   OH212430   5.940   5.400   2.614  0.1718  0.1755 -0.2578
 4164TIP3    H112431   5.880   5.325   2.616  0.7638 -0.2746  1.6464
 4164TIP3    H212432   6.019   5.367   2.573 -0.3079  0.3525 -1.3563
 4165TIP3   OH212433   6.256   4.299   1.945  0.2567  0.0070 -0.4367
 4165TIP3    H112434   6.193   4.366   1.919 -0.1422 -1.1922 -2.7983
 4165TIP3    H212435   6.222   4.219   1.904  0.9716 -1.5376  1.9238
 4166TIP3   OH212436   6.833   4.265   2.037 -0.3110 -0.0794  0.1331
 4166TIP3    H112437   6.775   4.340   2.023 -1.8662 -0.9766  1.5075
 4166TIP3    H212438   6.783   4.208   2.096  2.1124 -0.7414  1.5884
 4167TIP3   OH212439   4.224   5.832   2.684 -0.0498 -0.0033 -0.5054
 4167TIP3    H112440   4.216   5.912   2.632 -0.0412 -0.8665 -1.8598
 4167TIP3    H212441   4.140   5.787   2.672  0.6146 -1.0660 -1.2468
 4168TIP3   OH212442   5.246   5.163   1.434 -0.3031  0.2641 -0.2026
 4168TIP3    H112443   5.195   5.201   1.505 -0.8039 -0.4876 -0.1583
 4168TIP3    H212444   5.254   5.070   1.456  0.9212  0.3343 -0.3055
 4169TIP3   OH212445   8.471   6.172   2.777  1.0133 -0.2082  0.0729
 4169TIP3    H112446   8.486   6.157   2.871  1.9461 -0.0983 -0.0511
 4169TIP3    H212447   8.382   6.140   2.762  1.1415 -0.9659  0.8337
 4170TIP3   OH212448   8.011   3.729   1.367  0.3337 -0.0588 -0.1142
 4170TIP3    H112449   8.028   3.823   1.371 -0.4493  0.0888 -0.0717
 4170TIP3    H212450   7.917   3.723   1.348  0.2022 -0.8346  0.7565
 4171TIP3   OH212451   2.862   0.492   1.220  0.2435 -0.1712 -0.3660
 4171TIP3    H112452   2.798   0.518   1.287 -0.0159  1.2395 -1.1498
 4171TIP3    H212453   2.947   0.500   1.265  0.0100 -0.1989  0.0897
 4172TIP3   OH212454   6.363   4.675   1.974 -0.5061 -0.1379  0.2915
 4172TIP3    H112455   6.373   4.732   2.051 -1.3684  0.0455  0.2672
 4172TIP3    H212456   6.404   4.723   1.903  2.1523 -1.1880  1.0333
 4173TIP3   OH212457   6.223   4.811   2.389  0.3558  0.5591 -0.4440
 4173TIP3    H112458   6.196   4.721   2.406  3.7813 -0.5585 -0.4057
 4173TIP3    H212459   6.214   4.856   2.473  1.3461 -0.5376  0.2696
 4174TIP3   OH212460   5.310   6.416   2.030  0.0425 -0.4407  0.1347
 4174TIP3    H112461   5.295   6.459   1.946 -2.2165 -1.6055 -0.0946
 4174TIP3    H212462   5.404   6.426   2.046  0.1087  1.7289 -1.4389
 4175TIP3   OH212463   6.633   5.735   1.490  0.0639 -0.6724 -0.3131
 4175TIP3    H112464   6.707   5.697   1.536  0.4022 -1.4974 -1.5349
 4175TIP3    H212465   6.558   5.716   1.547  0.5224 -1.3931  0.0617
 4176TIP3   OH212466   6.998   5.011   0.055  0.0484 -0.6960  0.3462
 4176TIP3    H112467   7.035   5.043  -0.027  0.5032 -2.3640 -0.1221
 4176TIP3    H212468   7.041   5.064   0.123  2.5910 -1.9015 -0.2584
 4177TIP3   OH212469   5.996   5.904   2.175  0.0825 -0.0931 -0.6485
 4177TIP3    H112470   6.059   5.839   2.207 -0.0626 -0.9199 -1.9819
 4177TIP3    H212471   5.976   5.957   2.251 -0.2098 -1.9646  0.6272
 4178TIP3   OH212472   6.546   5.213   0.423 -0.0714 -0.7059  0.2830
 4178TIP3    H112473   6.495   5.293   0.431 -1.6855 -1.5850 -0.8893
 4178TIP3    H212474   6.618   5.223   0.486  0.3658  2.0928 -0.6255
 4179TIP3   OH212475   6.269   4.929   0.832  0.2986 -0.1915 -0.0173
 4179TIP3    H112476   6.189   4.877   0.825  0.5552 -0.3798 -1.9902
 4179TIP3    H212477   6.263   4.971   0.917 -2.3907  0.5853 -0.5399
 4180TIP3   OH212478   6.637   4.800   2.360 -0.4915 -0.3013 -0.2746
 4180TIP3    H112479   6.696   4.739   2.404  0.3520  0.5811 -0.1842
 4180TIP3    H212480   6.573   4.743   2.317  1.3921 -1.3367 -1.7848
 4181TIP3   OH212481   7.068   2.515   3.327 -0.4870  0.1892 -0.1176
 4181TIP3    H112482   7.084   2.553   3.413  0.0723  1.4071 -0.7458
 4181TIP3    H212483   6.990   2.461   3.338 -0.2881  0.1651  1.2010
 4182TIP3   OH212484   7.102   4.376   1.791 -0.1017 -0.4311  0.1890
 4182TIP3    H112485   7.197   4.363   1.793 -0.2705 -1.8512 -0.7743
 4182TIP3    H212486   7.070   4.331   1.869 -0.0409 -0.2960  0.2942
 4183TIP3   OH212487   7.320   3.539   0.867  0.2718  1.0347 -0.2236
 4183TIP3    H112488   7.369   3.541   0.950 -0.6787  0.2910  0.3815
 4183TIP3    H212489   7.277   3.453   0.868  0.1855  1.0614 -1.4590
 4184TIP3   OH212490   8.442   2.842   1.887 -0.0667  0.1177 -0.0962
 4184TIP3    H112491   8.488   2.901   1.947 -0.3251 -0.9792  1.1731
 4184TIP3    H212492   8.512   2.805   1.832  0.1490  1.2353 -0.5966
 4185TIP3   OH212493   0.302   2.704   3.076 -0.4519 -0.6434  0.7154
 4185TIP3    H112494   0.237   2.724   3.144 -0.4691 -0.7242  0.7232
 4185TIP3    H212495   0.286   2.769   3.008  1.6549  1.5023  2.1890
 4186TIP3   OH212496   7.346   6.031   0.840 -0.6852 -0.0260 -0.4303
 4186TIP3    H112497   7.327   6.060   0.751 -2.1314  1.3301  0.2976
 4186TIP3    H212498   7.322   6.105   0.895  0.3636 -0.7826  1.0896
 4187TIP3   OH212499   7.153   4.995   1.134  0.4424  0.6833  0.0836
 4187TIP3    H112500   7.138   5.087   1.113 -1.1627  0.5101  0.3807
 4187TIP3    H212501   7.119   4.985   1.223  0.3475 -0.2636 -0.0543
 4188TIP3   OH212502   6.587   5.240   0.920  0.1805  0.0253  0.5512
 4188TIP3    H112503   6.597   5.326   0.879  0.8099  0.0517  0.7650
 4188TIP3    H212504   6.531   5.191   0.859  0.1532  0.4519  0.2348
 4189TIP3   OH212505   6.938   2.559   3.988 -0.3240  0.6356  0.6642
 4189TIP3    H112506   6.995   2.587   4.059 -1.6221  0.6060  1.7321
 4189TIP3    H212507   6.870   2.626   3.984  0.1273  1.0057 -1.0183
 4190TIP3   OH212508   6.043   3.874   2.981  0.5119 -0.1232 -0.2206
 4190TIP3    H112509   5.969   3.926   2.950 -0.2735 -1.4618 -0.5898
 4190TIP3    H212510   6.004   3.799   3.026  1.6224  1.6362  3.9130
 4191TIP3   OH212511   6.096   5.607   1.981 -0.0092  0.4301 -0.1177
 4191TIP3    H112512   6.190   5.590   1.992 -0.0843 -2.1991 -2.9123
 4191TIP3    H212513   6.053   5.546   2.040  0.0014 -0.3412 -0.8970
 4192TIP3   OH212514   7.925   8.007   1.800  0.5184  0.3361  0.3773
 4192TIP3    H112515   7.944   8.040   1.713  1.7369  1.3650  1.0246
 4192TIP3    H212516   7.864   7.935   1.785  0.6758  0.5324 -1.3131
 4193TIP3   OH212517   0.245   5.909   3.606  0.0168  0.0295  0.1231
 4193TIP3    H112518   0.302   5.966   3.555 -0.2055 -0.4886 -0.7162
 4193TIP3    H212519   0.297   5.885   3.683  0.5566  0.3676 -0.1346
 4194TIP3   OH212520   1.346   4.972   1.520  0.1157  0.4935  0.5074
 4194TIP3    H112521   1.340   4.996   1.428  1.9734 -0.9959 -0.0337
 4194TIP3    H212522   1.296   4.891   1.527  0.9309 -0.0146  0.5491
 4195TIP3   OH212523   1.192   5.877   2.042  0.4928 -0.2570 -0.1796
 4195TIP3    H112524   1.172   5.970   2.031  2.3894  0.1700 -0.2774
 4195TIP3    H212525   1.168   5.838   1.958 -0.4913  0.1220 -0.0737
 4196TIP3   OH212526   7.806   4.533   3.328 -0.4663  0.4666  0.7057
 4196TIP3    H112527   7.711   4.531   3.329 -0.4601  0.4605  1.1577
 4196TIP3    H212528   7.828   4.627   3.326 -0.5266  0.4909 -3.1576
 4197TIP3   OH212529   7.646   4.194   4.682  0.1420 -0.2005 -0.4983
 4197TIP3    H112530   7.660   4.224   4.772 -1.6391 -0.5303 -0.0809
 4197TIP3    H212531   7.637   4.275   4.631  0.0351 -0.0132 -0.1843
 4198TIP3   OH212532   1.013   4.795   4.676  0.4544 -0.2260 -0.3391
 4198TIP3    H112533   0.993   4.702   4.671  1.7032 -0.4838 -0.5351
 4198TIP3    H212534   1.030   4.821   4.586 -1.0444  0.4610 -0.4425
 4199TIP3   OH212535   6.948   3.451   3.025  0.7198 -0.0566 -0.5645
 4199TIP3    H112536   6.982   3.516   3.086  1.0762 -0.9393  0.1837
 4199TIP3    H212537   7.009   3.378   3.031 -0.9934 -1.4250  0.3754
 4200TIP3   OH212538   0.680   6.001   3.465 -0.0919 -0.1374  0.2967
 4200TIP3    H112539   0.706   5.922   3.419 -1.0228 -0.5698  0.5000
 4200TIP3    H212540   0.655   5.971   3.552 -1.0520  0.2975  0.1735
 4201TIP3   OH212541   0.709   5.247   3.059 -0.1029  0.0464 -0.5293
 4201TIP3    H112542   0.786   5.272   3.008 -0.6262  2.4218 -0.2191
 4201TIP3    H212543   0.654   5.199   2.998  1.0035 -0.4708 -1.1326
 4202TIP3   OH212544   0.409   5.454   3.360  0.3018 -0.2576  0.2064
 4202TIP3    H112545   0.448   5.443   3.447  0.8931 -1.7028 -0.2252
 4202TIP3    H212546   0.435   5.542   3.334  1.9367 -0.5942  0.6138
 4203TIP3   OH212547   6.259   4.486   2.142  0.4263 -0.2516  0.1358
 4203TIP3    H112548   6.293   4.553   2.082 -1.7550  1.0209  0.2574
 4203TIP3    H212549   6.250   4.408   2.088 -1.5394  0.8840 -1.2358
 4204TIP3   OH212550   0.988   7.254   2.948  0.2612  0.5748 -0.0066
 4204TIP3    H112551   1.020   7.217   3.030  1.0967  0.0672 -0.5546
 4204TIP3    H212552   0.917   7.313   2.974 -1.6928 -2.0369  0.8287
 4205TIP3   OH212553   8.057   2.366   3.343  0.2546  0.5676 -0.3208
 4205TIP3    H112554   7.989   2.372   3.277 -0.6849  2.1607  0.7501
 4205TIP3    H212555   8.077   2.273   3.350 -0.8738  0.2270 -1.5812
 4206TIP3   OH212556   8.313   3.342   3.737 -0.0454 -0.2283 -0.2113
 4206TIP3    H112557   8.242   3.302   3.688  0.8228 -0.8558 -0.9606
 4206TIP3    H212558   8.351   3.407   3.677  0.2843 -0.1914  0.0335
 4207TIP3   OH212559   7.898   3.584   2.058 -0.7058  0.2004 -0.2690
 4207TIP3    H112560   7.945   3.544   1.985 -1.1473  1.0834 -1.0408
 4207TIP3    H212561   7.945   3.665   2.076  0.6311 -0.9948  1.7807
 4208TIP3   OH212562   1.068   5.241   4.220  0.0073  0.0483 -0.2613
 4208TIP3    H112563   1.050   5.148   4.210 -0.7415  0.0090  1.4086
 4208TIP3    H212564   1.149   5.244   4.271  1.2833  0.3047 -2.2407
 4209TIP3   OH212565   0.048   4.697   3.195 -0.0368  0.3048 -0.2398
 4209TIP3    H112566   0.130   4.733   3.162 -0.6657  1.3391 -0.7122
 4209TIP3    H212567  -0.020   4.737   3.140 -0.9061  0.0014  0.5901
 4210TIP3   OH212568   0.287   5.797   1.082 -0.4009 -0.3669  0.2947
 4210TIP3    H112569   0.377   5.769   1.099 -0.1297 -1.5606 -2.7796
 4210TIP3    H212570   0.295   5.889   1.057  0.1232 -0.7650 -1.0506
 4211TIP3   OH212571   1.555   3.990   2.793  0.3999  0.2652 -0.4558
 4211TIP3    H112572   1.562   4.022   2.883  0.2191 -0.6123 -0.1252
 4211TIP3    H212573   1.644   3.967   2.769  0.4143  0.2867 -0.4245
 4212TIP3   OH212574   8.152   3.318   3.211  0.0143  0.9903  0.2528
 4212TIP3    H112575   8.114   3.276   3.134 -1.4955  0.5916  1.2050
 4212TIP3    H212576   8.114   3.405   3.212 -0.4766  0.7709  0.9088
 4213TIP3   OH212577   1.940   5.384   3.127  0.1844  0.2012 -1.0437
 4213TIP3    H112578   1.901   5.314   3.179 -0.5190  1.1072 -0.3350
 4213TIP3    H212579   2.022   5.405   3.173  0.3887 -0.1490 -1.2491
 4214TIP3   OH212580   0.396   6.361   2.415 -0.0317 -0.0181 -0.0025
 4214TIP3    H112581   0.412   6.344   2.507 -0.0929  0.3693  0.0836
 4214TIP3    H212582   0.352   6.282   2.383 -0.7275  0.1664  0.4901
 4215TIP3   OH212583   1.072   6.821   1.770  0.2811 -0.1744 -0.2417
 4215TIP3    H112584   0.992   6.851   1.814  0.3929  0.0313 -0.1773
 4215TIP3    H212585   1.043   6.749   1.713  0.1921 -0.6488  0.4051
 4216TIP3   OH212586   8.300   3.472   0.716 -0.0664 -0.1197  0.1475
 4216TIP3    H112587   8.205   3.481   0.727 -0.2131 -0.6970 -0.5872
 4216TIP3    H212588   8.329   3.558   0.686 -0.1334  0.4999  1.7886
 4217TIP3   OH212589   2.974   5.854   2.624  0.8559  0.4394 -0.5289
 4217TIP3    H112590   2.944   5.943   2.644  0.3367 -0.1924  1.7103
 4217TIP3    H212591   3.070   5.861   2.625  0.8661  0.5462  2.0202
 4218TIP3   OH212592   1.098   5.509   2.507 -0.3208 -0.2426 -0.9247
 4218TIP3    H112593   1.036   5.437   2.494 -0.7349 -0.0655  0.0742
 4218TIP3    H212594   1.155   5.505   2.430 -0.9831 -0.9926 -1.3858
 4219TIP3   OH212595   8.463   5.901   3.701  0.6985 -0.1713 -0.1958
 4219TIP3    H112596   8.506   5.962   3.641  0.6135  0.2027  0.1194
 4219TIP3    H212597   8.401   5.853   3.647  1.9031 -1.0957 -0.7682
 4220TIP3   OH212598   7.879   5.315   3.115  0.0213  0.0769  0.5075
 4220TIP3    H112599   7.820   5.388   3.097 -1.1856 -0.9708  0.0605
 4220TIP3    H212600   7.928   5.341   3.193 -2.3025  0.2552  1.9599
 4221TIP3   OH212601   8.137   5.983   0.812  0.2268 -0.4004  0.3613
 4221TIP3    H112602   8.088   5.901   0.807  0.6201 -0.8429  2.8181
 4221TIP3    H212603   8.108   6.023   0.894  0.6151  1.5449 -0.4288
 4222TIP3   OH212604   6.955   4.659   6.881 -0.1197 -0.4828  0.0068
 4222TIP3    H112605   6.988   4.737   6.924 -0.1353  0.9727 -2.5051
 4222TIP3    H212606   6.928   4.601   6.952  0.9247  1.3348  1.9233
 4223TIP3   OH212607   2.685   7.503   5.746  0.4281 -0.2144  0.3074
 4223TIP3    H112608   2.772   7.467   5.731  0.0352 -0.5689 -1.1554
 4223TIP3    H212609   2.661   7.544   5.663 -1.3014 -1.1750  0.3065
 4224TIP3   OH212610   0.103   4.134   3.853  0.3809 -0.0369 -0.3804
 4224TIP3    H112611   0.113   4.201   3.920 -0.1250 -0.3168 -0.0219
 4224TIP3    H212612   0.136   4.054   3.894 -1.4226 -0.5600  0.1339
 4225TIP3   OH212613   7.767   4.217   2.874 -0.5015 -0.5344  0.3839
 4225TIP3    H112614   7.714   4.162   2.931  1.7543 -2.2842  0.8580
 4225TIP3    H212615   7.795   4.290   2.929 -0.8763 -0.5813  0.6350
 4226TIP3   OH212616   0.250   3.683   1.714 -0.3604 -0.2564  0.3588
 4226TIP3    H112617   0.253   3.753   1.780 -1.6416 -0.4861  0.6713
 4226TIP3    H212618   0.305   3.614   1.752 -0.5853 -0.1444  0.9032
 4227TIP3   OH212619   7.528   4.157   3.186 -0.0031  0.2606 -0.3692
 4227TIP3    H112620   7.510   4.121   3.273  0.5782 -0.2343 -0.4517
 4227TIP3    H212621   7.527   4.081   3.128  0.5648  0.4639 -0.6505
 4228TIP3   OH212622   1.877   3.727   3.477 -0.0008  0.3470  0.5575
 4228TIP3    H112623   1.826   3.728   3.396 -0.2084 -0.2504  0.6771
 4228TIP3    H212624   1.968   3.721   3.449 -0.1383 -1.0712  0.3852
 4229TIP3   OH212625   2.015   6.362   1.859  0.3323 -0.1802 -0.2820
 4229TIP3    H112626   2.007   6.382   1.766 -0.8599  0.4969 -0.0420
 4229TIP3    H212627   1.943   6.301   1.877 -0.4600  0.9845  0.5435
 4230TIP3   OH212628   7.262   3.000   2.749 -0.6074  0.1881 -0.2249
 4230TIP3    H112629   7.235   3.089   2.769 -1.7524 -0.7051  2.3240
 4230TIP3    H212630   7.181   2.949   2.746  0.0089 -0.7676 -1.8941
 4231TIP3   OH212631   7.881   3.943   3.546 -0.3110  0.5018 -0.0450
 4231TIP3    H112632   7.792   3.945   3.582  0.3345  0.9562  1.6111
 4231TIP3    H212633   7.886   4.019   3.488 -1.6279 -0.6862 -1.7628
 4232TIP3   OH212634   0.359   4.041   3.049 -0.2061 -0.8529 -0.5836
 4232TIP3    H112635   0.287   4.014   2.992  0.6217 -0.8773 -1.6459
 4232TIP3    H212636   0.433   3.988   3.020  0.9197  1.0816 -1.3161
 4233TIP3   OH212637   0.315   7.924   2.184  0.6774 -0.3181 -0.3389
 4233TIP3    H112638   0.300   7.841   2.229 -1.7219  0.4779  0.4164
 4233TIP3    H212639   0.295   7.991   2.250  0.4390  0.8585 -1.5774
 4234TIP3   OH212640   0.663   7.428   2.486  0.4428  0.3465 -0.6690
 4234TIP3    H112641   0.666   7.392   2.574  1.1762  1.5230 -0.1965
 4234TIP3    H212642   0.574   7.411   2.456 -0.2337  1.1482  0.8242
 4235TIP3   OH212643   2.621   4.449   2.213 -0.1304 -0.1148  0.1840
 4235TIP3    H112644   2.593   4.377   2.268 -2.8299 -1.3176 -2.6160
 4235TIP3    H212645   2.710   4.425   2.187  1.6583  1.0465  4.7643
 4236TIP3   OH212646   0.347   4.124   1.805 -0.0095 -0.1763  0.2663
 4236TIP3    H112647   0.442   4.128   1.819 -0.2446  0.4460  1.8457
 4236TIP3    H212648   0.315   4.210   1.834 -1.0186 -0.2261 -0.6526
 4237TIP3   OH212649   8.119   4.662   6.298 -0.6421 -0.4094  0.0035
 4237TIP3    H112650   8.189   4.727   6.307 -0.2004 -0.9761  0.7791
 4237TIP3    H212651   8.045   4.700   6.345  0.1553 -1.2049  1.9890
 4238TIP3   OH212652   0.370   3.337   2.129  0.1981  0.2165 -0.2289
 4238TIP3    H112653   0.289   3.385   2.114 -0.0042 -0.2940 -0.7839
 4238TIP3    H212654   0.440   3.398   2.103 -0.0022  0.6227  0.1673
 4239TIP3   OH212655   0.522   4.669   2.343 -0.4990  0.4790  0.3332
 4239TIP3    H112656   0.475   4.616   2.407  0.0499 -1.0553 -0.5022
 4239TIP3    H212657   0.604   4.622   2.327 -0.6595  0.7801 -1.5417
 4240TIP3   OH212658   1.611   6.191   4.764  0.4449  0.7539 -0.1317
 4240TIP3    H112659   1.693   6.151   4.794 -0.5821 -0.2944  1.4054
 4240TIP3    H212660   1.544   6.129   4.792 -0.8729  1.6169 -1.3494
 4241TIP3   OH212661   8.037   4.287   3.574 -0.4014 -0.1304  0.0199
 4241TIP3    H112662   8.057   4.266   3.482  0.3464  0.2556  0.0827
 4241TIP3    H212663   8.103   4.238   3.624  1.0057  1.8636  0.1887
 4242TIP3   OH212664   1.205   5.237   0.522 -0.0920  0.4817 -0.0713
 4242TIP3    H112665   1.295   5.216   0.548  0.0019  0.3278 -0.5128
 4242TIP3    H212666   1.152   5.167   0.558  0.2648 -0.7582 -1.8728
 4243TIP3   OH212667   0.358   3.752   5.016  0.0489 -0.1577 -0.0078
 4243TIP3    H112668   0.299   3.768   5.090 -0.0870  1.9817 -0.5418
 4243TIP3    H212669   0.323   3.806   4.945 -0.3438 -2.8693 -1.9453
 4244TIP3   OH212670   8.351   4.419   0.536 -0.2733 -0.8651 -0.3085
 4244TIP3    H112671   8.419   4.353   0.523  1.1062  0.4106  0.2887
 4244TIP3    H212672   8.302   4.419   0.453  3.1246  1.1896 -2.4688
 4245TIP3   OH212673   1.325   6.149   3.035  0.1154  0.3220 -0.1279
 4245TIP3    H112674   1.404   6.202   3.030  0.2747  0.0512 -0.5103
 4245TIP3    H212675   1.342   6.086   3.106 -0.3734  1.2658  0.8452
 4246TIP3   OH212676   7.669   5.758   1.287  0.2386 -0.1600 -1.0266
 4246TIP3    H112677   7.655   5.694   1.218 -2.6191  0.6623 -1.2556
 4246TIP3    H212678   7.686   5.840   1.241 -1.3187  0.3154 -0.7853
 4247TIP3   OH212679   3.816   2.648   6.691  0.3570 -0.5018  0.6266
 4247TIP3    H112680   3.847   2.610   6.773  1.9695  0.8223  0.6407
 4247TIP3    H212681   3.807   2.741   6.708 -1.0077 -0.4590 -0.2005
 4248TIP3   OH212682   8.049   5.056   2.353  0.1314  0.1978  0.1077
 4248TIP3    H112683   7.975   5.101   2.393  1.2133  1.8330  0.3143
 4248TIP3    H212684   8.125   5.083   2.405  1.2818  0.7786 -1.8079
 4249TIP3   OH212685   0.090   6.924   1.173 -0.8414  0.2644 -0.2058
 4249TIP3    H112686   0.166   6.915   1.230  1.4055  0.2718 -3.1232
 4249TIP3    H212687   0.079   7.018   1.162  0.5604  0.2167 -2.1375
 4250TIP3   OH212688   8.505   4.286   1.056  0.3009 -0.5719 -0.0095
 4250TIP3    H112689   8.485   4.330   0.973 -0.5089  0.1148  0.5341
 4250TIP3    H212690   8.426   4.298   1.109  1.1338 -0.2515  1.1828
 4251TIP3   OH212691   1.268   1.447   4.397 -0.4224 -0.2177 -0.7345
 4251TIP3    H112692   1.188   1.405   4.429 -0.1658 -0.1333  0.0094
 4251TIP3    H212693   1.302   1.386   4.331  0.5583 -1.7372  1.1328
 4252TIP3   OH212694   8.302   3.016   5.003 -0.4832 -0.7706 -0.3308
 4252TIP3    H112695   8.259   2.937   5.034 -2.0821  0.2320  0.0507
 4252TIP3    H212696   8.322   3.066   5.083 -0.3019 -0.3688 -0.6235
 4253TIP3   OH212697   7.968   4.517   2.039  0.2074 -0.3459  0.4824
 4253TIP3    H112698   7.971   4.566   1.956  0.5264 -1.1987 -0.0174
 4253TIP3    H212699   8.050   4.468   2.041  0.4940  0.1717  1.6265
 4254TIP3   OH212700   7.576   5.538   1.722 -0.4557  0.0022 -0.1186
 4254TIP3    H112701   7.670   5.527   1.709 -0.5136  0.1299 -0.6655
 4254TIP3    H212702   7.536   5.481   1.656 -0.7604  0.9555 -0.7677
 4255TIP3   OH212703   2.924   2.639   3.179  0.2314  0.9524 -0.8544
 4255TIP3    H112704   2.985   2.701   3.218  1.1523  0.7249 -1.9129
 4255TIP3    H212705   2.936   2.558   3.229 -0.1183  1.2719 -0.2455
 4256TIP3   OH212706   0.322   4.896   3.912 -0.1117  0.2934  0.3338
 4256TIP3    H112707   0.376   4.828   3.870 -1.2792 -0.6257  0.2911
 4256TIP3    H212708   0.380   4.937   3.975  0.4421 -1.1978  0.8226
 4257TIP3   OH212709   0.555   4.111   2.745 -0.1608 -0.1504  0.2799
 4257TIP3    H112710   0.540   4.167   2.820 -1.7290  0.9464 -0.8104
 4257TIP3    H212711   0.585   4.028   2.782 -0.8459  0.3968  2.0896
 4258TIP3   OH212712   1.378   5.148   2.185  0.2481 -0.2138 -0.0681
 4258TIP3    H112713   1.297   5.105   2.158 -0.3323  0.7962  0.0333
 4258TIP3    H212714   1.446   5.083   2.169 -0.7742 -1.6648  1.4319
 4259TIP3   OH212715   7.898   5.688   3.255  0.4665 -0.1774  0.3679
 4259TIP3    H112716   7.903   5.637   3.336 -0.0094 -0.5282  0.1780
 4259TIP3    H212717   7.805   5.712   3.247  0.7958  1.3040  0.8101
 4260TIP3   OH212718   7.880   5.612   1.974 -0.3599  0.3328  0.5527
 4260TIP3    H112719   7.877   5.555   1.897 -0.0445  0.8189  0.1704
 4260TIP3    H212720   7.973   5.633   1.985 -0.6280  2.1900 -0.3889
 4261TIP3   OH212721   8.121   3.385   2.330  0.9105 -0.0020 -0.1016
 4261TIP3    H112722   8.042   3.434   2.356 -0.0738 -1.6102  0.0347
 4261TIP3    H212723   8.194   3.438   2.362 -0.1340  1.2200  0.3034
 4262TIP3   OH212724   0.208   3.966   4.925  0.7427  0.1762  0.2078
 4262TIP3    H112725   0.215   3.972   5.020  0.8531 -2.0091  0.3714
 4262TIP3    H212726   0.118   3.993   4.906  1.0158  1.5551  0.8293
 4263TIP3   OH212727   6.936   4.559   3.256  0.1895 -0.2492  0.0304
 4263TIP3    H112728   6.997   4.498   3.215  1.5139  0.6415  0.6555
 4263TIP3    H212729   6.900   4.510   3.330  0.8217 -0.4683  0.1951
 4264TIP3   OH212730   0.605   5.874   6.614  0.3189 -0.5271 -0.0841
 4264TIP3    H112731   0.676   5.938   6.613  1.4445 -1.7102  1.6795
 4264TIP3    H212732   0.589   5.857   6.707  1.0077 -3.8535 -0.5030
 4265TIP3   OH212733   8.238   7.191   4.809 -0.1663  0.4781 -0.1438
 4265TIP3    H112734   8.291   7.268   4.829  0.8085 -0.2576  0.1420
 4265TIP3    H212735   8.260   7.128   4.877  0.3878 -0.7040 -1.3943
 4266TIP3   OH212736   6.930   5.842   5.760 -0.4880  0.3079 -0.8553
 4266TIP3    H112737   6.954   5.913   5.701 -0.8208  0.7840 -0.4280
 4266TIP3    H212738   6.843   5.867   5.793 -0.8579 -0.5807 -1.1460
 4267TIP3   OH212739   8.136   5.668   5.544 -0.3306  0.1260 -0.3333
 4267TIP3    H112740   8.046   5.653   5.574  0.0968 -3.2069 -0.5409
 4267TIP3    H212741   8.133   5.647   5.450  0.1502  2.4483 -0.8980
 4268TIP3   OH212742   0.815   4.146   3.347  0.0028  0.3702  0.0567
 4268TIP3    H112743   0.775   4.178   3.427  0.3361 -0.0712  0.4058
 4268TIP3    H212744   0.837   4.054   3.366 -0.3223  0.1289 -0.6907
 4269TIP3   OH212745   8.374   3.900   2.819  0.0531 -0.5918 -0.4854
 4269TIP3    H112746   8.384   3.832   2.885 -0.1842  1.4687  1.7517
 4269TIP3    H212747   8.280   3.902   2.801  0.0900 -0.9998 -0.7243
 4270TIP3   OH212748   7.569   6.152   4.779  0.2357 -0.3609 -0.5661
 4270TIP3    H112749   7.519   6.150   4.860  0.1985 -1.3958 -0.6142
 4270TIP3    H212750   7.505   6.133   4.710  0.5548 -0.9827 -0.6927
 4271TIP3   OH212751   7.867   5.938   3.844  0.1944  0.6728  0.3443
 4271TIP3    H112752   7.899   6.025   3.867  0.9590  0.4648  0.0968
 4271TIP3    H212753   7.832   5.948   3.756  0.7489  0.6182  0.1160
 4272TIP3   OH212754   8.252   6.015   3.205 -0.3342 -0.5917  0.3668
 4272TIP3    H112755   8.215   6.098   3.234 -1.0786 -0.8945  0.2924
 4272TIP3    H212756   8.178   5.965   3.173  0.0682 -1.3858  0.6429
 4273TIP3   OH212757   4.081   5.152   1.190 -0.3349  0.2629 -1.0036
 4273TIP3    H112758   4.036   5.214   1.247 -0.4995  0.7315 -1.6288
 4273TIP3    H212759   4.015   5.129   1.124 -0.1056 -0.1581 -1.0853
 4274TIP3   OH212760   8.507   3.122   2.905  0.0230 -0.0687  0.2862
 4274TIP3    H112761   8.462   3.099   2.824  1.2961 -1.1388 -0.1263
 4274TIP3    H212762   8.443   3.102   2.974 -1.1301  1.0106 -0.4196
 4275TIP3   OH212763   1.875   5.719   5.561  0.1517 -0.6193  0.0776
 4275TIP3    H112764   1.953   5.773   5.550 -1.2311  1.2073 -1.1074
 4275TIP3    H212765   1.888   5.645   5.503 -0.0762  0.9668 -2.0673
 4276TIP3   OH212766   0.242   5.343   1.803  0.1812  0.2828  0.0880
 4276TIP3    H112767   0.295   5.366   1.726  1.1867  0.5941  0.8766
 4276TIP3    H212768   0.229   5.425   1.849 -1.4635  0.3139 -0.3748
 4277TIP3   OH212769   0.885   3.532   3.788  0.7660 -0.7712  0.0579
 4277TIP3    H112770   0.928   3.456   3.748  0.7230 -1.7471  1.7961
 4277TIP3    H212771   0.907   3.526   3.880 -1.5914 -0.2786  0.6914
 4278TIP3   OH212772   1.925   5.566   2.231 -0.2895  0.2142  0.2824
 4278TIP3    H112773   1.968   5.568   2.316  0.2605 -1.3211  0.0510
 4278TIP3    H212774   1.961   5.489   2.187 -0.9107  0.7214 -1.1602
 4279TIP3   OH212775   6.369   2.680   1.920 -0.6213 -0.3787  0.5672
 4279TIP3    H112776   6.286   2.640   1.897 -0.5527 -0.6522  0.7846
 4279TIP3    H212777   6.345   2.758   1.970 -0.7398 -0.8604  1.2720
 4280TIP3   OH212778   0.196   3.778   3.341 -0.0039  0.1612  0.4312
 4280TIP3    H112779   0.181   3.756   3.433  0.5523  1.3945  0.8313
 4280TIP3    H212780   0.118   3.828   3.315  0.5820  1.2501  0.7273
 4281TIP3   OH212781   1.676   3.943   4.058 -0.0521 -0.2316 -0.2929
 4281TIP3    H112782   1.720   4.028   4.054 -0.4032 -0.1163 -2.0729
 4281TIP3    H212783   1.659   3.929   4.152  0.8608  1.2104  0.1003
 4282TIP3   OH212784   1.377   5.232   1.666 -0.6406  0.0162 -0.3581
 4282TIP3    H112785   1.367   5.161   1.602 -0.9345  0.6811 -1.0609
 4282TIP3    H212786   1.405   5.307   1.613 -0.9619  0.5906  0.2882
 4283TIP3   OH212787   0.116   5.928   2.166  0.4051 -0.0199 -0.1559
 4283TIP3    H112788   0.060   5.997   2.127 -1.1765 -1.0502  0.2332
 4283TIP3    H212789   0.068   5.900   2.244  2.0258 -0.1860  0.8017
 4284TIP3   OH212790   7.803   3.904   2.583 -0.2073 -0.6456 -0.1858
 4284TIP3    H112791   7.819   3.855   2.502 -0.9945  0.2382 -0.8983
 4284TIP3    H212792   7.720   3.869   2.615 -0.1988 -0.5772 -0.0901
 4285TIP3   OH212793   1.990   4.624   3.673  0.3305  0.2172 -0.0294
 4285TIP3    H112794   1.929   4.571   3.724 -2.3036  3.0585 -0.0521
 4285TIP3    H212795   1.967   4.606   3.582 -0.0856  0.7606 -0.0429
 4286TIP3   OH212796   0.270   3.867   3.948  0.4037  0.6522  1.0705
 4286TIP3    H112797   0.191   3.820   3.976  1.2622 -0.3476  1.8900
 4286TIP3    H212798   0.311   3.809   3.884  0.1649  1.4456  0.1930
 4287TIP3   OH212799   0.275   5.116   1.068 -0.3612 -0.0202  0.5130
 4287TIP3    H112800   0.366   5.100   1.041 -0.9798 -0.8479 -1.1673
 4287TIP3    H212801   0.282   5.149   1.157  1.6225  0.3845  0.2347
 4288TIP3   OH212802   2.504   5.572   2.235 -0.2579 -0.1175  0.1752
 4288TIP3    H112803   2.581   5.533   2.194  1.3530  2.7452  0.3162
 4288TIP3    H212804   2.430   5.520   2.203  1.6717 -2.6542 -0.2992
 4289TIP3   OH212805   1.627   6.815   1.396 -0.2507 -0.0873  0.2367
 4289TIP3    H112806   1.670   6.786   1.315 -0.6684  1.2548 -0.4907
 4289TIP3    H212807   1.676   6.772   1.466  0.7405 -0.4935 -0.6820
 4290TIP3   OH212808   7.685   3.398   2.453 -0.3102  0.4131 -0.2195
 4290TIP3    H112809   7.741   3.410   2.377 -0.7588  0.2710 -0.5738
 4290TIP3    H212810   7.651   3.309   2.444 -0.1468  0.2992  0.2896
 4291TIP3   OH212811   2.849   6.126   2.380  0.1780  0.1550  0.2742
 4291TIP3    H112812   2.882   6.140   2.291  3.4216  1.1333  1.5796
 4291TIP3    H212813   2.865   6.033   2.397  1.5615  0.4501  0.6118
 4292TIP3   OH212814   6.910   3.818   3.077 -0.1261  0.0535 -0.4433
 4292TIP3    H112815   6.977   3.759   3.042 -1.0829 -0.8701 -0.7450
 4292TIP3    H212816   6.868   3.855   2.999 -0.8462 -0.3805 -0.2655
 4293TIP3   OH212817   0.092   6.304   1.189 -0.1115  0.0578 -0.1101
 4293TIP3    H112818   0.032   6.235   1.162  0.4940  0.2150 -1.9061
 4293TIP3    H212819   0.057   6.335   1.272 -1.4004 -1.1842 -0.1791
 4294TIP3   OH212820   7.383   2.964   1.817 -0.0088  0.2056 -0.1589
 4294TIP3    H112821   7.300   3.012   1.821 -0.6118 -0.8384  0.2956
 4294TIP3    H212822   7.445   3.020   1.862 -0.2657  1.3976 -1.2687
 4295TIP3   OH212823   0.485   6.270   0.980  0.1867  0.0454  0.2934
 4295TIP3    H112824   0.514   6.304   0.896  2.1661  0.9481  1.3199
 4295TIP3    H212825   0.434   6.341   1.019 -0.4661 -0.2607  0.0119
 4296TIP3   OH212826   8.474   6.091   3.060  0.1887 -0.4057 -0.0263
 4296TIP3    H112827   8.530   6.126   3.129  0.1890  0.6158 -0.5336
 4296TIP3    H212828   8.411   6.035   3.105 -0.3900  0.9772  0.8801
 4297TIP3   OH212829   2.200   5.730   3.542  0.1349 -0.0028  0.1841
 4297TIP3    H112830   2.216   5.755   3.452  2.9727 -0.1687  0.6081
 4297TIP3    H212831   2.113   5.691   3.541  0.2006 -0.1442 -2.4891
 4298TIP3   OH212832   2.326   0.181   3.753 -0.6996 -0.3445  0.2136
 4298TIP3    H112833   2.308   0.193   3.846 -1.0491 -0.7957  0.2029
 4298TIP3    H212834   2.294   0.093   3.733  0.4837 -0.7135 -0.0657
 4299TIP3   OH212835   1.796   0.882   0.709 -0.5778  0.9274  0.0934
 4299TIP3    H112836   1.748   0.858   0.788  1.2080 -0.0303  0.8985
 4299TIP3    H212837   1.832   0.799   0.677 -1.1083  1.3390 -1.6126
 4300TIP3   OH212838   7.248   4.626   3.450 -0.1727 -0.3190 -0.2663
 4300TIP3    H112839   7.283   4.694   3.393  1.7584 -0.1528  1.0572
 4300TIP3    H212840   7.198   4.569   3.392 -1.3207  1.8918 -1.4759
 4301TIP3   OH212841   1.502   2.805   2.375  0.4273  0.0554 -1.0001
 4301TIP3    H112842   1.592   2.788   2.349  1.3111  0.4972  1.5940
 4301TIP3    H212843   1.462   2.718   2.382  2.0563 -0.5243  2.4132
 4302TIP3   OH212844   0.577   4.336   2.579  0.0415 -0.0883 -0.2431
 4302TIP3    H112845   0.631   4.321   2.501  2.6373  2.7123  0.9466
 4302TIP3    H212846   0.583   4.253   2.628  1.9133 -0.4032 -0.9482
 4303TIP3   OH212847   0.120   2.464   5.379  0.4206  0.2226  0.0011
 4303TIP3    H112848   0.130   2.484   5.472  0.2257  0.3054  0.0050
 4303TIP3    H212849   0.029   2.483   5.360 -0.0248 -1.5872  0.2218
 4304TIP3   OH212850   1.521   3.643   4.575 -0.3204 -0.1456 -0.1756
 4304TIP3    H112851   1.587   3.600   4.521  0.0859  0.2032  0.0381
 4304TIP3    H212852   1.438   3.622   4.533  0.0601  0.9890 -1.5458
 4305TIP3   OH212853   1.387   3.218   2.783 -0.0865  0.2253 -0.0415
 4305TIP3    H112854   1.405   3.263   2.865  0.3597 -0.2868  0.1476
 4305TIP3    H212855   1.448   3.143   2.783  0.3265  0.5535 -1.0952
 4306TIP3   OH212856   7.390   4.020   2.237 -0.4699  0.4779 -0.3917
 4306TIP3    H112857   7.339   3.950   2.196  0.8714 -0.3106 -0.7671
 4306TIP3    H212858   7.440   4.059   2.165  0.9101 -0.0488  0.2514
 4307TIP3   OH212859   3.647   6.143   3.444 -0.4733  0.3715 -0.3803
 4307TIP3    H112860   3.619   6.054   3.463  1.3877 -0.6703 -2.2634
 4307TIP3    H212861   3.610   6.161   3.357 -0.9433  1.4932  0.0439
 4308TIP3   OH212862   0.240   3.886   5.434 -0.0651  0.2376  0.3400
 4308TIP3    H112863   0.249   3.951   5.504  3.1264  1.8067 -1.4284
 4308TIP3    H212864   0.324   3.841   5.431 -0.5985 -0.6948 -1.6200
 4309TIP3   OH212865   1.536   5.346   2.281 -0.1020  0.2157 -0.6081
 4309TIP3    H112866   1.499   5.271   2.234 -0.7784 -0.5745  1.1382
 4309TIP3    H212867   1.626   5.321   2.301 -0.5988 -0.5409  0.7716
 4310TIP3   OH212868   0.860   5.022   2.491 -0.6236  0.6751 -0.0959
 4310TIP3    H112869   0.794   5.003   2.425  0.7685  2.3678 -2.0543
 4310TIP3    H212870   0.869   4.940   2.540 -0.1376 -1.3672 -3.4391
 4311TIP3   OH212871   2.096   4.226   3.929 -0.0781 -0.1614  0.4316
 4311TIP3    H112872   2.053   4.149   3.965 -2.4851  0.7895 -0.3309
 4311TIP3    H212873   2.098   4.211   3.834 -0.6288  0.7490  0.2720
 4312TIP3   OH212874   0.900   5.713   2.570  0.1153  0.0814  0.1555
 4312TIP3    H112875   0.970   5.654   2.542 -0.3796 -0.1079 -0.6896
 4312TIP3    H212876   0.946   5.791   2.601  0.6570  1.4512 -3.7494
 4313TIP3   OH212877   0.883   5.685   0.855  0.4667  0.3407 -0.6493
 4313TIP3    H112878   0.835   5.611   0.891 -0.3296 -1.5432 -5.2177
 4313TIP3    H212879   0.815   5.747   0.830  0.9134  1.0082 -0.2150
 4314TIP3   OH212880   1.684   4.778   1.185 -0.6533  0.0796  0.6065
 4314TIP3    H112881   1.700   4.836   1.258 -0.7911 -0.4433  1.0607
 4314TIP3    H212882   1.683   4.835   1.108  0.0463  0.5519  0.9437
 4315TIP3   OH212883   8.468   6.391   0.872 -0.1544  0.7808  0.3796
 4315TIP3    H112884   8.468   6.363   0.963  0.5725  0.9878  0.4445
 4315TIP3    H212885   8.387   6.353   0.835 -0.4000  0.6224  1.0769
 4316TIP3   OH212886   7.826   3.829   2.302  0.3912 -0.2523  0.5014
 4316TIP3    H112887   7.896   3.864   2.247 -0.8921  1.1728 -0.2494
 4316TIP3    H212888   7.760   3.797   2.241 -2.0830  3.4127  1.1211
 4317TIP3   OH212889   2.553   7.151   1.629  0.3056 -0.0939 -0.1844
 4317TIP3    H112890   2.639   7.192   1.637  0.3050 -0.2487  0.6488
 4317TIP3    H212891   2.572   7.058   1.613  0.2983  0.1005 -1.4358
 4318TIP3   OH212892   2.198   4.810   1.491 -0.3796  0.1935  0.1082
 4318TIP3    H112893   2.259   4.751   1.536 -1.8024 -0.7934  0.7970
 4318TIP3    H212894   2.234   4.820   1.404  1.4656  0.6618  0.9053
 4319TIP3   OH212895   3.044   4.014   0.771  0.3611 -0.6459  0.1851
 4319TIP3    H112896   3.058   3.925   0.804  1.0690 -0.6446 -0.1042
 4319TIP3    H212897   3.066   4.009   0.678 -0.6975 -0.4214 -0.0842
 4320TIP3   OH212898   2.614   4.914   3.489 -0.5559  0.1275  0.3761
 4320TIP3    H112899   2.658   4.968   3.554 -1.1203  1.9505 -0.7147
 4320TIP3    H212900   2.664   4.927   3.408 -0.0877 -1.8022  0.3143
 4321TIP3   OH212901   3.959   3.547   3.831 -0.5112  0.4964 -0.0171
 4321TIP3    H112902   3.913   3.557   3.914 -0.6077  2.6457 -0.2986
 4321TIP3    H212903   3.905   3.594   3.767  0.1630 -0.1231 -1.0695
 4322TIP3   OH212904   1.319   4.546   2.901  0.2821 -0.3065 -0.0462
 4322TIP3    H112905   1.227   4.538   2.926  0.3865 -0.6238  0.2350
 4322TIP3    H212906   1.320   4.618   2.837 -0.6783 -2.6212 -2.7830
 4323TIP3   OH212907   0.160   3.801   3.630 -0.1662  0.0738  0.0589
 4323TIP3    H112908   0.121   3.725   3.673  0.0056  1.0339  2.0017
 4323TIP3    H212909   0.250   3.804   3.662  0.5931 -0.3317 -1.9726
 4324TIP3   OH212910   0.204   4.822   1.999  0.2368  0.2135  0.4694
 4324TIP3    H112911   0.133   4.773   1.958  0.9336 -0.2728 -0.1663
 4324TIP3    H212912   0.180   4.914   1.987 -0.5215  0.0448  0.6808
 4325TIP3   OH212913   0.493   5.629   1.757 -0.1711 -0.6491  0.2983
 4325TIP3    H112914   0.480   5.706   1.701  1.8058  0.0396  0.7540
 4325TIP3    H212915   0.412   5.622   1.807 -0.3046  1.2509  0.3776
 4326TIP3   OH212916   2.567   6.855   1.857  0.4005  0.6308  0.0482
 4326TIP3    H112917   2.551   6.819   1.769  1.7827 -0.2954  0.1542
 4326TIP3    H212918   2.480   6.876   1.890 -0.1836  0.4724 -1.3286
 4327TIP3   OH212919   1.456   4.653   1.114  0.2343 -0.5916 -0.2078
 4327TIP3    H112920   1.535   4.706   1.126  1.4113 -1.6473 -2.8609
 4327TIP3    H212921   1.472   4.573   1.164  0.4068 -0.3640  0.1003
 4328TIP3   OH212922   0.811   4.868   1.374  0.5795  0.0881 -0.3150
 4328TIP3    H112923   0.738   4.929   1.359 -0.6938 -1.3266  0.0408
 4328TIP3    H212924   0.889   4.920   1.355 -0.5442  1.4148 -1.4445
 4329TIP3   OH212925   1.790   5.577   1.969  0.1753 -0.6688  0.8797
 4329TIP3    H112926   1.826   5.578   2.058  0.8631  0.7113  0.5946
 4329TIP3    H212927   1.703   5.616   1.979 -0.4075 -1.9990  1.1978
 4330TIP3   OH212928   0.307   4.784   0.361  0.2896 -0.0832 -1.0210
 4330TIP3    H112929   0.257   4.829   0.294 -0.7282  1.1579  0.5156
 4330TIP3    H212930   0.245   4.722   0.401  1.5561 -2.5916 -2.8170
 4331TIP3   OH212931   3.151   0.059   1.284 -0.1033 -0.3367 -0.0862
 4331TIP3    H112932   3.151   0.005   1.205  1.1884 -2.5006  1.3449
 4331TIP3    H212933   3.153  -0.003   1.356  0.4761  1.6175  1.6353
 4332TIP3   OH212934   0.390   5.820   0.504 -0.2224  0.8816  0.1529
 4332TIP3    H112935   0.423   5.861   0.585 -0.2657  1.6967 -0.2317
 4332TIP3    H212936   0.397   5.726   0.520  0.3880  1.0405  0.8545
 4333TIP3   OH212937   3.889   4.760   2.745  0.1629  0.0797  0.0541
 4333TIP3    H112938   3.860   4.850   2.726 -0.9476 -0.2160  0.3299
 4333TIP3    H212939   3.921   4.727   2.661  2.2370  1.3339  0.3206
 4334TIP3   OH212940   2.123   3.154   2.634 -0.2121  0.1021 -0.3186
 4334TIP3    H112941   2.137   3.235   2.683 -2.2128  0.1306  0.2570
 4334TIP3    H212942   2.161   3.171   2.548 -0.4828  1.5924 -0.1546
 4335TIP3   OH212943   2.636   6.192   1.973 -0.1650  0.1165 -0.3155
 4335TIP3    H112944   2.724   6.157   1.987 -0.3682  0.3786  1.7612
 4335TIP3    H212945   2.620   6.178   1.880  0.9472 -2.5708 -0.1631
 4336TIP3   OH212946   1.606   3.749   3.289  1.0360  0.0978 -0.3902
 4336TIP3    H112947   1.586   3.682   3.354  1.2921  0.8522  0.4789
 4336TIP3    H212948   1.591   3.707   3.205 -1.8358 -0.1155  0.1794
 4337TIP3   OH212949   1.774   3.502   1.771  0.5123  0.0599  0.2284
 4337TIP3    H112950   1.710   3.565   1.738 -0.2984 -1.7060 -1.6523
 4337TIP3    H212951   1.777   3.519   1.866 -0.6150  2.0698 -0.0690
 4338TIP3   OH212952   2.078   3.760   2.711  0.0872 -0.1546 -0.5320
 4338TIP3    H112953   2.093   3.699   2.783  0.0628  0.0517 -0.3503
 4338TIP3    H212954   2.142   3.830   2.725  0.0035 -0.0558 -0.6406
 4339TIP3   OH212955   3.883   5.768   3.257 -0.4281  0.0205 -0.0784
 4339TIP3    H112956   3.901   5.744   3.166 -0.3645  0.7654 -0.2639
 4339TIP3    H212957   3.940   5.711   3.309 -1.1282 -1.0378 -0.4633
 4340TIP3   OH212958   2.049   5.467   3.841  0.2129 -0.2950  0.2754
 4340TIP3    H112959   1.976   5.499   3.788 -0.3236 -1.1652  0.4718
 4340TIP3    H212960   2.111   5.540   3.843 -0.9828  0.7350  0.7405
 4341TIP3   OH212961   1.582   5.862   0.913  1.0182 -0.0891 -0.0131
 4341TIP3    H112962   1.515   5.814   0.962 -0.4833 -0.7884 -2.6652
 4341TIP3    H212963   1.561   5.954   0.928  1.8679 -0.2366  2.3439
 4342TIP3   OH212964   2.721   5.743   2.676 -0.2405 -0.3379  0.5041
 4342TIP3    H112965   2.691   5.766   2.588 -0.1140 -1.8714  0.0542
 4342TIP3    H212966   2.817   5.744   2.670 -0.2293 -0.2179  0.6867
 4343TIP3   OH212967   0.243   5.014   3.169  0.5302  0.4335 -0.0573
 4343TIP3    H112968   0.243   4.939   3.111  0.0711  0.3143  0.0887
 4343TIP3    H212969   0.250   5.090   3.111  2.2797  0.2335 -0.1181
 4344TIP3   OH212970   2.681   5.453   4.241 -0.0216 -0.0931  0.0791
 4344TIP3    H112971   2.597   5.490   4.267  0.0388 -0.3064  0.5965
 4344TIP3    H212972   2.668   5.358   4.247  0.6289 -0.1179  1.4023
 4345TIP3   OH212973   0.022   3.857   2.140  0.4332  0.2583  0.1150
 4345TIP3    H112974   0.106   3.893   2.110 -0.1725  2.3905  0.9354
 4345TIP3    H212975  -0.044   3.909   2.095 -0.4749 -0.7974  0.2070
 4346TIP3   OH212976   0.648   4.526   3.819 -0.7028  0.1792 -0.4606
 4346TIP3    H112977   0.612   4.561   3.900 -0.9482 -0.0964 -0.4488
 4346TIP3    H212978   0.573   4.517   3.760 -0.4456  0.8718 -0.9031
 4347TIP3   OH212979   2.187   7.016   3.407 -0.1101 -0.2356 -0.1500
 4347TIP3    H112980   2.160   6.926   3.387 -1.4850  0.3051 -0.7749
 4347TIP3    H212981   2.115   7.052   3.457  0.5701  0.4394  0.3481
 4348TIP3   OH212982   0.733   4.524   3.436 -0.1822  0.1850 -0.4017
 4348TIP3    H112983   0.821   4.560   3.426  0.2928 -0.2745  1.9394
 4348TIP3    H212984   0.747   4.437   3.474 -1.5905 -0.3743 -1.1404
 4349TIP3   OH212985   1.517   5.743   4.583 -0.1655  0.1144 -0.2302
 4349TIP3    H112986   1.527   5.649   4.565 -0.6568  0.3208 -1.6115
 4349TIP3    H212987   1.436   5.768   4.539  1.4431  1.7874 -2.4061
 4350TIP3   OH212988   0.387   4.475   5.169  0.7353  0.0251  0.2064
 4350TIP3    H112989   0.317   4.534   5.201  0.5221 -0.4989  0.7224
 4350TIP3    H212990   0.389   4.489   5.075 -0.8751 -0.8045  0.0306
 4351TIP3   OH212991   0.061   5.900   4.286 -1.1365 -0.3997 -0.0401
 4351TIP3    H112992   0.110   5.982   4.291  0.4334 -1.3592  0.9700
 4351TIP3    H212993   0.125   5.833   4.310 -2.3279 -1.9460 -1.0932
 4352TIP3   OH212994   3.109   3.179   2.973 -0.0224  0.8589  0.0667
 4352TIP3    H112995   3.200   3.189   2.945 -0.4003  2.0346 -0.7910
 4352TIP3    H212996   3.113   3.124   3.051  1.5234  1.8280  0.6803
 4353TIP3   OH212997   1.499   4.694   3.368  0.3791  0.0235 -0.2792
 4353TIP3    H112998   1.406   4.683   3.351  0.5173 -0.6430 -0.5833
 4353TIP3    H212999   1.505   4.699   3.464 -0.2445  2.5541 -0.3301
 4354TIP3   OH213000   3.411   6.591   0.592 -0.2295 -0.3060  0.4203
 4354TIP3    H113001   3.473   6.518   0.594 -0.7481 -0.8269 -1.4855
 4354TIP3    H213002   3.357   6.578   0.670  0.0952 -1.6119  0.4510
 4355TIP3   OH213003   8.293   4.999   4.005  0.0260  0.7283  0.0757
 4355TIP3    H113004   8.292   4.952   3.921 -0.4905  0.7510  0.0633
 4355TIP3    H213005   8.217   4.963   4.052  0.1985  0.8600  0.4522
 4356TIP3   OH213006   7.236   3.212   1.825 -0.1048  0.4624 -0.1502
 4356TIP3    H113007   7.243   3.302   1.857  0.4446  0.5693 -0.5597
 4356TIP3    H213008   7.273   3.215   1.736 -0.8537  0.0056 -0.4826
 4357TIP3   OH213009   1.731   4.450   3.374 -0.1845 -0.0516  0.5282
 4357TIP3    H113010   1.673   4.428   3.300  0.4899 -0.2163  0.0478
 4357TIP3    H213011   1.768   4.366   3.401  2.2635  0.4360 -1.1922
 4358TIP3   OH213012   3.379   4.993   2.977  0.3492 -0.3475  0.2676
 4358TIP3    H113013   3.316   4.948   3.033  0.0768 -2.3313 -1.5306
 4358TIP3    H213014   3.333   5.071   2.946 -0.9162 -1.2702 -0.2488
 4359TIP3   OH213015   3.546   6.340   0.660 -0.0786  0.1639  0.1320
 4359TIP3    H113016   3.544   6.247   0.679  0.0200 -0.1649 -1.4422
 4359TIP3    H213017   3.639   6.360   0.650 -0.1338  0.3416 -0.0179
 4360TIP3   OH213018   8.298   7.138   0.769  0.3258 -0.1536 -0.1249
 4360TIP3    H113019   8.203   7.147   0.760  0.4471  1.6763  0.3619
 4360TIP3    H213020   8.312   7.117   0.861  0.4915  1.2334  0.1797
 4361TIP3   OH213021   2.973   5.128   3.289 -0.2523  0.5600  0.6398
 4361TIP3    H113022   2.902   5.076   3.251  0.9372  0.4269 -1.5115
 4361TIP3    H213023   2.961   5.215   3.250  0.3224  0.7260  0.8416
 4362TIP3   OH213024   0.880   5.405   2.020  0.4199 -0.2962 -0.2197
 4362TIP3    H113025   0.822   5.416   2.096 -0.0082 -1.4371 -0.3715
 4362TIP3    H213026   0.851   5.471   1.957 -0.1950 -0.3382  0.0211
 4363TIP3   OH213027   2.771   4.358   2.962 -0.2410  0.1258  0.5519
 4363TIP3    H113028   2.865   4.374   2.955 -0.2454  0.0010  0.2218
 4363TIP3    H213029   2.757   4.274   2.917 -0.3829 -0.2770  1.3272
 4364TIP3   OH213030   7.683   4.660   4.284  0.1706  0.0439 -0.0379
 4364TIP3    H113031   7.612   4.665   4.347  0.2771  0.7431  0.0269
 4364TIP3    H213032   7.762   4.659   4.338  0.2175 -0.5534 -0.1163
 4365TIP3   OH213033   2.979   4.238   4.282 -0.1019 -0.1465 -0.4642
 4365TIP3    H113034   2.912   4.284   4.231  0.4607  1.1699 -0.0531
 4365TIP3    H213035   2.934   4.212   4.362 -0.6425 -1.0415 -1.0612
 4366TIP3   OH213036   2.025   3.436   3.220 -0.3722  0.1854  0.4330
 4366TIP3    H113037   2.110   3.404   3.248  1.0757  1.1125 -2.6447
 4366TIP3    H213038   1.981   3.360   3.182  0.2173  0.2642 -0.4360
 4367TIP3   OH213039   2.999   4.463   2.552 -0.0645  0.0870  0.0630
 4367TIP3    H113040   3.081   4.415   2.565 -0.3055 -0.1068  0.8911
 4367TIP3    H213041   3.026   4.549   2.522  0.4998  0.4138  1.4826
 4368TIP3   OH213042   1.819   6.815   2.948  0.0552 -0.0757 -0.4508
 4368TIP3    H113043   1.751   6.881   2.943 -0.5755 -0.7537 -0.8596
 4368TIP3    H213044   1.831   6.785   2.858  0.4599 -0.3925 -0.2945
 4369TIP3   OH213045   1.517   5.838   1.350  0.0218  0.1049  0.2705
 4369TIP3    H113046   1.609   5.820   1.371 -0.1156  0.5045  1.2346
 4369TIP3    H213047   1.489   5.901   1.416 -1.4326 -1.2645  1.0164
 4370TIP3   OH213048   1.937   4.948   2.014  0.2151 -0.3025  0.1867
 4370TIP3    H113049   1.932   4.869   2.069 -2.3445 -0.8122 -0.7161
 4370TIP3    H213050   1.849   4.985   2.018  0.4444  0.5555 -2.2685
 4371TIP3   OH213051   8.055   3.671   3.593  0.2672 -0.1262  0.4671
 4371TIP3    H113052   7.970   3.669   3.550 -0.1367  0.9137  1.2218
 4371TIP3    H213053   8.116   3.640   3.526 -0.1760  2.5845 -1.2668
 4372TIP3   OH213054   2.938   4.653   0.410 -0.1327 -0.1008 -0.0376
 4372TIP3    H113055   2.849   4.639   0.376 -0.4274  0.2476  0.5753
 4372TIP3    H213056   2.996   4.624   0.339 -0.7319  1.5463 -1.2290
 4373TIP3   OH213057   1.640   4.646   6.004 -0.3235  0.5187  0.6029
 4373TIP3    H113058   1.577   4.573   6.000  0.2622  0.1012 -1.2647
 4373TIP3    H213059   1.714   4.616   5.952 -0.1430  2.5328 -0.2987
 4374TIP3   OH213060   0.991   5.027   2.927 -0.2542  0.0480 -0.1005
 4374TIP3    H113061   1.004   5.119   2.907  2.9028 -0.3346 -0.1786
 4374TIP3    H213062   0.978   5.025   3.022  0.2568  0.5559 -0.0143
 4375TIP3   OH213063   0.797   4.928   3.397 -0.5186 -0.4536  0.1524
 4375TIP3    H113064   0.870   4.873   3.423 -0.2362  0.7862  2.1344
 4375TIP3    H213065   0.753   4.879   3.328  2.4603 -0.9877 -1.4444
 4376TIP3   OH213066   3.352   4.920   1.623  0.0116  0.0965 -0.3895
 4376TIP3    H113067   3.392   4.843   1.665 -1.1663  0.3968  1.3219
 4376TIP3    H213068   3.391   4.922   1.536  0.8721 -1.8214 -0.0799
 4377TIP3   OH213069   0.704   4.343   4.050  0.5225 -0.4621  0.2626
 4377TIP3    H113070   0.746   4.381   3.973  0.0211 -1.9069 -0.7568
 4377TIP3    H213071   0.613   4.328   4.023  0.2413 -0.5975  1.2666
 4378TIP3   OH213072   7.601   6.100   1.472  0.0232  0.1160 -0.3855
 4378TIP3    H113073   7.653   6.078   1.550 -1.3430 -0.6870  0.3220
 4378TIP3    H213074   7.543   6.025   1.461  0.2684  0.1859 -2.2508
 4379TIP3   OH213075   2.769   4.665   3.914  0.0346  0.3723 -0.3822
 4379TIP3    H113076   2.677   4.647   3.895 -0.0543 -0.2610  0.5676
 4379TIP3    H213077   2.817   4.626   3.841 -0.5004  1.5949 -1.4025
 4380TIP3   OH213078   1.142   4.980   2.430  0.4342  0.2603  0.4080
 4380TIP3    H113079   1.216   5.040   2.433  1.0008 -0.3314 -0.9680
 4380TIP3    H213080   1.065   5.035   2.443  1.0108  1.1508  0.0862
 4381TIP3   OH213081   1.897   4.039   0.930 -0.1752  0.6279 -0.0964
 4381TIP3    H113082   1.975   4.064   0.980 -0.2715  0.8096 -0.0353
 4381TIP3    H213083   1.828   4.096   0.965 -0.3209  0.5072 -0.1912
 4382TIP3   OH213084   1.979   5.009   2.511 -0.1123  0.2783 -0.5897
 4382TIP3    H113085   1.938   4.964   2.585  1.1079  0.6465  0.3167
 4382TIP3    H213086   2.031   5.078   2.550  2.6895 -1.1798 -1.5722
 4383TIP3   OH213087   4.376   7.890   6.847  0.2333  0.0668 -0.4953
 4383TIP3    H113088   4.338   7.946   6.915 -0.4384 -2.7194  1.5052
 4383TIP3    H213089   4.419   7.820   6.895 -0.6120 -2.1966 -2.9272
 4384TIP3   OH213090   1.067   5.621   3.645  0.2377 -0.3672  0.0304
 4384TIP3    H113091   1.038   5.582   3.562 -1.2753 -0.0770  0.4093
 4384TIP3    H213092   1.133   5.684   3.619  1.5655 -2.0156 -0.7363
 4385TIP3   OH213093   1.455   5.834   3.351  0.0443 -0.3947 -0.0560
 4385TIP3    H113094   1.499   5.766   3.401 -1.8583 -0.5219  1.5004
 4385TIP3    H213095   1.411   5.888   3.417 -0.8038  0.6713 -1.4595
 4386TIP3   OH213096   0.342   5.845   2.518 -0.2667 -0.0271 -0.2922
 4386TIP3    H113097   0.269   5.878   2.571 -0.4293 -0.2392 -0.3838
 4386TIP3    H213098   0.409   5.822   2.583 -0.7791 -1.0632 -0.1153
 4387TIP3   OH213099   0.748   4.105   1.654  0.5017 -0.1173  0.8346
 4387TIP3    H113100   0.683   4.091   1.585  2.0205  0.7990 -0.8317
 4387TIP3    H213101   0.804   4.028   1.651  1.4331  0.5820  0.0567
 4388TIP3   OH213102   3.480   6.341   4.213 -0.3566 -0.3058 -0.3243
 4388TIP3    H113103   3.486   6.437   4.207  0.2289 -0.1231  2.2508
 4388TIP3    H213104   3.557   6.309   4.167 -0.2726  0.4865 -0.7461
 4389TIP3   OH213105   0.994   6.013   1.361  0.3423  0.1061  0.3725
 4389TIP3    H113106   0.968   5.964   1.283 -0.6721  0.5656  0.4123
 4389TIP3    H213107   1.071   6.064   1.333 -0.2152  0.5200 -0.4231
 4390TIP3   OH213108   7.878   3.373   3.070  0.9711 -0.2349  0.0358
 4390TIP3    H113109   7.905   3.460   3.099 -0.9299  0.2623  0.4074
 4390TIP3    H213110   7.783   3.374   3.077  0.9939 -2.7716  1.2125
 4391TIP3   OH213111   1.870   3.851   2.208 -0.5004  0.2870 -0.7817
 4391TIP3    H113112   1.950   3.868   2.158 -1.2695  0.2528 -2.0685
 4391TIP3    H213113   1.900   3.824   2.295  0.8532  1.6245 -0.8230
 4392TIP3   OH213114   3.388   4.839   3.350 -0.5348  0.4799  0.3352
 4392TIP3    H113115   3.409   4.752   3.384  1.1192  0.8450  0.2698
 4392TIP3    H213116   3.463   4.863   3.295 -1.2903  1.6532 -0.2220
 4393TIP3   OH213117   7.848   4.602   0.131  0.0073 -0.0155  0.0154
 4393TIP3    H113118   7.931   4.612   0.085  0.0890 -0.5654  0.0480
 4393TIP3    H213119   7.789   4.664   0.088  0.4315  0.3740 -0.0087
 4394TIP3   OH213120   1.536   3.232   3.825 -0.0328  0.2512  0.3504
 4394TIP3    H113121   1.521   3.154   3.878 -0.7519 -1.0428 -1.6829
 4394TIP3    H213122   1.460   3.288   3.843  0.2857  0.3251  1.5121
 4395TIP3   OH213123   2.237   4.925   0.038 -0.4792  0.1110  0.3597
 4395TIP3    H113124   2.325   4.886   0.030 -0.1323  0.3052  2.9089
 4395TIP3    H213125   2.210   4.940  -0.053  1.5056 -1.3208 -0.5207
 4396TIP3   OH213126   0.508   5.984   4.814  0.0801  0.8143 -0.2284
 4396TIP3    H113127   0.581   6.042   4.794  1.8069 -0.4597  2.1569
 4396TIP3    H213128   0.467   6.023   4.892 -1.4769  1.2302 -1.2320
 4397TIP3   OH213129   3.070   4.746   2.741  0.4056  0.2865  0.3028
 4397TIP3    H113130   3.071   4.735   2.646  1.2033  0.2326  0.3153
 4397TIP3    H213131   3.023   4.828   2.755 -1.5635 -0.7594 -0.0215
 4398TIP3   OH213132   0.105   4.521   2.675 -0.4155  0.1221 -0.1254
 4398TIP3    H113133   0.150   4.442   2.705 -0.5454  0.0610 -0.0882
 4398TIP3    H213134   0.043   4.489   2.610 -0.6247  0.1650  0.0521
 4399TIP3   OH213135   2.025   4.619   1.897  0.1274 -0.3914  0.4053
 4399TIP3    H113136   1.956   4.669   1.853 -0.3945  0.1702  1.8309
 4399TIP3    H213137   2.057   4.558   1.830 -0.0607  1.0190 -0.9994
 4400TIP3   OH213138   2.664   3.567   2.646  0.2287 -0.0640  0.2174
 4400TIP3    H113139   2.651   3.610   2.561  2.2698 -1.1472 -0.6796
 4400TIP3    H213140   2.671   3.640   2.708  1.8101  0.8872 -1.0159
 4401TIP3   OH213141   2.079   2.859   2.094 -0.4502  0.0891  0.0599
 4401TIP3    H113142   2.084   2.769   2.063  1.5754  0.4791 -0.7953
 4401TIP3    H213143   1.993   2.890   2.064 -1.1939 -1.5411  0.4160
 4402TIP3   OH213144   1.762   4.584   2.056 -0.3196 -0.0662 -0.4958
 4402TIP3    H113145   1.790   4.625   1.974  1.1266  1.8724  0.8928
 4402TIP3    H213146   1.819   4.624   2.123 -0.8051 -2.3077  1.3211
 4403TIP3   OH213147   3.774   4.717   0.689 -0.2441  0.0528  0.1117
 4403TIP3    H113148   3.743   4.678   0.771  0.9897 -0.7218  0.2231
 4403TIP3    H213149   3.779   4.811   0.709 -2.0059  0.1350  0.2370
 4404TIP3   OH213150   1.843   4.367   0.019 -0.4204 -0.3549  0.3005
 4404TIP3    H113151   1.757   4.326   0.026 -0.8277  0.4886  0.2392
 4404TIP3    H213152   1.825   4.460   0.006  0.5017 -0.1449  0.4785
 4405TIP3   OH213153   2.415   5.068   3.318  0.0355 -0.1493  0.4259
 4405TIP3    H113154   2.405   5.060   3.223 -1.7008  0.5591  0.5356
 4405TIP3    H213155   2.405   4.978   3.350 -1.4359 -0.1109  0.1044
 4406TIP3   OH213156   7.747   6.421   3.433  0.8218 -0.1156 -0.3865
 4406TIP3    H113157   7.793   6.389   3.355 -0.7242 -0.2499 -1.2626
 4406TIP3    H213158   7.707   6.343   3.472 -0.2362  0.2502 -0.7023
 4407TIP3   OH213159   2.753   6.149   1.395  0.1383 -0.5697  0.1456
 4407TIP3    H113160   2.714   6.183   1.475  0.8564 -1.4952  0.9079
 4407TIP3    H213161   2.679   6.114   1.345 -0.4114  0.7511  0.0325
 4408TIP3   OH213162   2.293   4.898   2.239 -0.3393 -0.2287  0.1917
 4408TIP3    H113163   2.215   4.927   2.285  0.1385  1.7344 -0.2040
 4408TIP3    H213164   2.345   4.853   2.305  0.1149  2.1223  1.4901
 4409TIP3   OH213165   0.173   4.203   1.344  0.0848  0.5621 -0.1216
 4409TIP3    H113166   0.157   4.267   1.415  0.0938  1.9967 -1.3813
 4409TIP3    H213167   0.262   4.220   1.316 -0.5353  1.2887 -1.7232
 4410TIP3   OH213168   2.790   5.503   3.971  0.4649 -0.2068 -0.3603
 4410TIP3    H113169   2.711   5.529   4.017  0.9201  1.1905 -0.3577
 4410TIP3    H213170   2.813   5.579   3.917  3.1720  0.3507  1.4718
 4411TIP3   OH213171   5.522   1.565   6.658  0.7233 -0.1493  0.7705
 4411TIP3    H113172   5.483   1.505   6.594  0.8521 -0.2155  0.7546
 4411TIP3    H213173   5.478   1.543   6.740  0.4953 -0.0057  0.6899
 4412TIP3   OH213174   7.510   3.577   3.617  0.5803  0.0330  0.0152
 4412TIP3    H113175   7.461   3.495   3.615 -0.3073  0.5779 -0.9272
 4412TIP3    H213176   7.449   3.640   3.654  0.4882  0.7502 -1.3125
 4413TIP3   OH213177   2.904   6.592   1.285 -0.3462 -0.7434 -0.0555
 4413TIP3    H113178   2.994   6.589   1.317  0.5829  2.6129 -2.1462
 4413TIP3    H213179   2.908   6.551   1.199 -0.9770 -1.2106  0.1323
 4414TIP3   OH213180   1.896   4.885   2.729 -0.3454  0.2257 -0.4616
 4414TIP3    H113181   1.963   4.821   2.752  0.5475  1.7177  1.2158
 4414TIP3    H213182   1.831   4.877   2.798 -0.5775  0.6432 -0.6302
 4415TIP3   OH213183   0.928   6.044   2.229 -0.1534 -0.2459 -0.5634
 4415TIP3    H113184   0.995   5.996   2.277 -1.2082 -1.3060 -0.1433
 4415TIP3    H213185   0.909   5.990   2.153 -2.4669 -1.3111  0.7175
 4416TIP3   OH213186   2.076   5.042   2.965 -0.8953  0.0807  0.5657
 4416TIP3    H113187   1.991   5.072   2.998 -1.3368 -0.3535 -0.1709
 4416TIP3    H213188   2.067   4.946   2.959 -0.1953 -0.0117  0.9374
 4417TIP3   OH213189   0.539   5.315   0.804  0.7696  0.5937 -0.2711
 4417TIP3    H113190   0.570   5.245   0.748  0.4440  0.9087 -0.8627
 4417TIP3    H213191   0.443   5.308   0.800  0.7322  1.1640 -0.4653
 4418TIP3   OH213192   8.194   4.220   2.470 -0.1921  0.5746  0.1480
 4418TIP3    H113193   8.130   4.167   2.518 -0.7066  1.7816  0.8080
 4418TIP3    H213194   8.228   4.161   2.403 -2.1711 -0.0122 -0.3687
 4419TIP3   OH213195   1.282   4.372   0.449  0.7320 -0.1398 -0.6263
 4419TIP3    H113196   1.337   4.383   0.527 -2.2541 -0.3376  1.5637
 4419TIP3    H213197   1.283   4.458   0.407 -0.6045  1.0537  1.6847
 4420TIP3   OH213198   2.710   5.107   2.456 -0.0468 -0.1674  0.7245
 4420TIP3    H113199   2.761   5.029   2.477  0.4030 -0.6055 -1.8563
 4420TIP3    H213200   2.759   5.179   2.496  2.2301 -0.6624 -1.0418
 4421TIP3   OH213201   2.093   5.854   1.134  0.4065  0.2129  0.3521
 4421TIP3    H113202   2.028   5.837   1.066  0.1421 -2.5269  1.2291
 4421TIP3    H213203   2.045   5.846   1.216  1.7467 -1.5623  1.0042
 4422TIP3   OH213204   1.436   4.365   3.515 -0.3208  0.2283  0.2086
 4422TIP3    H113205   1.426   4.322   3.600  0.1623  0.5471  0.4294
 4422TIP3    H213206   1.504   4.430   3.529 -0.9580  0.9753 -0.1676
 4423TIP3   OH213207   2.426   4.339   2.595 -0.0724  0.3293 -0.1955
 4423TIP3    H113208   2.520   4.337   2.611 -0.1837  0.3235  0.4526
 4423TIP3    H213209   2.408   4.255   2.551 -0.0222 -0.3613  1.0730
 4424TIP3   OH213210   8.040   4.666   1.495 -0.0213 -0.8460 -0.3886
 4424TIP3    H113211   8.106   4.613   1.450  0.0384 -1.6380  0.6120
 4424TIP3    H213212   8.075   4.755   1.493  0.5479 -1.0751 -0.8429
 4425TIP3   OH213213   7.798   4.924   1.473 -0.2636 -0.0151 -0.3636
 4425TIP3    H113214   7.755   4.922   1.559 -1.2927 -0.0220 -0.8676
 4425TIP3    H213215   7.886   4.958   1.490 -0.4555 -0.0468  0.6956
 4426TIP3   OH213216   4.443   3.908   2.400  0.5037 -0.2662 -0.3972
 4426TIP3    H113217   4.503   3.974   2.366  1.9675 -0.9724  0.7394
 4426TIP3    H213218   4.364   3.957   2.423  0.6452  0.6785 -1.9028
 4427TIP3   OH213219   1.108   4.731   2.751  0.5294 -0.1004  0.4944
 4427TIP3    H113220   1.138   4.822   2.756 -1.5461  0.6039  0.8485
 4427TIP3    H213221   1.104   4.712   2.657 -0.2251  0.6108  0.3743
 4428TIP3   OH213222   2.611   6.698   0.548  0.1852  0.3663 -0.0688
 4428TIP3    H113223   2.528   6.662   0.519  0.6854 -0.2336 -0.7688
 4428TIP3    H213224   2.662   6.622   0.577  0.3156  0.7788  0.8024
 4429TIP3   OH213225   7.531   4.156   2.020  0.1440  0.2664 -0.0945
 4429TIP3    H113226   7.582   4.092   1.970  0.1648  1.7064 -1.9648
 4429TIP3    H213227   7.594   4.223   2.045 -0.1406  0.2465  0.7007
 4430TIP3   OH213228   1.818   6.856   1.680 -0.5213 -0.4769 -0.2306
 4430TIP3    H113229   1.855   6.938   1.714 -0.2790 -0.5785 -0.2447
 4430TIP3    H213230   1.742   6.839   1.735 -0.9959  0.1397 -0.6863
 4431TIP3   OH213231   8.367   4.100   1.488  0.0535  0.1447  0.0918
 4431TIP3    H113232   8.281   4.108   1.446 -1.0699 -0.7919  2.1126
 4431TIP3    H213233   8.354   4.140   1.574  1.6832  0.0776  0.3685
 4432TIP3   OH213234   2.174   5.579   1.707 -0.0618 -0.0767  0.0413
 4432TIP3    H113235   2.121   5.586   1.627 -2.4381  2.4966  1.7495
 4432TIP3    H213236   2.250   5.635   1.691 -0.8974  1.0200 -0.1578
 4433TIP3   OH213237   7.244   4.935   3.634 -0.5203  0.7267 -0.5102
 4433TIP3    H113238   7.161   4.889   3.619 -0.0584 -0.4258  0.4304
 4433TIP3    H213239   7.268   4.913   3.724  1.0641  0.6456 -0.9340
 4434TIP3   OH213240   1.632   6.072   3.212 -0.2269 -0.5940  0.4191
 4434TIP3    H113241   1.682   6.048   3.134 -0.6084  0.1201 -0.0518
 4434TIP3    H213242   1.582   5.993   3.233  1.8112 -1.6261  1.4697
 4435TIP3   OH213243   3.275   6.963   0.445 -0.3849  0.4879  0.3270
 4435TIP3    H113244   3.335   6.938   0.515  0.1675  2.5099  0.6201
 4435TIP3    H213245   3.190   6.970   0.489 -0.5378 -0.7775  0.2479
 4436TIP3   OH213246   1.147   5.969   2.424  0.2528  0.1404 -0.2173
 4436TIP3    H113247   1.239   5.978   2.401  0.3613  0.6435  0.4224
 4436TIP3    H213248   1.121   5.884   2.387  0.6915  0.4757 -1.3190
 4437TIP3   OH213249   2.622   6.059   0.868  0.6010  0.6738 -0.0967
 4437TIP3    H113250   2.571   6.091   0.943  0.4642  0.9169 -0.2932
 4437TIP3    H213251   2.670   6.136   0.837  0.9876  0.4739  0.0054
 4438TIP3   OH213252   0.834   5.302   3.776  0.0699  0.3946 -0.3813
 4438TIP3    H113253   0.741   5.318   3.796 -0.2878  0.9805 -2.3985
 4438TIP3    H213254   0.880   5.377   3.813 -0.1018 -0.4805  1.6794
 4439TIP3   OH213255   0.405   5.681   4.155 -0.4621 -0.7815 -0.3131
 4439TIP3    H113256   0.378   5.657   4.067  0.2430 -0.3054 -0.6610
 4439TIP3    H213257   0.492   5.718   4.145 -0.4062 -0.6478  0.5733
 4440TIP3   OH213258   1.381   5.437   3.261  0.0535 -0.2449  0.2721
 4440TIP3    H113259   1.445   5.457   3.193 -1.4005  2.0422 -0.4596
 4440TIP3    H213260   1.429   5.446   3.343  0.7844  1.1004 -0.2913
 4441TIP3   OH213261   3.401   4.343   2.957  0.0676  0.1159 -0.2774
 4441TIP3    H113262   3.380   4.385   2.873 -1.0377  0.5407  0.2114
 4441TIP3    H213263   3.485   4.300   2.941  1.0574  2.2003 -0.8856
 4442TIP3   OH213264   2.259   5.571   1.011 -0.6354  0.5605  0.1608
 4442TIP3    H113265   2.346   5.532   1.019 -1.1329 -1.3602 -3.1606
 4442TIP3    H213266   2.276   5.666   1.017  1.5382  0.1885  0.6017
 4443TIP3   OH213267   0.454   4.296   3.952  0.8477  0.0678  0.2009
 4443TIP3    H113268   0.476   4.205   3.970  2.0653  0.3384  0.1621
 4443TIP3    H213269   0.459   4.304   3.857  2.5786  0.5996  0.3133
 4444TIP3   OH213270   3.115   7.453   0.415  0.5452 -0.3796 -0.2492
 4444TIP3    H113271   3.061   7.380   0.384 -2.3796  1.9230 -0.7406
 4444TIP3    H213272   3.173   7.413   0.481 -1.1848 -3.0794 -0.2784
 4445TIP3   OH213273   0.861   4.362   2.785 -0.1256  0.2109 -0.1224
 4445TIP3    H113274   0.943   4.357   2.834  0.3386  0.2364 -0.8873
 4445TIP3    H213275   0.843   4.271   2.759 -0.3671  0.1972  0.1043
 4446TIP3   OH213276   1.639   4.232   2.451 -0.5174 -0.2301 -0.7498
 4446TIP3    H113277   1.575   4.214   2.519 -0.1869 -0.8510 -0.5929
 4446TIP3    H213278   1.641   4.327   2.443 -0.9987 -0.1856 -0.3178
 4447TIP3   OH213279   8.082   5.001   3.193  0.4480  0.4420 -0.7980
 4447TIP3    H113280   8.099   5.083   3.239  0.1214  0.9054 -1.4926
 4447TIP3    H213281   8.157   4.945   3.214  1.3345  1.3981 -1.4109
 4448TIP3   OH213282   2.300   5.235   2.242 -0.2305 -0.5915  0.4357
 4448TIP3    H113283   2.234   5.181   2.199 -1.2425 -0.6257  1.9865
 4448TIP3    H213284   2.311   5.195   2.329  0.8963  0.1630  0.6578
 4449TIP3   OH213285   3.098   3.855   3.377 -0.1870 -0.2460 -0.1121
 4449TIP3    H113286   3.072   3.944   3.354 -0.4030 -0.0326  0.9279
 4449TIP3    H213287   3.019   3.803   3.368 -0.0005 -0.3783 -0.9677
 4450TIP3   OH213288   1.071   4.239   3.131 -0.4911  0.6011 -0.5415
 4450TIP3    H113289   1.115   4.276   3.207 -1.6404 -0.9696  0.9157
 4450TIP3    H213290   0.979   4.261   3.143 -0.9572 -1.3261 -0.4614
 4451TIP3   OH213291   0.602   5.345   3.990 -0.2358 -0.2044  0.3257
 4451TIP3    H113292   0.560   5.262   3.969 -1.7153 -0.0437  2.5585
 4451TIP3    H213293   0.680   5.320   4.041  0.6522 -0.3269 -1.0658
 4452TIP3   OH213294   1.008   5.213   3.557  0.2747  0.4141 -0.0092
 4452TIP3    H113295   0.943   5.215   3.628  2.2976  0.4054  1.9069
 4452TIP3    H213296   1.010   5.302   3.523  0.9993  1.0391  1.6003
 4453TIP3   OH213297   0.096   4.406   3.070  0.5405 -0.4324  0.0488
 4453TIP3    H113298   0.020   4.421   3.014 -0.0305 -0.5420  0.7711
 4453TIP3    H213299   0.101   4.485   3.124  0.1141 -1.0014  0.9309
 4454TIP3   OH213300   1.108   6.307   3.238  0.2596  0.1968 -0.7588
 4454TIP3    H113301   1.128   6.344   3.152 -0.7348 -0.2331 -1.1734
 4454TIP3    H213302   1.168   6.352   3.298  1.4167  0.0112 -1.7715
 4455TIP3   OH213303   2.897   4.561   4.720  0.0639 -0.4030 -0.1891
 4455TIP3    H113304   2.866   4.471   4.718  3.3330 -1.5842  0.2058
 4455TIP3    H213305   2.892   4.591   4.629  0.9104 -1.6918 -0.6718
 4456TIP3   OH213306   1.355   4.534   3.923  0.1453  0.0581  0.2679
 4456TIP3    H113307   1.359   4.446   3.885 -0.3827  0.7118 -1.3436
 4456TIP3    H213308   1.397   4.525   4.009 -0.5753 -1.9314  0.4452
 4457TIP3   OH213309   8.478   3.846   4.168 -0.4783 -0.0163  0.4183
 4457TIP3    H113310   8.449   3.844   4.077  0.9395  0.8896 -0.0787
 4457TIP3    H213311   8.400   3.868   4.219 -1.1581 -0.0054 -0.6325
 4458TIP3   OH213312   0.395   4.449   4.591 -0.3840 -0.3040  0.6584
 4458TIP3    H113313   0.407   4.384   4.522 -1.1956 -0.1023  0.3257
 4458TIP3    H213314   0.485   4.472   4.618 -0.0749 -0.7256  0.0011
 4459TIP3   OH213315   1.248   4.337   2.437  0.0089  0.0373 -0.1189
 4459TIP3    H113316   1.260   4.254   2.482  1.1042 -0.4031 -1.1959
 4459TIP3    H213317   1.323   4.390   2.464  0.2595  0.0414 -0.8010
 4460TIP3   OH213318   0.272   4.117   4.276 -0.4706  0.0996 -0.5539
 4460TIP3    H113319   0.256   4.131   4.370  0.4582 -0.0688 -0.3706
 4460TIP3    H213320   0.274   4.205   4.239  0.8752  0.2668 -0.1261
 4461TIP3   OH213321   0.313   4.141   2.559 -0.1513 -0.0295  0.5371
 4461TIP3    H113322   0.340   4.065   2.611  0.0887 -0.9240 -0.8535
 4461TIP3    H213323   0.227   4.117   2.524  0.6445 -0.3940 -1.2712
 4462TIP3   OH213324   6.676   2.094   6.548  0.1830  0.6439  0.3746
 4462TIP3    H113325   6.688   2.092   6.453 -2.4109  1.9171 -0.0204
 4462TIP3    H213326   6.691   2.186   6.572 -3.4843  1.2716  0.5320
 4463TIP3   OH213327   0.594   2.171   6.615  0.3762 -0.1827  0.7111
 4463TIP3    H113328   0.591   2.260   6.579  3.1387 -0.3148 -0.0094
 4463TIP3    H213329   0.547   2.176   6.698  1.9514  2.3806  1.5118
 4464TIP3   OH213330   0.096   7.828   2.505  0.3963 -0.2999  0.4025
 4464TIP3    H113331   0.002   7.831   2.523  0.2604 -0.0011 -0.3476
 4464TIP3    H213332   0.137   7.848   2.589 -0.2098 -0.3915  0.7261
 4465TIP3   OH213333   0.958   4.438   2.506  0.2737 -0.0903 -0.7111
 4465TIP3    H113334   0.937   4.418   2.598  1.2041 -3.1355 -1.0877
 4465TIP3    H213335   1.041   4.485   2.510  0.8974 -1.2267 -0.0357
 4466TIP3   OH213336   2.379   6.006   2.667  0.4456 -0.1870  0.0980
 4466TIP3    H113337   2.303   5.949   2.671 -2.6379  3.7594  1.2722
 4466TIP3    H213338   2.387   6.028   2.574  0.1871 -0.6535 -0.0345
 4467TIP3   OH213339   1.525   5.571   3.839 -0.3693  0.1432 -0.3333
 4467TIP3    H113340   1.503   5.494   3.787  1.2698 -0.4227 -0.2387
 4467TIP3    H213341   1.547   5.536   3.925  0.2110  0.7141 -0.2416
 4468TIP3   OH213342   4.095   5.122   2.651 -0.2113 -0.0059 -0.1071
 4468TIP3    H113343   4.099   5.140   2.745 -2.4885  0.0996 -0.0115
 4468TIP3    H213344   4.081   5.208   2.611  1.0748 -0.0062 -0.5879
 4469TIP3   OH213345   3.657   5.303   2.068 -0.3215  0.1269  0.7022
 4469TIP3    H113346   3.562   5.292   2.065 -0.2749 -0.4109  1.0886
 4469TIP3    H213347   3.690   5.215   2.087  0.2761  0.2265  0.1114
 4470TIP3   OH213348   2.362   5.837   1.286  0.1359 -0.3417 -0.5326
 4470TIP3    H113349   2.333   5.860   1.374 -0.6536 -1.3281 -0.5288
 4470TIP3    H213350   2.282   5.836   1.234  0.9789  3.5310 -2.0308
 4471TIP3   OH213351   3.294   5.674   3.589  0.3058  0.1584 -0.1902
 4471TIP3    H113352   3.316   5.623   3.667 -1.3681  1.6268  1.2874
 4471TIP3    H213353   3.247   5.611   3.533  1.4294 -0.8799  0.0118
 4472TIP3   OH213354   3.383   6.178   1.573 -0.4857 -0.3527  0.3530
 4472TIP3    H113355   3.469   6.179   1.532 -1.2549  1.0647 -1.2815
 4472TIP3    H213356   3.337   6.105   1.530 -0.8970  0.3969 -0.4910
 4473TIP3   OH213357   8.263   2.045   6.861 -0.2480 -0.1798  0.2951
 4473TIP3    H113358   8.304   2.127   6.834  0.1401 -0.8023 -1.0315
 4473TIP3    H213359   8.279   1.985   6.789 -0.7032 -1.3752  1.1685
 4474TIP3   OH213360   1.464   5.387   1.148  0.3506 -0.4694 -0.0743
 4474TIP3    H113361   1.510   5.414   1.227  0.5986  0.1104 -0.4075
 4474TIP3    H213362   1.446   5.294   1.160  2.7790 -1.0171 -0.5040
 4475TIP3   OH213363   2.659   6.322   3.675  0.3707 -0.4924  0.0838
 4475TIP3    H113364   2.670   6.401   3.621  2.3420  1.0222  2.5533
 4475TIP3    H213365   2.696   6.251   3.622  0.2010  0.5423 -1.4608
 4476TIP3   OH213366   8.326   6.304   0.561 -0.8941  0.3455 -0.2079
 4476TIP3    H113367   8.293   6.257   0.485  0.5683  0.0520 -0.6659
 4476TIP3    H213368   8.382   6.373   0.525 -2.3663  1.9368  0.4930
 4477TIP3   OH213369   1.866   4.279   2.044 -0.1169 -0.2286  0.0903
 4477TIP3    H113370   1.780   4.260   2.082 -0.8546  1.0837 -0.8437
 4477TIP3    H213371   1.863   4.373   2.024  1.3162 -0.2951 -0.5094
 4478TIP3   OH213372   1.653   3.495   3.930  0.0784 -0.3831 -0.1040
 4478TIP3    H113373   1.610   3.413   3.906 -1.1705  0.2617 -0.1373
 4478TIP3    H213374   1.614   3.518   4.014 -0.2422  0.6440 -0.5327
 4479TIP3   OH213375   0.893   5.771   1.653 -0.6534  0.0175  0.0691
 4479TIP3    H113376   0.836   5.741   1.723 -0.4189  0.1733  0.3265
 4479TIP3    H213377   0.981   5.743   1.680 -0.5679  0.0329 -0.1866
 4480TIP3   OH213378   7.047   4.818   0.224 -0.2343  0.0364  0.5078
 4480TIP3    H113379   7.021   4.871   0.149  3.1571  0.2154 -0.6646
 4480TIP3    H213380   7.056   4.881   0.295 -2.2525  0.0590  0.7575
 4481TIP3   OH213381   3.786   5.625   1.726 -0.1770  0.5512 -0.0398
 4481TIP3    H113382   3.853   5.682   1.763  0.6731  0.3719 -1.2648
 4481TIP3    H213383   3.797   5.541   1.771  0.7224  0.3926 -0.5482
 4482TIP3   OH213384   3.352   3.860   3.954  0.0612 -0.4962  0.4932
 4482TIP3    H113385   3.391   3.792   4.010 -2.0176 -1.7457  0.4645
 4482TIP3    H213386   3.377   3.835   3.865 -1.1257 -1.5486  0.4367
 4483TIP3   OH213387   0.649   5.668   2.462  0.2495  0.3120  0.0817
 4483TIP3    H113388   0.640   5.732   2.391 -0.5144  1.5650  1.2850
 4483TIP3    H213389   0.739   5.677   2.492  0.6797 -0.4719 -0.9566
 4484TIP3   OH213390   2.426   6.202   4.775  0.0559 -0.1508 -0.2439
 4484TIP3    H113391   2.407   6.295   4.788 -0.9405 -0.6750  2.1021
 4484TIP3    H213392   2.472   6.175   4.854  0.1492 -1.7258 -0.8169
 4485TIP3   OH213393   3.031   5.264   1.765  0.1407 -0.1057  0.2710
 4485TIP3    H113394   3.058   5.173   1.768 -1.0652 -0.5383 -1.4301
 4485TIP3    H213395   2.936   5.262   1.771  0.0572  0.9783 -0.4580
 4486TIP3   OH213396   3.782   5.302   3.302 -0.1567 -0.2303  0.2025
 4486TIP3    H113397   3.851   5.351   3.258 -2.0848  0.8802 -1.7084
 4486TIP3    H213398   3.713   5.293   3.235 -2.1327 -0.6799  2.2480
 4487TIP3   OH213399   2.072   5.257   1.519  0.4114  0.5979 -0.3877
 4487TIP3    H113400   2.166   5.243   1.532  0.8352  0.2061 -3.5276
 4487TIP3    H213401   2.036   5.169   1.506 -0.5059  0.7078  1.2185
 4488TIP3   OH213402   3.308   5.464   5.067 -0.3181  0.6463  0.0956
 4488TIP3    H113403   3.353   5.453   4.983  3.4499 -2.0054  2.2743
 4488TIP3    H213404   3.240   5.397   5.067  1.1223 -0.8718 -0.0258
 4489TIP3   OH213405   2.014   3.497   2.074 -0.2983 -0.1552  0.6700
 4489TIP3    H113406   2.010   3.562   2.145 -1.5075 -1.6235  1.9931
 4489TIP3    H213407   2.063   3.424   2.112  2.9764  0.8158 -1.5397
 4490TIP3   OH213408   4.302   4.842   2.581  0.5733 -0.5988 -0.1067
 4490TIP3    H113409   4.296   4.833   2.486  1.5097 -0.9026 -0.1338
 4490TIP3    H213410   4.238   4.780   2.615  0.3827 -0.6353 -0.5316
 4491TIP3   OH213411   0.605   4.779   2.907  0.2210 -0.3853  0.1476
 4491TIP3    H113412   0.638   4.843   2.845 -1.3570  0.2032 -0.1229
 4491TIP3    H213413   0.628   4.694   2.869  0.1047 -0.0098 -0.7728
 4492TIP3   OH213414   2.224   4.032   3.350  0.1914 -0.2482  0.2804
 4492TIP3    H113415   2.138   4.030   3.308 -0.3724 -0.0982  1.4111
 4492TIP3    H213416   2.218   4.104   3.412  1.7477  0.9542 -0.9038
 4493TIP3   OH213417   0.911   5.089   5.917 -0.2936 -0.3102  0.5223
 4493TIP3    H113418   0.902   5.051   6.004  3.5757  1.7308  1.9759
 4493TIP3    H213419   0.953   5.021   5.865  0.9592 -0.2481  1.4050
 4494TIP3   OH213420   0.540   5.573   4.431  0.3084 -0.1404 -0.1790
 4494TIP3    H113421   0.539   5.628   4.352 -0.0784 -2.1762 -1.6366
 4494TIP3    H213422   0.542   5.635   4.503  1.6689  1.7784 -1.8098
 4495TIP3   OH213423   1.177   7.136   4.726  0.2337  0.7233  0.3291
 4495TIP3    H113424   1.219   7.222   4.732 -0.9666  1.4006 -0.6572
 4495TIP3    H213425   1.229   7.088   4.661  1.3994  0.4049  1.4966
 4496TIP3   OH213426   1.482   6.994   0.617 -0.5478 -0.2355 -0.5080
 4496TIP3    H113427   1.423   6.924   0.591 -0.5366  0.0091 -1.1864
 4496TIP3    H213428   1.469   7.002   0.712  0.3586 -2.0122 -0.1979
 4497TIP3   OH213429   2.569   5.321   1.260  0.2680  0.2589 -0.0386
 4497TIP3    H113430   2.571   5.227   1.245 -1.0634  0.0711  0.9178
 4497TIP3    H213431   2.649   5.339   1.310  0.5781 -0.3391 -0.3108
 4498TIP3   OH213432   1.339   6.040   3.531 -0.5961 -0.1464 -0.3987
 4498TIP3    H113433   1.298   6.124   3.512 -2.7184 -1.1200 -0.2372
 4498TIP3    H213434   1.278   5.996   3.590 -1.2826 -3.2400 -3.2593
 4499TIP3   OH213435   0.441   6.023   1.869  1.1521 -0.1633 -0.3938
 4499TIP3    H113436   0.379   5.957   1.900  2.0879 -0.6567  0.4782
 4499TIP3    H213437   0.485   6.053   1.949 -0.7408  3.0873 -0.4563
 4500TIP3   OH213438   3.244   0.318   1.282 -0.0172 -0.3438 -0.0649
 4500TIP3    H113439   3.202   0.304   1.197 -2.8824  1.3074  1.0084
 4500TIP3    H213440   3.233   0.235   1.329 -1.2411 -0.2392 -0.1620
 4501TIP3   OH213441   4.815   6.236   0.134 -0.4178  0.4171  0.5957
 4501TIP3    H113442   4.806   6.198   0.221  1.1171  2.6990  1.7841
 4501TIP3    H213443   4.892   6.292   0.139 -0.5414  0.9221 -2.1171
 4502TIP3   OH213444   3.136   4.736   2.444 -0.4483 -0.0443  0.1763
 4502TIP3    H113445   3.136   4.830   2.424 -0.9468  0.3662  1.9785
 4502TIP3    H213446   3.163   4.694   2.363 -0.7774  1.6287 -0.8193
 4503TIP3   OH213447   2.770   5.843   3.382 -0.9285  0.0235 -0.2691
 4503TIP3    H113448   2.753   5.773   3.319 -2.0748  1.5083 -1.6483
 4503TIP3    H213449   2.866   5.851   3.384 -0.9023  0.4043 -2.3490
 4504TIP3   OH213450   1.198   3.907   3.320 -0.1760 -0.2013 -0.5416
 4504TIP3    H113451   1.273   3.883   3.266 -0.0087  1.0794 -0.9047
 4504TIP3    H213452   1.157   3.824   3.343 -0.2057 -0.7863 -2.5785
 4505TIP3   OH213453   1.173   4.760   1.480  0.8571  0.1425 -0.0771
 4505TIP3    H113454   1.103   4.804   1.528 -1.2263 -1.4163 -1.5803
 4505TIP3    H213455   1.136   4.674   1.458  2.6455 -0.0748 -2.3365
 4506TIP3   OH213456   8.223   4.178   3.312 -0.3555 -0.1892  0.2754
 4506TIP3    H113457   8.160   4.242   3.280  0.4109  0.9202  0.9358
 4506TIP3    H213458   8.284   4.165   3.239 -0.1667  0.2946  0.3448
 4507TIP3   OH213459   1.112   4.171   4.607 -0.3764 -0.2696  0.5965
 4507TIP3    H113460   1.036   4.160   4.550  1.4440 -1.4034 -1.7172
 4507TIP3    H213461   1.160   4.245   4.570  0.6726 -0.8271  0.8135
 4508TIP3   OH213462   3.678   3.319   0.780 -0.0594  0.0444 -0.2420
 4508TIP3    H113463   3.627   3.397   0.803 -1.6675 -1.8196  2.7832
 4508TIP3    H213464   3.621   3.270   0.720  0.7451  0.8937 -1.7381
 4509TIP3   OH213465   1.020   3.230   3.909  0.2571  0.1342  0.0426
 4509TIP3    H113466   1.079   3.298   3.939  0.4102 -0.1709  0.4385
 4509TIP3    H213467   1.046   3.213   3.818  0.0413  0.7871 -0.1448
 4510TIP3   OH213468   1.368   4.271   3.843  0.4365  0.7573  0.3734
 4510TIP3    H113469   1.351   4.177   3.852 -0.5231  0.9549  0.6753
 4510TIP3    H213470   1.448   4.286   3.893  0.7012  0.0668  0.1669
 4511TIP3   OH213471   0.087   4.469   1.599 -0.3253 -0.4070  0.0168
 4511TIP3    H113472   0.108   4.528   1.527  0.8122 -0.9001 -0.0670
 4511TIP3    H213473   0.010   4.421   1.570  0.0641 -0.5264 -0.8278
 4512TIP3   OH213474   2.075   4.666   2.758 -0.3587 -0.4768  0.0284
 4512TIP3    H113475   2.099   4.594   2.700 -1.4835 -0.2743 -0.6979
 4512TIP3    H213476   2.159   4.700   2.789  0.1702 -2.4721  0.8782
 4513TIP3   OH213477   2.918   1.979   1.227  0.0403 -0.0954 -0.5163
 4513TIP3    H113478   2.879   2.018   1.305 -1.2693  3.4523 -2.8356
 4513TIP3    H213479   2.853   1.917   1.195 -0.5678  0.3999 -0.2473
 4514TIP3   OH213480   1.966   5.602   3.568  0.0818 -0.1741  1.0065
 4514TIP3    H113481   1.952   5.507   3.560 -0.5817 -0.0472  0.5915
 4514TIP3    H213482   1.901   5.630   3.632 -1.6921  0.4354 -1.0002
 4515TIP3   OH213483   8.325   3.113   1.347 -0.1236 -0.2063  0.2956
 4515TIP3    H113484   8.264   3.058   1.298 -0.9003  0.5039  0.4523
 4515TIP3    H213485   8.394   3.135   1.284 -1.2527  0.9297 -0.5918
 4516TIP3   OH213486   0.331   3.856   1.923  0.5543 -0.2363  0.2487
 4516TIP3    H113487   0.334   3.949   1.901  0.2996 -0.4480 -0.7289
 4516TIP3    H213488   0.377   3.849   2.006  0.8729  0.7140  0.1569
 4517TIP3   OH213489   0.830   5.882   1.153 -0.2100 -0.6993 -0.1906
 4517TIP3    H113490   0.762   5.867   1.087  1.4929 -0.6918 -1.9763
 4517TIP3    H213491   0.802   5.829   1.228 -2.0092 -0.9639 -1.0287
 4518TIP3   OH213492   3.084   6.554   1.608  0.2125 -0.4033 -0.1051
 4518TIP3    H113493   3.109   6.506   1.529 -1.2696 -0.2713 -0.6739
 4518TIP3    H213494   3.089   6.646   1.582 -0.5092 -0.3679 -0.1077
 4519TIP3   OH213495   0.053   4.096   2.424  0.0074  0.0057 -0.0519
 4519TIP3    H113496  -0.007   4.106   2.350  0.2773  0.3855 -0.2224
 4519TIP3    H213497   0.028   4.013   2.464  0.9233 -1.0093 -1.5558
 4520TIP3   OH213498   7.954   5.307   3.957 -0.1998 -0.2530 -0.4561
 4520TIP3    H113499   7.883   5.355   4.000 -0.9162 -1.5223 -0.1779
 4520TIP3    H213500   7.909   5.242   3.903  0.7638 -1.8048  0.5694
 4521TIP3   OH213501   1.101   6.283   1.658  0.0241  0.4414  0.1489
 4521TIP3    H113502   1.133   6.305   1.571 -1.7430  0.6378 -0.4689
 4521TIP3    H213503   1.058   6.198   1.647  0.0971  0.3014  0.9018
 4522TIP3   OH213504   0.597   4.968   4.018  0.3912 -0.2263  0.5091
 4522TIP3    H113505   0.614   4.978   3.925  1.2765  0.8037  0.7672
 4522TIP3    H213506   0.684   4.963   4.058  0.0112 -1.9034  1.1574
 4523TIP3   OH213507   2.129   6.506   3.282  0.0139  0.3959 -0.3157
 4523TIP3    H113508   2.146   6.511   3.188  0.7110 -1.0571 -0.2790
 4523TIP3    H213509   2.187   6.436   3.313  0.4562  1.4672  1.3509
 4524TIP3   OH213510   8.016   0.859   5.825  0.2165  0.4986 -0.3698
 4524TIP3    H113511   7.998   0.873   5.918  2.6170  1.9478 -0.0695
 4524TIP3    H213512   7.971   0.930   5.780 -0.5003  0.1092 -0.2683
 4525TIP3   OH213513   3.920   5.397   3.767 -0.1651 -0.0606  0.1060
 4525TIP3    H113514   3.940   5.323   3.824  0.3392  0.1431  0.1987
 4525TIP3    H213515   3.903   5.358   3.681 -0.7842 -0.3547  0.3571
 4526TIP3   OH213516   3.811   7.297   4.077  0.5465 -0.4156 -0.1439
 4526TIP3    H113517   3.833   7.287   4.170  1.0437 -1.4732 -0.3706
 4526TIP3    H213518   3.758   7.220   4.056  0.8665 -0.4446 -0.8661
 4527TIP3   OH213519   4.085   6.668   2.413  0.0064 -0.1648  0.1693
 4527TIP3    H113520   4.131   6.651   2.495 -0.9643  0.4210  0.8440
 4527TIP3    H213521   4.151   6.711   2.357  0.5077 -0.0479  0.8422
 4528TIP3   OH213522   3.547   5.709   1.905  0.0404  0.6707  0.5833
 4528TIP3    H113523   3.570   5.724   1.997  0.0011  3.6035  0.1577
 4528TIP3    H213524   3.628   5.723   1.857 -0.0426 -0.4017  0.1243
 4529TIP3   OH213525   3.157   5.014   1.789 -0.4839 -0.1513  0.5897
 4529TIP3    H113526   3.221   5.006   1.719  0.4109 -0.2988  1.4087
 4529TIP3    H213527   3.119   4.926   1.797 -0.4267 -0.1900  0.4335
 4530TIP3   OH213528   4.044   3.998   1.242 -0.1274 -1.1188  0.7924
 4530TIP3    H113529   4.070   3.906   1.231  0.1156 -0.9146 -0.4490
 4530TIP3    H213530   3.967   4.007   1.187  0.5484 -0.2819 -0.0213
 4531TIP3   OH213531   4.076   5.429   1.953 -0.2663 -0.0843 -0.1636
 4531TIP3    H113532   4.118   5.382   1.881 -0.2653 -0.1575 -0.1161
 4531TIP3    H213533   4.139   5.422   2.026  0.7276  1.8785 -0.8047
 4532TIP3   OH213534   2.841   7.344   1.999 -0.1536 -0.0000 -0.5312
 4532TIP3    H113535   2.788   7.421   1.979 -0.7975 -0.1057  0.6889
 4532TIP3    H213536   2.779   7.271   1.995 -0.2915 -0.0439  1.5762
 4533TIP3   OH213537   3.913   5.159   0.943 -0.1740  0.1316  0.1712
 4533TIP3    H113538   3.842   5.220   0.928  0.4074  0.9859  0.8436
 4533TIP3    H213539   3.993   5.208   0.922  0.2053 -0.8772 -0.7742
 4534TIP3   OH213540   4.332   5.659   2.488 -0.4418  0.0465 -0.5862
 4534TIP3    H113541   4.303   5.570   2.505 -0.0619  0.0769  0.2718
 4534TIP3    H213542   4.300   5.709   2.564  1.0806  0.2525 -0.0696
 4535TIP3   OH213543   2.504   4.730   1.367  0.5547  0.2526 -0.4937
 4535TIP3    H113544   2.577   4.671   1.345 -1.1913 -2.2581  0.2889
 4535TIP3    H213545   2.512   4.743   1.462  0.1797  0.2746 -0.4668
 4536TIP3   OH213546   5.178   4.051   1.513 -1.2240  0.9749  0.6862
 4536TIP3    H113547   5.104   3.996   1.538 -0.2734 -0.3615  0.5553
 4536TIP3    H213548   5.192   4.034   1.420 -0.0631  0.3943  0.9539
 4537TIP3   OH213549   3.970   3.391   3.103 -0.0390  0.1279  0.2295
 4537TIP3    H113550   3.939   3.482   3.098  1.3050  0.5763 -0.2318
 4537TIP3    H213551   4.007   3.384   3.191 -0.6039 -0.1263  0.4464
 4538TIP3   OH213552   2.678   4.986   1.999 -0.2330  0.2153 -1.1943
 4538TIP3    H113553   2.603   4.936   2.031  0.7426 -0.8627 -0.5581
 4538TIP3    H213554   2.675   5.068   2.048 -0.7710  0.0197 -0.8975
 4539TIP3   OH213555   5.323   5.918   4.205 -0.1233  0.0988 -0.3338
 4539TIP3    H113556   5.313   5.964   4.289  0.1769  0.7804 -0.6671
 4539TIP3    H213557   5.387   5.849   4.223 -1.0057 -0.5472  0.3133
 4540TIP3   OH213558   1.612   4.501   2.761  0.0970 -0.2698 -0.0940
 4540TIP3    H113559   1.591   4.570   2.824  0.1220 -2.5774  2.5272
 4540TIP3    H213560   1.707   4.492   2.766  0.0079 -1.0490  0.1428
 4541TIP3   OH213561   4.849   6.686   1.026 -0.0575  0.6295 -0.0121
 4541TIP3    H113562   4.803   6.605   1.009 -0.1392  1.0265 -1.7554
 4541TIP3    H213563   4.927   6.660   1.075  0.0418 -0.5225 -0.7829
 4542TIP3   OH213564   2.164   6.063   0.619 -0.0726 -0.1638 -0.4823
 4542TIP3    H113565   2.108   6.017   0.556  0.3753 -0.7097 -0.4812
 4542TIP3    H213566   2.171   6.152   0.584 -0.5845 -0.2108 -0.7142
 4543TIP3   OH213567   2.966   4.848   1.559 -0.2571 -0.1768  0.9725
 4543TIP3    H113568   2.922   4.933   1.561  0.0875  0.0430 -0.5859
 4543TIP3    H213569   3.049   4.865   1.514 -0.2187 -1.3613  0.5957
 4544TIP3   OH213570   1.689   5.047   0.491  0.3385  0.7973  0.0618
 4544TIP3    H113571   1.693   4.954   0.469 -2.0406  0.6148  0.2735
 4544TIP3    H213572   1.737   5.055   0.574  1.9166  0.0376 -0.7752
 4545TIP3   OH213573   4.407   6.636   1.829  0.2114 -0.1178  0.4894
 4545TIP3    H113574   4.396   6.694   1.904  0.7665 -2.3425  2.3781
 4545TIP3    H213575   4.329   6.580   1.830  0.5487 -0.6107 -0.1703
 4546TIP3   OH213576   3.174   4.693   2.990  0.3651  0.1993  0.2801
 4546TIP3    H113577   3.158   4.717   2.898 -1.7892 -0.0118  0.5878
 4546TIP3    H213578   3.143   4.768   3.040  0.2193 -0.2822  0.9138
 4547TIP3   OH213579   5.587   7.002   2.860 -0.0048  0.3966  0.3985
 4547TIP3    H113580   5.643   7.046   2.795  0.9546 -0.3451  0.7025
 4547TIP3    H213581   5.579   6.912   2.828  0.5603 -0.0028  1.3446
 4548TIP3   OH213582   3.244   5.475   2.909  0.3103  0.5703  0.2414
 4548TIP3    H113583   3.320   5.515   2.951  1.6813  0.5176 -2.0922
 4548TIP3    H213584   3.194   5.549   2.874  0.0067  0.5360  0.6075
 4549TIP3   OH213585   5.287   5.655   1.048 -0.1710 -0.7276 -0.0765
 4549TIP3    H113586   5.269   5.563   1.026  1.5155 -1.2911  0.7687
 4549TIP3    H213587   5.382   5.659   1.056 -0.0837  1.5231 -1.9013
 4550TIP3   OH213588   7.498   0.177   1.503  0.1035 -0.1836  0.3540
 4550TIP3    H113589   7.455   0.135   1.578 -1.3267 -1.2079 -0.9980
 4550TIP3    H213590   7.450   0.259   1.491 -0.3822 -0.5287 -0.0981
 4551TIP3   OH213591   4.031   4.533   1.730  0.2052  0.0109  0.7789
 4551TIP3    H113592   3.971   4.463   1.754 -0.1350  0.2766  0.6995
 4551TIP3    H213593   4.078   4.499   1.654  0.3152 -0.2846  0.9797
 4552TIP3   OH213594   3.360   6.455   4.821 -0.1943 -0.1161 -1.2728
 4552TIP3    H113595   3.430   6.514   4.850 -0.1721 -0.7890  0.0825
 4552TIP3    H213596   3.395   6.412   4.743  1.0493 -0.6935 -0.4199
 4553TIP3   OH213597   6.687   6.165   1.036 -0.4746 -0.0330 -0.5248
 4553TIP3    H113598   6.611   6.109   1.052  0.8068 -1.7570 -0.3163
 4553TIP3    H213599   6.650   6.252   1.019 -2.4896 -0.9127 -0.7443
 4554TIP3   OH213600   4.104   5.414   0.978 -0.3984  0.2462  0.1596
 4554TIP3    H113601   4.093   5.457   0.893  0.7460  0.8048  0.2777
 4554TIP3    H213602   4.104   5.487   1.041  1.6295  0.1074  0.3594
 4555TIP3   OH213603   4.518   6.498   0.161 -0.0368 -0.3001 -0.4722
 4555TIP3    H113604   4.586   6.539   0.109  0.5528 -2.3021 -1.3412
 4555TIP3    H213605   4.473   6.439   0.100 -0.9233 -0.8466  0.6830
 4556TIP3   OH213606   5.864   6.631   1.594  0.4174  0.1382  0.2316
 4556TIP3    H113607   5.831   6.712   1.632  0.6109  0.3736 -0.0974
 4556TIP3    H213608   5.905   6.658   1.512 -1.4003 -0.5642 -0.9331
 4557TIP3   OH213609   5.127   4.574   3.161 -0.3899  0.2071 -0.1961
 4557TIP3    H113610   5.184   4.512   3.205  0.4078  0.5222 -0.7790
 4557TIP3    H213611   5.045   4.572   3.211  0.4961  0.5666  1.2815
 4558TIP3   OH213612   3.695   4.701   1.477 -0.0694 -0.4560 -0.2383
 4558TIP3    H113613   3.675   4.645   1.552  1.4734  0.6267  1.0246
 4558TIP3    H213614   3.728   4.642   1.410  0.5339 -1.2035  0.7078
 4559TIP3   OH213615   3.940   6.204   0.055  0.2540  0.1475  0.4433
 4559TIP3    H113616   3.861   6.151   0.066 -0.2032  0.6528 -0.3462
 4559TIP3    H213617   3.915   6.272  -0.007  1.1933  0.5673  0.5086
 4560TIP3   OH213618   5.177   6.444   1.411 -0.1636 -0.6128 -0.5406
 4560TIP3    H113619   5.161   6.354   1.383  0.6211 -0.6038 -1.0524
 4560TIP3    H213620   5.264   6.440   1.451  0.6527  0.2599 -2.1853
 4561TIP3   OH213621   3.923   6.368   1.408  0.6096 -0.2114  0.0485
 4561TIP3    H113622   3.966   6.290   1.373  0.4201 -0.0258 -0.6106
 4561TIP3    H213623   3.867   6.398   1.337 -0.6595 -0.4816  0.9131
 4562TIP3   OH213624   3.359   4.723   0.776  0.1494 -0.5441 -0.1423
 4562TIP3    H113625   3.447   4.759   0.784  0.4218 -1.1923 -0.2260
 4562TIP3    H213626   3.302   4.800   0.778  0.6252 -0.2075  1.2752
 4563TIP3   OH213627   2.258   4.784   3.812 -0.1366 -0.2027  0.3630
 4563TIP3    H113628   2.197   4.733   3.865  0.4334  0.4601  1.6761
 4563TIP3    H213629   2.203   4.832   3.751 -0.7187 -1.9384 -0.4968
 4564TIP3   OH213630   4.793   5.862   0.913 -0.3908 -0.5955 -0.3088
 4564TIP3    H113631   4.881   5.884   0.942 -1.0415  0.9699  0.5130
 4564TIP3    H213632   4.760   5.802   0.980  0.2644 -1.7002 -0.9546
 4565TIP3   OH213633   6.236   3.000   5.979  0.3037  0.4512  0.1983
 4565TIP3    H113634   6.173   3.072   5.978 -1.4917 -1.0965 -1.2868
 4565TIP3    H213635   6.266   2.995   6.070 -0.8013  1.9670  0.6610
 4566TIP3   OH213636   0.787   5.239   4.145 -0.2758 -0.1769 -0.4196
 4566TIP3    H113637   0.755   5.170   4.203  1.4055 -2.5077 -2.1823
 4566TIP3    H213638   0.869   5.268   4.186 -0.9187  0.7561  0.2528
 4567TIP3   OH213639   4.505   6.688   1.264 -0.4066 -0.3936  0.3028
 4567TIP3    H113640   4.445   6.690   1.338 -1.1250 -0.5097 -0.2712
 4567TIP3    H213641   4.462   6.741   1.197 -0.6524 -1.8129 -0.6990
 4568TIP3   OH213642   1.411   5.600   0.407  0.3028  0.6722 -0.3368
 4568TIP3    H113643   1.433   5.681   0.454  0.7208  1.6697 -2.2064
 4568TIP3    H213644   1.496   5.566   0.377  0.1642 -0.6520  0.6982
 4569TIP3   OH213645   4.155   7.610   1.721  0.0673  0.4029  0.2670
 4569TIP3    H113646   4.138   7.640   1.631 -2.2050  0.4760  0.6780
 4569TIP3    H213647   4.145   7.515   1.716  0.6091  0.3427  0.3157
 4570TIP3   OH213648   3.587   5.921   2.598  0.2049  0.0686 -0.6884
 4570TIP3    H113649   3.592   5.844   2.655 -0.5249  0.2121 -0.4386
 4570TIP3    H213650   3.626   5.992   2.649  1.1430 -0.1912 -1.0267
 4571TIP3   OH213651   1.272   5.468   2.270  0.3772 -0.6685  0.9920
 4571TIP3    H113652   1.241   5.478   2.179  2.1545  1.2567  0.5733
 4571TIP3    H213653   1.321   5.385   2.269  0.5767 -0.5494  0.1370
 4572TIP3   OH213654   6.728   7.115   3.093  0.3690 -0.1415  0.2774
 4572TIP3    H113655   6.780   7.107   3.012  0.7140 -0.9297  0.5759
 4572TIP3    H213656   6.676   7.035   3.096 -0.6562  0.5142  0.1326
 4573TIP3   OH213657   2.109   5.323   2.921  0.3897  0.0888  0.0706
 4573TIP3    H113658   2.099   5.230   2.945 -0.5403 -0.2324 -1.5131
 4573TIP3    H213659   2.093   5.370   3.003 -0.3507 -1.0927  0.6270
 4574TIP3   OH213660   2.953   5.552   0.634 -0.5742  0.4312 -0.3508
 4574TIP3    H113661   2.866   5.573   0.669  0.4183  0.8233  1.9519
 4574TIP3    H213662   2.981   5.633   0.592 -0.7154  0.7854  0.2208
 4575TIP3   OH213663   2.873   7.587   0.033 -0.0289  0.2658 -0.0749
 4575TIP3    H113664   2.828   7.601  -0.050  0.2481  1.0877 -0.0887
 4575TIP3    H213665   2.926   7.509   0.019  0.0769  0.4485 -0.6902
 4576TIP3   OH213666   3.202   5.185   2.870 -0.0585  0.5475 -0.0641
 4576TIP3    H113667   3.137   5.164   2.804  2.9372 -0.5069 -2.8379
 4576TIP3    H213668   3.229   5.275   2.850  0.8495  0.2342 -0.2621
 4577TIP3   OH213669   3.610   5.776   4.108  0.3092 -0.4275 -0.4088
 4577TIP3    H113670   3.553   5.757   4.033  0.0065 -0.0180 -0.2821
 4577TIP3    H213671   3.674   5.704   4.108 -0.6119 -1.2568 -0.1436
 4578TIP3   OH213672   4.509   6.334   0.812 -0.2054  0.3939 -0.2499
 4578TIP3    H113673   4.571   6.262   0.801 -0.7540 -0.0571 -0.4259
 4578TIP3    H213674   4.467   6.343   0.726 -0.8255  0.2901  0.0417
 4579TIP3   OH213675   4.663   4.365   1.513  0.2848  0.0883 -0.4818
 4579TIP3    H113676   4.635   4.295   1.571  3.1459  0.9434  2.0685
 4579TIP3    H213677   4.715   4.321   1.446 -0.0553 -0.5053 -0.3556
 4580TIP3   OH213678   3.508   6.898   2.700  0.5582 -0.4089 -0.1182
 4580TIP3    H113679   3.461   6.830   2.653  1.1633 -1.1824  0.3903
 4580TIP3    H213680   3.600   6.883   2.679  0.7670 -0.2850  0.6835
 4581TIP3   OH213681   4.000   5.711   2.586 -0.2243  0.4300  0.2429
 4581TIP3    H113682   3.942   5.775   2.627 -1.5933 -1.7197  1.7195
 4581TIP3    H213683   3.972   5.708   2.494 -1.1795  0.8206  0.5199
 4582TIP3   OH213684   3.613   7.103   1.637 -0.6834 -0.0195 -0.5905
 4582TIP3    H113685   3.667   7.142   1.706  0.1664  0.5969 -1.5865
 4582TIP3    H213686   3.649   7.138   1.555 -1.1764 -1.3481 -1.3962
 4583TIP3   OH213687   1.983   6.338   1.103  0.2715  0.6859 -0.4103
 4583TIP3    H113688   1.978   6.386   1.185 -2.1460  0.6385 -0.4995
 4583TIP3    H213689   2.058   6.280   1.113  0.7096  1.5253  1.2870
 4584TIP3   OH213690   1.885   4.209   3.393  0.7399  0.2544 -0.1115
 4584TIP3    H113691   1.865   4.116   3.381  1.4642  0.0940 -0.0874
 4584TIP3    H213692   1.951   4.228   3.327  0.5547  0.7734 -0.1540
 4585TIP3   OH213693   1.766   5.319   0.001 -0.1968 -0.4387 -0.2013
 4585TIP3    H113694   1.814   5.248   0.043  0.5570 -0.5699 -1.2698
 4585TIP3    H213695   1.680   5.318   0.043  0.2407 -1.1499  0.6875
 4586TIP3   OH213696   4.136   6.019   0.795  0.3803  0.3240 -0.3322
 4586TIP3    H113697   4.086   5.946   0.758  0.3709  0.4828 -0.6317
 4586TIP3    H213698   4.156   6.075   0.720  1.1102  0.2028 -0.2352
 4587TIP3   OH213699   3.550   7.172   2.713 -0.2392  0.1947 -0.2889
 4587TIP3    H113700   3.518   7.082   2.704 -0.5414  0.3141 -0.4465
 4587TIP3    H213701   3.471   7.225   2.707 -0.2569  0.3778  1.4645
 4588TIP3   OH213702   4.708   3.981   1.006  0.2948  0.0553 -0.6358
 4588TIP3    H113703   4.769   4.023   0.945  0.8084 -0.8384 -0.7609
 4588TIP3    H213704   4.760   3.911   1.046 -0.2004  0.3066  0.4385
 4589TIP3   OH213705   2.391   4.195   3.874  0.2728 -0.0926  0.4336
 4589TIP3    H113706   2.349   4.151   3.948  2.2786 -0.0153  1.6339
 4589TIP3    H213707   2.384   4.133   3.802 -2.5500  0.2103  0.3873
 4590TIP3   OH213708   2.645   7.495   0.649  0.1019  0.4385  0.7966
 4590TIP3    H113709   2.695   7.476   0.570 -0.4420  3.2199 -0.2493
 4590TIP3    H213710   2.553   7.482   0.624 -0.0030  0.1469  1.3156
 4591TIP3   OH213711   3.939   5.928   2.749  0.2762  0.3503 -0.4757
 4591TIP3    H113712   3.916   5.873   2.824  0.4655  1.9095  0.7374
 4591TIP3    H213713   3.957   6.014   2.786  0.8264  1.0335 -2.2616
 4592TIP3   OH213714   0.868   1.075   6.453 -0.0581  0.2051  0.6021
 4592TIP3    H113715   0.810   1.041   6.385 -0.4972  0.4180  0.8626
 4592TIP3    H213716   0.815   1.074   6.532 -0.0666  1.4400  0.6212
 4593TIP3   OH213717   3.883   5.741   3.713 -0.3313  0.3506  0.0996
 4593TIP3    H113718   3.849   5.822   3.752 -1.8798 -0.2325 -0.0100
 4593TIP3    H213719   3.908   5.687   3.788  0.4387  0.8038  0.1789
 4594TIP3   OH213720   0.957   1.347   6.676  0.4500  0.2533  0.1031
 4594TIP3    H113721   0.939   1.439   6.697  2.7200  0.7613  0.0287
 4594TIP3    H213722   0.902   1.298   6.737  1.2688  1.6984  2.0917
 4595TIP3   OH213723   3.489   4.655   2.659 -0.2695  0.2010 -0.4790
 4595TIP3    H113724   3.433   4.729   2.634 -0.3867  0.4145  0.4149
 4595TIP3    H213725   3.521   4.678   2.746 -0.3863 -0.8577 -0.1583
 4596TIP3   OH213726   2.872   4.155   0.505 -0.7737  0.4093  0.0632
 4596TIP3    H113727   2.890   4.246   0.530 -0.3661  0.8179 -1.6679
 4596TIP3    H213728   2.957   4.119   0.482 -1.0983 -0.0316 -0.4710
 4597TIP3   OH213729   5.882   3.234   2.995  0.4530 -0.9599  0.5967
 4597TIP3    H113730   5.889   3.161   2.934  0.3396 -1.5582  1.2996
 4597TIP3    H213731   5.969   3.239   3.036  0.8470  0.0730 -0.3154
 4598TIP3   OH213732   2.876   5.328   1.273  0.1560  0.0988  0.0310
 4598TIP3    H113733   2.959   5.346   1.228  0.9955  0.1492  1.5889
 4598TIP3    H213734   2.813   5.315   1.202  1.7151 -1.0346 -1.1794
 4599TIP3   OH213735   0.104   0.038   4.041  0.2708 -0.0745 -0.2176
 4599TIP3    H113736   0.085   0.009   4.130 -2.8159 -0.8613 -1.0534
 4599TIP3    H213737   0.122  -0.042   3.992  2.0188  0.3602 -0.3074
 4600TIP3   OH213738   3.410   2.470   4.439 -0.1397  0.0158 -0.2528
 4600TIP3    H113739   3.328   2.476   4.389  0.4177 -0.8551 -1.2838
 4600TIP3    H213740   3.471   2.525   4.392 -0.3991  1.5045  1.1071
 4601TIP3   OH213741   7.362   0.946   3.171  0.2530  0.9261  0.1483
 4601TIP3    H113742   7.365   0.855   3.140 -0.6201  0.4652  1.3804
 4601TIP3    H213743   7.454   0.968   3.190  0.6422  0.8101 -1.5639
 4602TIP3   OH213744   4.718   5.920   3.284 -0.1789 -0.0259 -0.2237
 4602TIP3    H113745   4.684   5.856   3.347 -0.6053 -0.9784 -1.4004
 4602TIP3    H213746   4.783   5.970   3.333  0.1437 -1.3475  0.7107
 4603TIP3   OH213747   2.960   7.072   2.117  0.1393  0.0549  0.0158
 4603TIP3    H113748   2.943   7.059   2.211  1.9176  0.7961  0.4652
 4603TIP3    H213749   2.940   7.164   2.101 -0.7121 -0.2065 -0.4758
 4604TIP3   OH213750   3.782   5.702   1.379 -0.4434 -0.3149  0.3930
 4604TIP3    H113751   3.789   5.792   1.412 -1.5183 -0.7434  1.8289
 4604TIP3    H213752   3.861   5.659   1.411  1.0082  0.5984 -1.8868
 4605TIP3   OH213753   5.968   6.105   1.298  0.7009 -0.1559  0.7094
 4605TIP3    H113754   5.888   6.150   1.270  0.4417  0.1730  1.9079
 4605TIP3    H213755   5.947   6.012   1.292  0.5312 -0.0828  0.1628
 4606TIP3   OH213756   5.327   7.221   6.491 -0.5720  0.4581  0.0218
 4606TIP3    H113757   5.323   7.299   6.547  2.4077  1.0469 -0.4661
 4606TIP3    H213758   5.351   7.254   6.405 -1.9775 -0.7554 -0.8559
 4607TIP3   OH213759   4.450   7.225   3.135 -0.1667  0.2499  0.0320
 4607TIP3    H113760   4.383   7.167   3.099  0.6276 -1.2928  1.0099
 4607TIP3    H213761   4.533   7.182   3.114  0.4392  1.1046  0.6448
 4608TIP3   OH213762   6.230   6.751   0.150 -0.4877  0.1438  0.4774
 4608TIP3    H113763   6.256   6.811   0.220 -0.0438  2.2330 -1.4154
 4608TIP3    H213764   6.148   6.786   0.117 -1.2085 -1.4037  0.5726
 4609TIP3   OH213765   3.246   3.242   1.359  0.0654 -0.2470 -0.0394
 4609TIP3    H113766   3.209   3.287   1.283  0.4076  0.0140 -0.0534
 4609TIP3    H213767   3.185   3.261   1.430  0.9321  1.4431  0.2953
 4610TIP3   OH213768   7.555   1.966   6.788 -0.1327  0.6871  0.0928
 4610TIP3    H113769   7.561   1.989   6.696 -1.8862  0.9838  0.0355
 4610TIP3    H213770   7.529   2.047   6.832 -0.1492  0.3426  0.7271
 4611TIP3   OH213771   2.234   4.475   3.126 -0.3427  0.5905 -0.2901
 4611TIP3    H113772   2.281   4.505   3.204 -0.3201  1.7521 -0.7435
 4611TIP3    H213773   2.293   4.411   3.086 -0.2803  0.1133  0.5476
 4612TIP3   OH213774   3.130   6.277   1.232 -0.3027 -0.9042  0.2498
 4612TIP3    H113775   3.078   6.305   1.308 -1.6625 -1.0832 -0.6021
 4612TIP3    H213776   3.220   6.281   1.263 -0.8452 -1.1969  1.9579
 4613TIP3   OH213777   4.501   5.467   3.549  0.1233  0.1374 -0.8829
 4613TIP3    H113778   4.413   5.471   3.511 -0.4559 -1.4051  0.2624
 4613TIP3    H213779   4.559   5.488   3.477 -1.0876 -0.5665 -2.0837
 4614TIP3   OH213780   4.313   4.775   1.141  0.3483 -0.1515 -0.7188
 4614TIP3    H113781   4.383   4.839   1.151 -1.3153  1.1717  4.2576
 4614TIP3    H213782   4.346   4.696   1.184 -0.9824  0.4129  1.4669
 4615TIP3   OH213783   4.029   6.495   3.168  0.1022  0.7978 -0.0440
 4615TIP3    H113784   4.008   6.580   3.129  0.0286  0.9737  0.3755
 4615TIP3    H213785   4.088   6.454   3.106  1.0854  1.6501  0.3186
 4616TIP3   OH213786   1.821   5.543   1.120  0.1249  0.0869  0.0731
 4616TIP3    H113787   1.784   5.481   1.058  0.6929 -1.2272  1.0287
 4616TIP3    H213788   1.817   5.627   1.075 -0.9650 -0.5747 -1.1051
 4617TIP3   OH213789   3.400   6.802   1.904 -0.3066  0.1031 -0.1138
 4617TIP3    H113790   3.327   6.836   1.956 -0.1053 -0.2928  0.4387
 4617TIP3    H213791   3.375   6.711   1.885  0.1125 -0.0911  0.2333
 4618TIP3   OH213792   6.955   2.081   6.701  0.6194 -0.5226 -0.2110
 4618TIP3    H113793   6.991   2.001   6.662  0.0831 -0.5086 -0.7306
 4618TIP3    H213794   6.875   2.052   6.745 -0.7659  0.1154 -2.2841
 4619TIP3   OH213795   0.538   6.717   0.368  0.0810  0.6108  0.3345
 4619TIP3    H113796   0.537   6.666   0.288 -2.0643  1.4548 -0.2167
 4619TIP3    H213797   0.585   6.797   0.346 -0.0192  0.5996  0.0861
 4620TIP3   OH213798   1.681   4.418   0.468 -0.0514  0.1453  0.2359
 4620TIP3    H113799   1.737   4.483   0.425 -0.8013 -0.4034 -1.6179
 4620TIP3    H213800   1.717   4.333   0.440 -1.1483 -0.2155 -0.0672
 4621TIP3   OH213801   4.078   7.276   2.905  0.4354 -0.3534  0.3130
 4621TIP3    H113802   4.111   7.340   2.967 -0.8515  0.5688  0.0590
 4621TIP3    H213803   4.058   7.327   2.826 -2.1329 -0.7643  0.6532
 4622TIP3   OH213804   1.757   5.832   3.017 -0.3760  0.2157  0.0890
 4622TIP3    H113805   1.689   5.786   3.066  0.6690 -4.3720 -2.4862
 4622TIP3    H213806   1.712   5.868   2.941 -0.5002 -0.0028  0.0592
 4623TIP3   OH213807   2.169   5.545   4.398  0.4188  0.3696  0.4766
 4623TIP3    H113808   2.174   5.595   4.316  0.2902  0.7860  0.7172
 4623TIP3    H213809   2.103   5.592   4.450 -3.6014 -2.9747 -1.2751
 4624TIP3   OH213810   4.876   5.830   3.012  0.1629  1.0036  0.4665
 4624TIP3    H113811   4.822   5.869   3.081 -0.7089 -0.7762  0.8174
 4624TIP3    H213812   4.938   5.774   3.058  1.7372  2.3202 -0.0027
 4625TIP3   OH213813   3.193   7.833   3.743  0.0084  0.4118 -0.9717
 4625TIP3    H113814   3.165   7.761   3.687 -0.3681 -0.0363 -0.2183
 4625TIP3    H213815   3.197   7.795   3.831  1.1640  0.9500 -0.7789
 4626TIP3   OH213816   1.904   1.915   6.963 -0.1061  0.3788 -0.5556
 4626TIP3    H113817   1.887   1.911   6.869  0.4460  0.8387 -0.6763
 4626TIP3    H213818   1.914   2.008   6.982  0.0796  0.2678 -0.0975
 4627TIP3   OH213819   3.825   5.003   2.629  0.6570 -0.7024 -0.2300
 4627TIP3    H113820   3.785   4.994   2.543 -0.4314 -0.0042  0.1875
 4627TIP3    H213821   3.914   5.033   2.611 -0.4185  2.1761 -1.0556
 4628TIP3   OH213822   5.614   6.834   0.352 -0.2602 -0.2777  0.0688
 4628TIP3    H113823   5.683   6.884   0.309 -1.6283  1.8441  0.2390
 4628TIP3    H213824   5.651   6.812   0.437  1.4447 -2.1345 -1.1082
 4629TIP3   OH213825   3.526   4.787   2.019 -0.2705 -0.0395 -0.2032
 4629TIP3    H113826   3.552   4.771   1.928  1.1697  0.8462  0.0368
 4629TIP3    H213827   3.599   4.753   2.070 -1.7510 -1.9542  0.7091
 4630TIP3   OH213828   3.391   4.219   0.959 -0.2433  0.2440 -0.3109
 4630TIP3    H113829   3.402   4.239   0.866 -0.3309  0.6861 -0.2262
 4630TIP3    H213830   3.308   4.171   0.963 -0.1158  0.0126 -0.4940
 4631TIP3   OH213831   2.048   5.550   0.514  0.3552 -0.4528 -0.3073
 4631TIP3    H113832   2.107   5.608   0.465  0.7358  0.5648  1.3411
 4631TIP3    H213833   2.094   5.531   0.595 -0.8274 -1.0957  0.2307
 4632TIP3   OH213834   2.871   4.851   1.179  0.1383 -0.0166  0.4497
 4632TIP3    H113835   2.787   4.846   1.225  1.0389 -0.1341  2.1155
 4632TIP3    H213836   2.857   4.801   1.099 -1.2070 -0.5287  0.9840
 4633TIP3   OH213837   2.485   4.288   1.194 -0.1306  0.3452  0.0798
 4633TIP3    H113838   2.508   4.208   1.241 -2.6318 -0.0674  0.6673
 4633TIP3    H213839   2.521   4.358   1.248  1.0743 -0.3400  0.1723
 4634TIP3   OH213840   3.324   6.664   3.012  0.0018 -0.3713  0.7634
 4634TIP3    H113841   3.330   6.576   2.976 -2.6070 -0.6451  0.8733
 4634TIP3    H213842   3.311   6.652   3.106  0.1070  0.1400  0.8469
 4635TIP3   OH213843   0.694   4.593   6.537 -0.4746  0.0450 -0.1188
 4635TIP3    H113844   0.613   4.543   6.548 -1.0394  1.1314  0.8288
 4635TIP3    H213845   0.735   4.556   6.459 -2.0367 -0.3349 -0.7829
 4636TIP3   OH213846   3.024   5.059   3.575  0.9685  0.6872 -0.1947
 4636TIP3    H113847   3.023   5.096   3.486 -0.3934 -0.8207 -0.8419
 4636TIP3    H213848   3.006   4.966   3.562  1.6040  0.2950  1.6150
 4637TIP3   OH213849   2.893   6.162   2.829 -0.2119 -0.2975 -0.0951
 4637TIP3    H113850   2.841   6.132   2.755 -2.7827  0.7417  1.2218
 4637TIP3    H213851   2.836   6.223   2.875  2.2152  0.9316  1.4015
 4638TIP3   OH213852   4.943   5.937   3.950  0.1903  0.5173 -0.0819
 4638TIP3    H113853   5.004   5.865   3.934 -1.5571 -1.2614  1.0657
 4638TIP3    H213854   4.967   5.969   4.037  0.2468  0.5937 -0.1255
 4639TIP3   OH213855   2.715   7.824   2.180 -0.6082 -0.3027  0.1719
 4639TIP3    H113856   2.702   7.750   2.121  1.7011 -1.5253  1.1417
 4639TIP3    H213857   2.786   7.797   2.238 -1.4579  1.6662  2.2277
 4640TIP3   OH213858   2.858   2.779   1.510  0.2129  0.2061 -0.1191
 4640TIP3    H113859   2.896   2.851   1.459  0.5010  1.0640  1.2763
 4640TIP3    H213860   2.902   2.701   1.477  1.6345  0.9475 -0.0476
 4641TIP3   OH213861   3.199   5.906   1.010  0.2755 -0.5834 -0.6559
 4641TIP3    H113862   3.241   5.844   1.069  0.9557 -1.0237 -1.5764
 4641TIP3    H213863   3.159   5.850   0.942 -4.0603 -0.3899  1.5210
 4642TIP3   OH213864   3.597   6.304   2.966  0.5933  0.3445 -0.4420
 4642TIP3    H113865   3.572   6.395   2.984  1.0445  0.1320  1.4060
 4642TIP3    H213866   3.592   6.296   2.871 -0.6945  1.9408 -0.5303
 4643TIP3   OH213867   4.197   6.075   1.919  0.4039  0.2949  0.1301
 4643TIP3    H113868   4.247   6.047   1.996 -0.1732  0.0276  0.4128
 4643TIP3    H213869   4.126   6.128   1.956  1.3777  2.0078 -0.3767
 4644TIP3   OH213870   4.897   5.597   0.657 -0.1179  0.2848 -0.7206
 4644TIP3    H113871   4.810   5.631   0.679  0.1450 -0.0100  0.8577
 4644TIP3    H213872   4.940   5.585   0.742  1.0257 -0.7278 -1.4251
 4645TIP3   OH213873   2.671   4.651   1.901 -0.0388 -0.0283  0.3295
 4645TIP3    H113874   2.626   4.729   1.934  0.3235  1.2556 -2.0695
 4645TIP3    H213875   2.761   4.660   1.933  0.3820  1.3461 -1.1588
 4646TIP3   OH213876   3.118   3.384   1.129  0.5080  0.1452 -0.2424
 4646TIP3    H113877   3.106   3.369   1.035 -2.3311  2.9847 -0.4468
 4646TIP3    H213878   3.185   3.451   1.135  0.7266 -0.0738 -0.2362
 4647TIP3   OH213879   6.953   0.670   3.374 -0.1702  0.6564 -0.2123
 4647TIP3    H113880   7.017   0.600   3.360 -0.6791  0.3372 -0.9640
 4647TIP3    H213881   6.978   0.738   3.311 -0.1478  0.8257 -0.0203
 4648TIP3   OH213882   1.444   7.323   5.932  0.0163 -0.1666  0.3030
 4648TIP3    H113883   1.412   7.248   5.983 -0.9399 -1.6286 -2.3204
 4648TIP3    H213884   1.399   7.315   5.848  2.5455  1.3658 -1.2626
 4649TIP3   OH213885   2.390   4.559   2.070  0.5099  0.7852 -0.0366
 4649TIP3    H113886   2.471   4.558   2.121  1.2701  0.0793 -1.2556
 4649TIP3    H213887   2.343   4.480   2.097  1.2871 -0.0193 -1.0269
 4650TIP3   OH213888   6.950   1.235   6.873  0.4173 -0.1234 -0.4148
 4650TIP3    H113889   6.882   1.186   6.827  2.0465 -2.0868 -0.8032
 4650TIP3    H213890   7.012   1.168   6.903  3.9201  1.7830 -2.9696
 4651TIP3   OH213891   4.620   6.218   3.325 -1.1148  0.2633 -0.0396
 4651TIP3    H113892   4.696   6.196   3.377 -1.8562  0.0277  0.9587
 4651TIP3    H213893   4.605   6.312   3.341 -0.0777  0.6974 -1.5094
 4652TIP3   OH213894   5.720   7.498   2.127 -0.4141  0.3372  0.7485
 4652TIP3    H113895   5.624   7.501   2.124 -0.4431 -0.2258  0.9680
 4652TIP3    H213896   5.740   7.490   2.220 -0.1922 -0.7198  0.6126
 4653TIP3   OH213897   2.851   5.343   2.534 -0.1971 -0.1896  0.1241
 4653TIP3    H113898   2.939   5.322   2.503  0.6573  0.4906  1.9891
 4653TIP3    H213899   2.829   5.426   2.492  0.8007  0.5504  1.0490
 4654TIP3   OH213900   3.079   4.612   0.175  0.2302 -0.0156  0.0260
 4654TIP3    H113901   3.123   4.687   0.135  1.0672 -0.3329  0.3524
 4654TIP3    H213902   3.034   4.569   0.103  1.5036 -0.4243 -0.5209
 4655TIP3   OH213903   4.651   5.660   4.010  0.1088 -0.4112  0.1960
 4655TIP3    H113904   4.672   5.735   4.067  0.8243 -1.4772  1.3536
 4655TIP3    H213905   4.701   5.678   3.930  1.1424 -0.1785  0.8767
 4656TIP3   OH213906   2.935   5.925   0.659  0.0365  0.0927 -0.0531
 4656TIP3    H113907   2.905   6.008   0.624  1.4018  1.0709  1.0150
 4656TIP3    H213908   3.025   5.917   0.628  0.5411 -0.0652  1.4118
 4657TIP3   OH213909   4.985   6.669   2.882 -0.0823  0.2022  0.0246
 4657TIP3    H113910   4.963   6.726   2.809 -1.3210  1.6048  1.4527
 4657TIP3    H213911   5.042   6.721   2.938 -0.2600 -0.3706  0.7525
 4658TIP3   OH213912   4.661   6.591   2.343  0.0873  0.3292 -0.2795
 4658TIP3    H113913   4.688   6.559   2.257  0.1360 -0.3460 -0.0168
 4658TIP3    H213914   4.651   6.512   2.396 -0.2292  0.7212  0.2534
 4659TIP3   OH213915   2.329   3.929   1.188 -0.3925 -0.0355  0.2581
 4659TIP3    H113916   2.296   3.878   1.262 -1.7659 -1.3028 -1.1975
 4659TIP3    H213917   2.396   3.873   1.148 -1.5410 -0.4986 -1.0374
 4660TIP3   OH213918   3.531   5.299   3.152  0.5873  0.0575  0.2422
 4660TIP3    H113919   3.545   5.227   3.090 -0.8358  1.4979 -1.8115
 4660TIP3    H213920   3.484   5.259   3.225  0.3478 -1.2367 -0.6064
 4661TIP3   OH213921   2.678   4.900   1.728  0.2708 -0.2137  0.1532
 4661TIP3    H113922   2.659   4.927   1.818 -2.1950 -0.1479 -0.3734
 4661TIP3    H213923   2.709   4.810   1.736 -0.6502 -0.4639  1.0040
 4662TIP3   OH213924   4.479   4.889   4.049  0.3124 -0.1283  0.3961
 4662TIP3    H113925   4.429   4.968   4.070 -0.0499 -0.2777  0.1084
 4662TIP3    H213926   4.570   4.912   4.068  0.4933  1.0919 -1.6988
 4663TIP3   OH213927   7.434   2.029   5.837  0.6302 -0.2355 -0.0043
 4663TIP3    H113928   7.355   1.980   5.814  0.0026 -0.3604  2.2689
 4663TIP3    H213929   7.402   2.114   5.867  1.6285  1.1472 -2.6904
 4664TIP3   OH213930   3.277   4.484   3.176 -0.1917 -0.0364 -0.6849
 4664TIP3    H113931   3.310   4.415   3.119  3.9797  0.4788  0.9343
 4664TIP3    H213932   3.256   4.557   3.117  1.3956 -0.4818 -1.8227
 4665TIP3   OH213933   5.549   5.391   2.808  0.5360  0.1457 -0.0366
 4665TIP3    H113934   5.505   5.333   2.746 -0.6798 -0.1360  1.0590
 4665TIP3    H213935   5.565   5.336   2.885 -0.0987  1.0916  0.7863
 4666TIP3   OH213936   3.879   6.891   1.818  0.4510 -0.0722 -0.6106
 4666TIP3    H113937   3.798   6.891   1.870 -0.5341 -0.6538 -2.1088
 4666TIP3    H213938   3.887   6.800   1.788  0.3932  0.5000 -2.3884
 4667TIP3   OH213939   5.503   7.415   2.776  0.2151 -0.2140 -0.4724
 4667TIP3    H113940   5.587   7.417   2.822  1.3089  1.0980 -2.4806
 4667TIP3    H213941   5.458   7.495   2.805  1.0992  0.8530 -2.0227
 4668TIP3   OH213942   0.266   0.015   2.948 -0.1512 -0.1367  0.2026
 4668TIP3    H113943   0.255   0.082   3.015  0.6718  1.4735 -1.2610
 4668TIP3    H213944   0.188  -0.041   2.958 -0.9479  1.1389  1.2923
 4669TIP3   OH213945   4.638   4.712   4.466  0.5042 -0.0705  0.3930
 4669TIP3    H113946   4.713   4.749   4.419  1.2194 -1.1831  0.6287
 4669TIP3    H213947   4.666   4.624   4.490 -0.3456  0.0019  1.7313
 4670TIP3   OH213948   5.233   5.848   3.304  0.4627  0.1173  0.1937
 4670TIP3    H113949   5.184   5.802   3.235 -2.0135  0.5640  1.5890
 4670TIP3    H213950   5.295   5.784   3.337  0.2959 -0.7216 -1.0758
 4671TIP3   OH213951   3.140   5.907   2.063 -0.2152 -0.0466  0.7493
 4671TIP3    H113952   3.228   5.936   2.089  0.2269  0.0766 -0.8465
 4671TIP3    H213953   3.152   5.814   2.040 -0.4966 -0.0185  0.4887
 4672TIP3   OH213954   5.890   4.351   2.909  0.0303 -0.0366  0.4731
 4672TIP3    H113955   5.914   4.443   2.919  0.1702 -0.0403  0.1667
 4672TIP3    H213956   5.940   4.321   2.834 -0.0257 -0.3612  0.5652
 4673TIP3   OH213957   4.727   2.563   4.681  0.0572  0.3231  0.0200
 4673TIP3    H113958   4.638   2.593   4.660 -0.3645 -1.0112 -0.1643
 4673TIP3    H213959   4.714   2.477   4.723  1.3208 -0.5080 -1.2370
 4674TIP3   OH213960   2.089   4.073   3.649 -0.0460 -0.0349  0.4234
 4674TIP3    H113961   2.150   4.138   3.615 -0.0267 -1.1636 -1.7818
 4674TIP3    H213962   2.007   4.089   3.602 -0.1665 -1.2831  0.1770
 4675TIP3   OH213963   5.430   3.938   2.705  0.2918  0.3380  0.0817
 4675TIP3    H113964   5.500   3.925   2.769  0.1897  1.5161  0.4513
 4675TIP3    H213965   5.380   4.012   2.739  0.3437  1.0993 -1.4653
 4676TIP3   OH213966   4.425   5.340   2.649 -0.2039 -0.4090  0.0267
 4676TIP3    H113967   4.466   5.264   2.609 -0.2086 -0.0683 -0.6418
 4676TIP3    H213968   4.498   5.400   2.666 -0.0206 -1.1267  1.8495
 4677TIP3   OH213969   8.309   3.171   6.756  0.0807  0.3221  0.3048
 4677TIP3    H113970   8.341   3.170   6.666 -0.0966 -2.6740  0.1967
 4677TIP3    H213971   8.388   3.174   6.809  0.2165  1.2427  0.0581
 4678TIP3   OH213972   2.766   6.705   2.032 -0.6295  0.0279  1.1154
 4678TIP3    H113973   2.828   6.752   1.977  0.4805 -2.0760  0.5266
 4678TIP3    H213974   2.728   6.639   1.975 -1.6486 -0.2546  2.1003
 4679TIP3   OH213975   3.334   6.575   1.776  0.3123 -0.4031  0.4771
 4679TIP3    H113976   3.379   6.492   1.757  0.0547  0.1378 -2.7573
 4679TIP3    H213977   3.243   6.559   1.752  0.2256  0.7412 -0.0084
 4680TIP3   OH213978   6.227   6.457   3.717  0.7767  0.0636  0.1742
 4680TIP3    H113979   6.212   6.363   3.722 -0.9140  0.2947 -0.1483
 4680TIP3    H213980   6.276   6.478   3.797  0.5123 -0.9758  0.6104
 4681TIP3   OH213981   4.182   4.249   1.130 -0.4676  0.1101  0.1657
 4681TIP3    H113982   4.210   4.181   1.191  0.7564  0.6020  0.1756
 4681TIP3    H213983   4.264   4.292   1.104 -1.3761  2.8708  1.7038
 4682TIP3   OH213984   4.198   6.703   2.966  0.1957 -0.5448  0.0647
 4682TIP3    H113985   4.244   6.693   2.883 -0.0307  1.1365 -0.2768
 4682TIP3    H213986   4.113   6.738   2.942 -0.1515 -0.7667  0.9524
 4683TIP3   OH213987   4.038   4.960   3.627  0.7303 -0.1833 -0.3301
 4683TIP3    H113988   4.115   4.961   3.571  0.2134  1.6742 -1.0528
 4683TIP3    H213989   4.072   4.972   3.716  1.1895  2.2469 -0.7988
 4684TIP3   OH213990   3.107   2.977   6.365 -0.2814  0.3119 -0.3856
 4684TIP3    H113991   3.113   3.062   6.322  0.2613 -0.8680 -2.7782
 4684TIP3    H213992   3.194   2.962   6.402 -0.6421  1.1728  0.8337
 4685TIP3   OH213993   5.466   4.894   4.218  0.0849  0.2185 -0.4579
 4685TIP3    H113994   5.470   4.969   4.277  1.2790 -0.0386 -0.2044
 4685TIP3    H213995   5.431   4.930   4.136  0.6565  1.0567 -0.3402
 4686TIP3   OH213996   4.607   4.619   1.418 -0.7167  0.0491  0.4123
 4686TIP3    H113997   4.589   4.621   1.324  1.1872 -0.9846  0.0010
 4686TIP3    H213998   4.608   4.525   1.439 -4.4723  0.3043  2.1634
 4687TIP3   OH213999   8.162   0.128   2.116 -0.2428  0.3464  0.1842
 4687TIP3    H114000   8.201   0.072   2.049 -0.2470  0.2270  0.2823
 4687TIP3    H214001   8.124   0.201   2.067  1.1726  1.1032  0.1763
 4688TIP3   OH214002   6.478   5.511   0.500  0.0427  0.5319 -0.1943
 4688TIP3    H114003   6.395   5.467   0.479  0.5358 -1.2457  1.4156
 4688TIP3    H214004   6.531   5.502   0.421 -1.0895  1.2175 -1.0524
 4689TIP3   OH214005   4.487   3.790   3.435  0.1124  0.2936 -0.1808
 4689TIP3    H114006   4.513   3.779   3.343 -2.9267  1.4726 -1.2257
 4689TIP3    H214007   4.467   3.701   3.465 -0.5684  0.1052 -1.1821
 4690TIP3   OH214008   3.145   4.521   1.315  0.4234 -0.1923 -0.1613
 4690TIP3    H114009   3.160   4.614   1.334  2.4501 -0.6416  0.5201
 4690TIP3    H214010   3.071   4.497   1.370  0.2384  0.8810  0.0777
 4691TIP3   OH214011   5.135   5.516   2.797 -0.5311  0.2207 -0.6758
 4691TIP3    H114012   5.106   5.487   2.883 -1.8347 -0.6603 -1.3936
 4691TIP3    H214013   5.229   5.530   2.806 -0.4660 -0.9818  0.5819
 4692TIP3   OH214014   5.436   6.808   3.189 -0.0202 -0.1583  0.3067
 4692TIP3    H114015   5.393   6.788   3.272  2.1241  2.1741  2.0782
 4692TIP3    H214016   5.507   6.744   3.182 -0.2762 -0.4316  0.2166
 4693TIP3   OH214017   2.760   4.974   0.587  0.2253  0.5561 -0.2696
 4693TIP3    H114018   2.692   4.913   0.559 -0.5218  0.8076  0.9380
 4693TIP3    H214019   2.839   4.921   0.596 -0.1932 -0.0489 -0.1724
 4694TIP3   OH214020   5.423   7.077   2.480  0.6568  0.1030 -0.2351
 4694TIP3    H114021   5.452   6.986   2.480  0.9213  0.1862 -0.4273
 4694TIP3    H214022   5.485   7.123   2.536  2.3222  0.7123 -2.4900
 4695TIP3   OH214023   3.999   5.082   1.696 -0.5131 -0.1667  0.2797
 4695TIP3    H114024   3.943   5.102   1.770  0.0345 -1.1598  0.9689
 4695TIP3    H214025   4.005   4.987   1.695 -1.0288 -0.1983 -1.4296
 4696TIP3   OH214026   4.931   4.949   3.654 -0.1489 -0.5666  0.2721
 4696TIP3    H114027   4.896   4.989   3.733  0.1729  1.2656 -0.4806
 4696TIP3    H214028   4.870   4.877   3.635 -0.7598 -0.4369  1.6453
 4697TIP3   OH214029   2.636   6.571   2.236  0.3687 -0.5034 -0.1863
 4697TIP3    H114030   2.610   6.661   2.219 -0.4218 -0.7813 -0.4659
 4697TIP3    H214031   2.639   6.530   2.150  0.9820 -0.6801 -0.0848
 4698TIP3   OH214032   4.591   5.814   5.038 -0.1278  0.3290  0.0819
 4698TIP3    H114033   4.549   5.854   5.115 -0.3633  1.1458 -0.4610
 4698TIP3    H214034   4.567   5.872   4.965  0.9887  0.1593 -0.4310
 4699TIP3   OH214035   4.521   6.395   1.709  0.3547 -0.1528 -0.2973
 4699TIP3    H114036   4.462   6.327   1.678 -1.7000  0.9394  1.1090
 4699TIP3    H214037   4.549   6.364   1.795  1.1578 -0.2575 -0.5947
 4700TIP3   OH214038   3.565   6.010   1.134  0.2865 -0.0896 -0.3037
 4700TIP3    H114039   3.613   6.045   1.210  1.3674 -1.9461 -0.0899
 4700TIP3    H214040   3.540   5.921   1.161 -1.0616 -0.0592 -1.3937
 4701TIP3   OH214041   4.315   3.324   4.068 -0.2995 -0.8910 -0.1750
 4701TIP3    H114042   4.377   3.251   4.070  0.2026 -0.4584  0.0899
 4701TIP3    H214043   4.346   3.380   3.996  0.1020 -0.2549  0.4846
 4702TIP3   OH214044   6.736   6.241   2.563  0.2293  0.0760 -0.5884
 4702TIP3    H114045   6.786   6.186   2.623  0.0840 -0.2492 -0.7636
 4702TIP3    H214046   6.667   6.184   2.530 -0.4158  0.6013 -0.1520
 4703TIP3   OH214047   4.880   5.380   1.808 -0.3448  0.5716 -0.2541
 4703TIP3    H114048   4.844   5.307   1.758 -2.1116  0.7067  0.7692
 4703TIP3    H214049   4.873   5.352   1.900  1.1327  1.0774  0.0358
 4704TIP3   OH214050   1.670   4.969   0.962  0.1114 -0.4403  0.5188
 4704TIP3    H114051   1.725   4.971   0.884  0.0682 -0.5448  0.4860
 4704TIP3    H214052   1.709   5.035   1.020 -0.8752  0.8456 -0.2774
 4705TIP3   OH214053   0.122   4.889   1.290 -0.3011 -0.1745  0.0244
 4705TIP3    H114054   0.031   4.910   1.313 -0.3530  0.5680 -0.8042
 4705TIP3    H214055   0.119   4.872   1.195  0.2319 -1.2475  0.1977
 4706TIP3   OH214056   2.665   4.094   4.037 -0.7859 -0.0564  0.4340
 4706TIP3    H114057   2.653   4.188   4.028  1.3690  0.1227 -1.0840
 4706TIP3    H214058   2.585   4.063   4.079 -0.5409  2.7537  3.1348
 4707TIP3   OH214059   4.082   5.582   3.122 -0.2966  0.5110 -1.1160
 4707TIP3    H114060   4.147   5.625   3.178 -3.7072  3.5055  0.7536
 4707TIP3    H214061   4.085   5.490   3.149  0.3266  1.3362  1.8083
 4708TIP3   OH214062   4.791   6.045   3.726  0.5216  0.2823  0.0394
 4708TIP3    H114063   4.836   6.008   3.802 -0.7606 -0.0131  0.6585
 4708TIP3    H214064   4.842   6.124   3.705  1.5883 -0.2776  0.4559
 4709TIP3   OH214065   4.067   3.436   4.408 -0.0074 -0.6850  0.1538
 4709TIP3    H114066   4.035   3.407   4.322 -0.9584  1.3141 -0.1855
 4709TIP3    H214067   4.142   3.492   4.388 -0.9324  0.7231  0.5357
 4710TIP3   OH214068   2.826   5.819   1.985  0.5252  0.3992 -0.2129
 4710TIP3    H114069   2.896   5.779   1.933  0.6683  0.8270 -0.3520
 4710TIP3    H214070   2.834   5.913   1.968 -0.9316  0.3469 -1.2824
 4711TIP3   OH214071   4.911   4.120   2.420 -0.4836 -0.4139  0.5202
 4711TIP3    H114072   4.939   4.117   2.511  1.0406 -1.7007  0.0267
 4711TIP3    H214073   4.821   4.085   2.421  0.0211 -1.7278  1.3521
 4712TIP3   OH214074   2.349   5.417   2.048  1.0859  0.4761  0.0853
 4712TIP3    H114075   2.318   5.378   1.966  1.4828  2.0263 -0.8418
 4712TIP3    H214076   2.356   5.344   2.109  0.2347 -0.6215 -1.1005
 4713TIP3   OH214077   3.010   6.274   1.759 -0.1315 -0.2596 -0.5851
 4713TIP3    H114078   3.105   6.285   1.758 -0.0883 -0.6980 -1.5438
 4713TIP3    H214079   2.986   6.265   1.667 -0.9422 -1.5135 -0.2615
 4714TIP3   OH214080   0.878   6.330   1.338  0.1369 -0.3336 -0.1808
 4714TIP3    H114081   0.803   6.329   1.397 -0.6164  1.1822 -1.0839
 4714TIP3    H214082   0.858   6.262   1.273 -0.8296  0.5575 -0.8398
 4715TIP3   OH214083   4.400   5.008   1.949 -0.3105  0.6007  0.1417
 4715TIP3    H114084   4.341   5.057   2.006 -0.7539  1.5008 -1.0463
 4715TIP3    H214085   4.428   5.072   1.884 -0.4992 -0.6013 -1.1523
 4716TIP3   OH214086   3.614   6.552   1.379 -0.2346 -0.0203 -0.3701
 4716TIP3    H114087   3.655   6.512   1.456 -0.6600  0.6021  0.1855
 4716TIP3    H214088   3.663   6.517   1.305  1.0271  0.3966  0.2612
 4717TIP3   OH214089   3.854   6.240   3.071 -0.1282 -0.6852 -0.1361
 4717TIP3    H114090   3.761   6.257   3.063 -0.2052 -0.9880  0.1120
 4717TIP3    H214091   3.892   6.326   3.091 -0.2915 -0.4771 -0.6964
 4718TIP3   OH214092   1.589   6.624   3.007  0.4708  0.2963  0.6800
 4718TIP3    H114093   1.577   6.711   2.969 -0.4644 -0.7643 -1.5159
 4718TIP3    H214094   1.666   6.589   2.964  0.7066 -0.0703  1.3887
 4719TIP3   OH214095   2.863   4.887   2.466 -0.2504 -0.1908  0.3028
 4719TIP3    H114096   2.943   4.911   2.419  0.0236 -1.3771  0.1608
 4719TIP3    H214097   2.841   4.799   2.434 -0.4940 -0.6893  1.8275
 4720TIP3   OH214098   2.659   7.637   2.468 -0.0315 -0.1338 -0.1809
 4720TIP3    H114099   2.594   7.662   2.402 -0.2651  0.2546  0.1960
 4720TIP3    H214100   2.744   7.654   2.426 -0.1753 -0.2721 -0.5300
 4721TIP3   OH214101   2.021   5.331   2.459  0.2010 -0.3067 -0.1351
 4721TIP3    H114102   2.077   5.301   2.531  1.5624 -2.1257 -1.8926
 4721TIP3    H214103   1.983   5.413   2.490  2.8262  0.2947  1.6220
 4722TIP3   OH214104   1.013   0.953   2.688  0.5308  0.6138 -0.1609
 4722TIP3    H114105   0.985   0.882   2.746  0.4557  0.3830 -0.4808
 4722TIP3    H214106   1.027   1.027   2.747 -0.3648  0.6232  0.0586
 4723TIP3   OH214107   5.315   4.335   2.343 -0.1853 -0.0175 -0.5328
 4723TIP3    H114108   5.351   4.379   2.420 -0.5973 -1.0084  0.2396
 4723TIP3    H214109   5.318   4.242   2.366 -1.7117 -0.2124 -1.1253
 4724TIP3   OH214110   3.578   5.712   1.208  0.3257 -0.0402 -0.1256
 4724TIP3    H114111   3.555   5.630   1.165  0.9180  0.8768 -2.2877
 4724TIP3    H214112   3.670   5.702   1.231  1.0801  0.8503 -2.5405
 4725TIP3   OH214113   3.521   5.502   3.759 -0.5708 -0.1887 -0.0260
 4725TIP3    H114114   3.601   5.485   3.709  0.0047  0.9580  0.4870
 4725TIP3    H214115   3.474   5.419   3.758  1.6064 -1.5030  1.4710
 4726TIP3   OH214116   3.885   4.026   2.778  0.2900 -0.3019  0.3978
 4726TIP3    H114117   3.832   4.093   2.819  1.6382  2.2111 -1.7905
 4726TIP3    H214118   3.975   4.049   2.801  0.6424 -2.8653  1.7273
 4727TIP3   OH214119   4.208   5.263   1.783  0.1218 -0.3833  0.4941
 4727TIP3    H114120   4.153   5.195   1.743 -0.9201  0.8756 -0.2519
 4727TIP3    H214121   4.283   5.271   1.724  0.0525 -0.6149  0.3731
 4728TIP3   OH214122   2.361   6.458   2.813 -0.3581 -0.2761 -0.1203
 4728TIP3    H114123   2.450   6.430   2.792 -0.6683 -2.2333  0.9948
 4728TIP3    H214124   2.318   6.467   2.729  0.5881 -0.4157 -0.6312
 4729TIP3   OH214125   0.779   0.327   6.738  0.4028  0.5896 -0.2488
 4729TIP3    H114126   0.756   0.362   6.652  0.5185  0.8904 -0.1545
 4729TIP3    H214127   0.851   0.381   6.769 -0.0701  0.9017  0.3237
 4730TIP3   OH214128   3.441   4.229   0.654 -0.1835  0.9680  0.1398
 4730TIP3    H114129   3.399   4.310   0.682 -3.8201 -0.6409 -0.3428
 4730TIP3    H214130   3.420   4.222   0.561 -1.5361 -1.3960  0.5684
 4731TIP3   OH214131   4.911   6.310   1.795  0.2718  0.6200  0.1899
 4731TIP3    H114132   4.963   6.284   1.871 -0.4824 -0.4758  0.3466
 4731TIP3    H214133   4.823   6.277   1.814 -0.2772  1.6947 -0.4635
 4732TIP3   OH214134   4.771   5.710   3.762  0.2458  0.2913  0.2432
 4732TIP3    H114135   4.865   5.724   3.754 -0.1574  4.3151  1.3810
 4732TIP3    H214136   4.733   5.761   3.690 -1.0914 -0.9279  0.0603
 4733TIP3   OH214137   4.511   6.265   4.164 -0.5062 -0.3989 -0.3833
 4733TIP3    H114138   4.606   6.278   4.159 -0.2983 -2.4951 -3.5366
 4733TIP3    H214139   4.473   6.350   4.142  0.6610  0.2004 -0.0894
 4734TIP3   OH214140   2.400   6.817   0.321  0.3846 -0.0910 -0.1196
 4734TIP3    H114141   2.413   6.878   0.393  0.6186  0.6030 -0.7399
 4734TIP3    H214142   2.489   6.795   0.292  0.2838 -0.0221 -0.4856
 4735TIP3   OH214143   5.479   4.999   2.277 -0.0089 -0.9368  0.2181
 4735TIP3    H114144   5.481   5.009   2.373  0.0032  0.0562  0.1255
 4735TIP3    H214145   5.514   5.082   2.245 -1.8930 -0.4737 -0.6883
 4736TIP3   OH214146   4.571   7.752   4.776  0.7751  0.2377  0.1861
 4736TIP3    H114147   4.557   7.660   4.752  0.1436  0.5449 -0.6712
 4736TIP3    H214148   4.652   7.752   4.826  0.1681 -0.9481  1.2038
 4737TIP3   OH214149   6.926   2.982   1.012  0.3125 -0.3538 -0.2849
 4737TIP3    H114150   6.990   3.006   1.079  1.2021  0.4955 -1.4108
 4737TIP3    H214151   6.927   3.055   0.950 -1.8429 -0.2689 -0.2797
 4738TIP3   OH214152   5.378   5.882   2.369  0.0592 -0.7388  0.2741
 4738TIP3    H114153   5.439   5.871   2.442  0.3663 -0.4718  0.0615
 4738TIP3    H214154   5.408   5.961   2.324 -1.5294  0.4147  1.2046
 4739TIP3   OH214155   4.845   2.864   2.134  0.3880 -0.1645  0.7015
 4739TIP3    H114156   4.779   2.915   2.182 -0.7319 -0.5967 -0.3654
 4739TIP3    H214157   4.812   2.774   2.136  1.1168 -0.4414  0.4409
 4740TIP3   OH214158   6.901   7.788   0.028 -0.6122 -0.0960 -0.4452
 4740TIP3    H114159   6.957   7.813  -0.046  0.1934 -0.0938  0.1615
 4740TIP3    H214160   6.924   7.697   0.047  0.8272  0.6033  1.2627
 4741TIP3   OH214161   5.536   5.465   0.739  0.2613  0.1945  0.1891
 4741TIP3    H114162   5.578   5.404   0.800 -0.9865 -1.9942 -1.0422
 4741TIP3    H214163   5.448   5.428   0.725 -0.6130  2.4114 -0.4426
 4742TIP3   OH214164   5.721   4.876   3.305  0.0090  0.3118 -0.3000
 4742TIP3    H114165   5.757   4.932   3.375 -2.2428  1.2402  0.1644
 4742TIP3    H214166   5.734   4.787   3.336  0.4694  0.6731  0.5656
 4743TIP3   OH214167   4.309   6.790   3.423 -0.2903 -0.1374 -0.2459
 4743TIP3    H114168   4.389   6.822   3.466  0.0158 -0.1258 -0.8188
 4743TIP3    H214169   4.330   6.791   3.330 -0.2023 -2.1394 -0.2746
 4744TIP3   OH214170   3.705   5.838   0.557  0.3231  0.5113  0.1226
 4744TIP3    H114171   3.744   5.753   0.540  1.1936  1.2835 -1.8262
 4744TIP3    H214172   3.625   5.818   0.607  0.3717 -1.4420 -0.5505
 4745TIP3   OH214173   4.940   5.709   2.153  0.3874  0.4791  0.3582
 4745TIP3    H114174   4.983   5.686   2.071  0.5929  0.5554  0.4435
 4745TIP3    H214175   4.860   5.657   2.153  0.4173  0.4297  0.1399
 4746TIP3   OH214176   5.773   5.863   0.057  0.2463 -0.1223 -0.1953
 4746TIP3    H114177   5.704   5.910   0.011 -0.3785  0.6288  1.4750
 4746TIP3    H214178   5.730   5.825   0.133  1.6923  0.4278  0.9189
 4747TIP3   OH214179   5.467   4.783   3.211 -0.0174 -0.3820 -0.7132
 4747TIP3    H114180   5.431   4.758   3.295 -0.3123  0.2125 -0.6639
 4747TIP3    H214181   5.553   4.821   3.232 -0.1450 -0.1179 -0.6692
 4748TIP3   OH214182   2.459   1.102   6.768 -0.0808  0.0549 -0.6042
 4748TIP3    H114183   2.480   1.182   6.721  1.3144 -0.2477 -0.5360
 4748TIP3    H214184   2.507   1.033   6.722  0.7238 -0.3564  0.8029
 4749TIP3   OH214185   7.573   5.148   0.387 -0.2923 -0.0134 -0.1383
 4749TIP3    H114186   7.489   5.191   0.404 -0.5537  0.2626 -1.9875
 4749TIP3    H214187   7.595   5.105   0.469 -3.0848 -1.5301 -0.1056
 4750TIP3   OH214188   5.887   6.873   2.282  0.3530 -0.1741 -0.7155
 4750TIP3    H114189   5.853   6.898   2.196 -1.6414  0.8145  0.3438
 4750TIP3    H214190   5.842   6.930   2.343  0.9191 -1.6466  1.1162
 4751TIP3   OH214191   6.561   6.911   2.680  0.6719  0.4142 -0.6889
 4751TIP3    H114192   6.538   6.920   2.587  1.0147  1.2645 -0.7039
 4751TIP3    H214193   6.572   7.002   2.710  1.4097  0.1158 -0.0392
 4752TIP3   OH214194   4.440   3.908   2.806  0.2352  0.1623  0.1188
 4752TIP3    H114195   4.414   3.998   2.786 -1.7634 -0.3702  0.1818
 4752TIP3    H214196   4.496   3.882   2.733 -0.1272  1.0801 -0.4993
 4753TIP3   OH214197   6.015   7.041   3.320 -0.0475  0.5097 -0.2150
 4753TIP3    H114198   6.051   7.025   3.407 -0.1644  1.9132  0.1080
 4753TIP3    H214199   6.091   7.068   3.268  0.2193 -1.4488 -0.8510
 4754TIP3   OH214200   5.380   7.692   1.285  0.0643 -0.1936  0.4933
 4754TIP3    H114201   5.436   7.720   1.357 -0.7728  0.8809  0.7556
 4754TIP3    H214202   5.339   7.611   1.315 -2.1726  1.5339  2.2784
 4755TIP3   OH214203   7.136   6.891   1.802 -0.0556 -0.2703  0.2385
 4755TIP3    H114204   7.186   6.948   1.743  0.3613 -0.0747  0.7827
 4755TIP3    H214205   7.045   6.919   1.789 -0.1118 -1.1209 -1.2915
 4756TIP3   OH214206   7.292   5.463   3.911 -0.7817  0.0676 -0.2169
 4756TIP3    H114207   7.381   5.456   3.946 -0.6571  1.6093 -0.1801
 4756TIP3    H214208   7.299   5.526   3.840 -1.8265  0.1110 -0.2878
 4757TIP3   OH214209   7.306   5.219   0.452  0.3277 -0.2425  0.1137
 4757TIP3    H114210   7.213   5.243   0.456  0.3540  0.1434 -1.3406
 4757TIP3    H214211   7.349   5.282   0.510 -0.0344  1.0840 -1.0251
 4758TIP3   OH214212   2.799   2.599   6.846  0.1833 -0.2882 -0.2690
 4758TIP3    H114213   2.844   2.543   6.782  2.6336  0.1421  1.0115
 4758TIP3    H214214   2.785   2.542   6.922  1.4611  0.4471  0.5273
 4759TIP3   OH214215   6.125   6.564   0.629 -0.2068 -0.1252  0.4036
 4759TIP3    H114216   6.158   6.526   0.710  0.6853 -2.9526 -1.2341
 4759TIP3    H214217   6.145   6.499   0.562 -3.3069  0.9781 -1.6816
 4760TIP3   OH214218   0.626   0.423   1.674 -0.0402 -0.1469 -0.8382
 4760TIP3    H114219   0.561   0.353   1.680 -0.1824 -0.0151 -0.8317
 4760TIP3    H214220   0.579   0.501   1.703  0.7389 -0.4464  1.3501
 4761TIP3   OH214221   6.402   2.610   3.389  0.2725 -0.1726  0.5142
 4761TIP3    H114222   6.361   2.673   3.448  0.6537  0.3696  0.2097
 4761TIP3    H214223   6.370   2.636   3.302 -1.3925 -1.8233  0.6072
 4762TIP3   OH214224   4.437   2.501   4.068  0.1093  0.2827  0.3180
 4762TIP3    H114225   4.391   2.519   3.986 -1.5908  1.2591  1.4631
 4762TIP3    H214226   4.391   2.427   4.106  2.8684 -2.2645 -1.0856
 4763TIP3   OH214227   6.911   6.869   1.156  0.0523 -0.3949  0.1736
 4763TIP3    H114228   6.940   6.802   1.095 -0.1033 -0.4588  0.1715
 4763TIP3    H214229   6.992   6.901   1.196 -0.0705 -2.4985  2.1874
 4764TIP3   OH214230   5.324   4.843   1.221  0.2020 -0.4099  0.3302
 4764TIP3    H114231   5.391   4.775   1.228  1.0847  0.2309 -1.6330
 4764TIP3    H214232   5.322   4.865   1.129 -2.5373 -0.2048  0.3894
 4765TIP3   OH214233   6.087   6.635   4.106 -0.1777 -0.1833 -0.2402
 4765TIP3    H114234   6.028   6.597   4.170  0.4198  0.9315  1.0099
 4765TIP3    H214235   6.120   6.715   4.148  0.5642  0.3379 -1.7564
 4766TIP3   OH214236   3.771   6.332   2.115 -0.1995 -0.0259  0.1535
 4766TIP3    H114237   3.814   6.406   2.158 -0.1268  0.5497 -0.8846
 4766TIP3    H214238   3.748   6.273   2.186  0.4860  0.6118  0.9191
 4767TIP3   OH214239   6.108   4.059   1.826  0.0740  0.0590  0.1026
 4767TIP3    H114240   6.031   4.099   1.785 -1.0835 -1.1951  1.0232
 4767TIP3    H214241   6.090   3.965   1.824  0.7444 -0.1228  2.0300
 4768TIP3   OH214242   6.293   6.327   2.277  0.0108 -0.7193  0.2717
 4768TIP3    H114243   6.370   6.278   2.249 -0.3092 -0.9553 -0.2116
 4768TIP3    H214244   6.228   6.309   2.209 -0.7356 -1.1826  1.0981
 4769TIP3   OH214245   4.880   4.930   0.278  0.2729  0.0967 -0.1484
 4769TIP3    H114246   4.842   5.018   0.273  2.0524  1.0539  2.3346
 4769TIP3    H214247   4.810   4.875   0.314 -0.8194  0.4597 -1.6407
 4770TIP3   OH214248   5.633   5.200   3.652  0.1495 -0.0532 -0.0077
 4770TIP3    H114249   5.628   5.113   3.690  0.7706 -0.2008 -0.2500
 4770TIP3    H214250   5.655   5.184   3.560 -1.8231  0.2743 -0.5482
 4771TIP3   OH214251   5.205   6.377   0.457 -0.0249 -0.4897  0.6583
 4771TIP3    H114252   5.119   6.407   0.486  0.6447 -0.5212  2.7508
 4771TIP3    H214253   5.258   6.457   0.453  0.5672 -0.8154  1.9643
 4772TIP3   OH214254   5.327   6.104   2.620  0.2584  0.0724  0.2825
 4772TIP3    H114255   5.379   6.103   2.701 -1.2610  0.7180  1.2980
 4772TIP3    H214256   5.313   6.011   2.600  1.5970 -0.1091  0.1117
 4773TIP3   OH214257   5.880   4.592   1.414 -0.1014  0.5495  0.1288
 4773TIP3    H114258   5.953   4.648   1.388  0.7312 -1.6556 -2.5823
 4773TIP3    H214259   5.816   4.602   1.343  0.4799 -2.5535 -0.9343
 4774TIP3   OH214260   5.948   7.174   0.111  0.3614 -0.0466 -0.0030
 4774TIP3    H114261   5.861   7.135   0.108 -0.1994  1.0151  1.8430
 4774TIP3    H214262   5.932   7.267   0.123  1.7524  0.0913  0.8654
 4775TIP3   OH214263   1.023   0.162   0.392  0.1741  0.6656 -0.1143
 4775TIP3    H114264   0.990   0.251   0.406  0.6496  0.7134  0.7137
 4775TIP3    H214265   1.118   0.171   0.386  0.1519  0.3529 -1.1861
 4776TIP3   OH214266   1.423   1.418   5.017 -0.4939  0.0927  0.6946
 4776TIP3    H114267   1.384   1.433   4.931  5.6012  2.5570 -1.9446
 4776TIP3    H214268   1.436   1.323   5.022 -2.9917 -0.3209 -0.0167
 4777TIP3   OH214269   6.658   5.141   3.221 -0.1570 -0.1113 -0.6418
 4777TIP3    H114270   6.692   5.203   3.156 -1.7566  1.0849 -0.3658
 4777TIP3    H214271   6.632   5.196   3.295 -0.8714 -1.1874 -0.0774
 4778TIP3   OH214272   6.396   5.667   1.616 -0.9354  0.4782 -0.1647
 4778TIP3    H114273   6.354   5.633   1.537 -0.3995  0.7657 -0.5807
 4778TIP3    H214274   6.453   5.596   1.645 -2.3740 -0.2621  0.9237
 4779TIP3   OH214275   5.858   7.334   2.585  0.1728  0.4225 -0.1733
 4779TIP3    H114276   5.875   7.398   2.655 -0.5814  0.3547  0.0800
 4779TIP3    H214277   5.944   7.318   2.546  0.3890  1.5307 -0.1855
 4780TIP3   OH214278   3.224   2.617   6.542 -0.2091 -0.0759 -0.0338
 4780TIP3    H114279   3.221   2.636   6.448  0.0244  1.2418  0.2226
 4780TIP3    H214280   3.317   2.620   6.564 -0.4371  1.8935  0.6947
 4781TIP3   OH214281   5.739   7.012   1.483  0.3357 -0.0936  0.3421
 4781TIP3    H114282   5.831   7.036   1.469 -0.2040  0.6873 -2.1368
 4781TIP3    H214283   5.724   6.941   1.420 -1.1556  0.8298 -0.3568
 4782TIP3   OH214284   5.953   5.335   1.536  0.1448 -0.0264 -0.0827
 4782TIP3    H114285   5.893   5.378   1.597  1.3302 -0.1954  1.2258
 4782TIP3    H214286   5.905   5.258   1.506 -0.3073 -0.1697  0.9603
 4783TIP3   OH214287   6.021   6.344   0.084  0.4200  0.2130  0.6807
 4783TIP3    H114288   5.970   6.416   0.120  1.2156  0.7827  0.6827
 4783TIP3    H214289   6.012   6.353  -0.011  0.1102  0.0151  0.6908
 4784TIP3   OH214290   7.162   6.207   5.695 -0.3755  0.1055  0.1405
 4784TIP3    H114291   7.219   6.161   5.756  0.2233  0.6826  0.0184
 4784TIP3    H214292   7.222   6.248   5.632 -0.9521  0.1167 -0.4101
 4785TIP3   OH214293   7.024   0.165   2.645 -0.0442 -0.6315 -0.0324
 4785TIP3    H114294   7.067   0.147   2.561 -0.9794 -1.2592 -0.3933
 4785TIP3    H214295   7.076   0.116   2.709  0.4994 -0.3899 -0.2856
 4786TIP3   OH214296   7.327   1.420   1.827  0.3747  0.6502 -0.2938
 4786TIP3    H114297   7.313   1.328   1.807  1.0090  0.8793 -1.8615
 4786TIP3    H214298   7.319   1.425   1.922 -0.4512 -0.8761 -0.2592
 4787TIP3   OH214299   5.579   6.443   0.984 -0.1110 -0.2307  0.0361
 4787TIP3    H114300   5.599   6.373   0.922 -0.2228  0.3982 -0.7323
 4787TIP3    H214301   5.664   6.477   1.011 -0.0657 -0.2681 -0.0579
 4788TIP3   OH214302   7.113   7.114   0.981  0.3256 -0.1654  0.2125
 4788TIP3    H114303   7.084   7.182   1.041 -0.5895 -0.5029  0.1670
 4788TIP3    H214304   7.053   7.120   0.907  1.1493 -0.0629 -0.4636
 4789TIP3   OH214305   3.816   0.818   6.781  0.1637 -0.2540  0.7392
 4789TIP3    H114306   3.794   0.898   6.735  1.3065 -0.8385 -0.8651
 4789TIP3    H214307   3.854   0.847   6.864 -0.2284  0.8390  0.5368
 4790TIP3   OH214308   5.331   5.274   3.698 -0.3437 -0.8287  0.5016
 4790TIP3    H114309   5.291   5.190   3.673 -2.2957  0.2350 -0.0718
 4790TIP3    H214310   5.414   5.275   3.651 -2.2701 -0.5310 -3.0608
 4791TIP3   OH214311   0.286   0.058   1.246  0.3780 -0.0409  0.0077
 4791TIP3    H114312   0.301   0.099   1.161  0.6380 -0.5085 -0.1714
 4791TIP3    H214313   0.254  -0.030   1.225 -0.4955  0.1780  0.3904
 4792TIP3   OH214314   3.991   0.650   6.177  0.2040 -0.0371  0.2156
 4792TIP3    H114315   3.985   0.709   6.101 -1.2833  1.3839  1.4130
 4792TIP3    H214316   4.080   0.661   6.209 -0.3609  2.3294  1.0249
 4793TIP3   OH214317   6.411   4.086   2.357  0.3012  0.1119  0.0719
 4793TIP3    H114318   6.341   4.023   2.372 -0.1800  0.7763  0.6816
 4793TIP3    H214319   6.397   4.116   2.266  0.4151 -0.5173 -0.1506
 4794TIP3   OH214320   6.695   7.545   1.528 -0.3944  0.8557 -0.1961
 4794TIP3    H114321   6.712   7.622   1.583 -0.6492  1.5922 -1.1389
 4794TIP3    H214322   6.611   7.512   1.559 -0.3856  1.0783  0.0730
 4795TIP3   OH214323   0.616   1.314   6.641 -0.0979  0.1402 -0.5029
 4795TIP3    H114324   0.681   1.309   6.572  0.4494 -1.1942  0.0842
 4795TIP3    H214325   0.544   1.259   6.610 -0.2732  0.3406 -0.4525
 4796TIP3   OH214326   4.976   6.599   1.747 -0.1645  0.0938  0.3887
 4796TIP3    H114327   4.911   6.584   1.815 -1.3300  1.0146 -0.4906
 4796TIP3    H214328   4.935   6.564   1.667  1.1066 -0.8192  0.1202
 4797TIP3   OH214329   3.959   3.735   3.403  0.3985  0.0565 -0.1970
 4797TIP3    H114330   4.048   3.733   3.369 -0.5819  1.3455 -3.0355
 4797TIP3    H214331   3.937   3.828   3.406 -0.8140 -0.2451  0.6535
 4798TIP3   OH214332   4.628   5.075   3.641  0.2679  0.1817  0.4097
 4798TIP3    H114333   4.590   4.998   3.685 -0.4719  1.0898  1.3718
 4798TIP3    H214334   4.578   5.084   3.560  0.4548 -0.4372  0.2214
 4799TIP3   OH214335   5.722   5.636   2.365  0.1454  0.1047 -0.5764
 4799TIP3    H114336   5.736   5.692   2.289  0.1585  1.1118  0.1644
 4799TIP3    H214337   5.627   5.624   2.369  0.2898 -1.5266 -1.8767
 4800TIP3   OH214338   5.706   5.475   0.488  0.0890  0.0391 -0.1837
 4800TIP3    H114339   5.784   5.530   0.498  0.6312 -0.9578  1.1667
 4800TIP3    H214340   5.664   5.476   0.574 -0.9264 -0.1240 -0.6701
 4801TIP3   OH214341   6.307   4.413   1.528  0.1873  0.6385  0.4698
 4801TIP3    H114342   6.215   4.413   1.553 -0.0895 -1.1928 -0.4420
 4801TIP3    H214343   6.348   4.349   1.587  0.7062  0.8129  0.3037
 4802TIP3   OH214344   3.912   6.002   0.430  0.0106 -0.1563  0.8027
 4802TIP3    H114345   3.833   5.948   0.430  0.1149 -0.3137  0.0536
 4802TIP3    H214346   3.887   6.080   0.380  0.1266  0.0944  1.1335
 4803TIP3   OH214347   6.139   6.831   0.654 -0.9350 -0.1446  0.1788
 4803TIP3    H114348   6.124   6.737   0.643 -1.3485 -0.2158  1.2689
 4803TIP3    H214349   6.117   6.869   0.569  0.2667 -1.1426 -0.5979
 4804TIP3   OH214350   3.978   5.290   1.424  0.1147  0.7821 -0.7754
 4804TIP3    H114351   3.980   5.384   1.445 -2.3134  0.9436 -1.0937
 4804TIP3    H214352   4.021   5.248   1.499 -3.1014  1.8072  1.7945
 4805TIP3   OH214353   4.368   7.646   1.442  0.7024  0.3763 -0.0236
 4805TIP3    H114354   4.409   7.731   1.427  2.6324 -0.5187  0.1280
 4805TIP3    H214355   4.275   7.667   1.454  0.9031  2.3035 -1.4696
 4806TIP3   OH214356   6.925   7.229   2.241 -0.3197  0.0375 -0.1145
 4806TIP3    H114357   6.963   7.301   2.293 -0.1101  0.5169 -0.9253
 4806TIP3    H214358   6.996   7.166   2.232 -0.2800  0.0692 -0.0213
 4807TIP3   OH214359   5.993   3.310   3.540 -0.2360  0.3849  0.0051
 4807TIP3    H114360   5.897   3.307   3.536 -0.3857  3.5568 -0.0236
 4807TIP3    H214361   6.012   3.359   3.620  1.3164  1.2140 -0.8540
 4808TIP3   OH214362   4.375   5.049   2.745 -0.5112  0.7143 -0.6448
 4808TIP3    H114363   4.317   5.124   2.729  0.0559  1.6619  1.5339
 4808TIP3    H214364   4.320   4.973   2.728 -1.4115  1.6203 -1.8747
 4809TIP3   OH214365   5.248   6.529   1.790 -0.4004 -0.1648  0.1925
 4809TIP3    H114366   5.293   6.557   1.710 -0.4273 -0.6820 -0.0018
 4809TIP3    H214367   5.158   6.558   1.777 -0.9007 -2.1356 -0.9050
 4810TIP3   OH214368   4.852   6.144   0.551 -0.5382 -0.1696 -0.7073
 4810TIP3    H114369   4.786   6.153   0.483 -0.4944 -0.8170 -0.8390
 4810TIP3    H214370   4.872   6.050   0.553  0.0542 -0.0388 -0.3684
 4811TIP3   OH214371   3.880   4.365   1.868 -0.3012  0.2154 -0.3226
 4811TIP3    H114372   3.784   4.367   1.874 -0.3446 -1.9166  0.0298
 4811TIP3    H214373   3.899   4.288   1.815  1.3198 -1.3506  2.4372
 4812TIP3   OH214374   8.310   7.157   1.637  0.1098  0.2080  0.4501
 4812TIP3    H114375   8.395   7.142   1.677 -0.2382 -0.0560  1.0984
 4812TIP3    H214376   8.262   7.075   1.651 -0.1214  0.2231 -0.2315
 4813TIP3   OH214377   4.028   6.510   1.788 -0.6089  0.5187  0.0264
 4813TIP3    H114378   4.079   6.504   1.869  0.2824  2.1990 -0.3908
 4813TIP3    H214379   4.090   6.488   1.718 -0.5954  1.9330 -0.4289
 4814TIP3   OH214380   6.019   5.489   1.198  0.7187  0.4043 -0.3513
 4814TIP3    H114381   5.946   5.530   1.243 -0.0288 -1.5784  0.2898
 4814TIP3    H214382   6.019   5.530   1.111 -1.4720  0.0643 -0.5387
 4815TIP3   OH214383   5.572   3.985   0.839 -0.4217  0.0750  0.8363
 4815TIP3    H114384   5.592   4.072   0.874  0.7203  0.0594  0.2474
 4815TIP3    H214385   5.586   3.993   0.745 -1.6990 -0.3696  0.6061
 4816TIP3   OH214386   5.818   6.475   0.769  0.0261 -0.4164  0.0599
 4816TIP3    H114387   5.867   6.504   0.846 -0.3534 -2.6800  1.1948
 4816TIP3    H214388   5.847   6.385   0.754 -2.7252 -1.3281 -0.0999
 4817TIP3   OH214389   4.596   7.802   2.432 -0.5326 -0.0119  0.6594
 4817TIP3    H114390   4.536   7.827   2.501 -0.2867 -0.8048  1.1633
 4817TIP3    H214391   4.681   7.838   2.459 -1.0956  2.7482 -0.9580
 4818TIP3   OH214392   6.449   4.594   2.331 -0.1135  0.0182  0.3834
 4818TIP3    H114393   6.418   4.597   2.422  2.4435 -1.6872  1.3694
 4818TIP3    H214394   6.379   4.550   2.283 -0.0735 -2.1056  2.1962
 4819TIP3   OH214395   4.542   5.841   0.747  0.3147  0.1750 -0.0654
 4819TIP3    H114396   4.597   5.840   0.825 -1.5741  1.4173  1.3320
 4819TIP3    H214397   4.555   5.928   0.709 -0.8743  0.5669  0.4171
 4820TIP3   OH214398   5.741   4.642   1.829  0.2230  0.3203 -0.0125
 4820TIP3    H114399   5.769   4.656   1.920  2.3000 -1.6448 -0.2800
 4820TIP3    H214400   5.790   4.706   1.778  0.0197  0.5883  0.1320
 4821TIP3   OH214401   3.326   1.206   6.899  0.4171 -0.2995  0.1755
 4821TIP3    H114402   3.311   1.195   6.805  0.4802  2.7723 -0.2667
 4821TIP3    H214403   3.412   1.168   6.915  0.7606 -0.1078 -1.1916
 4822TIP3   OH214404   3.351   4.454   0.820  0.8767  0.0802 -0.1972
 4822TIP3    H114405   3.349   4.543   0.786  1.3900  0.0816 -0.2338
 4822TIP3    H214406   3.368   4.464   0.913 -1.8897  0.1259  0.3168
 4823TIP3   OH214407   6.715   5.928   2.880  0.6451  0.3263 -0.2205
 4823TIP3    H114408   6.622   5.906   2.887  0.4180  0.2841 -2.7429
 4823TIP3    H214409   6.731   5.989   2.951 -1.3303  0.3662  0.2207
 4824TIP3   OH214410   5.100   5.025   2.875 -0.3836 -0.4212  0.3237
 4824TIP3    H114411   5.124   5.085   2.805  1.3215  1.0282  2.0768
 4824TIP3    H214412   5.182   5.011   2.924 -0.4016 -5.2302 -0.7752
 4825TIP3   OH214413   6.320   5.959   1.315  0.3871  0.1665 -0.0817
 4825TIP3    H114414   6.412   5.934   1.326  0.9705  1.2552 -2.1932
 4825TIP3    H214415   6.319   6.054   1.328 -0.1317  0.3959 -1.6432
 4826TIP3   OH214416   0.129   1.495   1.752 -0.3024  0.4346  0.0197
 4826TIP3    H114417   0.146   1.402   1.767  2.0953  1.0214  1.2487
 4826TIP3    H214418   0.036   1.506   1.769 -1.0128 -2.0720 -1.9452
 4827TIP3   OH214419   2.346   1.323   5.420 -0.0069  0.3642  0.3022
 4827TIP3    H114420   2.429   1.284   5.448 -1.1543 -0.0885  3.2505
 4827TIP3    H214421   2.351   1.324   5.324  2.5090 -1.5905  0.3624
 4828TIP3   OH214422   6.866   6.680   1.820  0.2084 -0.0049 -0.0540
 4828TIP3    H114423   6.950   6.709   1.855 -0.8385 -0.1103  2.6562
 4828TIP3    H214424   6.875   6.584   1.814  1.0285  0.1572 -1.9135
 4829TIP3   OH214425   2.835   1.140   5.956 -0.2999  0.3571 -0.2130
 4829TIP3    H114426   2.830   1.084   5.878  2.0822  0.4296 -0.4423
 4829TIP3    H214427   2.823   1.079   6.029  0.0824 -0.1251 -0.5472
 4830TIP3   OH214428   5.673   4.942   0.169 -0.3056  0.2694  0.5682
 4830TIP3    H114429   5.588   4.941   0.124  1.1542  0.4998 -2.2663
 4830TIP3    H214430   5.702   5.033   0.163  0.0912  0.2254  1.7076
 4831TIP3   OH214431   4.663   6.219   1.440  0.2435 -0.0212  0.0248
 4831TIP3    H114432   4.635   6.142   1.391 -2.8028 -0.9191  3.0126
 4831TIP3    H214433   4.616   6.292   1.399  1.6939  0.0360 -1.6074
 4832TIP3   OH214434   5.723   7.774   2.328 -0.0950  0.2072  0.2089
 4832TIP3    H114435   5.788   7.839   2.352  2.2624 -2.2954  0.8777
 4832TIP3    H214436   5.667   7.767   2.405  0.1714  0.8166  0.4588
 4833TIP3   OH214437   6.296   5.951   0.247  0.0137 -0.2482 -0.0182
 4833TIP3    H114438   6.286   5.976   0.155 -2.3026 -1.1580 -0.0623
 4833TIP3    H214439   6.389   5.959   0.265  0.5081 -0.2233 -2.4987
 4834TIP3   OH214440   3.551   5.752   2.858 -0.0457  0.2126 -0.7117
 4834TIP3    H114441   3.539   5.838   2.899  0.5400  0.4446 -1.0126
 4834TIP3    H214442   3.547   5.690   2.930  1.1982  0.6402 -0.2658
 4835TIP3   OH214443   4.259   6.757   2.036  0.1610 -0.1450 -0.9282
 4835TIP3    H114444   4.259   6.764   2.132 -0.3253  0.8083 -0.9933
 4835TIP3    H214445   4.288   6.843   2.006 -1.6955  0.2290 -1.6752
 4836TIP3   OH214446   0.699   0.988   0.483  0.1812  0.5670  0.2213
 4836TIP3    H114447   0.633   0.972   0.415 -0.5620 -1.1424  1.3194
 4836TIP3    H214448   0.689   0.915   0.544  1.7609  1.3573  1.4586
 4837TIP3   OH214449   2.933   0.321   6.303 -0.0423 -0.8279 -0.0370
 4837TIP3    H114450   2.913   0.333   6.210  0.3247 -3.2606 -0.4656
 4837TIP3    H214451   2.848   0.301   6.343 -0.1861  0.1321  0.1539
 4838TIP3   OH214452   7.282   7.643   3.946  0.4873  0.4232  0.1173
 4838TIP3    H114453   7.292   7.586   4.022 -1.5331 -1.2004 -0.7940
 4838TIP3    H214454   7.324   7.596   3.874  1.1261  1.2850 -0.0735
 4839TIP3   OH214455   3.790   5.362   1.782 -0.7674 -0.3209  0.6224
 4839TIP3    H114456   3.731   5.290   1.803 -0.2485 -0.5828  1.2202
 4839TIP3    H214457   3.875   5.334   1.816 -0.7577  0.9847  1.7262
 4840TIP3   OH214458   5.171   7.862   1.299  0.1810 -0.5587  0.2984
 4840TIP3    H114459   5.096   7.851   1.241  0.2622  0.4183  0.0087
 4840TIP3    H214460   5.236   7.799   1.267  0.3141  0.1422 -0.8016
 4841TIP3   OH214461   5.942   6.469   2.013  0.1022 -0.4272 -0.5996
 4841TIP3    H114462   5.967   6.533   1.946 -1.4961  2.0380  1.0826
 4841TIP3    H214463   5.970   6.385   1.977  3.7131  1.3243 -2.2032
 4842TIP3   OH214464   4.772   5.199   0.279  0.0704 -0.1733  0.0418
 4842TIP3    H114465   4.772   5.227   0.371 -0.5137 -0.5162  0.1482
 4842TIP3    H214466   4.796   5.278   0.230  0.0996  0.0825  0.4644
 4843TIP3   OH214467   4.151   6.495   2.022  0.5893 -0.5312  0.0336
 4843TIP3    H114468   4.227   6.452   2.061  1.6979  0.9329 -0.4666
 4843TIP3    H214469   4.177   6.586   2.013 -2.4593  0.7148  2.9459
 4844TIP3   OH214470   6.422   6.361   1.166 -0.2527 -0.7197  0.0480
 4844TIP3    H114471   6.495   6.395   1.115 -0.5341  0.2675  0.2864
 4844TIP3    H214472   6.370   6.439   1.189 -0.6657 -1.2563  0.9907
 4845TIP3   OH214473   6.190   5.711   3.324 -0.5298  0.3601  0.0076
 4845TIP3    H114474   6.148   5.625   3.314 -0.4194  0.2973  0.0776
 4845TIP3    H214475   6.121   5.768   3.358 -1.2132  0.8418 -2.1373
 4846TIP3   OH214476   3.801   4.988   0.705 -0.0266  0.3817  0.0641
 4846TIP3    H114477   3.763   5.076   0.706  1.8206  1.2262 -1.7565
 4846TIP3    H214478   3.890   5.000   0.738  1.0134 -0.4045 -2.3545
 4847TIP3   OH214479   4.709   6.511   1.297  0.0682 -0.6320  0.1147
 4847TIP3    H114480   4.747   6.480   1.215  0.4907 -0.9929  0.4473
 4847TIP3    H214481   4.627   6.554   1.271  1.4011  1.4630 -0.7700
 4848TIP3   OH214482   6.322   6.169   0.912  0.5825 -0.2282 -0.3481
 4848TIP3    H114483   6.291   6.167   1.002 -2.8582 -0.7778 -1.4274
 4848TIP3    H214484   6.382   6.094   0.905 -0.9087 -1.5898  0.9253
 4849TIP3   OH214485   6.658   7.276   2.671  0.0844  0.4472 -0.4844
 4849TIP3    H114486   6.693   7.206   2.617  1.5138 -0.0050  0.9910
 4849TIP3    H214487   6.579   7.239   2.711  0.8649 -0.3592  0.3323
 4850TIP3   OH214488   4.016   6.432   3.995 -0.0627 -0.1543  0.0773
 4850TIP3    H114489   4.002   6.340   3.972 -0.4616 -0.3716  1.1433
 4850TIP3    H214490   4.109   6.438   4.015  0.0522 -0.2260 -0.4367
 4851TIP3   OH214491   3.854   5.922   1.519 -0.0620  0.0211 -0.0389
 4851TIP3    H114492   3.802   5.963   1.588 -1.0644 -0.2729 -0.6093
 4851TIP3    H214493   3.938   5.903   1.561 -0.4402  0.4240  0.9196
 4852TIP3   OH214494   2.865   4.196   1.220  0.0028  0.1483  0.3919
 4852TIP3    H114495   2.871   4.274   1.275  0.6400  0.4255 -0.0647
 4852TIP3    H214496   2.803   4.219   1.152 -0.6995 -0.1555  0.9293
 4853TIP3   OH214497   6.119   6.060   1.715  0.2999 -0.1110  0.3277
 4853TIP3    H114498   6.151   5.999   1.649 -0.1881 -0.9769  0.8782
 4853TIP3    H214499   6.082   6.003   1.783  0.0141  0.7969  0.9286
 4854TIP3   OH214500   5.966   6.077   2.838  0.1173 -0.0011 -0.1824
 4854TIP3    H114501   6.058   6.093   2.819  0.0342  1.4096  0.5781
 4854TIP3    H214502   5.966   6.028   2.920  0.1872  0.1584 -0.0863
 4855TIP3   OH214503   7.489   3.113   6.590  0.5405 -0.3398 -0.0080
 4855TIP3    H114504   7.566   3.158   6.556 -1.4134  1.8608 -1.6218
 4855TIP3    H214505   7.449   3.072   6.514 -0.4393 -0.6504  0.6634
 4856TIP3   OH214506   4.625   5.642   1.098 -0.4219 -0.0452  0.3092
 4856TIP3    H114507   4.553   5.702   1.117 -1.0015  0.1757 -2.4887
 4856TIP3    H214508   4.602   5.601   1.015  2.7161  0.1308 -0.7362
 4857TIP3   OH214509   7.132   1.523   1.130 -0.2486 -0.1199 -0.5752
 4857TIP3    H114510   7.089   1.576   1.063 -0.2947 -1.9820 -2.0764
 4857TIP3    H214511   7.099   1.556   1.213 -1.0595  1.4868 -1.5230
 4858TIP3   OH214512   4.728   4.744   3.592 -0.9676  0.2931 -0.0856
 4858TIP3    H114513   4.647   4.781   3.627 -1.1650  2.4092 -2.5942
 4858TIP3    H214514   4.724   4.762   3.498  1.7109 -0.9249 -0.4879
 4859TIP3   OH214515   3.825   6.899   0.304 -0.1734 -0.3745 -0.3680
 4859TIP3    H114516   3.827   6.873   0.212 -0.8049 -0.7642 -0.2805
 4859TIP3    H214517   3.750   6.851   0.340  0.8319 -1.2057  0.6413
 4860TIP3   OH214518   4.633   6.663   2.914  0.2727 -0.1109 -0.7981
 4860TIP3    H114519   4.685   6.739   2.941  0.8907 -0.7176 -0.2375
 4860TIP3    H214520   4.698   6.601   2.878 -0.3384  0.0002 -2.1177
 4861TIP3   OH214521   6.150   7.330   2.607  0.1518  0.6824 -0.0929
 4861TIP3    H114522   6.214   7.288   2.550 -0.1536 -1.7010  1.2360
 4861TIP3    H214523   6.197   7.402   2.647  1.9052 -0.7510  0.5085
 4862TIP3   OH214524   2.759   2.962   6.709  0.1426 -0.4884 -0.1079
 4862TIP3    H114525   2.790   2.887   6.658  1.8554 -0.0921  0.3268
 4862TIP3    H214526   2.813   3.036   6.680 -1.8802  0.7083 -0.8998
 4863TIP3   OH214527   6.844   7.808   1.426  0.1195  0.3060  0.2713
 4863TIP3    H114528   6.866   7.784   1.336  0.4097  2.2354 -0.1816
 4863TIP3    H214529   6.756   7.846   1.421 -0.2717 -0.4888  0.9609
 4864TIP3   OH214530   5.608   5.214   2.194 -0.4236 -0.0497  0.1297
 4864TIP3    H114531   5.619   5.211   2.099 -2.0191 -0.8059 -0.0472
 4864TIP3    H214532   5.681   5.269   2.225  0.1114  0.1954 -1.5175
 4865TIP3   OH214533   4.174   4.815   1.531  0.4404 -0.3341  0.4045
 4865TIP3    H114534   4.185   4.893   1.477 -1.0622  0.3198  1.0076
 4865TIP3    H214535   4.259   4.802   1.574  1.7154 -0.9900 -2.2381
 4866TIP3   OH214536   5.491   6.456   0.609 -0.4248  0.0237  0.2500
 4866TIP3    H114537   5.415   6.450   0.667 -0.3929 -0.3004  0.2595
 4866TIP3    H214538   5.564   6.475   0.668 -0.3839 -0.3581  0.3226
 4867TIP3   OH214539   5.276   0.110   5.794 -0.2499 -0.5969 -0.2902
 4867TIP3    H114540   5.300   0.091   5.885 -3.7365  0.1673  0.8502
 4867TIP3    H214541   5.277   0.025   5.751  1.0326 -1.0240  0.5386
 4868TIP3   OH214542   3.443   2.238   6.030 -0.0403 -0.1616 -0.2758
 4868TIP3    H114543   3.362   2.288   6.031 -0.5395 -0.9503 -0.0414
 4868TIP3    H214544   3.439   2.185   6.110 -0.0109 -1.3147 -1.0194
 4869TIP3   OH214545   6.414   5.072   0.015  0.2211  0.1295  0.3088
 4869TIP3    H114546   6.501   5.105  -0.009 -0.3926  1.3869 -0.1782
 4869TIP3    H214547   6.422   4.977   0.006  1.4427  0.2535 -0.0665
 4870TIP3   OH214548   2.370   1.023   5.998 -0.4898 -0.0271 -0.4023
 4870TIP3    H114549   2.401   0.937   5.969  1.5067  0.2371  0.8770
 4870TIP3    H214550   2.418   1.085   5.944 -1.5877  0.3275 -0.9989
 4871TIP3   OH214551   6.995   6.422   2.694  0.2565  0.3967 -0.3537
 4871TIP3    H114552   7.042   6.500   2.664  0.5333  0.3246 -0.1141
 4871TIP3    H214553   7.041   6.349   2.653 -0.7469  0.4318 -1.5369
 4872TIP3   OH214554   6.346   6.210   1.387  0.2903 -0.4232 -0.2626
 4872TIP3    H114555   6.405   6.265   1.335  1.3264 -0.2501  1.0648
 4872TIP3    H214556   6.325   6.264   1.463  0.4526 -1.4486  0.5149
 4873TIP3   OH214557   2.552   0.294   2.603 -0.1665 -0.3973 -0.4109
 4873TIP3    H114558   2.485   0.349   2.562  0.8892  0.4300 -1.0523
 4873TIP3    H214559   2.634   0.337   2.581  0.7221 -2.5268 -1.4147
 4874TIP3   OH214560   5.800   6.342   1.379  0.2699 -0.3164 -0.4448
 4874TIP3    H114561   5.866   6.367   1.313  0.1736 -1.1694 -0.8653
 4874TIP3    H214562   5.739   6.416   1.380  0.6156 -0.0178 -0.8592
 4875TIP3   OH214563   4.684   4.656   2.042  0.0282 -0.1635  0.4099
 4875TIP3    H114564   4.680   4.604   2.122 -1.9531 -0.9840 -0.1771
 4875TIP3    H214565   4.705   4.593   1.973 -1.0163  0.0300 -0.1038
 4876TIP3   OH214566   4.242   2.999   1.005 -0.0051 -0.8914  0.1040
 4876TIP3    H114567   4.183   2.947   1.059  0.5128 -1.3590  0.2249
 4876TIP3    H214568   4.202   3.086   1.003  0.7946 -0.4166  2.5777
 4877TIP3   OH214569   2.094   1.371   6.601  0.0205  0.0781  0.2085
 4877TIP3    H114570   2.063   1.326   6.679 -0.7753  3.0424  1.6705
 4877TIP3    H214571   2.190   1.370   6.610 -0.0290 -0.3427  0.7672
 4878TIP3   OH214572   7.776   7.169   2.142  0.4452 -0.4362 -0.0969
 4878TIP3    H114573   7.853   7.162   2.086  1.3603 -1.2732  1.2564
 4878TIP3    H214574   7.810   7.181   2.230 -0.9827 -0.2024  0.4493
 4879TIP3   OH214575   5.935   4.849   2.931  0.2190  0.1021  0.4236
 4879TIP3    H114576   5.940   4.830   3.025  3.0897  2.0745  0.7389
 4879TIP3    H214577   5.995   4.922   2.918  0.5296 -0.6804 -3.1116
 4880TIP3   OH214578   3.158   6.233   2.794 -0.7807 -0.0669 -0.2195
 4880TIP3    H114579   3.064   6.214   2.788 -1.4702  2.9073  0.5141
 4880TIP3    H214580   3.176   6.287   2.717  0.0630  0.3936  0.2948
 4881TIP3   OH214581   5.699   4.080   1.189 -0.3431 -0.0378  0.4968
 4881TIP3    H114582   5.669   4.166   1.158  0.8402 -0.4117 -1.8377
 4881TIP3    H214583   5.779   4.098   1.238  0.4870  0.1288 -0.8859
 4882TIP3   OH214584   8.228   6.075   2.722  0.0409  0.5714 -0.3029
 4882TIP3    H114585   8.201   5.984   2.730  0.2514  0.4390 -1.0486
 4882TIP3    H214586   8.146   6.124   2.713 -0.0620  0.4369 -0.0946
 4883TIP3   OH214587   6.891   5.299   1.454  0.3668  0.3747 -0.2353
 4883TIP3    H114588   6.903   5.215   1.499  0.1924  0.2215 -0.4773
 4883TIP3    H214589   6.946   5.360   1.504  3.1804 -0.5705 -2.0428
 4884TIP3   OH214590   6.482   5.858   2.235 -0.9052 -0.0968  0.4263
 4884TIP3    H114591   6.560   5.829   2.186  0.1985  0.7623  1.6442
 4884TIP3    H214592   6.467   5.788   2.299 -0.9644 -0.1355  0.3697
 4885TIP3   OH214593   6.433   5.885   3.514 -0.0136  0.0753  0.1953
 4885TIP3    H114594   6.452   5.906   3.606  1.6817  0.0966 -0.1503
 4885TIP3    H214595   6.380   5.958   3.483  0.3503  0.6261  0.8542
 4886TIP3   OH214596   3.408   5.607   2.664  0.4457  0.0615  0.5055
 4886TIP3    H114597   3.486   5.647   2.702  1.1210  0.4296 -1.1832
 4886TIP3    H214598   3.391   5.529   2.717  2.8032 -0.8032  0.0370
 4887TIP3   OH214599   5.528   7.932   3.220  0.1052  0.0208  0.5440
 4887TIP3    H114600   5.568   7.856   3.264  0.7912 -0.2757 -0.5717
 4887TIP3    H214601   5.435   7.927   3.244 -0.2876 -2.4265 -1.2235
 4888TIP3   OH214602   8.390   2.863   5.782 -0.3567 -0.1798 -0.0026
 4888TIP3    H114603   8.405   2.801   5.854  0.3952  0.5076  0.4421
 4888TIP3    H214604   8.438   2.942   5.808  0.3438 -0.0954 -1.4863
 4889TIP3   OH214605   2.229   5.585   1.439 -0.2812  0.4483 -0.1663
 4889TIP3    H114606   2.313   5.613   1.473 -1.2931  1.3482  1.6444
 4889TIP3    H214607   2.248   5.503   1.392  1.5563  0.5791  0.3253
 4890TIP3   OH214608   4.291   5.421   2.109 -0.1601  0.0374  0.0008
 4890TIP3    H114609   4.306   5.452   2.199  2.7499  1.5929 -0.9361
 4890TIP3    H214610   4.312   5.328   2.112  2.3326  0.5782  0.4632
 4891TIP3   OH214611   2.636   6.083   1.731 -0.3357  0.1002  0.0567
 4891TIP3    H114612   2.554   6.075   1.682 -0.8463 -0.6773  1.0252
 4891TIP3    H214613   2.693   6.015   1.694 -0.7728 -0.5862  0.6431
 4892TIP3   OH214614   0.670   0.076   2.076 -0.3858  0.1959 -0.1570
 4892TIP3    H114615   0.675   0.171   2.076  2.9014  0.0931  2.4399
 4892TIP3    H214616   0.756   0.046   2.047 -0.3036 -1.9883  2.1731
 4893TIP3   OH214617   4.698   6.101   0.771  0.5042  0.1759  0.1775
 4893TIP3    H114618   4.749   6.034   0.816  1.5078  0.3088 -0.7285
 4893TIP3    H214619   4.756   6.131   0.700 -0.5991  0.7624 -0.4872
 4894TIP3   OH214620   6.635   6.456   2.095 -0.5285  0.0511 -0.2997
 4894TIP3    H114621   6.586   6.509   2.032 -1.5359 -0.9032 -0.3228
 4894TIP3    H214622   6.615   6.496   2.180 -0.5596  0.2601 -0.4048
 4895TIP3   OH214623   3.388   7.213   0.394  0.4148  0.2609 -0.3031
 4895TIP3    H114624   3.471   7.207   0.442  1.3188  1.7625 -1.6393
 4895TIP3    H214625   3.339   7.135   0.422  0.8962  1.0748  3.0509
 4896TIP3   OH214626   5.027   5.311   0.399 -0.2800  0.3488  0.0941
 4896TIP3    H114627   4.939   5.294   0.434 -1.0059 -0.9817 -2.2945
 4896TIP3    H214628   5.031   5.407   0.391 -0.7946  0.5573  1.9412
 4897TIP3   OH214629   4.731   7.517   0.343  0.3111 -0.7068 -0.0813
 4897TIP3    H114630   4.794   7.563   0.287  0.6066  1.4119  1.8992
 4897TIP3    H214631   4.670   7.476   0.282  0.9913  1.0037 -1.9712
 4898TIP3   OH214632   7.944   6.043   1.256 -0.2174  0.0792 -0.5253
 4898TIP3    H114633   7.850   6.046   1.236 -0.3753 -1.5225 -0.0645
 4898TIP3    H214634   7.955   6.105   1.328 -1.2744 -1.1818  0.7503
 4899TIP3   OH214635   2.989   1.430   5.162  0.2817  0.5424  0.1194
 4899TIP3    H114636   2.990   1.437   5.257  2.6369 -0.9307  0.2406
 4899TIP3    H214637   3.033   1.509   5.132  2.8787 -0.7568  0.4231
 4900TIP3   OH214638   5.193   5.167   0.257  0.0853  0.0316  0.0304
 4900TIP3    H114639   5.274   5.187   0.304  0.7489 -0.0763 -1.0342
 4900TIP3    H214640   5.127   5.223   0.297  0.8776  0.7679  0.3250
 4901TIP3   OH214641   4.965   6.255   1.048 -0.0988  0.2218  0.0826
 4901TIP3    H114642   5.025   6.238   1.121  1.5357 -1.1963 -1.5055
 4901TIP3    H214643   4.986   6.186   0.984 -1.3537  1.5216 -1.7866
 4902TIP3   OH214644   6.543   7.026   1.676  0.1346  0.3029 -0.1168
 4902TIP3    H114645   6.572   7.098   1.619  2.1285  0.1919  0.7383
 4902TIP3    H214646   6.600   6.953   1.653 -0.0615 -0.1942  0.9579
 4903TIP3   OH214647   4.228   4.610   0.928 -0.0477 -0.3439  0.0209
 4903TIP3    H114648   4.265   4.662   1.000  0.6815 -2.5559  1.2936
 4903TIP3    H214649   4.172   4.546   0.971 -0.1914 -1.2244 -1.4508
 4904TIP3   OH214650   6.942   5.755   0.946 -0.0773 -0.5367 -0.5029
 4904TIP3    H114651   6.953   5.675   0.896  0.2814 -0.8445  0.0707
 4904TIP3    H214652   6.940   5.727   1.037  1.3682  0.2469 -0.2193
 4905TIP3   OH214653   7.465   5.348   0.655  0.2319  0.9075 -0.2687
 4905TIP3    H114654   7.438   5.437   0.678  0.4912  1.0612 -0.5559
 4905TIP3    H214655   7.545   5.334   0.704 -1.0469 -0.0228  1.5959
 4906TIP3   OH214656   6.378   3.551   0.990  0.2589 -0.0348  0.1520
 4906TIP3    H114657   6.471   3.561   0.967 -0.2291 -1.2266 -2.5661
 4906TIP3    H214658   6.353   3.467   0.953 -1.7979  0.0451  1.2987
 4907TIP3   OH214659   7.366   6.118   3.808  0.1838  0.1138  0.1814
 4907TIP3    H114660   7.439   6.065   3.841  0.8440  2.1549  2.0449
 4907TIP3    H214661   7.398   6.208   3.810 -1.2176  0.7198 -2.2088
 4908TIP3   OH214662   5.619   4.993   0.432  0.0229  0.3724 -0.4072
 4908TIP3    H114663   5.697   5.047   0.444  1.2272 -1.3786 -0.2955
 4908TIP3    H214664   5.630   4.955   0.344  2.2294 -4.4914  1.7970
 4909TIP3   OH214665   4.761   7.360   3.267  0.5083  0.6248  0.2236
 4909TIP3    H114666   4.844   7.404   3.288  0.3799  0.4161  1.1505
 4909TIP3    H214667   4.753   7.291   3.333 -0.0834  0.2220 -0.2671
 4910TIP3   OH214668   7.036   6.666   2.101 -0.4286  0.5001  0.0261
 4910TIP3    H114669   6.970   6.600   2.120 -0.8262  0.9593  0.2445
 4910TIP3    H214670   7.045   6.716   2.182  0.9128 -0.1911  0.3080
 4911TIP3   OH214671   3.400   0.199   6.812  0.1084 -1.0944 -0.0453
 4911TIP3    H114672   3.440   0.133   6.756  1.1801  0.1249 -0.7511
 4911TIP3    H214673   3.468   0.220   6.877 -0.6891 -1.6170  0.9833
 4912TIP3   OH214674   4.812   4.093   0.463 -0.2746  0.4217 -0.0933
 4912TIP3    H114675   4.754   4.168   0.451  0.6952  1.4509  1.4131
 4912TIP3    H214676   4.874   4.098   0.391 -0.4071  0.8906 -0.1759
 4913TIP3   OH214677   3.523   4.144   0.190 -0.7443  0.5469 -0.3382
 4913TIP3    H114678   3.616   4.164   0.179 -0.2313 -0.1216  2.3510
 4913TIP3    H214679   3.479   4.197   0.124  1.4557  1.8850 -0.7734
 4914TIP3   OH214680   7.899   5.827   1.478 -0.6176 -0.5699  0.6184
 4914TIP3    H114681   7.918   5.743   1.436 -1.0230 -0.4004  0.0949
 4914TIP3    H214682   7.806   5.823   1.501 -0.4110 -0.6462  1.4758
 4915TIP3   OH214683   4.982   5.644   1.296  0.6046 -0.2922  0.2457
 4915TIP3    H114684   4.996   5.682   1.210 -0.7232 -0.0834  0.1109
 4915TIP3    H214685   4.961   5.718   1.353  1.2022 -0.4589  0.6928
 4916TIP3   OH214686   7.000   5.622   3.102  0.5733  0.0279  0.3050
 4916TIP3    H114687   6.940   5.687   3.064  0.9808  1.2509  1.7236
 4916TIP3    H214688   6.952   5.585   3.176  0.6094 -0.8120 -0.0849
 4917TIP3   OH214689   6.027   5.896   1.909  0.3046 -0.8667 -0.0812
 4917TIP3    H114690   6.019   5.910   2.003  0.2368  0.7481 -0.3132
 4917TIP3    H214691   6.103   5.839   1.899  0.2598 -1.1078  0.9482
 4918TIP3   OH214692   5.724   6.268   1.774  0.3106  0.6265 -0.1632
 4918TIP3    H114693   5.764   6.210   1.709 -2.6596 -0.7439 -0.8606
 4918TIP3    H214694   5.736   6.223   1.857 -1.1077 -0.5514 -0.5742
 4919TIP3   OH214695   6.985   6.678   0.632  0.4539  0.2334  0.1115
 4919TIP3    H114696   7.065   6.637   0.598  0.7735  0.2976  0.7753
 4919TIP3    H214697   6.915   6.646   0.575  0.6123 -1.7068  0.9484
 4920TIP3   OH214698   5.736   5.831   2.162 -0.5813  0.0997  0.4885
 4920TIP3    H114699   5.827   5.860   2.175  0.7678 -1.5201 -4.3502
 4920TIP3    H214700   5.686   5.912   2.154  0.6617  1.0065  1.6597
 4921TIP3   OH214701   4.337   6.344   2.551 -0.1081 -0.0035 -0.1122
 4921TIP3    H114702   4.254   6.383   2.580 -0.4711 -1.5465  1.0265
 4921TIP3    H214703   4.396   6.353   2.626  0.1236 -0.6761 -0.2054
 4922TIP3   OH214704   5.910   5.667   0.609 -0.2774 -0.0713  0.1857
 4922TIP3    H114705   5.976   5.720   0.653  1.7119 -1.7247 -0.7328
 4922TIP3    H214706   5.901   5.707   0.523 -1.2509  0.7672  0.6644
 4923TIP3   OH214707   5.852   4.023   2.608  0.3987  0.3212  0.2182
 4923TIP3    H114708   5.767   4.044   2.572 -0.2653  0.3586  1.7704
 4923TIP3    H214709   5.861   3.928   2.596  0.3874  0.3996 -0.4343
 4924TIP3   OH214710   4.981   4.326   0.703 -0.6973 -0.0163 -0.3098
 4924TIP3    H114711   4.947   4.397   0.649 -0.2345  0.6799  0.2985
 4924TIP3    H214712   4.906   4.299   0.757 -1.0392 -0.4175 -0.9802
 4925TIP3   OH214713   4.476   5.553   1.527  0.0787 -0.1598 -0.4096
 4925TIP3    H114714   4.550   5.501   1.496  0.3204  0.5783 -1.1104
 4925TIP3    H214715   4.421   5.492   1.575  0.3522 -1.0533 -1.2289
 4926TIP3   OH214716   4.981   6.873   1.623 -0.5258 -0.1489  0.0436
 4926TIP3    H114717   4.987   6.781   1.646 -1.8860 -0.7951 -2.1086
 4926TIP3    H214718   4.945   6.874   1.535 -0.1958  2.4340 -0.1048
 4927TIP3   OH214719   6.209   7.869   1.966  0.2015  0.1818 -0.1065
 4927TIP3    H114720   6.229   7.956   2.001  0.5548 -0.1907  0.6287
 4927TIP3    H214721   6.289   7.842   1.921  0.6788 -0.4664  1.1139
 4928TIP3   OH214722   4.216   7.571   0.846 -0.3367  0.9882 -0.1346
 4928TIP3    H114723   4.282   7.502   0.848  0.2602  1.5813  0.9337
 4928TIP3    H214724   4.258   7.644   0.801  0.4949  2.0957  2.3253
 4929TIP3   OH214725   5.446   6.329   1.421 -0.2557 -0.3819  0.5385
 4929TIP3    H114726   5.510   6.400   1.429  0.3422 -0.5882 -1.9538
 4929TIP3    H214727   5.498   6.249   1.417 -0.8256 -0.7961  1.2566
 4930TIP3   OH214728   4.799   4.425   1.200 -0.0732 -0.4353  0.3506
 4930TIP3    H114729   4.777   4.514   1.171  0.2746 -0.8575 -1.2226
 4930TIP3    H214730   4.859   4.438   1.273  0.6139  0.6306 -0.3831
 4931TIP3   OH214731   6.714   5.369   3.081  1.3253  0.1832  0.1365
 4931TIP3    H114732   6.700   5.409   3.166 -0.7343  2.0841 -1.0686
 4931TIP3    H214733   6.807   5.345   3.081  1.4489  0.5430  2.7124
 4932TIP3   OH214734   0.275   1.118   6.320  0.6588 -0.5438  0.2508
 4932TIP3    H114735   0.306   1.204   6.347  0.5779 -0.4815  0.1422
 4932TIP3    H214736   0.215   1.091   6.390  0.5085 -0.4152  0.1697
 4933TIP3   OH214737   6.584   2.515   1.384 -0.7804  0.5944 -0.1130
 4933TIP3    H114738   6.654   2.513   1.449 -0.4490  1.3245 -0.4485
 4933TIP3    H214739   6.538   2.431   1.395  0.0063  0.2146  0.2520
 4934TIP3   OH214740   6.279   2.668   1.566  0.2778 -0.0027 -0.2081
 4934TIP3    H114741   6.184   2.681   1.562  0.2200 -0.2902  0.2385
 4934TIP3    H214742   6.307   2.668   1.475 -0.4571 -2.2072 -0.4512
 4935TIP3   OH214743   2.901   2.510   2.918  0.2889  0.3249  0.2174
 4935TIP3    H114744   2.890   2.545   3.006  0.6523  1.9414 -0.3649
 4935TIP3    H214745   2.813   2.483   2.891 -0.3976  2.7930 -0.1312
 4936TIP3   OH214746   3.366   0.132   6.455 -0.0459 -0.2126 -0.5645
 4936TIP3    H114747   3.278   0.162   6.478  0.9630  1.8170  0.8212
 4936TIP3    H214748   3.413   0.211   6.428  1.4684 -1.1932 -0.9002
 4937TIP3   OH214749   4.147   3.645   3.642 -0.0990 -0.1172  0.2536
 4937TIP3    H114750   4.111   3.716   3.695  0.8870  1.0633 -0.6109
 4937TIP3    H214751   4.074   3.584   3.630 -0.1145 -0.8482  3.6210
 4938TIP3   OH214752   6.574   3.022   1.907 -0.3107  0.1206 -0.2462
 4938TIP3    H114753   6.521   3.029   1.987 -3.4730 -1.2348 -2.1278
 4938TIP3    H214754   6.567   3.108   1.866 -1.1688 -0.0684 -0.5165
 4939TIP3   OH214755   7.530   3.146   2.419 -0.5321  0.1651  0.3375
 4939TIP3    H114756   7.570   3.091   2.486 -0.0952  0.7113  0.5285
 4939TIP3    H214757   7.440   3.160   2.451 -0.4132  0.1870  0.6715
 4940TIP3   OH214758   0.973   1.626   6.706  0.6240 -0.5141 -0.8167
 4940TIP3    H114759   0.921   1.669   6.638  0.5641  0.0091 -0.4424
 4940TIP3    H214760   1.047   1.685   6.719 -0.1524  0.1427  0.6596
 4941TIP3   OH214761   3.742   4.948   1.169  0.5640  0.0111  0.1687
 4941TIP3    H114762   3.740   5.041   1.189 -1.5115  0.2706 -1.0555
 4941TIP3    H214763   3.683   4.909   1.234 -0.2300 -0.1547 -0.6482
 4942TIP3   OH214764   3.510   3.144   0.552 -0.3827  0.0253 -0.6235
 4942TIP3    H114765   3.444   3.201   0.511 -0.2216  1.0351  0.4959
 4942TIP3    H214766   3.558   3.107   0.478 -1.6132 -0.0267 -1.4274
 4943TIP3   OH214767   6.388   5.566   2.682 -0.4331  0.3856  0.1123
 4943TIP3    H114768   6.472   5.550   2.725 -0.1656 -0.6288 -0.7721
 4943TIP3    H214769   6.323   5.536   2.746 -0.0505 -0.7152 -0.0042
 4944TIP3   OH214770   2.176   2.142   6.694 -0.1494 -0.1613  0.2150
 4944TIP3    H114771   2.081   2.142   6.700 -0.1250 -0.1855  0.6278
 4944TIP3    H214772   2.202   2.057   6.729  0.0816  0.2674  1.1062
 4945TIP3   OH214773   4.526   5.759   2.323 -0.5723  0.6592 -0.7998
 4945TIP3    H114774   4.528   5.832   2.385 -0.3493 -0.1825  0.1981
 4945TIP3    H214775   4.458   5.701   2.357 -0.6220  0.3195 -1.4868
 4946TIP3   OH214776   4.741   4.981   2.284  0.0307 -0.2606 -0.3669
 4946TIP3    H114777   4.676   4.923   2.244  1.0177 -1.0086 -0.8984
 4946TIP3    H214778   4.807   4.994   2.216 -0.4379  1.9105 -0.4265
 4947TIP3   OH214779   0.518   2.549   6.150  0.0974  0.3571  0.7521
 4947TIP3    H114780   0.557   2.629   6.187  0.9040 -0.0208  0.7372
 4947TIP3    H214781   0.590   2.486   6.147 -0.2436 -0.0065 -0.3322
 4948TIP3   OH214782   7.144   6.036   1.417 -0.2999 -0.4661  0.1181
 4948TIP3    H114783   7.159   6.003   1.328  0.5391  0.3284 -0.0422
 4948TIP3    H214784   7.093   5.967   1.460 -0.1183 -1.1620 -0.7669
 4949TIP3   OH214785   0.532   0.835   1.607  0.6015  0.0150  0.2132
 4949TIP3    H114786   0.445   0.809   1.576  0.2026  1.0579  0.4382
 4949TIP3    H214787   0.539   0.796   1.694  0.7810 -0.9335 -0.2130
 4950TIP3   OH214788   3.179   3.017   6.748  0.1109 -0.1437  0.1718
 4950TIP3    H114789   3.132   2.937   6.771  1.3090 -0.6941  0.7412
 4950TIP3    H214790   3.114   3.087   6.760 -0.2365 -0.7525  2.0760
 4951TIP3   OH214791   7.219   7.448   2.266  0.2708  0.7947  0.0406
 4951TIP3    H114792   7.293   7.443   2.327  0.4667  1.6102 -0.1245
 4951TIP3    H214793   7.246   7.395   2.191  0.4254  0.5756  0.2484
 4952TIP3   OH214794   6.689   6.301   0.326  0.3229 -0.1511 -0.1345
 4952TIP3    H114795   6.625   6.373   0.318  0.4080 -0.0939 -0.3067
 4952TIP3    H214796   6.721   6.308   0.416 -0.1161 -0.3500  0.0373
 4953TIP3   OH214797   2.257   1.436   6.320 -0.3875  0.1586 -0.5497
 4953TIP3    H114798   2.305   1.427   6.237  1.1669 -0.9189  0.4260
 4953TIP3    H214799   2.322   1.471   6.381 -1.7395  1.6942  0.0373
 4954TIP3   OH214800   6.643   6.059   0.648 -0.1184  0.2076 -0.3521
 4954TIP3    H114801   6.714   6.002   0.678 -0.6660 -0.7244 -0.8101
 4954TIP3    H214802   6.688   6.138   0.616  0.6655 -0.1059 -0.0387
 4955TIP3   OH214803   4.145   1.220   6.009 -0.4228  0.3881  0.3415
 4955TIP3    H114804   4.157   1.131   6.041 -2.2941 -0.0632 -0.1616
 4955TIP3    H214805   4.119   1.271   6.086 -0.8361  0.1780  0.3421
 4956TIP3   OH214806   6.210   5.258   0.835 -0.2995 -0.3659 -0.0024
 4956TIP3    H114807   6.214   5.258   0.930 -2.6928  1.6866  0.1563
 4956TIP3    H214808   6.166   5.341   0.812  2.0584  0.1677 -2.9813
 4957TIP3   OH214809   4.175   1.069   5.163 -0.2201 -0.0123 -0.2965
 4957TIP3    H114810   4.164   1.139   5.098 -2.6163  0.9509  1.0899
 4957TIP3    H214811   4.135   1.104   5.243 -0.4683 -2.5484  0.7347
 4958TIP3   OH214812   3.269   1.746   6.386  0.4207 -0.0361  0.5867
 4958TIP3    H114813   3.216   1.825   6.394 -0.3706 -0.6432  1.4420
 4958TIP3    H214814   3.359   1.778   6.380  0.2223  0.8924  2.2142
 4959TIP3   OH214815   0.214   5.236   0.312  0.0080  0.7433  0.5586
 4959TIP3    H114816   0.223   5.300   0.241  0.0788  0.6722  0.5037
 4959TIP3    H214817   0.157   5.168   0.276  1.0865  0.0622  0.1215
 4960TIP3   OH214818   5.239   6.387   2.698  0.0574 -0.6683  0.1737
 4960TIP3    H114819   5.282   6.303   2.681 -0.4431 -0.6528 -1.2280
 4960TIP3    H214820   5.255   6.403   2.791  2.1947 -1.1604 -0.0816
 4961TIP3   OH214821   8.020   5.481   0.902 -0.1462  0.4308  0.1525
 4961TIP3    H114822   8.107   5.477   0.862 -0.0684 -0.0915  0.3643
 4961TIP3    H214823   8.004   5.392   0.932 -1.5023  0.0990 -1.4481
 4962TIP3   OH214824   7.516   3.426   2.092 -0.0027 -0.4034  0.2788
 4962TIP3    H114825   7.519   3.394   2.001 -0.5993  1.5040 -0.4486
 4962TIP3    H214826   7.440   3.383   2.130 -1.8878  1.4583 -1.2362
 4963TIP3   OH214827   7.394   0.342   1.245  0.2436 -0.7350  0.7098
 4963TIP3    H114828   7.313   0.316   1.200 -0.6122  0.2028  1.6934
 4963TIP3    H214829   7.451   0.265   1.236 -0.4056 -1.0797 -0.7692
 4964TIP3   OH214830   0.231   5.276   3.011  1.0615 -0.6666 -0.1568
 4964TIP3    H114831   0.265   5.309   2.927 -0.8471  0.4086 -0.5480
 4964TIP3    H214832   0.258   5.341   3.075  0.6598 -0.3634 -0.2936
 4965TIP3   OH214833   7.934   5.902   1.981  0.3369 -0.0842  0.1205
 4965TIP3    H114834   7.921   5.808   1.995 -0.0075  0.0718  0.8716
 4965TIP3    H214835   7.847   5.940   1.990  0.4827  0.3148 -0.1459
 4966TIP3   OH214836   7.455   7.546   2.017 -0.5764  0.3431  0.0573
 4966TIP3    H114837   7.497   7.582   1.939  0.6165 -0.2935  0.3826
 4966TIP3    H214838   7.444   7.621   2.075  0.4306  0.4689  0.0959
 4967TIP3   OH214839   7.124   6.394   3.041 -0.4928 -0.2221  0.4635
 4967TIP3    H114840   7.060   6.461   3.018  0.9763  0.5905 -1.3841
 4967TIP3    H214841   7.099   6.318   2.987  0.9093  0.5522 -1.2940
 4968TIP3   OH214842   8.347   5.447   1.884  0.5753 -0.0026 -0.3134
 4968TIP3    H114843   8.366   5.358   1.855  0.8764 -0.5541  1.4828
 4968TIP3    H214844   8.322   5.436   1.976 -2.4265  1.3959 -0.9116
 4969TIP3   OH214845   4.721   5.871   1.358  0.1965 -0.0894 -0.3560
 4969TIP3    H114846   4.776   5.902   1.287 -1.5742 -0.0738 -1.7584
 4969TIP3    H214847   4.632   5.886   1.328 -0.6066 -1.0707  1.4219
 4970TIP3   OH214848   5.400   3.646   6.575 -0.0012 -0.2230  0.3390
 4970TIP3    H114849   5.469   3.627   6.638  1.3948  0.9799 -0.7699
 4970TIP3    H214850   5.379   3.562   6.535  1.5130 -0.4757  0.0336
 4971TIP3   OH214851   5.460   8.002   1.912 -0.0247 -0.2708 -0.0720
 4971TIP3    H114852   5.393   7.935   1.896  0.0836 -1.3053  3.3598
 4971TIP3    H214853   5.539   7.953   1.932  0.6734  0.9168  0.1327
 4972TIP3   OH214854   7.197   6.080   3.316 -0.1183 -0.3061  0.3375
 4972TIP3    H114855   7.233   6.031   3.390  2.0691  2.1334  0.9467
 4972TIP3    H214856   7.255   6.057   3.243  2.0267  2.6749  1.0339
 4973TIP3   OH214857   5.738   6.968   1.737  0.5868 -0.0654 -0.2303
 4973TIP3    H114858   5.693   6.889   1.768  0.0100  0.0828 -0.6861
 4973TIP3    H214859   5.729   6.965   1.642  2.7094 -0.7378 -0.4585
 4974TIP3   OH214860   7.970   7.930   0.245  0.4855 -0.1006  0.1238
 4974TIP3    H114861   8.020   8.011   0.245 -0.2479  0.3714 -1.5444
 4974TIP3    H214862   7.952   7.912   0.153 -1.9124 -0.5661  0.6386
 4975TIP3   OH214863   3.088   5.487   6.818 -0.2035 -0.0450  0.0112
 4975TIP3    H114864   3.024   5.549   6.785 -1.7366 -1.8683 -0.4820
 4975TIP3    H214865   3.121   5.442   6.741  0.8136  0.0700  0.3721
 4976TIP3   OH214866   0.392   7.322   0.621  0.1227 -0.1704  0.0743
 4976TIP3    H114867   0.371   7.265   0.695  0.7410 -0.0880  0.3130
 4976TIP3    H214868   0.353   7.278   0.545 -0.0132 -0.5463  0.3598
 4977TIP3   OH214869   1.572   0.379   1.375  0.4167  0.4412 -0.1872
 4977TIP3    H114870   1.581   0.284   1.365 -1.8264  0.0322  1.3085
 4977TIP3    H214871   1.499   0.390   1.436  0.0378  3.1533 -1.0588
 4978TIP3   OH214872  -0.002   6.701   3.196 -0.4539 -0.2018 -0.3300
 4978TIP3    H114873   0.091   6.677   3.190 -0.2798  0.8953 -2.6822
 4978TIP3    H214874  -0.048   6.618   3.186  0.2551 -0.6263 -0.1477
 4979TIP3   OH214875   4.910   5.598   0.360 -0.6095  0.3749  0.3672
 4979TIP3    H114876   4.908   5.620   0.453 -1.3127  1.1361  0.1812
 4979TIP3    H214877   4.906   5.683   0.315  0.0617  0.0335 -0.3570
 4980TIP3   OH214878   8.100   4.789   2.221 -0.3164  0.3823  0.2777
 4980TIP3    H114879   8.046   4.725   2.268 -0.6339  0.5034  0.0841
 4980TIP3    H214880   8.110   4.862   2.282 -1.2881  0.8255 -0.0791
 4981TIP3   OH214881   4.970   6.197   2.379 -0.1159 -0.2355 -0.3518
 4981TIP3    H114882   4.936   6.260   2.315  0.3250 -0.5260 -0.8779
 4981TIP3    H214883   5.053   6.167   2.342  0.2844 -0.1924  0.5058
 4982TIP3   OH214884   6.412   5.569   2.005 -0.0562 -0.3934  0.4552
 4982TIP3    H114885   6.370   5.650   1.975 -0.4162 -0.4889  0.6947
 4982TIP3    H214886   6.506   5.589   2.005 -0.0543 -0.3680 -0.6455
 4983TIP3   OH214887   3.458   4.108   5.928  0.2747  0.2981 -0.5025
 4983TIP3    H114888   3.428   4.069   5.846  2.0604 -0.1176 -0.9875
 4983TIP3    H214889   3.489   4.034   5.980 -2.5533  0.3242  1.3507
 4984TIP3   OH214890   0.419   7.646   1.896  0.5482 -0.4043  0.4085
 4984TIP3    H114891   0.490   7.696   1.856 -0.1839  0.8345  0.6087
 4984TIP3    H214892   0.389   7.701   1.969 -0.1897 -1.1916  0.7121
 4985TIP3   OH214893   7.519   7.278   1.993 -0.1582  0.1063  0.9705
 4985TIP3    H114894   7.497   7.372   1.995 -1.8371 -0.2705  0.7084
 4985TIP3    H214895   7.578   7.266   2.068 -1.3355  1.0302  2.0678
 4986TIP3   OH214896   6.883   6.485   2.958 -0.0071 -0.1981 -0.2002
 4986TIP3    H114897   6.801   6.436   2.963 -0.1346 -0.0411 -0.7788
 4986TIP3    H214898   6.914   6.470   2.869  0.0023  0.7035 -0.3505
 4987TIP3   OH214899   8.129   5.540   4.286  0.1871 -0.3153 -0.2791
 4987TIP3    H114900   8.201   5.551   4.348 -0.5174 -1.2682  0.7316
 4987TIP3    H214901   8.163   5.481   4.219  0.6820  0.0684 -0.3693
 4988TIP3   OH214902   6.981   5.344   3.038  0.3053 -0.2931  0.2369
 4988TIP3    H114903   7.020   5.431   3.024  0.6231 -0.4997 -0.1850
 4988TIP3    H214904   7.054   5.290   3.069  0.3700 -0.6819 -0.5587
 4989TIP3   OH214905   7.996   6.841   1.558  0.4414  0.0406 -0.1118
 4989TIP3    H114906   8.021   6.913   1.500  3.0322 -2.1900 -1.8811
 4989TIP3    H214907   8.070   6.832   1.618  0.6914 -1.8844 -0.6788
 4990TIP3   OH214908   0.556   0.069   0.060 -0.1026 -0.0714  0.1984
 4990TIP3    H114909   0.636   0.033   0.097 -0.2126 -0.3242  0.1921
 4990TIP3    H214910   0.513  -0.005   0.018  0.8892  0.5409 -1.9879
 4991TIP3   OH214911   8.139   4.791   2.611  0.0840  0.1525 -0.4853
 4991TIP3    H114912   8.048   4.802   2.638  0.0397  0.3260 -0.6958
 4991TIP3    H214913   8.139   4.709   2.562 -0.6686  1.7971 -3.4039
 4992TIP3   OH214914   4.974   0.974   6.821 -0.2627 -0.2271  0.0658
 4992TIP3    H114915   4.985   0.984   6.915 -1.3560 -0.4916  0.2361
 4992TIP3    H214916   5.062   0.961   6.787  0.3832  2.0668  0.7661
 4993TIP3   OH214917   5.000   4.763   2.084  0.2457 -0.4921 -0.3693
 4993TIP3    H114918   5.051   4.751   2.004  2.1737  1.0080  0.5883
 4993TIP3    H214919   4.956   4.848   2.072  1.0961  0.0678  0.4433
 4994TIP3   OH214920   7.623   4.807   1.663  0.3028  0.0398  0.4015
 4994TIP3    H114921   7.587   4.878   1.610 -0.2672 -1.3554 -1.1028
 4994TIP3    H214922   7.666   4.852   1.736 -0.5159  1.9094 -0.2250
 4995TIP3   OH214923   5.153   5.508   1.723 -0.0090 -0.1119  0.3047
 4995TIP3    H114924   5.065   5.499   1.760 -0.1594 -0.0712 -0.0417
 4995TIP3    H214925   5.188   5.419   1.723  0.1901 -0.0378  1.0293
 4996TIP3   OH214926   0.328   5.447   2.261 -0.3166 -0.3815 -0.1276
 4996TIP3    H114927   0.287   5.403   2.186 -2.2996  0.2378  0.5595
 4996TIP3    H214928   0.368   5.376   2.312 -2.4255 -1.2760  0.3242
 4997TIP3   OH214929   6.336   4.595   2.582  0.3424 -0.0691 -0.2267
 4997TIP3    H114930   6.309   4.525   2.642 -2.7367  1.1563 -0.1102
 4997TIP3    H214931   6.350   4.671   2.638  1.3603  0.0573 -0.6353
 4998TIP3   OH214932   4.511   0.665   6.089 -0.2024 -0.1646  0.8614
 4998TIP3    H114933   4.461   0.653   6.008  0.0122  0.1441  0.6836
 4998TIP3    H214934   4.602   0.668   6.060 -0.1503  0.3125  1.0788
 4999TIP3   OH214935   7.748   6.551   1.653 -0.1954 -0.5173 -0.1203
 4999TIP3    H114936   7.693   6.485   1.610  1.2035 -2.7225  1.3534
 4999TIP3    H214937   7.719   6.551   1.744 -1.3532  2.2127 -0.4434
 5000TIP3   OH214938   8.409   4.551   2.926  0.3711  0.0613 -0.2591
 5000TIP3    H114939   8.324   4.563   2.883  0.3991  0.2214 -0.2702
 5000TIP3    H214940   8.473   4.566   2.857  0.4011 -0.3270 -0.3123
 5001TIP3   OH214941   7.173   6.663   0.132 -0.1444  0.0353  0.4301
 5001TIP3    H114942   7.241   6.721   0.099 -1.6422  1.3375 -0.4495
 5001TIP3    H214943   7.123   6.717   0.193 -2.1475 -0.0324 -1.1220
 5002TIP3   OH214944   8.090   4.522   2.512  0.3087  0.8966 -0.2195
 5002TIP3    H114945   8.008   4.543   2.467  1.2988  1.2266 -1.9000
 5002TIP3    H214946   8.115   4.437   2.478  0.4321  0.5853  0.6409
 5003TIP3   OH214947   7.653   4.714   0.588  0.0045  0.2068  0.2775
 5003TIP3    H114948   7.591   4.705   0.516  2.1255 -2.1869 -1.3582
 5003TIP3    H214949   7.720   4.648   0.570  0.9532  0.0355  4.1054
 5004TIP3   OH214950   6.115   6.928   0.895  0.6447  0.4042 -0.0225
 5004TIP3    H114951   6.047   6.995   0.897 -0.1627 -0.4052  0.0126
 5004TIP3    H214952   6.105   6.888   0.808  0.7177 -0.0783  0.1951
 5005TIP3   OH214953   5.873   3.215   6.394  0.5048 -0.1055 -0.2293
 5005TIP3    H114954   5.923   3.258   6.463 -1.9274  0.6145  1.1559
 5005TIP3    H214955   5.811   3.159   6.441  0.3331 -1.3352 -1.9023
 5006TIP3   OH214956   0.306   6.918   1.373 -0.4490  0.6361 -0.1902
 5006TIP3    H114957   0.388   6.882   1.339 -0.3139  1.6683 -0.9934
 5006TIP3    H214958   0.278   6.855   1.439  0.2871 -0.4205 -0.8608
 5007TIP3   OH214959   2.602   0.680   6.343 -0.1362 -0.1739  0.1882
 5007TIP3    H114960   2.529   0.676   6.281  0.3002 -1.5927 -0.2402
 5007TIP3    H214961   2.560   0.698   6.427 -0.8437  0.4859 -0.2908
 5008TIP3   OH214962   5.570   6.828   2.103  0.6190 -0.6184 -0.0457
 5008TIP3    H114963   5.571   6.920   2.130  0.3370 -0.3624 -0.8596
 5008TIP3    H214964   5.525   6.782   2.173 -2.0481  0.3559 -1.0385
 5009TIP3   OH214965   1.498   0.555   1.184 -0.0010  0.0600 -0.2340
 5009TIP3    H114966   1.541   0.486   1.235  0.5486 -0.5536 -1.5047
 5009TIP3    H214967   1.408   0.556   1.216 -0.0506 -1.3416 -0.2728
 5010TIP3   OH214968   8.283   7.395   1.493  0.1744  0.3759  0.2147
 5010TIP3    H114969   8.267   7.305   1.522 -0.4235  0.5847  0.5402
 5010TIP3    H214970   8.336   7.433   1.562 -0.4459  0.5862  0.5735
 5011TIP3   OH214971   0.497   6.993   1.624  0.3802 -0.7690  0.5147
 5011TIP3    H114972   0.568   6.928   1.624  1.0283 -0.0658 -1.1018
 5011TIP3    H214973   0.491   7.022   1.534  0.2079  1.5760  1.2595
 5012TIP3   OH214974   7.391   6.839   0.657  0.5154 -0.5592 -1.0633
 5012TIP3    H114975   7.408   6.899   0.729 -0.9029  0.3386 -1.4441
 5012TIP3    H214976   7.405   6.751   0.694  1.1656 -0.0518 -0.1014
 5013TIP3   OH214977   6.215   4.638   0.669 -0.2057  0.3675  0.0163
 5013TIP3    H114978   6.171   4.624   0.753  0.6769 -1.5983  0.1864
 5013TIP3    H214979   6.193   4.560   0.618 -0.0219  1.1543 -1.2749
 5014TIP3   OH214980   7.977   6.581   1.453 -0.0570 -0.0620  0.3848
 5014TIP3    H114981   7.989   6.676   1.453 -0.3461 -0.0264  0.2532
 5014TIP3    H214982   7.902   6.566   1.509  0.7327 -0.3117  1.3862
 5015TIP3   OH214983   4.893   4.764   2.559 -0.1099  0.1985 -0.1311
 5015TIP3    H114984   4.923   4.766   2.468 -2.1180 -1.3953 -0.8821
 5015TIP3    H214985   4.973   4.761   2.611  1.0734 -2.0202 -1.9750
 5016TIP3   OH214986   2.840   1.419   2.327  0.1868 -0.0327 -0.0228
 5016TIP3    H114987   2.812   1.346   2.384  2.2877 -0.9870 -0.1712
 5016TIP3    H214988   2.910   1.462   2.376  1.5271 -0.4293 -1.5497
 5017TIP3   OH214989   5.484   3.126   2.187  0.6263  0.6111  0.0217
 5017TIP3    H114990   5.518   3.209   2.155 -0.3659  0.7998 -0.5738
 5017TIP3    H214991   5.476   3.139   2.282 -0.9874  1.7509 -0.2499
 5018TIP3   OH214992   6.579   5.333   3.423  0.1177 -0.3145  0.5657
 5018TIP3    H114993   6.615   5.421   3.408 -0.2124 -0.1560  0.7006
 5018TIP3    H214994   6.505   5.347   3.482 -2.2477 -0.2139 -2.3149
 5019TIP3   OH214995   6.004   7.422   0.253 -0.0531 -0.6794 -0.3503
 5019TIP3    H114996   5.963   7.502   0.222 -0.0252 -0.5768 -0.1198
 5019TIP3    H214997   6.097   7.434   0.234  0.2420  0.1898  1.5040
 5020TIP3   OH214998   7.945   5.771   1.180  0.0824 -0.5788  0.0555
 5020TIP3    H114999   7.936   5.847   1.237 -1.5877 -0.3213 -0.5325
 5020TIP3    H215000   7.941   5.696   1.239 -1.3658 -0.3044  0.3195
 5021TIP3   OH215001   6.873   5.167   0.910  0.2365 -0.0606  0.1457
 5021TIP3    H115002   6.787   5.137   0.940  0.6611 -0.2848  1.1605
 5021TIP3    H215003   6.930   5.156   0.986  1.2291 -0.1793 -0.6006
 5022TIP3   OH215004   7.356   6.183   2.023  0.0608  0.0426  0.0179
 5022TIP3    H115005   7.279   6.220   2.065 -0.2971 -1.7934  1.0523
 5022TIP3    H215006   7.415   6.162   2.096  0.5163 -0.7783 -0.5759
 5023TIP3   OH215007   7.038   6.307   0.724 -0.1996 -0.6107 -0.3075
 5023TIP3    H115008   7.106   6.250   0.687 -0.2178 -0.2881 -0.8357
 5023TIP3    H215009   7.082   6.392   0.736 -0.6006 -0.3091 -0.9588
 5024TIP3   OH215010   3.208   0.436   6.856 -0.6086 -0.5453  0.2124
 5024TIP3    H115011   3.289   0.402   6.819 -0.1944  1.7717 -1.1369
 5024TIP3    H215012   3.139   0.396   6.804 -0.2458 -1.1808  0.2184
 5025TIP3   OH215013   1.057   4.960   1.680  0.3240 -0.4304  0.1519
 5025TIP3    H115014   1.003   4.881   1.676 -0.2013 -0.0474 -0.4762
 5025TIP3    H215015   1.062   4.990   1.589  1.7216 -0.5380  0.1841
 5026TIP3   OH215016   8.425   6.361   1.953  0.6100 -0.9063 -0.9473
 5026TIP3    H115017   8.363   6.413   1.901 -0.1772  0.0595  0.9356
 5026TIP3    H215018   8.509   6.373   1.907  0.3151  1.5071 -0.9369
 5027TIP3   OH215019   1.799   1.758   6.058 -0.2220 -0.0102  0.5321
 5027TIP3    H115020   1.894   1.757   6.072  0.0280 -0.2821 -1.0954
 5027TIP3    H215021   1.767   1.686   6.111  0.4969 -0.0162  0.9766
 5028TIP3   OH215022   5.324   5.986   2.928  0.5013 -0.1130  0.2208
 5028TIP3    H115023   5.246   5.970   2.874  0.7597  0.5039 -0.3368
 5028TIP3    H215024   5.289   6.003   3.015 -0.0337  0.6929 -0.1424
 5029TIP3   OH215025   1.589   0.138   0.743  0.3783  0.8383  0.1100
 5029TIP3    H115026   1.597   0.085   0.664  0.4126 -0.3753  0.9204
 5029TIP3    H215027   1.658   0.205   0.734  2.6683 -1.3582  0.7034
 5030TIP3   OH215028   4.449   6.258   1.143 -0.6253  0.0828  0.0440
 5030TIP3    H115029   4.415   6.338   1.102 -1.2350 -0.7920 -1.1739
 5030TIP3    H215030   4.405   6.187   1.097 -0.4256 -0.9515  1.4359
 5031TIP3   OH215031   7.987   4.085   1.896 -0.2084 -0.0597 -0.1681
 5031TIP3    H115032   8.015   4.074   1.805  0.1133  1.0291 -0.1962
 5031TIP3    H215033   7.986   3.996   1.931  0.1099 -0.4370 -1.1020
 5032TIP3   OH215034   6.470   5.800   2.545  0.5229  0.2692  0.2017
 5032TIP3    H115035   6.526   5.725   2.526 -0.4067 -0.5987  0.8534
 5032TIP3    H215036   6.402   5.765   2.603 -0.6832  1.3067 -0.5722
 5033TIP3   OH215037   5.483   5.413   3.219 -0.7523 -0.1749 -0.2600
 5033TIP3    H115038   5.549   5.476   3.188 -1.0513 -0.0643 -0.6699
 5033TIP3    H215039   5.473   5.434   3.312 -0.0087 -0.3712 -0.1300
 5034TIP3   OH215040   1.015   1.191   3.074  0.2746  0.4553  0.2856
 5034TIP3    H115041   1.055   1.152   2.996  0.2686 -0.7661  0.8688
 5034TIP3    H215042   1.009   1.284   3.054 -0.6525  0.0225 -1.5710
 5035TIP3   OH215043   2.463   0.233   1.068  0.1065 -0.0878 -1.4078
 5035TIP3    H115044   2.499   0.205   1.152 -0.3540  0.7705 -0.9142
 5035TIP3    H215045   2.532   0.285   1.028 -0.0993  0.4607 -1.0489
 5036TIP3   OH215046   4.853   4.521   0.518 -0.0362  0.0006  0.3452
 5036TIP3    H115047   4.932   4.527   0.465  0.0785  3.0000  0.8109
 5036TIP3    H215048   4.811   4.606   0.509 -4.0292 -1.9735 -1.0970
 5037TIP3   OH215049   6.579   7.809   1.927 -0.0440  0.0913 -0.5341
 5037TIP3    H115050   6.574   7.778   2.018 -0.4868  0.7706 -0.3287
 5037TIP3    H215051   6.654   7.869   1.927  1.4805 -1.7617 -1.1708
 5038TIP3   OH215052   8.302   5.903   1.946 -0.8263 -0.0169 -0.5636
 5038TIP3    H115053   8.212   5.932   1.927 -0.5653  1.2136  0.0092
 5038TIP3    H215054   8.323   5.944   2.030 -1.1718 -3.5746  1.3593
 5039TIP3   OH215055   7.186   5.951   3.926 -0.1530 -0.1634  0.2857
 5039TIP3    H115056   7.244   6.018   3.889 -1.7024  1.7806  1.2535
 5039TIP3    H215057   7.098   5.978   3.899 -1.1907  0.4517  3.9432
 5040TIP3   OH215058   5.798   5.146   2.739 -0.3303  0.1388  0.2491
 5040TIP3    H115059   5.761   5.198   2.811 -0.1413 -0.7147  0.9750
 5040TIP3    H215060   5.765   5.057   2.754  1.9062 -0.6272  0.8765
 5041TIP3   OH215061   6.697   4.383   0.068  0.7656 -0.3488 -0.5247
 5041TIP3    H115062   6.728   4.472   0.080  0.0623  0.1610 -2.3390
 5041TIP3    H215063   6.764   4.341   0.015  1.0829 -0.9081  0.3033
 5042TIP3   OH215064   7.801   7.554   3.746 -0.1697  0.0403  0.0328
 5042TIP3    H115065   7.844   7.485   3.694  0.5827  0.1895  0.4452
 5042TIP3    H215066   7.719   7.514   3.775  0.2243 -0.6620  0.2025
 5043TIP3   OH215067   7.549   5.851   0.976  0.2647  0.1464  0.2786
 5043TIP3    H115068   7.621   5.890   0.927  1.6788 -1.2745  1.1655
 5043TIP3    H215069   7.469   5.887   0.936  1.4611  1.9509 -0.5303
 5044TIP3   OH215070   5.095   4.318   2.179  0.2584  0.0563  0.1832
 5044TIP3    H115071   5.157   4.330   2.250  0.4312  0.3419 -0.0165
 5044TIP3    H215072   5.068   4.406   2.154  1.4905  0.0520 -1.2431
 5045TIP3   OH215073   0.754   6.404   3.680 -0.2083 -0.2989  0.2230
 5045TIP3    H115074   0.755   6.398   3.775  0.4192  0.1028  0.2416
 5045TIP3    H215075   0.811   6.478   3.659  0.3869 -0.9454 -0.5000
 5046TIP3   OH215076   8.125   5.888   3.455  0.4883  0.0379 -0.5937
 5046TIP3    H115077   8.133   5.852   3.367 -0.0884  0.3779 -0.7877
 5046TIP3    H215078   8.158   5.819   3.512 -1.5912 -1.2292 -0.8781
 5047TIP3   OH215079   0.359   5.747   3.383  0.0225  0.5349  0.3327
 5047TIP3    H115080   0.353   5.825   3.439 -1.5800  0.9334 -0.3783
 5047TIP3    H215081   0.361   5.782   3.294 -0.3827 -0.2395  0.0222
 5048TIP3   OH215082   6.332   4.032   0.916 -0.1240 -0.3064  0.0049
 5048TIP3    H115083   6.414   4.035   0.966  0.8730  1.4174 -1.6514
 5048TIP3    H215084   6.360   4.026   0.825 -1.8282  0.7289 -0.6144
 5049TIP3   OH215085   0.765   5.259   0.092  0.2215 -0.0774  0.1090
 5049TIP3    H115086   0.811   5.177   0.078  0.2521  0.0450 -0.5279
 5049TIP3    H215087   0.727   5.280   0.007  0.0303  0.4564  0.3231
 5050TIP3   OH215088   1.840   0.672   1.556  0.7619 -0.1978  0.0983
 5050TIP3    H115089   1.833   0.635   1.468 -1.5906  2.3732 -0.8860
 5050TIP3    H215090   1.782   0.618   1.610 -1.2431  0.8930 -0.9233
 5051TIP3   OH215091   5.904   6.025   4.395  0.4519 -0.5508  0.1934
 5051TIP3    H115092   5.938   6.002   4.481  0.9002  2.6145  0.9437
 5051TIP3    H215093   5.969   5.992   4.333  2.4545  1.1167  1.3499
 5052TIP3   OH215094   6.844   5.701   2.806  0.4158 -0.2204 -0.3602
 5052TIP3    H115095   6.879   5.708   2.717 -1.6459 -1.0409 -1.2769
 5052TIP3    H215096   6.808   5.788   2.824  0.4312 -0.1838 -0.5026
 5053TIP3   OH215097   3.725   0.739   6.320 -0.0454 -0.2820  0.4360
 5053TIP3    H115098   3.679   0.701   6.246  0.1566 -2.5546  1.4464
 5053TIP3    H215099   3.817   0.723   6.302  0.4402  3.7823 -1.3201
 5054TIP3   OH215100   5.786   5.770   0.990 -0.0147 -0.1917 -0.2082
 5054TIP3    H115101   5.762   5.780   0.898 -0.3286 -1.4529 -0.2645
 5054TIP3    H215102   5.773   5.858   1.027 -0.9488  0.0686 -1.1151
 5055TIP3   OH215103   7.669   6.869   0.172  0.0905  0.6561  0.2089
 5055TIP3    H115104   7.656   6.839   0.262 -0.3545 -2.1223 -0.7462
 5055TIP3    H215105   7.737   6.935   0.179  1.7250 -1.1682  2.3157
 5056TIP3   OH215106   8.277   4.593   1.923  0.0962  0.2870 -0.5774
 5056TIP3    H115107   8.259   4.499   1.935  0.7116  0.0411 -1.5703
 5056TIP3    H215108   8.193   4.629   1.894 -0.0915  0.0129 -0.3919
 5057TIP3   OH215109   3.094   4.979   2.314  0.1255 -0.6413 -0.3158
 5057TIP3    H115110   3.126   5.070   2.316  0.1752 -0.6140 -1.5781
 5057TIP3    H215111   3.082   4.961   2.221 -0.9280 -1.5705 -0.0104
 5058TIP3   OH215112   7.389   4.801   2.553  0.2989 -0.1110 -0.7105
 5058TIP3    H115113   7.420   4.718   2.589 -0.5609  0.3060  1.0138
 5058TIP3    H215114   7.412   4.796   2.460  2.8612 -1.0408 -0.0818
 5059TIP3   OH215115   6.549   3.467   1.736 -0.2302 -0.3074 -0.3167
 5059TIP3    H115116   6.559   3.431   1.647  0.1403 -0.5343 -0.1820
 5059TIP3    H215117   6.471   3.423   1.770 -1.2864  0.9310 -1.0979
 5060TIP3   OH215118   6.473   6.868   1.292  0.8330 -0.9960  0.0311
 5060TIP3    H115119   6.553   6.857   1.343  0.8934 -1.4636 -0.1703
 5060TIP3    H215120   6.475   6.960   1.265  0.5669 -0.6101  1.2671
 5061TIP3   OH215121   5.692   2.409   0.957  0.1314 -0.7746  0.2539
 5061TIP3    H115122   5.736   2.381   1.037 -0.6451 -0.4305  0.8033
 5061TIP3    H215123   5.605   2.369   0.962 -0.9452  1.5626  0.9797
 5062TIP3   OH215124   6.091   3.590   0.924 -0.0020 -0.1073  0.2219
 5062TIP3    H115125   6.062   3.675   0.890  0.6132 -0.0686 -0.2172
 5062TIP3    H215126   6.171   3.610   0.972 -1.1948 -0.0650  2.2606
 5063TIP3   OH215127   4.065   4.901   6.739 -0.1831 -0.0392 -0.6454
 5063TIP3    H115128   4.105   4.839   6.800 -2.8772  0.3770  1.6520
 5063TIP3    H215129   4.125   4.976   6.738  0.3046 -0.4007  0.8731
 5064TIP3   OH215130   2.602   0.356   1.562 -0.1474 -0.7226 -0.2266
 5064TIP3    H115131   2.526   0.345   1.619 -1.4343  2.2541 -1.2573
 5064TIP3    H215132   2.666   0.292   1.594 -2.2414 -1.7369  2.0821
 5065TIP3   OH215133   0.470   0.554   2.531  0.5202  0.3236  0.0100
 5065TIP3    H115134   0.421   0.498   2.591  0.0427 -0.7118 -1.3091
 5065TIP3    H215135   0.448   0.643   2.558  1.4869 -0.0873  2.3032
 5066TIP3   OH215136   7.699   4.248   0.404  0.1782  0.1000  0.0607
 5066TIP3    H115137   7.651   4.285   0.478  1.1711 -1.1309  1.3596
 5066TIP3    H215138   7.636   4.248   0.332 -0.5071  2.2137  0.6230
 5067TIP3   OH215139   8.404   0.149   1.245 -0.3713  0.3482 -0.4389
 5067TIP3    H115140   8.416   0.055   1.253  1.3487  0.5271 -0.8533
 5067TIP3    H215141   8.318   0.158   1.203 -0.9261 -1.0007  0.3771
 5068TIP3   OH215142   7.736   6.067   0.836  0.3630  0.3604 -0.0339
 5068TIP3    H115143   7.700   6.045   0.750 -0.6304  4.0127 -0.6087
 5068TIP3    H215144   7.676   6.133   0.871  1.3342 -0.3127  3.0539
 5069TIP3   OH215145   7.060   7.610   0.859 -0.0768  0.1765 -0.2673
 5069TIP3    H115146   7.024   7.589   0.945 -0.1571  0.6329 -0.1869
 5069TIP3    H215147   7.016   7.549   0.799 -3.3711  2.7624 -0.6382
 5070TIP3   OH215148   7.449   5.851   1.440  0.1249  0.3600 -0.0990
 5070TIP3    H115149   7.527   5.805   1.408  0.0774 -0.8557  1.4540
 5070TIP3    H215150   7.384   5.839   1.371  0.5440 -0.7849 -0.3034
 5071TIP3   OH215151   5.646   4.698   1.555 -0.7204 -0.0567  0.0493
 5071TIP3    H115152   5.607   4.640   1.489  0.1767  0.3408 -0.8525
 5071TIP3    H215153   5.738   4.671   1.558 -0.3570  1.1224 -0.1713
 5072TIP3   OH215154   0.023   1.127   2.033 -0.1101 -0.6974  0.0837
 5072TIP3    H115155  -0.070   1.135   2.011  0.0748 -0.6910 -0.7135
 5072TIP3    H215156   0.053   1.051   1.983  0.7276  0.3684 -1.0715
 5073TIP3   OH215157   6.299   7.894   0.601  0.1353  0.1951  0.0520
 5073TIP3    H115158   6.348   7.818   0.634  1.4219  1.7303  1.7839
 5073TIP3    H215159   6.365   7.949   0.559 -0.6539  0.7673 -0.4536
 5074TIP3   OH215160   6.598   5.173   1.678  0.3353  0.0028  0.1168
 5074TIP3    H115161   6.641   5.174   1.763 -1.9123  0.6259  1.2814
 5074TIP3    H215162   6.662   5.132   1.619  1.2625 -2.0165  2.4515
 5075TIP3   OH215163   1.798   0.186   1.565 -0.2704 -0.4620 -0.4420
 5075TIP3    H115164   1.873   0.232   1.528 -0.5165  0.6501  0.4029
 5075TIP3    H215165   1.744   0.163   1.489  0.4882 -0.4828 -0.9785
 5076TIP3   OH215166   3.513   0.806   6.904  0.3186 -0.3089 -0.0534
 5076TIP3    H115167   3.557   0.721   6.892  1.0494 -0.0359  0.6137
 5076TIP3    H215168   3.430   0.784   6.945  0.2738 -0.7528 -0.3779
 5077TIP3   OH215169   5.685   4.376   1.452 -0.0044  0.1670  0.1509
 5077TIP3    H115170   5.741   4.300   1.442  1.2005  1.1517 -0.8350
 5077TIP3    H215171   5.746   4.451   1.450 -1.1587  1.1501  1.0163
 5078TIP3   OH215172   8.277   4.809   1.456  0.4783 -0.3996 -0.9942
 5078TIP3    H115173   8.317   4.830   1.372 -0.0897  1.0218 -0.9214
 5078TIP3    H215174   8.341   4.837   1.521 -0.2763  1.1460 -0.8977
 5079TIP3   OH215175   4.925   3.264   6.771  0.0540 -0.6104 -0.1775
 5079TIP3    H115176   5.015   3.278   6.743  0.3746 -2.1105  0.0839
 5079TIP3    H215177   4.878   3.242   6.690  0.0147 -0.3194 -0.2362
 5080TIP3   OH215178   7.014   6.247   1.328 -0.2035  0.0473  0.2489
 5080TIP3    H115179   7.068   6.177   1.364  0.6026 -0.0047 -1.0424
 5080TIP3    H215180   7.010   6.229   1.234 -1.5066  0.7061  0.1563
 5081TIP3   OH215181   0.737   5.897   0.700 -0.0277 -0.6337 -0.3462
 5081TIP3    H115182   0.694   5.969   0.655 -0.9790 -1.1696 -0.3169
 5081TIP3    H215183   0.800   5.862   0.636  0.5488  0.3132 -0.2988
 5082TIP3   OH215184   6.590   4.153   3.197  0.7365 -0.5411 -0.7044
 5082TIP3    H115185   6.602   4.230   3.253  0.1229 -0.6306 -0.4459
 5082TIP3    H215186   6.650   4.167   3.124  1.8052 -0.5819  0.1466
 5083TIP3   OH215187   7.401   3.343   3.974  0.0933  0.3755  0.1540
 5083TIP3    H115188   7.328   3.314   4.029  0.1654 -1.4181 -0.6715
 5083TIP3    H215189   7.379   3.433   3.950 -1.3380  0.1984  0.7622
 5084TIP3   OH215190   1.576   0.408   0.206 -0.3027 -0.3337 -0.3659
 5084TIP3    H115191   1.608   0.490   0.243 -3.2025  0.3296  0.7564
 5084TIP3    H215192   1.644   0.344   0.228  0.1425  0.9656  2.1992
 5085TIP3   OH215193   7.465   5.212   3.554  0.1956 -0.3435 -0.2414
 5085TIP3    H115194   7.550   5.168   3.560 -1.2027 -3.4338 -1.6061
 5085TIP3    H215195   7.447   5.217   3.460 -0.0399  2.5342 -0.0718
 5086TIP3   OH215196   7.958   7.483   0.088  0.6053 -0.1425 -0.4629
 5086TIP3    H115197   8.013   7.406   0.098  0.9321  0.0848 -0.5075
 5086TIP3    H215198   8.007   7.554   0.130  1.0660  0.3878 -1.8525
 5087TIP3   OH215199   0.160   6.350   2.620  0.4312 -0.1363 -0.6531
 5087TIP3    H115200   0.118   6.435   2.610  0.3975  0.4393  3.4537
 5087TIP3    H215201   0.087   6.288   2.628  0.4216 -0.0877 -0.3574
 5088TIP3   OH215202   8.351   4.961   1.235 -0.1366  0.2774  0.2675
 5088TIP3    H115203   8.335   5.055   1.238  0.0068  0.2808  0.9581
 5088TIP3    H215204   8.265   4.923   1.216 -0.4630  0.4639  1.3515
 5089TIP3   OH215205   0.156   6.320   1.760  0.1993 -0.1539  0.0137
 5089TIP3    H115206   0.123   6.319   1.670  0.3202 -0.0258 -0.0323
 5089TIP3    H215207   0.149   6.229   1.790  1.4183 -0.4544 -0.5832
 5090TIP3   OH215208   3.546   0.909   2.838  0.6747 -0.1655 -0.1342
 5090TIP3    H115209   3.549   0.871   2.925 -1.3974 -1.4198 -0.5714
 5090TIP3    H215210   3.534   0.834   2.779 -2.4736  0.9911 -1.0933
 5091TIP3   OH215211   0.410   7.946   3.047  0.1854 -0.1543 -0.0866
 5091TIP3    H115212   0.394   7.852   3.048  0.3303 -0.1669  1.6440
 5091TIP3    H215213   0.505   7.954   3.032 -0.2629 -0.1915 -3.4106
 5092TIP3   OH215214   1.019   7.179   2.079  0.3389 -0.8511  0.0050
 5092TIP3    H115215   1.031   7.193   1.985 -0.2887 -0.3490 -0.0053
 5092TIP3    H215216   1.086   7.115   2.102  1.1682 -0.2166 -0.5908
 5093TIP3   OH215217   0.696   5.938   2.731  0.7460  0.4059  0.3602
 5093TIP3    H115218   0.728   5.903   2.814  1.0448 -0.8152 -0.2486
 5093TIP3    H215219   0.775   5.951   2.679  0.6098  1.7319  0.4662
 5094TIP3   OH215220   8.357   1.074   0.461  0.4138 -0.0795  0.0650
 5094TIP3    H115221   8.449   1.045   0.463  1.0245  1.8592  0.8605
 5094TIP3    H215222   8.316   1.016   0.396  2.3129 -0.6319 -0.6898
 5095TIP3   OH215223   8.053   7.128   1.459  0.1681  0.4884  0.2737
 5095TIP3    H115224   8.135   7.085   1.435 -0.3962 -0.4826  0.0584
 5095TIP3    H215225   8.013   7.152   1.375  0.3913  1.2704  0.3878
 5096TIP3   OH215226   2.825   0.871   3.128  0.1592  0.7970 -0.2986
 5096TIP3    H115227   2.740   0.862   3.086  0.2598  2.3395 -0.8831
 5096TIP3    H215228   2.886   0.825   3.071 -0.4443 -1.2963  0.7150
 5097TIP3   OH215229   0.858   6.223   3.505  0.4026  0.0867  0.1850
 5097TIP3    H115230   0.787   6.160   3.490  0.9670 -0.1609 -1.5572
 5097TIP3    H215231   0.831   6.271   3.584  0.6998 -3.3627  2.5196
 5098TIP3   OH215232   8.199   6.892   1.729 -0.4208  0.9638  0.0715
 5098TIP3    H115233   8.176   6.906   1.821 -0.2396  1.6016  0.0263
 5098TIP3    H215234   8.281   6.842   1.732 -1.4765 -0.7975  0.2334
 5099TIP3   OH215235   2.558   1.371   1.991  0.2108 -0.6252  0.1845
 5099TIP3    H115236   2.486   1.323   2.033 -0.8587 -0.3591 -1.3067
 5099TIP3    H215237   2.592   1.428   2.060 -1.0879 -0.6680  0.8816
 5100TIP3   OH215238   0.356   7.059   1.847  0.2858 -0.1700  0.2167
 5100TIP3    H115239   0.383   7.034   1.759 -2.5484 -0.3748 -0.6374
 5100TIP3    H215240   0.339   7.153   1.842  0.4645 -0.1109  0.6566
 5101TIP3   OH215241   2.312   6.863   3.069 -0.2579  0.0126 -0.0589
 5101TIP3    H115242   2.302   6.890   2.978 -0.0362 -1.9472 -0.6974
 5101TIP3    H215243   2.223   6.852   3.102 -0.3925  3.0574  0.7302
 5102TIP3   OH215244   1.354   6.395   1.785  0.4654  0.1109  0.3627
 5102TIP3    H115245   1.313   6.317   1.748  0.3741 -0.3018  1.3143
 5102TIP3    H215246   1.344   6.385   1.880  1.8850  0.4917  0.5680
 5103TIP3   OH215247   0.151   7.399   2.144 -0.0763 -0.3570 -0.2815
 5103TIP3    H115248   0.162   7.376   2.051  0.4709  1.7885 -0.7599
 5103TIP3    H215249   0.228   7.451   2.165 -0.7522  0.1069  1.0956
 5104TIP3   OH215250   1.463   7.624   4.881 -0.0384  0.1310  0.2926
 5104TIP3    H115251   1.489   7.716   4.885  1.1537 -0.2155  0.5661
 5104TIP3    H215252   1.545   7.576   4.870 -0.9893 -0.6095 -5.0588
 5105TIP3   OH215253   8.022   7.102   2.420  0.6402 -0.0049  0.8560
 5105TIP3    H115254   8.020   7.059   2.506  0.1394  0.1402  0.9219
 5105TIP3    H215255   8.057   7.036   2.361  0.4448 -0.3016  1.0676
 5106TIP3   OH215256   0.405   5.272   3.702 -0.1349  0.0193 -0.7144
 5106TIP3    H115257   0.449   5.189   3.685  1.6847  1.2392 -2.1016
 5106TIP3    H215258   0.311   5.252   3.692  0.1811 -2.2233  0.6404
 5107TIP3   OH215259   0.982   5.974   2.678  0.4094 -0.4314  0.2167
 5107TIP3    H115260   1.006   6.027   2.753  0.3243 -0.1563  0.0522
 5107TIP3    H215261   1.032   6.010   2.605  1.7399 -1.7377  0.4599
 5108TIP3   OH215262   1.296   0.084   0.678  1.2512  0.1042  0.5113
 5108TIP3    H115263   1.319   0.024   0.749  2.4639 -0.5602 -0.4212
 5108TIP3    H215264   1.361   0.154   0.684  0.7709  0.5362  0.6544
 5109TIP3   OH215265   5.719   1.679   6.818 -0.7690 -1.0790 -0.0589
 5109TIP3    H115266   5.780   1.619   6.775 -0.6362 -1.4590  0.6521
 5109TIP3    H215267   5.637   1.668   6.770  0.1821  0.7526 -2.1678
 5110TIP3   OH215268   0.575   7.175   1.270  0.0050  0.1349 -0.9882
 5110TIP3    H115269   0.587   7.082   1.253  0.6555  0.1014 -0.3623
 5110TIP3    H215270   0.499   7.199   1.217 -0.1436 -0.7383 -1.1851
 5111TIP3   OH215271   0.374   5.461   1.573 -0.5265  0.0103  0.3845
 5111TIP3    H115272   0.429   5.507   1.636  1.1661 -1.8502  0.3330
 5111TIP3    H215273   0.366   5.522   1.499 -0.7587  1.3457  1.4837
 5112TIP3   OH215274   2.415   4.296   2.983 -0.3520  0.4996 -0.3590
 5112TIP3    H115275   2.463   4.240   2.922  0.6289  0.4964  0.3997
 5112TIP3    H215276   2.437   4.262   3.070 -2.0902  0.2308 -0.0048
 5113TIP3   OH215277   0.877   7.618   4.374 -0.3004  0.3693  0.1358
 5113TIP3    H115278   0.936   7.693   4.365 -0.3043  0.2707 -0.8409
 5113TIP3    H215279   0.797   7.653   4.413 -0.6185  1.0543 -1.0973
 5114TIP3   OH215280   2.595   6.668   0.840  0.5747  0.6195 -0.1060
 5114TIP3    H115281   2.568   6.715   0.762  0.3005  0.3310 -0.1853
 5114TIP3    H215282   2.516   6.662   0.894  0.7752  0.8652  0.2176
 5115TIP3   OH215283   1.398   7.350   2.814  0.3816 -0.1071  0.3690
 5115TIP3    H115284   1.355   7.359   2.729  1.3969 -0.5863 -0.2047
 5115TIP3    H215285   1.411   7.439   2.844 -1.5816  0.0423  0.8520
 5116TIP3   OH215286   1.332   7.290   2.254  0.4921 -0.1592 -0.2998
 5116TIP3    H115287   1.329   7.280   2.350  1.2053 -1.0957 -0.3657
 5116TIP3    H215288   1.275   7.221   2.221 -0.4583  0.7153 -0.5415
 5117TIP3   OH215289   2.115   6.129   2.469 -0.1751  0.6055 -0.5028
 5117TIP3    H115290   2.118   6.046   2.518 -1.5208  0.6972 -0.2450
 5117TIP3    H215291   2.025   6.160   2.481  0.0974  1.6980 -1.2797
 5118TIP3   OH215292   5.096   0.257   3.515 -0.3543  0.1587 -0.6800
 5118TIP3    H115293   5.033   0.190   3.490 -0.1972  0.0059 -0.6655
 5118TIP3    H215294   5.179   0.210   3.524  0.2940  0.7720 -3.1405
 5119TIP3   OH215295   8.248   7.800   0.732  0.4389  0.3944 -0.0364
 5119TIP3    H115296   8.313   7.731   0.717  0.0406  0.1858 -0.8413
 5119TIP3    H215297   8.299   7.877   0.755  0.8172 -0.6934  3.0988
 5120TIP3   OH215298   7.467   5.042   3.012 -0.4011 -0.2728  0.0746
 5120TIP3    H115299   7.503   4.980   3.076  0.1848 -1.5906 -1.5038
 5120TIP3    H215300   7.435   4.987   2.941 -1.8381  1.1378 -0.3910
 5121TIP3   OH215301   8.377   7.342   2.705 -0.1067  0.9058 -0.1953
 5121TIP3    H115302   8.323   7.412   2.667  0.9706  0.8707 -1.8562
 5121TIP3    H215303   8.400   7.287   2.630  0.6058 -0.1811  0.8107
 5122TIP3   OH215304   2.136   7.879   4.065  0.4414 -0.1717  0.6475
 5122TIP3    H115305   2.046   7.846   4.065  0.7515 -1.0280  0.9857
 5122TIP3    H215306   2.186   7.811   4.020  0.5267  1.4357 -1.8167
 5123TIP3   OH215307   0.225   4.310   2.783 -0.2284  0.5529  0.4037
 5123TIP3    H115308   0.269   4.260   2.715  0.3215  1.4693  0.0756
 5123TIP3    H215309   0.198   4.245   2.847 -0.1328 -0.2348 -0.3545
 5124TIP3   OH215310   0.150   5.481   4.497 -0.4565 -0.2256  0.1061
 5124TIP3    H115311   0.202   5.458   4.573 -1.3633  2.6059  1.6845
 5124TIP3    H215312   0.188   5.564   4.467 -1.6281 -0.1034 -1.0788
 5125TIP3   OH215313   3.827   7.728   3.021 -0.5499 -0.4269  0.4384
 5125TIP3    H115314   3.901   7.750   2.965 -1.1647  0.4442 -0.0313
 5125TIP3    H215315   3.867   7.708   3.106  0.1596  0.8987  0.4356
 5126TIP3   OH215316   8.085   6.389   0.691  0.7912 -0.6335 -0.2532
 5126TIP3    H115317   8.177   6.370   0.671  0.3126 -5.0858  1.1382
 5126TIP3    H215318   8.080   6.384   0.786 -1.1959 -2.2441 -0.4136
 5127TIP3   OH215319   0.894   7.100   2.743  0.0796 -0.0422 -0.1253
 5127TIP3    H115320   0.814   7.052   2.720  0.3212 -0.0937 -0.9009
 5127TIP3    H215321   0.881   7.128   2.833 -0.3682 -0.9666  0.1076
 5128TIP3   OH215322   3.644   6.612   4.230  0.0468 -0.0530 -0.0324
 5128TIP3    H115323   3.722   6.565   4.259  0.0995 -0.7127 -1.1935
 5128TIP3    H215324   3.644   6.601   4.135 -0.7193  1.1041 -0.1689
 5129TIP3   OH215325   8.428   5.148   4.221  0.2291  0.6739 -0.1380
 5129TIP3    H115326   8.499   5.211   4.229  2.0463 -1.2771 -0.3512
 5129TIP3    H215327   8.368   5.170   4.292  2.1572  1.0075  1.4371
 5130TIP3   OH215328   2.503   8.029   1.126 -0.0054  0.0455 -0.7121
 5130TIP3    H115329   2.430   8.066   1.175 -0.5476 -1.4013 -0.4066
 5130TIP3    H215330   2.516   7.942   1.164  0.9344 -0.2708 -1.7323
 5131TIP3   OH215331   3.850   7.299   1.676  0.4332  0.1541 -0.3771
 5131TIP3    H115332   3.936   7.258   1.688  2.9074  4.6352 -1.6957
 5131TIP3    H215333   3.821   7.321   1.764  0.3098 -1.8251  0.1136
 5132TIP3   OH215334   2.105   6.931   1.260  0.4870  0.4318  0.1408
 5132TIP3    H115335   2.124   7.017   1.296  0.6834 -0.4185  2.1188
 5132TIP3    H215336   2.013   6.934   1.236 -0.0996  0.4578  2.3430
 5133TIP3   OH215337   2.417   5.321   3.194  0.2184 -0.5963  0.6864
 5133TIP3    H115338   2.370   5.257   3.140 -1.4663  0.2346  1.1277
 5133TIP3    H215339   2.477   5.268   3.246  0.0309 -1.6611 -0.1520
 5134TIP3   OH215340   1.286   7.630   2.282 -0.6316  0.1418 -0.0460
 5134TIP3    H115341   1.192   7.648   2.286 -0.7927  0.5162 -3.7843
 5134TIP3    H215342   1.294   7.562   2.215  1.9814  1.8905 -1.5666
 5135TIP3   OH215343   8.435   6.145   2.092 -0.3982 -0.8648 -0.1414
 5135TIP3    H115344   8.353   6.150   2.141 -0.1484  1.3132  0.0752
 5135TIP3    H215345   8.431   6.218   2.030  0.3746 -2.1153 -1.7045
 5136TIP3   OH215346   1.831   5.278   3.351 -0.1641  0.0113  0.0950
 5136TIP3    H115347   1.769   5.208   3.369 -0.2451  0.5323  1.9549
 5136TIP3    H215348   1.870   5.298   3.436  0.3278  1.7677 -0.5143
 5137TIP3   OH215349   2.584   5.525   2.792 -0.3280  0.2574 -0.4919
 5137TIP3    H115350   2.592   5.614   2.757  1.5736  0.9486  1.5455
 5137TIP3    H215351   2.575   5.538   2.886  1.5238 -1.7402  0.0091
 5138TIP3   OH215352   2.907   6.961   0.793  0.1497 -0.0946 -0.2991
 5138TIP3    H115353   2.954   7.040   0.767 -1.4916  0.8715 -0.3887
 5138TIP3    H215354   2.914   6.903   0.717  0.8530  0.1906 -0.4533
 5139TIP3   OH215355   8.396   7.951   1.776 -0.3418  0.0726 -0.3687
 5139TIP3    H115356   8.480   7.919   1.811 -0.3789  0.4271  0.0384
 5139TIP3    H215357   8.337   7.948   1.851 -1.1261 -1.7188 -1.0289
 5140TIP3   OH215358   3.564   6.495   3.257 -0.2428 -0.3860  0.7487
 5140TIP3    H115359   3.640   6.507   3.315 -0.8710  1.0939  1.2727
 5140TIP3    H215360   3.488   6.509   3.313 -0.8908 -0.4360 -0.1068
 5141TIP3   OH215361   2.137   6.695   1.806 -0.0092  0.4795  0.3735
 5141TIP3    H115362   2.209   6.632   1.813 -1.1753 -0.8855  0.3663
 5141TIP3    H215363   2.125   6.727   1.895  1.7867  2.0842  0.0697
 5142TIP3   OH215364   2.534   6.082   1.205  0.0109 -0.4923 -0.1355
 5142TIP3    H115365   2.493   6.003   1.239  1.0282 -0.4045  1.3483
 5142TIP3    H215366   2.478   6.153   1.235 -2.0322 -0.7266 -3.1679
 5143TIP3   OH215367   0.833   5.564   4.136 -0.5280  0.9185 -0.0087
 5143TIP3    H115368   0.866   5.499   4.198 -0.6172  1.5867  0.7478
 5143TIP3    H215369   0.890   5.556   4.060 -0.2197  0.3062  0.2870
 5144TIP3   OH215370   1.252   0.900   1.015  0.3842  0.4143 -0.3304
 5144TIP3    H115371   1.250   0.946   0.931 -1.3585 -0.9224 -1.0500
 5144TIP3    H215372   1.196   0.953   1.072 -1.1767 -0.4758 -1.0022
 5145TIP3   OH215373   1.952   7.036   3.542 -0.5285 -0.2254  0.3521
 5145TIP3    H115374   1.923   7.124   3.568 -0.0436  0.4789 -1.4695
 5145TIP3    H215375   1.873   6.982   3.552 -0.5863  0.1692  2.4550
 5146TIP3   OH215376   1.069   7.610   3.545 -0.1220 -0.0200 -0.3369
 5146TIP3    H115377   1.033   7.531   3.585  1.6613 -0.7265 -0.0625
 5146TIP3    H215378   1.018   7.622   3.465 -1.0032 -0.9333  0.0809
 5147TIP3   OH215379   4.138   7.802   2.275  0.1469 -0.7495 -0.1756
 5147TIP3    H115380   4.220   7.792   2.225 -0.1688  1.7601 -1.2749
 5147TIP3    H215381   4.135   7.725   2.331  2.9394 -1.2346 -0.5987
 5148TIP3   OH215382   1.107   6.583   0.206  0.3712 -0.2146  0.0690
 5148TIP3    H115383   1.052   6.564   0.282  2.4129 -5.0663  0.5217
 5148TIP3    H215384   1.111   6.500   0.159  1.6232  1.9085 -3.7489
 5149TIP3   OH215385   1.417   6.626   1.088 -0.2611 -0.3219 -0.3816
 5149TIP3    H115386   1.478   6.573   1.139 -0.4421 -0.9827 -0.8473
 5149TIP3    H215387   1.356   6.661   1.153  0.3338 -0.0357  0.0273
 5150TIP3   OH215388   3.870   5.431   2.154 -0.0224  0.0486 -0.7660
 5150TIP3    H115389   3.929   5.409   2.083  0.6072  2.7821 -1.1661
 5150TIP3    H215390   3.782   5.418   2.118  0.3082  0.6237 -1.7948
 5151TIP3   OH215391   7.539   6.523   0.592  0.3709 -0.0250  0.3356
 5151TIP3    H115392   7.496   6.578   0.527  0.9160 -1.3548 -1.2098
 5151TIP3    H215393   7.497   6.545   0.675  0.0885  2.1535 -0.3632
 5152TIP3   OH215394   1.596   6.963   4.207  0.1030  0.2339 -0.0755
 5152TIP3    H115395   1.512   6.956   4.162 -0.5125  0.9611  0.9290
 5152TIP3    H215396   1.620   6.872   4.227 -0.7637  0.0631  0.2053
 5153TIP3   OH215397   2.862   6.516   1.781 -0.3415  0.2360 -0.3142
 5153TIP3    H115398   2.908   6.563   1.711 -1.0129 -0.7464 -1.4378
 5153TIP3    H215399   2.912   6.435   1.792  0.3684  0.8420  1.0890
 5154TIP3   OH215400   0.720   6.189   4.134  0.6424 -0.5061 -0.7029
 5154TIP3    H115401   0.791   6.161   4.191  0.1597 -1.0422 -0.3509
 5154TIP3    H215402   0.654   6.120   4.142  0.6428 -0.6875 -2.0568
 5155TIP3   OH215403   0.299   4.966   3.440 -0.2726  0.3453 -0.1242
 5155TIP3    H115404   0.389   4.995   3.455  0.0613 -0.1233 -1.2326
 5155TIP3    H215405   0.289   4.963   3.345 -1.4794  0.4510 -0.0098
 5156TIP3   OH215406   7.876   5.207   1.599 -0.3519 -0.1236 -0.9183
 5156TIP3    H115407   7.920   5.139   1.651  0.8485  1.1444 -0.2595
 5156TIP3    H215408   7.888   5.178   1.509  1.0747 -0.2609 -0.7044
 5157TIP3   OH215409   2.530   6.652   3.018  0.0833 -0.1929  1.1107
 5157TIP3    H115410   2.477   6.687   3.090 -1.6645  2.1962 -1.2458
 5157TIP3    H215411   2.467   6.633   2.948  2.0332  0.4046 -0.8794
 5158TIP3   OH215412   2.589   7.757   0.297  0.0150  0.1242 -0.0110
 5158TIP3    H115413   2.519   7.788   0.239 -1.0157 -0.2231  1.0331
 5158TIP3    H215414   2.621   7.835   0.341  0.4939  0.3266 -0.7155
 5159TIP3   OH215415   0.210   5.225   2.427  0.3680  0.0959  0.6928
 5159TIP3    H115416   0.123   5.250   2.461  0.1827 -0.5570  0.6957
 5159TIP3    H215417   0.192   5.152   2.368  0.6548  1.3326 -0.9708
 5160TIP3   OH215418   2.373   0.483   0.852 -0.2623 -0.1905 -0.1333
 5160TIP3    H115419   2.365   0.573   0.820 -2.5955 -0.3132  0.0032
 5160TIP3    H215420   2.417   0.437   0.781  1.2514  1.0987 -0.0727
 5161TIP3   OH215421   0.920   7.289   0.249 -0.2432 -0.2195  0.4124
 5161TIP3    H115422   0.936   7.334   0.166 -0.1801 -1.4025 -0.2310
 5161TIP3    H215423   0.865   7.349   0.299  2.5034  2.0061  0.8970
 5162TIP3   OH215424   1.099   6.672   2.165  0.0521 -0.0084  0.6425
 5162TIP3    H115425   1.168   6.675   2.232 -0.6923 -2.0757  1.5419
 5162TIP3    H215426   1.146   6.660   2.083  0.8085 -0.8175  1.1795
 5163TIP3   OH215427   4.732   7.980   2.762  0.2836 -0.3011  0.0617
 5163TIP3    H115428   4.713   7.970   2.855  0.3277 -2.2311 -0.1151
 5163TIP3    H215429   4.673   7.918   2.718 -0.6970  1.5525 -1.3103
 5164TIP3   OH215430   2.156   7.638   0.133  0.2828  0.6147  0.2875
 5164TIP3    H115431   2.196   7.560   0.094  0.0785  0.8147 -0.3191
 5164TIP3    H215432   2.147   7.615   0.226 -0.7318 -0.4955 -0.0658
 5165TIP3   OH215433   2.107   6.081   2.125 -0.7335 -0.4129  0.5281
 5165TIP3    H115434   2.078   5.991   2.113 -0.4338 -0.2659 -1.6215
 5165TIP3    H215435   2.138   6.085   2.215  1.6962 -3.1736 -0.1262
 5166TIP3   OH215436   0.481   4.285   2.975 -0.7295  0.1063 -0.9946
 5166TIP3    H115437   0.430   4.364   2.957 -0.9154  0.2333  0.0558
 5166TIP3    H215438   0.416   4.220   3.002 -0.4903 -0.1554 -1.0516
 5167TIP3   OH215439   1.398   5.597   1.796  0.2668 -0.4468  0.6065
 5167TIP3    H115440   1.439   5.550   1.724  1.9846  0.6305  0.8584
 5167TIP3    H215441   1.387   5.531   1.865  1.2507 -0.8396  0.3995
 5168TIP3   OH215442   0.995   5.437   1.733 -0.7112  0.0111 -0.2370
 5168TIP3    H115443   0.909   5.429   1.692 -0.4897  0.0720 -0.7234
 5168TIP3    H215444   1.020   5.348   1.756 -0.8059 -0.0319 -0.3022
 5169TIP3   OH215445   1.339   7.059   2.825 -0.2403 -0.2738  0.7997
 5169TIP3    H115446   1.264   7.050   2.766  0.2010  3.0202 -0.3373
 5169TIP3    H215447   1.337   7.150   2.854  2.8841 -0.3069  1.3516
 5170TIP3   OH215448   3.849   4.672   0.396  0.6543  0.7488  0.1409
 5170TIP3    H115449   3.821   4.691   0.486  0.0193 -0.4448  0.1999
 5170TIP3    H215450   3.942   4.652   0.404  0.4359 -0.0836  0.6391
 5171TIP3   OH215451   0.701   7.691   2.520 -0.1582 -0.0998 -1.1751
 5171TIP3    H115452   0.692   7.596   2.518 -2.0608  0.0909 -3.1636
 5171TIP3    H215453   0.678   7.715   2.610  0.7889 -1.5396 -0.5267
 5172TIP3   OH215454   1.195   4.167   3.435  0.2018 -0.4467  0.3107
 5172TIP3    H115455   1.288   4.161   3.460  0.4718 -2.7012 -1.0521
 5172TIP3    H215456   1.177   4.084   3.391 -2.7180 -0.3954  1.2975
 5173TIP3   OH215457   2.621   7.147   4.448 -0.2128 -0.1886 -0.6089
 5173TIP3    H115458   2.588   7.083   4.510  0.4448  0.4464  0.4079
 5173TIP3    H215459   2.708   7.170   4.481  0.5064 -0.4946 -2.2372
 5174TIP3   OH215460   0.978   6.600   1.617 -0.5482  0.8063  0.1884
 5174TIP3    H115461   1.053   6.542   1.609 -1.0808 -0.2870  2.7021
 5174TIP3    H215462   0.910   6.546   1.658 -1.9799  2.3871 -0.0470
 5175TIP3   OH215463   8.216   6.485   1.541 -1.0179  0.1031  0.4269
 5175TIP3    H115464   8.203   6.392   1.521 -1.8031  0.4166 -0.5572
 5175TIP3    H215465   8.135   6.527   1.513 -1.6005  0.7719  3.0188
 5176TIP3   OH215466   3.372   6.830   3.794  0.3113  0.1079 -0.0979
 5176TIP3    H115467   3.426   6.781   3.732 -1.5217 -3.6095  1.0616
 5176TIP3    H215468   3.416   6.820   3.878  0.2344  0.9990  0.0527
 5177TIP3   OH215469   0.319   4.546   2.485  0.1222 -0.0991  0.1848
 5177TIP3    H115470   0.238   4.513   2.525 -0.1940 -0.0720 -0.4188
 5177TIP3    H215471   0.389   4.494   2.524 -0.3024 -0.9502 -0.1699
 5178TIP3   OH215472   0.676   6.182   1.192 -0.0852  0.0039  0.3678
 5178TIP3    H115473   0.717   6.096   1.185 -1.4622 -0.8406  2.1955
 5178TIP3    H215474   0.646   6.202   1.104 -0.4476 -1.7699  0.0745
 5179TIP3   OH215475   3.097   6.136   0.799 -0.1304 -0.0336  0.0329
 5179TIP3    H115476   3.058   6.049   0.792  0.0893 -0.1665  0.4362
 5179TIP3    H215477   3.109   6.149   0.893  0.1232  0.3049 -0.0464
 5180TIP3   OH215478   5.067   0.270   3.811 -0.4207 -0.1578  0.0324
 5180TIP3    H115479   5.019   0.352   3.824 -0.3700  0.0820 -1.2516
 5180TIP3    H215480   5.082   0.266   3.717 -0.0080 -1.4159  0.1489
 5181TIP3   OH215481   3.730   5.216   1.272 -0.1219  0.4333 -0.3987
 5181TIP3    H115482   3.755   5.264   1.193  1.5082 -0.9087 -0.7140
 5181TIP3    H215483   3.805   5.225   1.330 -0.0766 -1.1403 -0.1927
 5182TIP3   OH215484   2.339   6.356   0.674 -0.2459 -0.3121 -0.2052
 5182TIP3    H115485   2.308   6.411   0.746 -0.7306  1.2091 -1.5278
 5182TIP3    H215486   2.267   6.356   0.611  0.8348 -0.1608 -1.4672
 5183TIP3   OH215487   1.242   7.354  -0.017 -0.4844  0.0261 -0.1549
 5183TIP3    H115488   1.148   7.354   0.004 -0.0340  1.2058  2.0109
 5183TIP3    H215489   1.285   7.375   0.066  1.7119 -0.5888 -1.1135
 5184TIP3   OH215490   0.209   7.365   1.276  0.2730  0.1148  0.0968
 5184TIP3    H115491   0.257   7.319   1.207 -0.1510 -0.6506  0.3217
 5184TIP3    H215492   0.118   7.362   1.249 -0.2496 -2.5651  2.0515
 5185TIP3   OH215493   3.367   6.952   1.664 -0.0186 -0.0170  0.1398
 5185TIP3    H115494   3.381   6.879   1.724  1.2888  1.1748  1.3367
 5185TIP3    H215495   3.454   6.975   1.633 -0.6297 -0.2076 -1.7414
 5186TIP3   OH215496   1.579   7.643   3.957  0.3395  0.3800 -0.5811
 5186TIP3    H115497   1.510   7.584   3.986  0.1336  0.8325 -0.1482
 5186TIP3    H215498   1.658   7.589   3.955 -0.0779 -0.2046 -1.3457
 5187TIP3   OH215499   8.363   7.197   2.145 -0.0446 -0.3530 -0.4719
 5187TIP3    H115500   8.412   7.136   2.200  0.8809  0.3974 -0.4680
 5187TIP3    H215501   8.329   7.142   2.074  0.6808 -0.9029 -0.3963
 5188TIP3   OH215502   0.574   5.870   2.250 -0.3456 -0.6178  0.3845
 5188TIP3    H115503   0.483   5.842   2.243 -0.2988 -0.4806 -0.8325
 5188TIP3    H215504   0.571   5.941   2.315 -1.2177 -0.1774 -0.1137
 5189TIP3   OH215505   5.036   0.088   1.184  0.0198 -0.4377  0.3204
 5189TIP3    H115506   4.984   0.093   1.104 -0.3381 -0.7219  0.5330
 5189TIP3    H215507   4.990   0.025   1.239  0.2171 -0.1818  0.7843
 5190TIP3   OH215508   2.434   7.073   2.258  0.1491  0.2500  0.3361
 5190TIP3    H115509   2.390   7.115   2.185 -2.8258 -1.5861  0.9974
 5190TIP3    H215510   2.466   6.990   2.222 -1.5830 -0.7932  1.1384
 5191TIP3   OH215511   6.034   0.153   0.624  0.5186 -0.4421  0.6308
 5191TIP3    H115512   6.061   0.084   0.564  2.1976  0.8594 -0.1694
 5191TIP3    H215513   5.967   0.113   0.679 -1.6969 -1.4009 -2.6704
 5192TIP3   OH215514   7.503   0.959   5.140  0.0821 -0.3494 -0.3940
 5192TIP3    H115515   7.428   0.903   5.118 -0.2983  0.1987 -0.5065
 5192TIP3    H215516   7.482   1.043   5.100  0.1338  0.1961  0.7199
 5193TIP3   OH215517   5.578   0.041   2.024  0.6263  0.3083 -0.2890
 5193TIP3    H115518   5.584   0.106   2.093  1.5320 -0.3813  0.2911
 5193TIP3    H215519   5.544  -0.037   2.067 -0.6328  0.4384 -1.0180
 5194TIP3   OH215520   1.368   5.920   2.248 -0.5438 -0.2580 -0.6589
 5194TIP3    H115521   1.431   5.981   2.209 -0.8371  0.1864 -0.4416
 5194TIP3    H215522   1.319   5.885   2.173 -1.4939  1.0305 -0.6567
 5195TIP3   OH215523   2.587   6.351   2.684  0.4042  0.2119 -0.1950
 5195TIP3    H115524   2.666   6.317   2.642  0.4852 -0.1464  0.2296
 5195TIP3    H215525   2.534   6.387   2.613  0.2617 -0.9273 -0.6758
 5196TIP3   OH215526   2.051   5.413   0.960 -0.4338  0.5652 -0.0948
 5196TIP3    H115527   1.985   5.471   0.998  0.1065  0.7280  0.5977
 5196TIP3    H215528   2.134   5.446   0.992  0.1565  1.4650 -2.4071
 5197TIP3   OH215529   3.348   6.705   2.552  0.0921 -0.5127  0.2215
 5197TIP3    H115530   3.266   6.740   2.586 -0.1582  1.0660 -1.8848
 5197TIP3    H215531   3.323   6.660   2.471  1.3096  0.0287 -0.4593
 5198TIP3   OH215532   7.565   7.342   0.760  0.5504 -0.6476  0.2903
 5198TIP3    H115533   7.544   7.427   0.800  1.1317  0.7389 -2.2711
 5198TIP3    H215534   7.481   7.296   0.757 -0.2914  0.8813 -0.6439
 5199TIP3   OH215535   1.290   6.625   3.380  0.0220 -0.2652 -0.1149
 5199TIP3    H115536   1.331   6.584   3.304  1.7154  1.3831 -0.1180
 5199TIP3    H215537   1.249   6.704   3.346 -1.4459 -0.8491  0.2519
 5200TIP3   OH215538   2.315   6.998   3.860  0.3025 -0.0802  0.1220
 5200TIP3    H115539   2.276   7.082   3.838 -0.2757 -0.7828 -1.6471
 5200TIP3    H215540   2.299   6.943   3.783  2.1529 -1.2995  0.5596
 5201TIP3   OH215541   0.819   4.631   1.220 -0.0250  0.2570 -0.2368
 5201TIP3    H115542   0.790   4.672   1.139 -3.2607  0.2598  0.8326
 5201TIP3    H215543   0.833   4.704   1.280  1.7728  0.2185 -0.5968
 5202TIP3   OH215544   2.599   6.901   4.566  0.4485 -0.1062  0.0972
 5202TIP3    H115545   2.557   6.840   4.626 -0.7211  1.0521  0.4683
 5202TIP3    H215546   2.662   6.847   4.517  1.4074 -1.0766  2.3171
 5203TIP3   OH215547   4.197   7.172   1.365  0.1080  0.6572  0.6351
 5203TIP3    H115548   4.121   7.221   1.334  0.5077  0.2776 -1.0100
 5203TIP3    H215549   4.206   7.100   1.302  1.1393  0.0390  1.4725
 5204TIP3   OH215550   1.649   5.308   0.431  0.0087  0.0035  0.2631
 5204TIP3    H115551   1.676   5.220   0.455  2.0353  0.0684 -1.5821
 5204TIP3    H215552   1.731   5.357   0.427 -0.8537  1.3547 -1.1655
 5205TIP3   OH215553   1.356   1.098   0.515  0.4863  0.1053  0.6275
 5205TIP3    H115554   1.447   1.087   0.544  1.1264  1.5362 -0.7896
 5205TIP3    H215555   1.342   1.193   0.516  0.0392  0.1010 -2.2111
 5206TIP3   OH215556   2.329   7.284   3.037 -0.0845  0.3840 -0.0508
 5206TIP3    H115557   2.289   7.369   3.018 -1.8980 -0.4575 -0.0247
 5206TIP3    H215558   2.271   7.243   3.100 -0.2947 -1.7102 -1.5503
 5207TIP3   OH215559   4.609   7.227   2.641  0.7486  0.3525  0.8563
 5207TIP3    H115560   4.679   7.222   2.706  0.9615  2.5835  0.8400
 5207TIP3    H215561   4.655   7.225   2.557  0.7243  0.7027  0.8324
 5208TIP3   OH215562   1.054   6.047   3.331 -0.0909 -0.4008 -0.0322
 5208TIP3    H115563   1.072   6.130   3.288  1.8328 -0.8389 -0.1659
 5208TIP3    H215564   1.050   6.068   3.424 -1.4711  0.1159 -0.2001
 5209TIP3   OH215565   2.422   7.894   2.454 -0.2452  0.0963 -0.0360
 5209TIP3    H115566   2.420   7.929   2.365 -0.0933  1.5034  0.4986
 5209TIP3    H215567   2.495   7.940   2.496 -0.1830 -0.7122  0.7515
 5210TIP3   OH215568   1.472   7.738   1.786  0.3306  0.7916 -0.7636
 5210TIP3    H115569   1.398   7.799   1.792 -0.2039  0.0539  0.4811
 5210TIP3    H215570   1.520   7.752   1.867  0.8579  0.3850 -1.0064
 5211TIP3   OH215571   4.399   7.600   1.870 -0.7861 -0.1231  0.0899
 5211TIP3    H115572   4.470   7.543   1.840  1.6548  3.1139 -0.5762
 5211TIP3    H215573   4.340   7.607   1.796 -1.4432 -2.2393  0.3883
 5212TIP3   OH215574   7.454   0.293   4.214 -0.8758 -0.3709 -0.5373
 5212TIP3    H115575   7.524   0.294   4.149  0.5334  0.6252  0.9914
 5212TIP3    H215576   7.374   0.277   4.162  0.1562  0.8486 -2.5524
 5213TIP3   OH215577   2.483   7.992   1.482 -0.2055  0.3992 -0.0260
 5213TIP3    H115578   2.430   7.933   1.428  0.7373  1.2523 -1.9345
 5213TIP3    H215579   2.424   8.065   1.502  0.0612  1.1223 -1.7528
 5214TIP3   OH215580   1.915   6.727   2.684 -0.3398 -0.0252  0.5957
 5214TIP3    H115581   1.844   6.745   2.622  0.3882 -0.6413 -0.4229
 5214TIP3    H215582   1.964   6.809   2.688 -1.3769  0.5731  1.6959
 5215TIP3   OH215583   3.538   7.155   3.061  0.6197  0.3779 -0.2075
 5215TIP3    H115584   3.554   7.245   3.087 -1.8558  0.8184 -0.1049
 5215TIP3    H215585   3.607   7.135   2.998  0.7943  2.5441 -0.7137
 5216TIP3   OH215586   7.503   7.880   0.704  0.3009 -0.3023  0.0338
 5216TIP3    H115587   7.550   7.960   0.725 -0.5112  0.2065 -0.0389
 5216TIP3    H215588   7.411   7.906   0.705  0.0185 -1.2816  0.2157
 5217TIP3   OH215589   2.109   5.900   2.593  0.2387  0.7392 -0.6930
 5217TIP3    H115590   2.140   5.866   2.509 -1.1885  1.2758 -1.4631
 5217TIP3    H215591   2.025   5.856   2.607  0.8868 -0.0049  0.8928
 5218TIP3   OH215592   2.207   5.548   2.288 -0.7891 -0.2408 -0.4299
 5218TIP3    H115593   2.200   5.511   2.200  0.9662 -0.1919 -0.5964
 5218TIP3    H215594   2.173   5.479   2.345 -2.3323 -0.1132 -1.1611
 5219TIP3   OH215595   1.455   6.847   2.040  0.1946  0.0908  0.5011
 5219TIP3    H115596   1.398   6.770   2.046  0.2325 -0.0067 -0.3557
 5219TIP3    H215597   1.534   6.822   2.087  1.6246 -1.6961 -2.7540
 5220TIP3   OH215598   0.013   5.831   1.065  0.1359 -0.0221  0.0906
 5220TIP3    H115599   0.093   5.796   1.104 -0.5518  0.3407  1.8713
 5220TIP3    H215600   0.042   5.875   0.985  2.0155  2.0288  1.8505
 5221TIP3   OH215601   2.159   7.219   3.808  0.5179 -0.0961  0.4025
 5221TIP3    H115602   2.234   7.247   3.756  0.5024 -0.4392  0.1945
 5221TIP3    H215603   2.085   7.219   3.747  0.4882 -0.4410  0.4352
 5222TIP3   OH215604   1.767   5.673   6.529  0.1178  0.0955 -0.4717
 5222TIP3    H115605   1.722   5.597   6.491  1.2223 -0.8403  0.0571
 5222TIP3    H215606   1.854   5.640   6.552  0.5954  1.5180 -0.1963
 5223TIP3   OH215607   2.254   6.716   4.825  0.2418 -0.4157  0.4142
 5223TIP3    H115608   2.225   6.738   4.914 -0.2497 -1.7179  0.5813
 5223TIP3    H215609   2.195   6.765   4.768 -0.0810 -0.3602  0.7952
 5224TIP3   OH215610   0.635   5.403   2.449  0.7978 -0.2491 -0.0757
 5224TIP3    H115611   0.622   5.498   2.450 -1.4289 -0.5272  0.6817
 5224TIP3    H215612   0.679   5.383   2.532 -0.4147 -0.0690  0.6251
 5225TIP3   OH215613   1.973   5.681   2.886 -0.3758  0.5821  0.0424
 5225TIP3    H115614   2.048   5.706   2.940  0.1424  0.4452 -0.6088
 5225TIP3    H215615   1.898   5.726   2.926 -0.0605  0.1935  1.0894
 5226TIP3   OH215616   0.860   6.868   4.006 -0.0868 -0.6097 -0.0428
 5226TIP3    H115617   0.944   6.853   3.962 -0.1805 -0.6219 -0.2178
 5226TIP3    H215618   0.874   6.839   4.096 -0.1938 -1.5168 -0.3108
 5227TIP3   OH215619   5.919   1.791   4.172  0.0581 -0.3841 -0.1315
 5227TIP3    H115620   5.824   1.794   4.162 -0.0338 -1.2960  0.3552
 5227TIP3    H215621   5.936   1.708   4.217  1.0683 -0.1427 -0.0378
 5228TIP3   OH215622   0.844   6.800   2.192  0.0481 -0.4071 -0.6015
 5228TIP3    H115623   0.930   6.770   2.162 -0.1141 -0.3156 -1.1717
 5228TIP3    H215624   0.798   6.720   2.217  0.5755 -0.3860  0.4480
 5229TIP3   OH215625   3.147   5.149   0.948  0.4020 -0.6874 -0.0483
 5229TIP3    H115626   3.117   5.059   0.933 -1.2721 -0.0880 -0.4783
 5229TIP3    H215627   3.078   5.203   0.909  1.2933  0.7796  0.3969
 5230TIP3   OH215628   4.280   0.283   4.025  0.1630 -0.5940 -0.3961
 5230TIP3    H115629   4.288   0.210   3.963 -0.2704 -0.1054 -1.0407
 5230TIP3    H215630   4.187   0.305   4.024  0.8925  2.8880 -3.6638
 5231TIP3   OH215631   1.847   5.970   2.042  0.5209 -0.0612 -0.7255
 5231TIP3    H115632   1.900   6.048   2.022 -0.1316  0.3848 -0.7295
 5231TIP3    H215633   1.911   5.899   2.049  1.1474  0.5141 -0.5097
 5232TIP3   OH215634   1.821   7.338   1.770 -0.2293  0.2131  0.3576
 5232TIP3    H115635   1.795   7.349   1.862  0.4925 -0.8780  0.7069
 5232TIP3    H215636   1.779   7.257   1.743 -1.7873  1.3857 -0.7894
 5233TIP3   OH215637   1.139   6.134   2.039  0.0765 -0.0469 -0.6810
 5233TIP3    H115638   1.181   6.207   2.085 -0.4661  0.0081 -0.2752
 5233TIP3    H215639   1.048   6.162   2.026 -0.4595 -1.1582  0.5815
 5234TIP3   OH215640   8.477   5.322   2.616  0.6098  0.2795  0.0547
 5234TIP3    H115641   8.403   5.325   2.676 -0.5084  1.6143 -1.3447
 5234TIP3    H215642   8.539   5.386   2.652  0.8414 -0.3963  0.8848
 5235TIP3   OH215643   3.781   7.840   1.888  0.1291  0.2396 -0.0713
 5235TIP3    H115644   3.759   7.933   1.884 -2.0379 -0.2255  0.5578
 5235TIP3    H215645   3.816   7.828   1.977  1.0713  0.5851 -0.3921
 5236TIP3   OH215646   5.261   0.217   2.439 -0.0491  0.1360 -0.2690
 5236TIP3    H115647   5.329   0.268   2.482  0.5649 -0.5354 -0.4374
 5236TIP3    H215648   5.291   0.208   2.348 -0.5999  0.2571 -0.4653
 5237TIP3   OH215649   3.351   7.320   3.271  0.0409  0.5297  0.7004
 5237TIP3    H115650   3.263   7.349   3.248 -0.3144 -0.8516  0.3215
 5237TIP3    H215651   3.395   7.308   3.187 -0.2154 -1.2660  0.8068
 5238TIP3   OH215652   2.549   5.529   3.078 -0.0549  0.7763  0.9111
 5238TIP3    H115653   2.518   5.617   3.100 -0.1785  0.9755 -0.0125
 5238TIP3    H215654   2.488   5.470   3.122 -0.0422  1.1576  1.4370
 5239TIP3   OH215655   3.039   6.014   1.226  0.1620 -0.8110 -0.5147
 5239TIP3    H115656   3.078   6.100   1.242 -0.3748 -0.7843  0.7560
 5239TIP3    H215657   3.092   5.976   1.156  0.2300  0.6594 -1.2758
 5240TIP3   OH215658   0.863   6.588   1.998 -0.0102  1.1690 -0.0173
 5240TIP3    H115659   0.832   6.517   2.054 -1.7500  0.8367 -1.3451
 5240TIP3    H215660   0.957   6.592   2.014 -0.1443 -0.3288  1.3068
 5241TIP3   OH215661   0.231   5.620   1.847  0.2318  0.7126 -0.2364
 5241TIP3    H115662   0.265   5.698   1.893  0.8926  0.6678 -0.6456
 5241TIP3    H215663   0.141   5.642   1.826  1.0147  2.1881 -2.1688
 5242TIP3   OH215664   0.700   7.005   5.515 -0.6228 -0.4742 -0.2671
 5242TIP3    H115665   0.787   7.041   5.534 -1.3909  0.7630  0.9941
 5242TIP3    H215666   0.644   7.082   5.505 -1.2708 -1.2197 -2.7141
 5243TIP3   OH215667   4.061   7.362   0.471  0.6443 -0.0145 -0.4672
 5243TIP3    H115668   4.093   7.433   0.414  2.2060 -2.7838 -3.2039
 5243TIP3    H215669   3.967   7.357   0.452  0.5628  1.1648 -0.4122
 5244TIP3   OH215670   1.823   5.101   3.753 -0.1003  0.1605 -0.0800
 5244TIP3    H115671   1.740   5.064   3.784 -0.1466 -0.2058 -0.6246
 5244TIP3    H215672   1.891   5.046   3.791 -0.1519 -0.2224 -0.5451
 5245TIP3   OH215673   8.443   7.749   1.496  0.4053  0.5293 -0.3092
 5245TIP3    H115674   8.524   7.801   1.501 -1.0103  2.8155 -0.4694
 5245TIP3    H215675   8.375   7.813   1.477 -1.7623 -1.0682  1.8316
 5246TIP3   OH215676   2.741   6.068   3.611 -0.4895 -0.4080  0.5639
 5246TIP3    H115677   2.710   5.984   3.577 -1.3522 -0.6102  1.8246
 5246TIP3    H215678   2.834   6.054   3.628 -0.5615 -1.0228  0.4758
 5247TIP3   OH215679   3.588   7.853   1.448  0.0735  0.0571 -0.3436
 5247TIP3    H115680   3.606   7.831   1.540 -1.2651  0.7626  0.0943
 5247TIP3    H215681   3.561   7.770   1.409 -2.0249  0.2860  0.5739
 5248TIP3   OH215682   0.015   5.118   2.950 -0.1291 -0.0259 -0.1854
 5248TIP3    H115683   0.047   5.077   2.870  1.3076 -1.1308  0.9265
 5248TIP3    H215684   0.074   5.191   2.966  0.8874 -1.0720  0.9735
 5249TIP3   OH215685   0.665   6.270   1.933  0.2942  0.6015 -0.0465
 5249TIP3    H115686   0.597   6.233   1.989  0.8158 -1.0239 -0.4365
 5249TIP3    H215687   0.617   6.319   1.866 -0.4699  0.1710  0.1800
 5250TIP3   OH215688   3.957   6.804   2.886  0.6105 -0.5260 -0.2890
 5250TIP3    H115689   3.890   6.792   2.953  0.4433  1.5457 -0.0471
 5250TIP3    H215690   3.909   6.801   2.803  0.2806  0.4066 -0.1407
 5251TIP3   OH215691   8.443   4.811   2.135  0.2413  0.4411  0.3316
 5251TIP3    H115692   8.400   4.883   2.088 -0.4041 -0.9382 -1.2513
 5251TIP3    H215693   8.398   4.732   2.103  2.2801 -0.8228  0.5225
 5252TIP3   OH215694   6.613   4.928   2.770 -0.0926  0.4777 -0.2251
 5252TIP3    H115695   6.688   4.869   2.781 -0.4643  0.2553  1.2107
 5252TIP3    H215696   6.616   4.953   2.678  1.8610  0.6262 -0.1440
 5253TIP3   OH215697   3.202   5.632   2.045  0.8282 -0.1029  0.2184
 5253TIP3    H115698   3.293   5.634   2.073  0.6767  0.2258  0.6803
 5253TIP3    H215699   3.199   5.564   1.977  0.8954 -1.9371  2.0017
 5254TIP3   OH215700   6.209   4.047   6.301 -0.2799 -0.1949 -0.1788
 5254TIP3    H115701   6.126   4.095   6.313 -1.5361 -2.8248  1.9819
 5254TIP3    H215702   6.216   4.037   6.206 -2.0902  0.6882 -0.4436
 5255TIP3   OH215703   0.507   6.135   2.143  0.2124 -0.2672 -0.1966
 5255TIP3    H115704   0.579   6.158   2.202  0.0497  1.2825 -0.5761
 5255TIP3    H215705   0.428   6.160   2.191 -0.1674 -2.9347  0.6569
 5256TIP3   OH215706   2.693   5.283   2.743 -0.4295  0.6391  0.1398
 5256TIP3    H115707   2.772   5.295   2.690 -0.1538 -2.7463 -0.3509
 5256TIP3    H215708   2.657   5.371   2.753  2.7525  2.1093 -0.6322
 5257TIP3   OH215709   0.424   6.255   1.334  0.5598  0.3693  0.2386
 5257TIP3    H115710   0.516   6.228   1.324  0.7981  1.8836 -2.0079
 5257TIP3    H215711   0.374   6.183   1.295  0.8171 -0.0679  0.7002
 5258TIP3   OH215712   1.837   6.519   0.958 -0.1405  0.0377  0.2157
 5258TIP3    H115713   1.855   6.521   0.864 -1.6935  0.6832 -0.0702
 5258TIP3    H215714   1.871   6.434   0.986 -2.4612 -1.5312 -1.5270
 5259TIP3   OH215715   4.751   7.325   0.826  0.3246  0.7423 -0.0368
 5259TIP3    H115716   4.775   7.416   0.840 -3.1203  1.5902  0.8761
 5259TIP3    H215717   4.746   7.288   0.914  2.0944 -0.4720 -0.4196
 5260TIP3   OH215718   3.466   0.360   0.388  0.3856  0.1057  0.2445
 5260TIP3    H115719   3.420   0.404   0.459 -0.3285  0.0546 -0.1766
 5260TIP3    H215720   3.480   0.428   0.323 -2.9328 -0.7414 -1.5020
 5261TIP3   OH215721   7.767   4.396   3.076  0.4443  0.3906  0.2322
 5261TIP3    H115722   7.690   4.403   3.134 -0.2372 -2.7137 -0.1804
 5261TIP3    H215723   7.842   4.397   3.136 -0.1402 -0.5487  0.9933
 5262TIP3   OH215724   1.391   6.644   3.884  0.0813 -0.2334  0.3005
 5262TIP3    H115725   1.358   6.634   3.794  1.4740  2.1048 -0.5155
 5262TIP3    H215726   1.482   6.616   3.879 -0.2161 -1.4619  1.3426
 5263TIP3   OH215727   3.118   5.441   3.561 -0.6777  0.3112  0.2416
 5263TIP3    H115728   3.076   5.419   3.644 -0.7177 -0.7446 -0.0511
 5263TIP3    H215729   3.049   5.430   3.496 -0.2725 -0.2331 -0.0960
 5264TIP3   OH215730   4.593   7.090   1.063 -0.4833  0.5254 -0.3298
 5264TIP3    H115731   4.548   7.052   0.987 -0.1136  0.0859 -0.3285
 5264TIP3    H215732   4.685   7.070   1.049 -0.1552  2.3941 -0.8773
 5265TIP3   OH215733   4.132   7.804   1.930 -0.6585  0.0202  0.4597
 5265TIP3    H115734   4.059   7.746   1.950 -1.2056 -0.2613 -2.1071
 5265TIP3    H215735   4.155   7.783   1.839  2.2993  0.4614  1.0604
 5266TIP3   OH215736   5.892   0.242   5.755  0.1874  0.1227  0.0513
 5266TIP3    H115737   5.970   0.298   5.750  0.0535  0.2643 -0.4466
 5266TIP3    H215738   5.915   0.175   5.820  0.3526  0.7437  0.6321
 5267TIP3   OH215739   0.171  -0.005   1.983 -0.2565 -0.5480  0.1297
 5267TIP3    H115740   0.217   0.023   1.904  0.2939  0.0066  0.6432
 5267TIP3    H215741   0.149   0.076   2.029  0.9549 -0.9091  1.3934
 5268TIP3   OH215742   7.265   0.329   0.186  0.5542 -0.0829  0.4133
 5268TIP3    H115743   7.271   0.423   0.204 -2.0088  0.2572 -0.2773
 5268TIP3    H215744   7.297   0.287   0.265  2.8827  1.3709  0.2602
 5269TIP3   OH215745   2.193   5.721   3.028 -0.9321  0.2997  0.5370
 5269TIP3    H115746   2.227   5.716   3.118  1.1369  1.1533 -0.1852
 5269TIP3    H215747   2.261   5.766   2.979 -2.1562  0.0412 -1.4349
 5270TIP3   OH215748   1.941   7.227   3.277 -0.2669 -0.5942 -0.2838
 5270TIP3    H115749   1.959   7.321   3.275 -0.0725 -0.6320 -0.3594
 5270TIP3    H215750   2.026   7.187   3.263 -0.1759 -0.7931  0.8376
 5271TIP3   OH215751   3.285   6.388   0.415  0.2268  0.2657 -0.0823
 5271TIP3    H115752   3.359   6.440   0.446 -1.6915  2.4473  0.9930
 5271TIP3    H215753   3.242   6.357   0.494 -0.5011 -0.2913 -0.6847
 5272TIP3   OH215754   7.045   6.547   1.110 -0.2503  0.2218  0.7955
 5272TIP3    H115755   6.979   6.549   1.180  0.1181  0.7878  1.1320
 5272TIP3    H215756   7.129   6.548   1.157  0.0256 -2.0607  0.4258
 5273TIP3   OH215757   4.945   5.919   1.165 -0.2041  1.0741 -0.5273
 5273TIP3    H115758   5.036   5.912   1.194 -0.0935  1.0679 -0.8843
 5273TIP3    H215759   4.939   6.006   1.125 -1.0078  2.1798  1.8471
 5274TIP3   OH215760   1.965   6.498   0.710 -0.4618 -0.1101  0.2335
 5274TIP3    H115761   1.981   6.416   0.664  0.6078  0.5004 -0.5008
 5274TIP3    H215762   1.922   6.554   0.646 -2.5022 -0.5680  1.1645
 5275TIP3   OH215763   2.179   5.120   1.050  0.3424  0.5320  0.4196
 5275TIP3    H115764   2.099   5.173   1.049  1.4696  2.2777  1.5857
 5275TIP3    H215765   2.244   5.173   1.005  0.4828 -1.5731 -1.9945
 5276TIP3   OH215766   2.707   7.595   2.055 -0.6993 -0.2202  0.2094
 5276TIP3    H115767   2.642   7.527   2.074 -1.8715  1.0385  0.7899
 5276TIP3    H215768   2.699   7.609   1.961 -0.9390 -0.3935  0.2023
 5277TIP3   OH215769   2.321   7.204   1.767 -0.1258 -0.2975 -0.2168
 5277TIP3    H115770   2.410   7.202   1.732  0.0392  1.3761  0.0270
 5277TIP3    H215771   2.265   7.187   1.691  0.3283  0.7323 -0.7947
 5278TIP3   OH215772   4.497   6.820   2.625 -0.0063 -0.3496  0.3200
 5278TIP3    H115773   4.582   6.795   2.660  0.6178  1.1965 -0.0248
 5278TIP3    H215774   4.517   6.868   2.545 -1.1181  1.0861  0.8659
 5279TIP3   OH215775   3.818   6.059   1.755  0.2183  0.0704  0.4953
 5279TIP3    H115776   3.858   6.070   1.841 -1.3600 -1.6064  1.5102
 5279TIP3    H215777   3.741   6.116   1.756 -0.8815 -1.3687  0.9724
 5280TIP3   OH215778   2.810   5.865   0.910 -0.5896 -0.1506 -0.4487
 5280TIP3    H115779   2.728   5.914   0.911  1.2051  2.9722  1.5952
 5280TIP3    H215780   2.849   5.886   0.825 -1.1436 -0.4038 -0.7739
 5281TIP3   OH215781   4.373   7.527   3.629  0.0995 -0.0168 -0.1298
 5281TIP3    H115782   4.427   7.449   3.640  1.3584  0.0020 -5.1547
 5281TIP3    H215783   4.285   7.493   3.610  0.1366 -0.1834  0.0019
 5282TIP3   OH215784   0.272   3.212   6.458  0.2278 -0.3344 -0.4691
 5282TIP3    H115785   0.340   3.164   6.506  0.2304  1.6055  1.5759
 5282TIP3    H215786   0.234   3.147   6.399  0.2223 -2.9083  2.2010
 5283TIP3   OH215787   4.609   4.954   1.011  0.9307  0.2054  0.1356
 5283TIP3    H115788   4.557   5.004   1.074  0.2521 -0.3101 -0.0196
 5283TIP3    H215789   4.566   4.967   0.927 -0.0235 -1.6891  0.2976
 5284TIP3   OH215790   3.062   6.747   2.544 -0.1263 -0.3111 -0.2153
 5284TIP3    H115791   3.035   6.712   2.629  0.7740  2.6126  1.3741
 5284TIP3    H215792   3.004   6.822   2.530  0.0068 -0.5190 -1.9955
 5285TIP3   OH215793   0.910   7.218   0.601  0.6363  0.2851  0.0631
 5285TIP3    H115794   0.987   7.263   0.635  1.0943 -0.8802  0.5738
 5285TIP3    H215795   0.852   7.289   0.573  0.7309  1.2582  2.1981
 5286TIP3   OH215796   3.650   6.436   0.373 -0.0753 -0.0197 -0.2511
 5286TIP3    H115797   3.628   6.345   0.388  2.0880 -0.7263 -1.1483
 5286TIP3    H215798   3.614   6.456   0.287 -2.1508  0.5322  0.7307
 5287TIP3   OH215799   2.495   3.997   2.056 -0.0919  0.2095  0.5471
 5287TIP3    H115800   2.422   4.043   2.015 -0.6298 -0.9416  0.1942
 5287TIP3    H215801   2.453   3.931   2.111  0.6048  1.8349  3.1179
 5288TIP3   OH215802   3.807   7.704   0.673  0.3570  0.2390  0.8371
 5288TIP3    H115803   3.733   7.764   0.669  0.3860  0.2523  0.5000
 5288TIP3    H215804   3.861   7.727   0.597 -0.1249 -0.8656  0.1638
 5289TIP3   OH215805   2.125   7.907   0.662 -0.0318 -0.7221  0.4546
 5289TIP3    H115806   2.040   7.863   0.668  0.3700 -1.6842 -0.7638
 5289TIP3    H215807   2.174   7.876   0.738 -1.0695  0.5289  1.6661
 5290TIP3   OH215808   3.119   4.896   0.862 -0.1703 -0.6567 -0.4009
 5290TIP3    H115809   3.086   4.814   0.898  0.7637 -1.5511 -1.5910
 5290TIP3    H215810   3.092   4.895   0.771  0.7487 -0.1177 -0.6848
 5291TIP3   OH215811   6.267   6.980   2.074 -0.1018 -0.2977  0.4156
 5291TIP3    H115812   6.243   6.914   2.009  0.8622 -0.0987 -0.1554
 5291TIP3    H215813   6.360   6.997   2.058 -0.8566  2.8614 -0.9304
 5292TIP3   OH215814   2.003   4.302   5.918 -0.5449  0.0610  0.2004
 5292TIP3    H115815   2.052   4.372   5.960  0.2862  0.8820 -2.0643
 5292TIP3    H215816   1.911   4.325   5.931 -0.2850  1.9565 -1.0779
 5293TIP3   OH215817   6.609   6.973   0.787  0.0175 -0.1240 -0.1243
 5293TIP3    H115818   6.645   6.936   0.868  0.5303  0.2490 -0.1782
 5293TIP3    H215819   6.533   6.918   0.767 -1.4457  1.1137  1.8134
 5294TIP3   OH215820   7.019   1.281   1.019 -0.1948  0.2148 -0.2298
 5294TIP3    H115821   7.081   1.346   1.053  0.0488 -0.5096  0.7393
 5294TIP3    H215822   7.062   1.245   0.942  1.0687 -1.0233  1.0291
 5295TIP3   OH215823   2.731   5.800   4.542  0.2456 -0.4015  0.3823
 5295TIP3    H115824   2.644   5.762   4.553 -0.7989  1.7570 -0.2104
 5295TIP3    H215825   2.768   5.752   4.468  0.8928 -3.5752  2.6408
 5296TIP3   OH215826   3.999   7.438   2.690  0.0943  0.3157  0.2341
 5296TIP3    H115827   4.010   7.524   2.732 -0.8416  0.0320  1.0888
 5296TIP3    H215828   3.904   7.424   2.690  0.3266 -1.3081  1.3054
 5297TIP3   OH215829   3.890   4.741   2.174  0.7362 -0.1509  0.6184
 5297TIP3    H115830   3.869   4.651   2.149  0.9324  0.3504 -1.4650
 5297TIP3    H215831   3.969   4.733   2.227  1.5889 -1.1044 -0.7554
 5298TIP3   OH215832   6.486   0.317   1.148  0.0737  0.1082 -0.0178
 5298TIP3    H115833   6.502   0.360   1.232  0.5449 -0.9509  0.4298
 5298TIP3    H215834   6.555   0.252   1.140 -1.2477 -1.2967 -0.2131
 5299TIP3   OH215835   4.536   7.508   2.683 -0.4642 -0.0195  0.5144
 5299TIP3    H115836   4.545   7.413   2.698 -0.1542  0.0155  0.5493
 5299TIP3    H215837   4.448   7.518   2.646  0.4585 -0.6029 -1.9188
 5300TIP3   OH215838   6.728   6.670   0.535  0.1271 -0.0649  0.1487
 5300TIP3    H115839   6.747   6.638   0.447  1.4149  1.1376 -0.0175
 5300TIP3    H215840   6.642   6.711   0.527  1.1997  2.0063 -1.0910
 5301TIP3   OH215841   5.473   6.730   1.182  0.0726 -0.4724 -0.3115
 5301TIP3    H115842   5.413   6.789   1.229  0.3832 -2.7228  3.1413
 5301TIP3    H215843   5.417   6.683   1.121 -0.4676  2.0597 -1.8684
 5302TIP3   OH215844   1.803   6.808   2.428  0.4382 -0.5110  0.4032
 5302TIP3    H115845   1.888   6.823   2.388  0.9461 -1.8138  0.9743
 5302TIP3    H215846   1.771   6.895   2.451  1.9664 -0.0819  0.9129
 5303TIP3   OH215847   3.789   6.603   1.958  0.3762 -0.1659  0.9936
 5303TIP3    H115848   3.826   6.611   2.046  0.1822  1.6056  0.9457
 5303TIP3    H215849   3.864   6.582   1.902  0.8279  0.5369  1.3238
 5304TIP3   OH215850   3.286   7.335   2.191  0.5167  0.4791 -0.1655
 5304TIP3    H115851   3.213   7.327   2.131  1.1963  0.5294 -1.0152
 5304TIP3    H215852   3.361   7.357   2.135  1.2110  0.2639  0.6610
 5305TIP3   OH215853   1.897   6.223   2.622  0.6744  0.0402  0.3430
 5305TIP3    H115854   1.947   6.291   2.668  1.7476  0.9793 -2.1087
 5305TIP3    H215855   1.820   6.270   2.588  1.5766  0.1646 -1.6248
 5306TIP3   OH215856   2.799   7.512   1.532 -0.2698 -1.0043  0.0613
 5306TIP3    H115857   2.763   7.467   1.609 -0.1053 -1.3311 -0.0482
 5306TIP3    H215858   2.856   7.579   1.568 -0.2546 -1.1043  0.2265
 5307TIP3   OH215859   2.598   7.429   3.156 -0.0185 -0.1913  0.2233
 5307TIP3    H115860   2.689   7.444   3.128 -0.6955  1.9238 -0.9814
 5307TIP3    H215861   2.567   7.360   3.098 -0.7087  2.6151 -2.9326
 5308TIP3   OH215862   3.060   7.780   1.276  0.4632  0.5380 -0.1607
 5308TIP3    H115863   3.002   7.816   1.209 -1.1049  0.5396  1.1423
 5308TIP3    H215864   3.037   7.687   1.280 -1.1988  0.9788  1.9884
 5309TIP3   OH215865   1.232   1.317   6.877 -0.2956  0.7325 -0.0038
 5309TIP3    H115866   1.283   1.375   6.933 -0.2366 -0.1877  0.9149
 5309TIP3    H215867   1.219   1.366   6.797 -0.7632  2.2447  0.9879
 5310TIP3   OH215868   3.703   7.426   2.780  0.2875  0.1311  0.0416
 5310TIP3    H115869   3.671   7.453   2.866 -0.7935  0.9544 -0.6005
 5310TIP3    H215870   3.693   7.331   2.779  0.6541  0.0788  0.9564
 5311TIP3   OH215871   2.487   7.244   0.454 -0.8108  0.1051  0.3171
 5311TIP3    H115872   2.512   7.190   0.529 -2.2429 -1.2778 -0.1903
 5311TIP3    H215873   2.426   7.308   0.490  0.5117  1.0994  0.8227
 5312TIP3   OH215874   5.354   0.132   3.575 -0.3347 -0.5876 -0.3547
 5312TIP3    H115875   5.377   0.048   3.614  1.3324  0.3539  0.7329
 5312TIP3    H215876   5.424   0.191   3.601 -1.6342  1.2227 -0.8554
 5313TIP3   OH215877   4.751   7.097   2.108 -0.4798  0.1210  0.0866
 5313TIP3    H115878   4.765   7.191   2.117  0.6188 -0.0751  0.5070
 5313TIP3    H215879   4.735   7.084   2.015  1.0894  0.5159 -0.2587
 5314TIP3   OH215880   3.693   7.228   1.908 -0.4701  1.0655 -0.1467
 5314TIP3    H115881   3.605   7.207   1.939 -0.0280 -1.0806 -0.2730
 5314TIP3    H215882   3.735   7.143   1.896  0.7622  1.9864 -2.6458
 5315TIP3   OH215883   0.226   6.853   2.876  0.1292  0.4646  0.7001
 5315TIP3    H115884   0.233   6.758   2.869  0.0114  0.4324  1.0226
 5315TIP3    H215885   0.155   6.868   2.938  0.7233  0.7532  1.3234
 5316TIP3   OH215886   3.199   7.225   1.098 -0.6639 -0.0131 -0.4718
 5316TIP3    H115887   3.105   7.219   1.084 -0.4221 -2.5141 -1.3189
 5316TIP3    H215888   3.226   7.136   1.122  1.5611  0.5162 -0.8438
 5317TIP3   OH215889   4.582   6.821   2.057 -0.5452  0.3166 -0.2470
 5317TIP3    H115890   4.629   6.833   1.975  1.3871  0.0969  0.8001
 5317TIP3    H215891   4.526   6.898   2.064  2.4180  2.5029  0.2923
 5318TIP3   OH215892   4.287   5.251   0.542  0.4007 -0.5555 -0.2714
 5318TIP3    H115893   4.225   5.235   0.472  0.7134 -1.8621 -0.2609
 5318TIP3    H215894   4.282   5.173   0.597  1.1436 -0.1339  0.4079
 5319TIP3   OH215895   7.747   1.026   1.554  0.2575 -0.1263 -0.1206
 5319TIP3    H115896   7.719   1.095   1.615  1.9070 -1.0857  1.7906
 5319TIP3    H215897   7.748   0.946   1.607  0.2812 -1.2707 -1.8034
 5320TIP3   OH215898   3.389   6.079   0.966  0.1062 -0.6782  0.5496
 5320TIP3    H115899   3.462   6.094   1.025 -0.0961 -1.6075  1.0504
 5320TIP3    H215900   3.340   6.007   1.006 -1.2115  0.0934  0.3543
 5321TIP3   OH215901   3.394   6.299   1.257  0.5056  0.1760 -0.1426
 5321TIP3    H115902   3.476   6.283   1.304  0.8366 -0.2094 -0.8563
 5321TIP3    H215903   3.421   6.323   1.169 -0.1749 -0.9501 -0.6726
 5322TIP3   OH215904   6.488   0.153   0.346  0.6346 -0.2296  0.1096
 5322TIP3    H115905   6.446   0.200   0.418  0.4079 -1.8118  1.0337
 5322TIP3    H215906   6.418   0.097   0.311  0.7926  0.3870 -1.2356
 5323TIP3   OH215907   3.589   6.556   2.150  0.1728 -0.1174  0.0403
 5323TIP3    H115908   3.636   6.597   2.077 -0.4478  0.9382  0.2210
 5323TIP3    H215909   3.621   6.466   2.152 -0.3754 -0.3923 -2.0418
 5324TIP3   OH215910   0.844   4.307   6.814  0.3973  0.1194  0.2074
 5324TIP3    H115911   0.843   4.358   6.895 -1.7227 -1.0283  0.9399
 5324TIP3    H215912   0.865   4.218   6.843 -1.9613 -0.6242 -0.2675
 5325TIP3   OH215913   7.480   0.224   2.657  0.3121 -0.2063 -0.7900
 5325TIP3    H115914   7.468   0.295   2.720  0.2931 -0.5444 -0.4086
 5325TIP3    H215915   7.507   0.149   2.710 -0.9691 -0.8531 -1.0315
 5326TIP3   OH215916   3.201   7.901   4.489 -0.3348  0.0098 -0.1020
 5326TIP3    H115917   3.138   7.963   4.453 -2.2264 -1.6560  0.2254
 5326TIP3    H215918   3.276   7.906   4.430 -1.9667 -0.0826 -2.2438
 5327TIP3   OH215919   3.084   5.448   1.109  0.1840  0.2100  0.1762
 5327TIP3    H115920   3.153   5.452   1.175 -0.1303  0.7650  0.4726
 5327TIP3    H215921   3.030   5.525   1.125 -0.3951 -0.1157 -0.1780
 5328TIP3   OH215922   2.502   6.401   2.413 -0.5996  0.0080 -0.9444
 5328TIP3    H115923   2.537   6.476   2.364 -0.4928 -0.3223 -1.3722
 5328TIP3    H215924   2.471   6.341   2.346 -2.1714  0.3776 -0.5787
 5329TIP3   OH215925   1.980   7.937   2.552  0.2631  0.0510  0.5386
 5329TIP3    H115926   2.061   7.900   2.587  1.0686  0.6921 -0.6076
 5329TIP3    H215927   1.986   8.031   2.571 -0.7702 -0.0601  1.4984
 5330TIP3   OH215928   3.750   6.155   0.865  0.1728  1.0341  0.0828
 5330TIP3    H115929   3.832   6.128   0.906  0.2497  2.5085  0.9652
 5330TIP3    H215930   3.777   6.206   0.788  0.0320 -1.3071 -1.5660
 5331TIP3   OH215931   4.547   5.243   1.752  0.3101  0.0352  0.5048
 5331TIP3    H115932   4.497   5.245   1.671 -0.3727 -1.2179  0.8760
 5331TIP3    H215933   4.627   5.195   1.730  1.0453  1.4256  0.0882
 5332TIP3   OH215934   2.406   3.215   6.540  0.1447 -0.2993  0.7261
 5332TIP3    H115935   2.343   3.260   6.596  1.3582 -0.6952  2.4392
 5332TIP3    H215936   2.375   3.125   6.536 -1.5742  0.3335 -1.6745
 5333TIP3   OH215937   8.201   3.424   6.831 -0.0363 -0.1226  0.2413
 5333TIP3    H115938   8.260   3.496   6.808 -1.6953  0.7513 -1.4406
 5333TIP3    H215939   8.258   3.348   6.842  1.6195  1.1946  0.9026
 5334TIP3   OH215940   6.355   0.450   2.621 -0.3242  0.2452  0.4952
 5334TIP3    H115941   6.298   0.385   2.663 -1.6701  0.7489 -0.5207
 5334TIP3    H215942   6.300   0.490   2.554  1.2336  0.7742 -0.4775
 5335TIP3   OH215943   4.025   7.588   3.754 -0.2077  0.2613  0.0090
 5335TIP3    H115944   3.938   7.582   3.794 -0.3969  0.1851 -0.4129
 5335TIP3    H215945   4.086   7.586   3.828 -0.6640  3.5917  0.5536
 5336TIP3   OH215946   5.789   6.088   0.975  0.5509 -0.4253 -0.4371
 5336TIP3    H115947   5.862   6.120   0.921  0.2467  1.2902  0.1353
 5336TIP3    H215948   5.713   6.091   0.916  0.5601 -0.2302 -0.4424
 5337TIP3   OH215949   2.948   7.836   1.034 -0.5613  0.4354 -0.0891
 5337TIP3    H115950   2.965   7.797   0.949 -0.0374 -1.1174  0.6979
 5337TIP3    H215951   2.962   7.930   1.022 -0.3691  0.2038 -1.6660
 5338TIP3   OH215952   5.841   7.029   2.519  0.6020  0.6031 -0.7082
 5338TIP3    H115953   5.911   7.080   2.560  1.8134 -2.1982  0.8909
 5338TIP3    H215954   5.763   7.051   2.569  1.1498  0.7323  0.1010
 5339TIP3   OH215955   6.018   0.038   1.276  0.1405  0.1055 -0.1266
 5339TIP3    H115956   5.985   0.024   1.187  0.8043  0.1814 -0.3843
 5339TIP3    H215957   5.995  -0.042   1.323 -1.1081  0.4717 -0.0987
 5340TIP3   OH215958   1.243   7.961   1.213  0.1277 -0.2632  0.0958
 5340TIP3    H115959   1.302   8.034   1.232 -0.4406  0.0900  0.5227
 5340TIP3    H215960   1.282   7.917   1.138  1.3507 -0.4889  0.8533
 5341TIP3   OH215961   4.695   1.658   1.479 -0.1489 -0.1090  0.8236
 5341TIP3    H115962   4.692   1.595   1.551  1.1327 -0.1207  0.8705
 5341TIP3    H215963   4.605   1.691   1.473 -1.0317 -2.4953  0.2882
 5342TIP3   OH215964   3.703   6.036   0.134 -0.3469  0.2455 -0.1760
 5342TIP3    H115965   3.683   6.101   0.066  1.0074 -0.1903 -0.9981
 5342TIP3    H215966   3.661   6.071   0.213 -0.8242  1.4115 -0.9307
 5343TIP3   OH215967   3.271   6.310   1.772 -0.5397  0.0063  0.0228
 5343TIP3    H115968   3.326   6.273   1.841  0.3685  0.6287 -0.3696
 5343TIP3    H215969   3.310   6.280   1.690 -1.0117  0.1326 -0.2541
 5344TIP3   OH215970   5.003   7.902   0.244 -0.9125  0.2633  0.2342
 5344TIP3    H115971   4.937   7.970   0.255  0.3110  1.5259 -0.0508
 5344TIP3    H215972   5.051   7.927   0.165  0.0898 -0.4605  0.5894
 5345TIP3   OH215973   4.793   6.943   0.959 -0.2042 -0.0089 -0.0028
 5345TIP3    H115974   4.824   6.931   0.869  1.0111  0.5401  0.3288
 5345TIP3    H215975   4.797   6.855   0.998  0.5791 -0.0161 -0.0860
 5346TIP3   OH215976   3.783   5.828   0.853  0.6764  0.4405 -0.0221
 5346TIP3    H115977   3.819   5.806   0.938  1.4331  0.7318 -0.2583
 5346TIP3    H215978   3.769   5.923   0.856  1.8641  0.6508 -0.6371
 5347TIP3   OH215979   3.002   6.998   2.729 -0.1419 -0.7147  0.1275
 5347TIP3    H115980   2.940   6.936   2.768  0.3996 -1.3043  0.0779
 5347TIP3    H215981   3.088   6.963   2.754  0.1613  0.1767  0.3276
 5348TIP3   OH215982   3.616   7.072   1.086  0.4553  0.3224  0.0022
 5348TIP3    H115983   3.549   7.056   1.019 -1.3157 -0.3649  1.8991
 5348TIP3    H215984   3.618   7.167   1.096 -0.4690  0.3210  0.1784
 5349TIP3   OH215985   4.208   6.421   1.123  0.4574  0.1848  0.3832
 5349TIP3    H115986   4.145   6.419   1.051  0.5932  2.9323  0.1216
 5349TIP3    H215987   4.171   6.361   1.188 -0.8164 -0.6206 -1.0315
 5350TIP3   OH215988   6.494   1.392   5.307  0.3036 -0.9058 -0.1530
 5350TIP3    H115989   6.540   1.349   5.379  1.1721  2.0598  1.1405
 5350TIP3    H215990   6.410   1.419   5.344 -0.6073 -2.2263 -1.2016
 5351TIP3   OH215991   3.760   7.896   0.326  0.1921  0.3504 -0.1322
 5351TIP3    H115992   3.744   7.989   0.312 -1.1897  0.1650  0.2074
 5351TIP3    H215993   3.809   7.891   0.408  1.0831  0.8307 -0.6218
 5352TIP3   OH215994   2.394   5.893   1.755  0.0517 -0.2656 -0.0708
 5352TIP3    H115995   2.433   5.838   1.823  1.4749  1.5194  0.5845
 5352TIP3    H215996   2.379   5.977   1.798  0.3551  0.6776 -1.7791
 5353TIP3   OH215997   5.469   6.084   3.374  0.2845  0.2042  0.1005
 5353TIP3    H115998   5.548   6.033   3.357  0.0540  0.2065 -1.0357
 5353TIP3    H215999   5.449   6.069   3.466 -0.8989 -3.3134 -0.6761
 5354TIP3   OH216000   3.476   5.283   2.636  0.7319  0.5576 -0.1534
 5354TIP3    H116001   3.476   5.228   2.714  2.4754 -0.0476 -0.5565
 5354TIP3    H216002   3.436   5.229   2.568  1.1920  0.2976 -0.2146
 5355TIP3   OH216003   2.141   7.522   2.682  0.1174  0.3436 -0.1982
 5355TIP3    H116004   2.168   7.604   2.640  0.2960 -0.7095 -2.2056
 5355TIP3    H216005   2.093   7.475   2.614 -0.2109 -1.1017  1.0142
 5356TIP3   OH216006   0.582   7.628   1.513  0.1541  0.2482  0.2809
 5356TIP3    H116007   0.611   7.619   1.422 -1.2737 -0.9399 -0.0711
 5356TIP3    H216008   0.567   7.722   1.525 -0.8267  0.2697 -1.0797
 5357TIP3   OH216009   3.641   4.813   0.962 -0.6637  0.0708 -0.1675
 5357TIP3    H116010   3.554   4.795   0.997 -0.7652  1.3825  0.2874
 5357TIP3    H216011   3.685   4.861   1.032 -0.5988  2.0268 -1.5175
 5358TIP3   OH216012   5.254   0.347   5.258 -0.0274 -0.0703 -0.1497
 5358TIP3    H116013   5.288   0.326   5.345 -0.6910 -0.9062 -0.0892
 5358TIP3    H216014   5.331   0.373   5.208  0.3551  0.4557  0.6979
 5359TIP3   OH216015   3.810   6.089   1.293  0.2693  0.7026  0.8716
 5359TIP3    H116016   3.883   6.130   1.245  0.4262  1.7481  1.9699
 5359TIP3    H216017   3.852   6.025   1.350 -0.0587 -1.7114 -1.5283
 5360TIP3   OH216018   4.077   7.903   2.987 -0.4575 -0.4061  0.0523
 5360TIP3    H116019   4.012   7.968   3.011  1.5496  1.2034  1.3037
 5360TIP3    H216020   4.105   7.865   3.071 -0.2904 -1.5783 -0.5212
 5361TIP3   OH216021   0.649   7.121   0.759  0.3902  0.3456 -0.8389
 5361TIP3    H116022   0.711   7.151   0.692  0.0598  1.2138 -0.7628
 5361TIP3    H216023   0.587   7.066   0.711  0.0894  1.0544 -1.2728
 5362TIP3   OH216024   2.029   6.461   2.714  0.3617  0.5411  0.0000
 5362TIP3    H116025   2.109   6.456   2.661 -0.3473 -0.3623 -1.0249
 5362TIP3    H216026   1.988   6.543   2.688 -1.3759 -1.1895 -2.9494
 5363TIP3   OH216027   5.853   1.008   2.459 -0.0337 -0.2221 -0.1307
 5363TIP3    H116028   5.767   1.034   2.494 -0.0843  0.0687 -0.4696
 5363TIP3    H216029   5.850   1.035   2.368  0.3576 -0.3697 -0.1851
 5364TIP3   OH216030   2.111   7.234   2.781  0.1158 -0.3451  0.1737
 5364TIP3    H116031   2.032   7.280   2.807  0.5139  0.8735 -0.7101
 5364TIP3    H216032   2.182   7.285   2.819  0.5417 -0.5191 -0.3783
 5365TIP3   OH216033   0.613   3.437   6.906 -0.7316  0.1173 -0.5540
 5365TIP3    H116034   0.526   3.455   6.943 -1.0564 -2.3721 -0.0015
 5365TIP3    H216035   0.595   3.386   6.827  0.1845  0.9094 -1.2812
 5366TIP3   OH216036   6.258   6.731   1.438 -0.3052 -0.0225 -0.0896
 5366TIP3    H116037   6.300   6.711   1.521 -1.5507  2.3552  1.1719
 5366TIP3    H216038   6.303   6.809   1.406 -1.1337  0.2274 -0.6667
 5367TIP3   OH216039   0.332   4.763   5.826 -0.2190 -0.0153  0.8626
 5367TIP3    H116040   0.292   4.750   5.740  0.6268 -1.9803  0.7250
 5367TIP3    H216041   0.276   4.714   5.886  0.2374 -0.2189  1.1267
 5368TIP3   OH216042   6.148   1.189   0.256  0.0111  0.8026  0.2511
 5368TIP3    H116043   6.145   1.133   0.334  0.4490  0.4945  0.0505
 5368TIP3    H216044   6.158   1.128   0.183 -0.4715  1.0867 -0.0564
 5369TIP3   OH216045   2.636   5.194   2.175 -0.1819 -0.3028  0.0354
 5369TIP3    H116046   2.637   5.172   2.268  1.9167 -0.1895  0.0485
 5369TIP3    H216047   2.641   5.289   2.173 -0.8831 -0.2688 -0.1866
 5370TIP3   OH216048   1.488   6.830   2.788 -0.0112 -0.2581 -0.1688
 5370TIP3    H116049   1.495   6.793   2.700 -0.6123 -0.3246 -0.1937
 5370TIP3    H216050   1.437   6.910   2.777  1.2892  0.5954 -0.1161
 5371TIP3   OH216051   5.069   7.168   2.173 -0.5335  0.1423  0.1401
 5371TIP3    H116052   5.093   7.104   2.240 -0.1158  0.7538  0.5752
 5371TIP3    H216053   5.019   7.235   2.219  0.2577  0.8679 -0.0378
 5372TIP3   OH216054   7.431   0.324   3.401  0.0644  0.1709 -0.1926
 5372TIP3    H116055   7.418   0.242   3.448  1.2730  0.1484  0.1351
 5372TIP3    H216056   7.471   0.298   3.318 -0.1340  0.3726 -0.3504
 5373TIP3   OH216057   3.310   5.875   3.222  0.4413  0.6054 -0.0082
 5373TIP3    H116058   3.315   5.921   3.139 -0.1454  0.4544 -0.1315
 5373TIP3    H216059   3.328   5.783   3.200 -2.1324  0.1494 -0.3704
 5374TIP3   OH216060   2.091   6.852   1.592  0.2084  0.6467  0.2563
 5374TIP3    H116061   2.130   6.798   1.660 -0.5147 -1.2721 -0.8274
 5374TIP3    H216062   1.997   6.844   1.605  0.0356 -0.5963 -1.5934
 5375TIP3   OH216063   3.581   4.184   2.627 -0.4713 -0.3318 -0.5607
 5375TIP3    H116064   3.504   4.127   2.632 -1.9805  1.5848 -1.0856
 5375TIP3    H216065   3.627   4.170   2.710 -1.5690 -1.2729 -0.1059
 5376TIP3   OH216066   1.912   6.181   2.892  0.0332 -0.6306  0.2057
 5376TIP3    H116067   1.945   6.168   2.803 -0.3859 -1.0835  0.1168
 5376TIP3    H216068   1.975   6.135   2.948 -0.9674 -2.3253 -0.0388
 5377TIP3   OH216069   2.271   6.990   2.821  0.3208 -0.2186 -0.2229
 5377TIP3    H116070   2.198   7.043   2.853  0.6706  0.3672 -0.3778
 5377TIP3    H216071   2.332   7.054   2.784  0.3134 -0.8011 -1.2862
 5378TIP3   OH216072   8.094   3.896   3.743  0.2389 -0.0622  0.0517
 5378TIP3    H116073   8.019   3.929   3.693 -0.9611 -0.4087  1.5842
 5378TIP3    H216074   8.116   3.813   3.702 -0.1655  0.0781 -0.4525
 5379TIP3   OH216075   3.334   5.757   1.716  0.0227 -0.0679 -0.1464
 5379TIP3    H116076   3.395   5.761   1.790  0.8365  0.4329 -0.8459
 5379TIP3    H216077   3.390   5.746   1.639 -0.8247 -0.5729 -0.6973
 5380TIP3   OH216078   0.167   0.710   4.502  0.8871  0.2917  0.0105
 5380TIP3    H116079   0.224   0.767   4.552  0.9558  0.6802 -0.5068
 5380TIP3    H216080   0.131   0.766   4.433 -0.1340  0.0609  0.3436
 5381TIP3   OH216081   5.302   0.652   2.605  0.0730 -0.8191  0.2427
 5381TIP3    H116082   5.285   0.558   2.596  0.2077 -0.6262 -2.2888
 5381TIP3    H216083   5.215   0.691   2.613  0.0240 -1.1540  1.4707
 5382TIP3   OH216084   5.718   6.815   1.284 -0.7412 -0.2813 -0.0853
 5382TIP3    H116085   5.631   6.808   1.245 -0.5730 -0.1087 -0.5010
 5382TIP3    H216086   5.774   6.843   1.211 -0.8585  2.4356  0.7968
 5383TIP3   OH216087   3.185   3.195   6.235 -0.5513  0.2027 -0.0513
 5383TIP3    H116088   3.279   3.215   6.239 -0.5613  0.1148  0.7526
 5383TIP3    H216089   3.143   3.279   6.216 -0.3768  0.4119  0.4842
 5384TIP3   OH216090   3.726   7.975   3.497  0.6250 -0.3250 -0.2467
 5384TIP3    H116091   3.662   7.919   3.453  1.4655 -1.3499 -0.1735
 5384TIP3    H216092   3.809   7.929   3.486  1.1890  0.5154  0.5096
 5385TIP3   OH216093   4.186   5.428   2.853 -0.2840 -0.1356  0.0000
 5385TIP3    H116094   4.275   5.454   2.828  0.1748  0.1456  1.8800
 5385TIP3    H216095   4.176   5.458   2.943 -1.6882 -1.6647  0.3874
 5386TIP3   OH216096   4.285   7.257   2.086 -0.2378  0.8093 -0.8140
 5386TIP3    H116097   4.209   7.295   2.130 -0.0799  0.8251 -0.5532
 5386TIP3    H216098   4.355   7.260   2.151 -0.2145  0.1005 -0.8007
 5387TIP3   OH216099   8.325   0.738   3.016  0.7695  0.4197 -0.7010
 5387TIP3    H116100   8.317   0.788   2.935  3.5216  0.8211 -0.7740
 5387TIP3    H216101   8.400   0.778   3.061 -1.6172  1.2483  2.7962
 5388TIP3   OH216102   0.318   6.199   0.340 -0.5385  0.8002 -0.2178
 5388TIP3    H116103   0.250   6.163   0.396 -2.5872  0.4067 -2.8588
 5388TIP3    H216104   0.279   6.279   0.303  0.2717  0.4260 -1.9730
 5389TIP3   OH216105   8.025   1.392   1.571  0.1104  0.4595 -0.0633
 5389TIP3    H116106   7.945   1.445   1.575 -0.4256 -0.2123 -1.6283
 5389TIP3    H216107   8.006   1.325   1.505  1.7503 -0.0752 -0.0079
 5390TIP3   OH216108   5.631   5.942   1.854 -0.8153  0.2433 -0.1305
 5390TIP3    H116109   5.684   6.020   1.871 -1.2872  0.1955  1.7062
 5390TIP3    H216110   5.667   5.876   1.914 -0.2864 -1.0247 -1.8085
 5391TIP3   OH216111   0.309   0.143   2.281 -0.2072 -0.2275 -0.1292
 5391TIP3    H116112   0.300   0.072   2.344  0.6559  1.1776  1.6182
 5391TIP3    H216113   0.219   0.173   2.265 -0.4028 -0.3096  0.7838
 5392TIP3   OH216114   7.478   3.223   6.091 -0.1724 -0.6021 -0.3644
 5392TIP3    H116115   7.385   3.202   6.101  0.1028 -1.2174  1.0305
 5392TIP3    H216116   7.516   3.143   6.054 -0.2701 -0.1784 -1.4039
 5393TIP3   OH216117   1.435   4.468   6.685 -0.0247  0.1219 -0.0611
 5393TIP3    H116118   1.411   4.376   6.677 -0.1403  0.2779 -1.7236
 5393TIP3    H216119   1.480   4.489   6.603 -1.2744  1.9230 -0.3214
 5394TIP3   OH216120   4.631   7.432   3.805 -0.3518 -0.0929  0.1700
 5394TIP3    H116121   4.607   7.354   3.755  0.4843 -0.3683  0.1906
 5394TIP3    H216122   4.548   7.468   3.835 -0.6874 -1.8305  1.4570
 5395TIP3   OH216123   2.444   5.114   6.139  0.0589  0.1760  0.0639
 5395TIP3    H116124   2.410   5.159   6.217  1.2835  0.4692  0.4427
 5395TIP3    H216125   2.537   5.101   6.158  0.2517 -0.2176 -1.1382
 5396TIP3   OH216126   2.270   5.980   1.549  0.1944  0.1462  0.7244
 5396TIP3    H116127   2.338   6.042   1.524  0.6794 -0.7881 -0.2924
 5396TIP3    H216128   2.295   5.952   1.638  0.1358  1.1589  1.0669
 5397TIP3   OH216129   6.418   7.494   1.596  0.2784 -1.1953  0.3977
 5397TIP3    H116130   6.432   7.560   1.529 -0.3741 -1.1161  0.3303
 5397TIP3    H216131   6.472   7.522   1.669 -0.5994 -0.1546  0.6616
 5398TIP3   OH216132   2.176   6.526   4.580 -1.4235  0.5565 -0.1927
 5398TIP3    H116133   2.135   6.444   4.609 -1.2835  0.5215 -0.0888
 5398TIP3    H216134   2.161   6.587   4.652 -3.7951  1.3945 -1.3562
 5399TIP3   OH216135   2.701   5.064   3.234 -0.1390  0.1091  0.2745
 5399TIP3    H116136   2.708   5.122   3.159  1.5679  0.8626  1.0030
 5399TIP3    H216137   2.641   5.109   3.294 -1.6127 -0.5595 -0.6609
 5400TIP3   OH216138   1.952   4.121   1.434  0.1299 -0.1291  0.1135
 5400TIP3    H116139   2.011   4.159   1.368 -0.1526 -0.7096 -0.4733
 5400TIP3    H216140   1.892   4.066   1.384  0.2727 -1.0258  0.9268
 5401TIP3   OH216141   4.981   7.030   1.327  0.1274 -0.3992 -0.4055
 5401TIP3    H116142   4.966   7.059   1.417  1.2200 -0.4083 -0.2154
 5401TIP3    H216143   4.934   6.946   1.321 -2.3393  0.9593 -0.7212
 5402TIP3   OH216144   6.782   1.018   1.940  0.4539 -0.4426  0.1138
 5402TIP3    H116145   6.757   1.008   1.848 -5.3335 -0.6060  1.4875
 5402TIP3    H216146   6.768   1.111   1.959 -1.2883 -0.9601  1.4952
 5403TIP3   OH216147   1.140   6.355   0.053 -0.0915 -0.3995  0.2596
 5403TIP3    H116148   1.220   6.351   0.105 -0.7117  1.2977  1.3982
 5403TIP3    H216149   1.093   6.275   0.076  0.1450 -0.1964  1.5315
 5404TIP3   OH216150   5.421   3.751   6.909  0.1707 -0.6263 -0.2492
 5404TIP3    H116151   5.449   3.693   6.980  0.6458 -1.3764 -1.0437
 5404TIP3    H216152   5.414   3.694   6.832  1.6569  0.5296 -1.2886
 5405TIP3   OH216153   2.603   5.775   3.578 -0.1218 -0.1808  0.0658
 5405TIP3    H116154   2.549   5.709   3.535  0.3609 -1.2936  1.1457
 5405TIP3    H216155   2.662   5.806   3.509 -1.9090  0.8281 -1.0426
 5406TIP3   OH216156   3.684   7.482   1.564 -0.0501  0.6795 -0.1696
 5406TIP3    H116157   3.744   7.422   1.608 -0.3203  0.6483  0.1574
 5406TIP3    H216158   3.601   7.435   1.563 -0.3080  1.1271  0.2515
 5407TIP3   OH216159   4.716   6.166   1.904  0.4699  0.1882  0.0460
 5407TIP3    H116160   4.709   6.086   1.851 -1.0695 -1.3668  2.4717
 5407TIP3    H216161   4.693   6.138   1.992 -1.1760  3.5599  0.7629
 5408TIP3   OH216162   2.092   7.897   0.026 -1.0714  0.3293  0.1883
 5408TIP3    H116163   2.101   7.806   0.056  0.7282  0.8636  1.3015
 5408TIP3    H216164   2.106   7.950   0.105  2.2180  1.7039 -1.2222
 5409TIP3   OH216165   3.400   6.785   1.340  0.3442 -0.1923 -0.6544
 5409TIP3    H116166   3.398   6.710   1.400  0.2941  0.8296  0.6578
 5409TIP3    H216167   3.493   6.798   1.322  0.4008 -0.1417 -0.3290
 5410TIP3   OH216168   4.120   5.627   1.165  0.3009 -0.2121 -0.2538
 5410TIP3    H116169   4.048   5.677   1.127  1.5546  0.1605 -2.2087
 5410TIP3    H216170   4.141   5.672   1.246 -1.4110 -0.0987  0.1385
 5411TIP3   OH216171   7.484   2.356   6.666 -0.5313  0.1472 -0.9067
 5411TIP3    H116172   7.556   2.331   6.607 -0.0934 -1.8425  0.4065
 5411TIP3    H216173   7.412   2.299   6.641  0.0958 -1.7059  1.3548
 5412TIP3   OH216174   3.310   6.759   5.958 -0.0775 -0.1578 -0.2430
 5412TIP3    H116175   3.385   6.703   5.976 -0.5973 -0.2656  1.7504
 5412TIP3    H216176   3.239   6.722   6.011 -0.8057  1.5276 -0.0091
 5413TIP3   OH216177   3.750   5.559   0.840 -0.3013  0.1088  0.2649
 5413TIP3    H116178   3.781   5.649   0.847  0.9378 -0.3830  1.2611
 5413TIP3    H216179   3.670   5.565   0.788  0.2671  1.6677 -0.4393
 5414TIP3   OH216180   2.173   6.605   0.864  0.3722 -0.0636 -0.0552
 5414TIP3    H116181   2.161   6.691   0.904  0.2440  1.1450 -2.5757
 5414TIP3    H216182   2.084   6.578   0.839  0.4784 -0.6831  0.2316
 5415TIP3   OH216183   3.878   6.710   2.615 -0.4761  0.4770 -0.0920
 5415TIP3    H116184   3.930   6.708   2.534 -0.6268  0.4280 -0.1876
 5415TIP3    H216185   3.806   6.770   2.596 -0.5453  0.4186 -0.0143
 5416TIP3   OH216186   4.166   5.365   2.518  0.3154  0.4980  0.0889
 5416TIP3    H116187   4.184   5.318   2.437  0.6454  2.5363 -1.0525
 5416TIP3    H216188   4.250   5.370   2.563  0.0720 -0.9064  0.7345
 5417TIP3   OH216189   5.556   5.877   2.564 -0.1395 -0.2325  0.4955
 5417TIP3    H116190   5.515   5.839   2.642  0.8540 -0.9937  0.6672
 5417TIP3    H216191   5.609   5.949   2.598  1.2472 -1.3106  0.7078
 5418TIP3   OH216192   3.864   6.085   2.298 -0.5729  0.0260 -0.5603
 5418TIP3    H116193   3.904   6.014   2.247  1.0992  0.9398 -0.5474
 5418TIP3    H216194   3.814   6.040   2.366  2.2054 -1.1523  0.7602
 5419TIP3   OH216195   3.768   3.495   6.891  0.5906 -0.0107 -0.2357
 5419TIP3    H116196   3.739   3.418   6.940 -1.2771  0.0648 -1.1658
 5419TIP3    H216197   3.847   3.466   6.845 -0.1440 -1.3907 -0.6340
 5420TIP3   OH216198   2.430   6.570   6.821  0.4431 -0.0667 -0.7061
 5420TIP3    H116199   2.406   6.542   6.733 -1.1874 -0.6870 -0.0969
 5420TIP3    H216200   2.407   6.663   6.824  0.9678  0.0768 -1.0830
 5421TIP3   OH216201   3.666   6.471   3.739  0.3525 -0.7269  0.3770
 5421TIP3    H116202   3.656   6.518   3.656  0.2277 -0.4180  0.5655
 5421TIP3    H216203   3.592   6.411   3.741  1.4494 -2.1373 -0.6498
 5422TIP3   OH216204   2.091   3.458   6.208 -0.3319 -0.0412  0.2600
 5422TIP3    H116205   2.116   3.402   6.135  0.6525  2.7130 -1.6316
 5422TIP3    H216206   2.165   3.519   6.217 -1.4908  1.1399  2.0025
 5423TIP3   OH216207   5.094   7.176   2.796  0.3443  0.3158 -0.1581
 5423TIP3    H116208   5.105   7.270   2.783  0.4451  0.3461  0.1327
 5423TIP3    H216209   5.139   7.136   2.722  0.7448  0.4889 -0.0113
 5424TIP3   OH216210   6.392   7.126   1.316  0.3649  0.5326  0.3413
 5424TIP3    H116211   6.366   7.169   1.397 -1.1091 -1.9545  1.2509
 5424TIP3    H216212   6.327   7.155   1.252 -0.3041  0.1031  0.8167
 5425TIP3   OH216213   7.350   1.374   1.348 -0.1230 -0.2643  0.3116
 5425TIP3    H116214   7.436   1.398   1.382  0.1715  0.1695 -0.7336
 5425TIP3    H216215   7.309   1.326   1.420 -0.0481  1.8586  1.8494
 5426TIP3   OH216216   2.270   3.358   6.730  0.0751 -0.3279 -0.6240
 5426TIP3    H116217   2.277   3.413   6.807 -0.1044 -1.5269  0.2663
 5426TIP3    H216218   2.211   3.405   6.671  0.7714  0.9230 -0.3355
 5427TIP3   OH216219   4.567   7.465   1.517  0.3646 -0.3130  0.2051
 5427TIP3    H116220   4.493   7.524   1.499 -0.1155 -1.1906 -0.7208
 5427TIP3    H216221   4.641   7.503   1.470  0.8731  1.3212  2.2251
 5428TIP3   OH216222   1.009   0.661   0.710 -0.3549  0.7537 -0.0264
 5428TIP3    H116223   1.000   0.700   0.623 -0.1030  0.2754 -0.2665
 5428TIP3    H216224   1.094   0.617   0.708 -0.1793  1.0584  0.5876
 5429TIP3   OH216225   1.366   0.768   1.470 -0.7021  0.3760  0.4865
 5429TIP3    H116226   1.413   0.790   1.551  0.0893  1.8864 -0.3721
 5429TIP3    H216227   1.421   0.802   1.400 -0.1381 -3.0769 -0.8712
 5430TIP3   OH216228   6.264   6.582   1.225 -0.4486 -0.2799  0.0649
 5430TIP3    H116229   6.212   6.629   1.159 -0.1305 -1.1450 -0.8173
 5430TIP3    H216230   6.262   6.639   1.302 -2.2695 -0.0720 -0.1265
 5431TIP3   OH216231   5.474   7.797   2.791 -1.1398 -0.1523  0.1537
 5431TIP3    H116232   5.539   7.819   2.858 -0.5298  0.2224 -0.5484
 5431TIP3    H216233   5.412   7.869   2.793  0.3939  1.2906 -1.5635
 5432TIP3   OH216234   6.838   7.944   1.986  0.0796  0.1315  0.5068
 5432TIP3    H116235   6.898   7.975   1.918  0.2797 -1.2623  0.0317
 5432TIP3    H216236   6.782   8.019   2.005  1.8940  1.4276  0.8724
 5433TIP3   OH216237   6.228   6.086   2.737 -0.4503 -0.0213  0.2175
 5433TIP3    H116238   6.301   6.142   2.712  0.3557 -1.0966  0.1652
 5433TIP3    H216239   6.216   6.028   2.662 -0.5319 -0.6968  0.7578
 5434TIP3   OH216240   4.804   7.346   2.030 -0.1791  0.1229 -0.3182
 5434TIP3    H116241   4.858   7.411   1.986 -1.0736  1.0599 -0.0676
 5434TIP3    H216242   4.778   7.389   2.112 -1.4221 -0.2553 -0.5108
 5435TIP3   OH216243   6.267   0.607   1.306  0.3024 -1.0292  0.0333
 5435TIP3    H116244   6.314   0.546   1.363 -0.6057 -0.8073  1.0427
 5435TIP3    H216245   6.217   0.550   1.247 -0.6352 -1.2806  1.0502
 5436TIP3   OH216246   6.101   7.544   0.508 -0.0298 -0.3033 -0.1931
 5436TIP3    H116247   6.065   7.477   0.449 -0.7825  0.3964 -0.5390
 5436TIP3    H216248   6.157   7.597   0.451 -0.3690  0.0761 -0.1717
 5437TIP3   OH216249   4.072   7.691   2.804 -0.0664 -0.3665 -0.0073
 5437TIP3    H116250   4.097   7.755   2.872  1.8410 -1.4182  0.3161
 5437TIP3    H216251   4.025   7.743   2.739  1.5083  1.4118  0.2233
 5438TIP3   OH216252   0.402   0.241   0.537 -0.1928 -0.4675 -0.1034
 5438TIP3    H116253   0.339   0.208   0.601 -0.2839  2.2353  1.2524
 5438TIP3    H216254   0.483   0.253   0.587 -0.6501  3.0002 -0.1245
 5439TIP3   OH216255   6.149   7.227   1.198  0.2611  0.8091 -0.3467
 5439TIP3    H116256   6.189   7.162   1.140 -0.9022  0.2512 -0.5276
 5439TIP3    H216257   6.112   7.292   1.138  2.8466  2.5468 -0.1599
 5440TIP3   OH216258   5.888   0.669   0.401 -0.5770 -0.1987 -0.6475
 5440TIP3    H116259   5.916   0.760   0.412  0.9164 -0.7823  0.5325
 5440TIP3    H216260   5.937   0.638   0.325 -2.3411  0.4520 -2.0882
 5441TIP3   OH216261   4.921   7.586   0.917  0.4524 -0.2033  0.1021
 5441TIP3    H116262   4.916   7.678   0.894 -0.6154 -0.1623  0.4353
 5441TIP3    H216263   4.998   7.553   0.872  0.3202  0.6474 -0.7555
 5442TIP3   OH216264   0.591   1.175   1.040  0.5490 -0.0092 -0.2913
 5442TIP3    H116265   0.532   1.105   1.011  0.3386  0.0879 -0.1028
 5442TIP3    H216266   0.532   1.248   1.061  0.6828 -0.1236  0.5031
 5443TIP3   OH216267   2.970   3.363   5.545 -0.1693  0.0366  0.1283
 5443TIP3    H116268   2.909   3.306   5.499 -1.6891  1.2713  0.5569
 5443TIP3    H216269   2.914   3.422   5.595  1.3844  1.2747  0.4438
 5444TIP3   OH216270   0.057   0.802   0.757  0.2121 -0.0803 -0.7749
 5444TIP3    H116271   0.088   0.714   0.779 -0.0900  0.3567  1.5121
 5444TIP3    H216272   0.120   0.860   0.799  0.0383  0.8081 -1.7366
 5445TIP3   OH216273   4.597   5.951   2.622 -0.6517  0.3655 -0.4621
 5445TIP3    H116274   4.636   6.005   2.691 -1.2569  0.4713 -0.2059
 5445TIP3    H216275   4.659   5.958   2.549  0.0461  0.1634  0.1048
 5446TIP3   OH216276   4.293   6.399   3.798 -0.2307 -0.6001  0.0682
 5446TIP3    H116277   4.229   6.388   3.728  1.3588  0.5207 -1.6064
 5446TIP3    H216278   4.336   6.482   3.778  0.9476 -0.7618  1.8203
 5447TIP3   OH216279   0.139   2.037   1.091 -0.0991 -0.1184  0.0729
 5447TIP3    H116280   0.119   2.066   1.180 -0.8893  0.0765 -0.1684
 5447TIP3    H216281   0.182   1.953   1.103 -0.7234 -0.3655  0.6118
 5448TIP3   OH216282   8.203   0.174   1.714 -0.5124 -0.0426  0.0616
 5448TIP3    H116283   8.268   0.191   1.646 -1.9718 -2.0373 -1.9185
 5448TIP3    H216284   8.249   0.119   1.777 -0.1718 -1.2262 -1.1913
 5449TIP3   OH216285   1.516   4.195   5.923  0.6705  0.4621 -0.3506
 5449TIP3    H116286   1.427   4.165   5.942  0.3460  0.8009 -1.3081
 5449TIP3    H216287   1.562   4.116   5.895  0.0459  0.6559 -2.0399
 5450TIP3   OH216288   5.761   7.382   3.213 -0.2625 -0.2523 -0.5098
 5450TIP3    H116289   5.828   7.348   3.273 -0.5593  0.5829  0.3073
 5450TIP3    H216290   5.744   7.310   3.153 -0.1211 -1.1873  0.5472
 5451TIP3   OH216291   5.426   5.226   2.598  0.0943 -0.2903 -0.5698
 5451TIP3    H116292   5.480   5.147   2.596  0.1152 -0.2564 -1.5670
 5451TIP3    H216293   5.364   5.214   2.526  1.4897  1.5784 -2.1465
 5452TIP3   OH216294   5.523   7.669   1.055 -0.3901  0.7083  0.0559
 5452TIP3    H116295   5.468   7.698   1.128 -0.5693  0.8870 -0.1513
 5452TIP3    H216296   5.480   7.703   0.977 -1.3377 -1.2764 -0.3055
 5453TIP3   OH216297   5.045   5.439   1.013  0.1047 -0.1891 -0.0191
 5453TIP3    H116298   5.090   5.421   1.096  2.6276 -1.6674 -1.6318
 5453TIP3    H216299   4.960   5.397   1.022  1.3867 -2.7151  0.8321
 5454TIP3   OH216300   5.536   7.682   1.540 -0.1244 -0.3451 -0.1094
 5454TIP3    H116301   5.612   7.690   1.598  1.4311  2.1289 -2.3594
 5454TIP3    H216302   5.468   7.645   1.596  1.5379  1.1557  3.0957
 5455TIP3   OH216303   3.669   6.291   1.848 -0.8548  0.0823  0.1184
 5455TIP3    H116304   3.728   6.312   1.920 -0.6763 -1.3872  0.4137
 5455TIP3    H216305   3.594   6.250   1.889  0.0920 -2.5196 -0.6683
 5456TIP3   OH216306   2.125   4.512   6.063 -0.2383  0.2145  0.1010
 5456TIP3    H116307   2.070   4.585   6.036  0.1007  0.5769  0.3810
 5456TIP3    H216308   2.184   4.549   6.129  0.1162 -0.2444  0.0481
 5457TIP3   OH216309   7.480   0.084   1.156  0.0803 -0.7706 -0.9457
 5457TIP3    H116310   7.574   0.070   1.142  0.5517  1.8246 -0.6644
 5457TIP3    H216311   7.450   0.126   1.076 -0.8377 -1.5659 -1.0180
 5458TIP3   OH216312   8.192  -0.010   2.904  0.3531 -0.1387 -0.3031
 5458TIP3    H116313   8.182   0.075   2.860 -0.8721  0.6541  1.4587
 5458TIP3    H216314   8.184   0.010   2.997 -1.1921 -2.3542  0.0822
 5459TIP3   OH216315   8.066   0.456   0.079 -0.5760 -0.0878 -0.2180
 5459TIP3    H116316   7.975   0.456   0.107 -0.4619  0.2808  0.1563
 5459TIP3    H216317   8.074   0.379   0.021 -1.6507  1.0905 -1.9749
 5460TIP3   OH216318   0.696   0.348   0.453 -0.0533 -0.1102  0.1056
 5460TIP3    H116319   0.669   0.341   0.545  0.9891 -1.2803  0.3274
 5460TIP3    H216320   0.649   0.277   0.409 -0.3178  0.2637 -0.2192
 5461TIP3   OH216321   6.708   7.324   3.286  0.6595  0.0763 -0.1689
 5461TIP3    H116322   6.703   7.267   3.209  0.6004 -0.8394  0.5006
 5461TIP3    H216323   6.777   7.285   3.340  0.9984  0.9610  0.0479
 5462TIP3   OH216324   6.971   0.781   0.837  0.0312  0.0589  0.5271
 5462TIP3    H116325   6.888   0.798   0.880 -0.5314  0.4275 -0.6733
 5462TIP3    H216326   6.947   0.739   0.754  1.0641 -0.2724  0.3823
 5463TIP3   OH216327   2.024   1.559   6.379  0.0337  0.5080  0.2257
 5463TIP3    H116328   2.110   1.549   6.339 -1.7064 -0.3146 -3.5229
 5463TIP3    H216329   2.014   1.482   6.434  1.1009 -0.1334 -0.4683
 5464TIP3   OH216330   7.990   1.060   0.966 -0.8927  0.0545  0.0914
 5464TIP3    H116331   7.955   1.123   0.903 -0.6643  0.6083  0.5136
 5464TIP3    H216332   7.958   0.975   0.936  0.1372  0.1799 -1.4090
 5465TIP3   OH216333   8.056  -0.003   0.046  0.5713 -0.8755 -0.2000
 5465TIP3    H116334   7.979   0.033   0.001  1.2300 -1.1604 -1.5994
 5465TIP3    H216335   8.119   0.069   0.046  0.8080 -1.0814 -0.3186
 5466TIP3   OH216336   3.477   7.294   1.365  0.5575  0.4242  0.2299
 5466TIP3    H116337   3.434   7.212   1.342 -0.6724  0.8503  0.9670
 5466TIP3    H216338   3.570   7.272   1.369  0.2400 -0.9390  0.4205
 5467TIP3   OH216339   5.986   6.874   1.387  0.1099  0.3100  0.3817
 5467TIP3    H116340   6.000   6.967   1.406  1.3911  0.0170  0.9284
 5467TIP3    H216341   6.065   6.831   1.421 -1.3184 -1.1975  1.8430
 5468TIP3   OH216342   7.615   0.071   0.237 -0.0280  0.0702  0.2383
 5468TIP3    H116343   7.608   0.157   0.195 -1.6078 -0.4637 -0.6323
 5468TIP3    H216344   7.638   0.090   0.328 -0.1448  1.3899  0.0014
 5469TIP3   OH216345   2.455   4.348   5.938  0.1402  0.2195 -0.0605
 5469TIP3    H116346   2.429   4.360   5.847 -1.5253 -0.2817  0.3382
 5469TIP3    H216347   2.376   4.320   5.983  1.1568 -0.4589  1.3729
 5470TIP3   OH216348   1.688   3.319   6.087  0.1019 -0.3057 -0.2044
 5470TIP3    H116349   1.748   3.247   6.109 -1.2018 -0.5077  2.9803
 5470TIP3    H216350   1.604   3.277   6.073 -0.3881  0.4489  0.4282
 5471TIP3   OH216351   5.921   6.814   0.369  0.0155  0.0768  0.8405
 5471TIP3    H116352   5.906   6.782   0.280  0.2838  1.4233  0.2974
 5471TIP3    H216353   5.893   6.742   0.425 -0.1173 -0.8052 -0.3348
 5472TIP3   OH216354   3.242   6.903   2.845  0.6359  1.1302 -0.1118
 5472TIP3    H116355   3.269   6.832   2.903 -1.0327  0.8635  0.3388
 5472TIP3    H216356   3.325   6.939   2.813  1.5228 -0.4299  0.3472
 5473TIP3   OH216357   7.485   2.441   2.131 -0.0133  0.3019 -0.6612
 5473TIP3    H116358   7.542   2.430   2.207 -0.3822 -0.0195 -0.4307
 5473TIP3    H216359   7.538   2.492   2.069  0.0602  1.1338  0.0633
 5474TIP3   OH216360   7.458   0.412   0.875  0.8030  0.4149 -0.0355
 5474TIP3    H116361   7.379   0.465   0.859  0.7781  0.9565  1.8056
 5474TIP3    H216362   7.529   0.475   0.881  1.2175  0.0092 -0.6260
 5475TIP3   OH216363   1.439   4.899   5.806  0.0106  0.4157 -0.4524
 5475TIP3    H116364   1.474   4.885   5.718  1.4028  0.5565  0.0629
 5475TIP3    H216365   1.513   4.933   5.856 -0.5717 -0.3320  0.9548
 5476TIP3   OH216366   1.020   1.463   3.055  0.2854  0.2106 -0.0207
 5476TIP3    H116367   1.026   1.512   2.973  0.7000 -1.0925 -0.7836
 5476TIP3    H216368   1.049   1.524   3.122  1.6029  0.7482 -1.0711
 5477TIP3   OH216369   6.214   6.755   1.937 -0.0904  0.7522  0.0904
 5477TIP3    H116370   6.120   6.739   1.948  0.0569 -0.4258 -0.2632
 5477TIP3    H216371   6.223   6.784   1.847 -0.2629  2.0895  0.4979
 5478TIP3   OH216372   5.082   4.504   1.431  0.0767 -0.2705 -0.4351
 5478TIP3    H116373   5.089   4.410   1.415 -2.9796 -0.5155 -0.7392
 5478TIP3    H216374   5.033   4.511   1.512  0.5270  1.0632 -0.2628
 5479TIP3   OH216375   3.815   7.179   2.973 -0.1176 -0.1417 -0.2192
 5479TIP3    H116376   3.881   7.227   2.922  0.2957 -1.5194 -1.0173
 5479TIP3    H216377   3.838   7.195   3.064  0.2050  0.8970 -0.4757
 5480TIP3   OH216378   8.019   0.322   1.994 -0.4027  0.1061 -0.4656
 5480TIP3    H116379   7.992   0.378   2.067  0.5606 -0.6033  0.4292
 5480TIP3    H216380   7.959   0.347   1.922 -0.9260  1.2547  0.3540
 5481TIP3   OH216381   1.943   4.303   6.909 -0.5826  0.5221  0.1933
 5481TIP3    H116382   1.970   4.354   6.832  1.9678 -0.8969  0.1155
 5481TIP3    H216383   1.848   4.293   6.898 -0.6282  2.4048 -1.5079
 5482TIP3   OH216384   5.379   7.411   1.042  0.2649 -0.7015 -0.0961
 5482TIP3    H116385   5.314   7.437   1.108 -0.1640 -0.1940 -0.7051
 5482TIP3    H216386   5.460   7.454   1.069  0.0881 -0.4864  0.0902
 5483TIP3   OH216387   5.122   7.868   1.584 -0.4576  0.3427 -0.3142
 5483TIP3    H116388   5.147   7.856   1.493 -0.5998  1.9608 -0.5761
 5483TIP3    H216389   5.036   7.826   1.592 -0.7829  0.8601 -1.1045
 5484TIP3   OH216390   2.178   5.476   6.062  0.3614  0.0711 -0.5154
 5484TIP3    H116391   2.191   5.388   6.096  0.6384  0.6381  0.8861
 5484TIP3    H216392   2.226   5.478   5.980  0.5566 -1.0123 -0.4282
 5485TIP3   OH216393   3.329   7.886   1.677  0.6644 -0.0515  0.2504
 5485TIP3    H116394   3.403   7.833   1.706  1.2586  1.0855  0.8806
 5485TIP3    H216395   3.333   7.884   1.581  2.4823  1.2855  0.2721
 5486TIP3   OH216396   3.237   6.424   2.610 -0.0174  0.5797  0.1367
 5486TIP3    H116397   3.290   6.502   2.629 -0.2971  1.0622 -1.0078
 5486TIP3    H216398   3.155   6.459   2.575 -0.0469 -0.2260 -0.6231
 5487TIP3   OH216399   6.370   6.473   1.892 -0.0974 -0.1002 -0.2183
 5487TIP3    H116400   6.375   6.550   1.835 -0.8360  0.4446  0.4357
 5487TIP3    H216401   6.316   6.501   1.966 -2.1999 -1.8851 -1.0179
 5488TIP3   OH216402   8.108   0.110   1.228  0.2297 -0.6716 -0.1102
 5488TIP3    H116403   8.070   0.034   1.273 -1.9741 -0.4533 -1.5722
 5488TIP3    H216404   8.099   0.090   1.135 -2.7078  2.4312 -0.6028
 5489TIP3   OH216405   8.409   0.718   1.044 -0.3082  0.4550 -0.0772
 5489TIP3    H116406   8.461   0.657   0.992  1.5347  0.8371  1.2687
 5489TIP3    H216407   8.318   0.701   1.018  0.3805 -1.1256 -1.5172
 5490TIP3   OH216408   3.466   3.572   5.392  0.0441  0.3907 -0.2756
 5490TIP3    H116409   3.434   3.573   5.302  1.2784  0.9615 -0.7190
 5490TIP3    H216410   3.391   3.544   5.444 -0.7913  0.4440 -1.4379
 5491TIP3   OH216411   4.386   7.576   0.419  0.1568 -0.2812  0.4978
 5491TIP3    H116412   4.459   7.579   0.357 -1.1076 -4.4040 -1.2831
 5491TIP3    H216413   4.312   7.614   0.371  0.0382 -0.1297  0.7970
 5492TIP3   OH216414   5.973   7.713   0.955 -0.5198  0.4142 -0.0411
 5492TIP3    H116415   5.907   7.732   0.888 -0.5142  0.6166  0.0095
 5492TIP3    H216416   6.053   7.753   0.920 -0.2843 -0.3620 -0.3921
 5493TIP3   OH216417   6.742   1.019   0.834 -0.0653 -0.3386  0.0696
 5493TIP3    H116418   6.828   1.022   0.791  1.2185  0.5773  2.5880
 5493TIP3    H216419   6.732   1.106   0.872 -2.1147 -0.4684 -0.1571
 5494TIP3   OH216420   5.214   7.852   1.849 -0.4910  0.2845 -0.0434
 5494TIP3    H116421   5.181   7.886   1.766  1.1615 -1.2402 -1.3581
 5494TIP3    H216422   5.250   7.766   1.827  0.7615  0.2381  2.0977
 5495TIP3   OH216423   2.139   4.636   2.140  0.2242  0.5426 -0.0640
 5495TIP3    H116424   2.232   4.643   2.119  0.3076  0.8719  0.4030
 5495TIP3    H216425   2.094   4.654   2.057  0.5507  1.7146  0.0119
 5496TIP3   OH216426   6.407   1.111   1.752  0.1475 -0.0662 -0.2608
 5496TIP3    H116427   6.443   1.189   1.794  0.1062 -0.3403  0.2863
 5496TIP3    H216428   6.387   1.051   1.825 -0.1696 -0.4372 -0.6503
 5497TIP3   OH216429   5.930   0.467   2.458 -0.1504  0.3147  0.0266
 5497TIP3    H116430   5.974   0.541   2.500  0.4753  0.0077 -0.0796
 5497TIP3    H216431   6.001   0.416   2.419 -0.5534 -0.4744  0.3105
 5498TIP3   OH216432   7.542   0.589   1.831 -0.1083  0.3141 -0.3126
 5498TIP3    H116433   7.499   0.609   1.914  0.6503 -0.5214  0.2888
 5498TIP3    H216434   7.520   0.497   1.815 -1.9201  1.0164 -2.0522
 5499TIP3   OH216435   4.605   7.895   2.065 -0.1316  0.5748  0.3717
 5499TIP3    H116436   4.614   7.807   2.101  0.4451 -0.0156 -1.1580
 5499TIP3    H216437   4.680   7.943   2.099 -1.2990  0.9320  2.4761
 5500TIP3   OH216438   3.880   7.081   1.064 -0.4317  0.6755  0.1333
 5500TIP3    H116439   3.787   7.096   1.045 -0.1336  2.1799 -0.1878
 5500TIP3    H216440   3.925   7.103   0.983  0.0518 -2.3610 -0.5023
 5501TIP3   OH216441   1.631   0.648   0.358  0.3357  0.3210 -0.3816
 5501TIP3    H116442   1.620   0.649   0.453  0.7280 -0.8890 -0.3146
 5501TIP3    H216443   1.563   0.706   0.325  0.9242  1.6740  0.7095
 5502TIP3   OH216444   6.407   2.285   0.691  0.3926  0.2868 -0.0860
 5502TIP3    H116445   6.429   2.196   0.719 -0.1376  0.7733  1.9195
 5502TIP3    H216446   6.488   2.319   0.654  1.5481  0.1466  2.2543
 5503TIP3   OH216447   4.996   7.492   1.153  0.1217  0.3030 -0.3699
 5503TIP3    H116448   4.937   7.418   1.163  2.1514 -1.2672  0.4273
 5503TIP3    H216449   4.986   7.520   1.062 -1.5978 -0.1273 -0.3177
 5504TIP3   OH216450   6.402   6.658   1.692 -0.0824  0.0254 -0.1919
 5504TIP3    H116451   6.490   6.682   1.664 -0.0121 -0.2740 -0.2296
 5504TIP3    H216452   6.355   6.741   1.697  0.2097  0.1894 -0.1414
 5505TIP3   OH216453   8.218   0.890   2.549 -0.2583  0.4712  0.1125
 5505TIP3    H116454   8.307   0.857   2.540  0.3077  2.0413 -0.1801
 5505TIP3    H216455   8.173   0.860   2.470  0.2127  0.3382 -0.1087
 5506TIP3   OH216456   0.698   1.354   2.679 -0.0141  0.3303 -0.1040
 5506TIP3    H116457   0.612   1.313   2.675 -0.4730  1.3791 -1.1946
 5506TIP3    H216458   0.682   1.440   2.717  0.7856 -0.0626  1.1527
 5507TIP3   OH216459   1.512   0.666   1.721 -0.2772  0.0936 -0.3924
 5507TIP3    H116460   1.473   0.581   1.701 -0.1921 -0.0211 -0.0588
 5507TIP3    H216461   1.567   0.651   1.797  0.9423  0.1161 -1.2485
 5508TIP3   OH216462   3.732   6.742   3.521 -0.4171 -0.0422  0.2139
 5508TIP3    H116463   3.763   6.670   3.465 -1.1120 -0.1381 -0.0520
 5508TIP3    H216464   3.639   6.751   3.499 -0.4165  0.7005  0.5063
 5509TIP3   OH216465   0.665   0.307   3.092  0.4552  0.5472  0.4045
 5509TIP3    H116466   0.571   0.301   3.110  0.4275  0.2020  0.1409
 5509TIP3    H216467   0.674   0.386   3.038  0.3923  0.9119  0.9165
 5510TIP3   OH216468   3.995   7.285   1.237 -0.5603  0.7198  0.0495
 5510TIP3    H116469   3.937   7.263   1.164  0.0119  0.8555 -0.4532
 5510TIP3    H216470   4.003   7.380   1.232  0.3714  0.6225 -0.3987
 5511TIP3   OH216471   7.585   6.975   2.187 -0.0763 -0.3496 -0.1354
 5511TIP3    H116472   7.668   7.023   2.182  1.0024 -2.0104  1.3085
 5511TIP3    H216473   7.548   6.984   2.099  1.5761  0.5248 -0.7804
 5512TIP3   OH216474   5.258   6.882   0.885  0.0700 -0.6592 -0.1947
 5512TIP3    H116475   5.200   6.909   0.957 -0.2711 -1.0657 -0.3125
 5512TIP3    H216476   5.222   6.797   0.857  0.8550 -1.0125 -0.1300
 5513TIP3   OH216477   6.891   6.409   2.429 -0.2757 -0.0247  0.0169
 5513TIP3    H116478   6.827   6.351   2.471  1.6761 -2.3704 -0.1665
 5513TIP3    H216479   6.933   6.455   2.502 -1.6723  1.0469  0.1746
 5514TIP3   OH216480   7.762   0.726   2.154  0.1494  0.1926 -0.1909
 5514TIP3    H116481   7.764   0.758   2.064 -0.5788  3.8878  0.9938
 5514TIP3    H216482   7.671   0.735   2.181  0.6176  0.4803  1.3608
 5515TIP3   OH216483   8.488   5.014   6.941 -0.1580  1.1038  0.1825
 5515TIP3    H116484   8.437   5.094   6.927  0.2818  1.1550 -1.2363
 5515TIP3    H216485   8.521   4.992   6.854 -1.2910 -1.3068  0.3306
 5516TIP3   OH216486   6.960   1.451   2.951  0.2441  0.2087 -0.0452
 5516TIP3    H116487   6.902   1.519   2.917 -0.3224 -0.9954 -1.5315
 5516TIP3    H216488   6.974   1.476   3.043 -0.0040  2.2726 -0.5451
 5517TIP3   OH216489   7.734   0.682   1.308 -0.5603  0.0353  0.0277
 5517TIP3    H116490   7.651   0.670   1.263  0.2470 -0.4929 -1.3439
 5517TIP3    H216491   7.744   0.604   1.362 -0.2038 -0.6478 -1.0197
 5518TIP3   OH216492   0.326   0.615   1.380  0.2122 -0.3563  0.2686
 5518TIP3    H116493   0.306   0.691   1.434 -2.3469 -0.7763 -0.0162
 5518TIP3    H216494   0.365   0.651   1.301  0.8583  0.5136  0.9803
 5519TIP3   OH216495   3.002   7.379   3.560 -0.2260  0.4577 -0.0335
 5519TIP3    H116496   2.941   7.389   3.487 -1.4186 -0.1576  0.8400
 5519TIP3    H216497   3.010   7.284   3.571  0.4538  0.5439  0.2057
 5520TIP3   OH216498   8.459   0.872   2.837 -0.0035 -0.4160  0.5030
 5520TIP3    H116499   8.553   0.878   2.856  0.0646  2.7613 -0.4090
 5520TIP3    H216500   8.453   0.810   2.765  1.1462 -2.3755  2.0530
 5521TIP3   OH216501   0.419   1.804   2.547  0.1186  0.0407  0.4373
 5521TIP3    H116502   0.512   1.810   2.524 -0.3344  2.0241 -1.0811
 5521TIP3    H216503   0.375   1.783   2.464 -0.7812 -0.9627  1.1579
 5522TIP3   OH216504   1.890   1.269   5.184 -0.0307 -0.2448  0.1870
 5522TIP3    H116505   1.863   1.345   5.236  1.0950  0.0800  0.3140
 5522TIP3    H216506   1.862   1.194   5.235  1.1195  0.0737  1.3038
 5523TIP3   OH216507   1.236   0.208   3.069 -0.0264  0.1967  0.7732
 5523TIP3    H116508   1.255   0.277   3.133 -0.0923 -0.5112  1.5651
 5523TIP3    H216509   1.246   0.126   3.118 -0.8417 -0.3294  0.0809
 5524TIP3   OH216510   4.805   6.795   1.356 -0.5331  0.0823  0.0190
 5524TIP3    H116511   4.806   6.714   1.307 -0.8595 -1.9628  3.2430
 5524TIP3    H216512   4.713   6.821   1.360 -0.4705  0.4169 -0.6943
 5525TIP3   OH216513   7.550   7.788   2.124  0.3971  0.4446  0.2654
 5525TIP3    H116514   7.558   7.836   2.206  0.3994  0.4959  0.2353
 5525TIP3    H216515   7.553   7.856   2.056 -0.0857  0.4458  0.2448
 5526TIP3   OH216516   5.980   7.986   1.722  0.2876  0.2127 -0.0960
 5526TIP3    H116517   6.030   7.913   1.758  1.3887  0.9330 -0.1309
 5526TIP3    H216518   5.957   7.958   1.634 -0.3196 -0.5708  0.3031
 5527TIP3   OH216519   0.131   0.264   1.734 -0.1573 -0.4179  0.2374
 5527TIP3    H116520   0.082   0.325   1.679  0.2600  1.4369  1.8535
 5527TIP3    H216521   0.178   0.208   1.672  1.5482  2.6198 -1.3592
 5528TIP3   OH216522   4.324   6.128   2.921 -0.4565  0.8046  0.4148
 5528TIP3    H116523   4.339   6.072   2.845 -0.0435 -0.8950  1.7334
 5528TIP3    H216524   4.396   6.109   2.980 -1.1892  1.5615  1.5700
 5529TIP3   OH216525   1.216   2.003   2.269 -0.0154  0.4288  0.5729
 5529TIP3    H116526   1.304   2.025   2.239  0.4301  0.1120  1.6186
 5529TIP3    H216527   1.202   1.913   2.241 -0.3112  0.7375 -0.2756
 5530TIP3   OH216528   7.751   7.532   2.669 -1.0093  0.3822 -0.3930
 5530TIP3    H116529   7.740   7.548   2.762 -0.7857  2.3824 -0.6765
 5530TIP3    H216530   7.664   7.549   2.631 -0.6514  1.4676 -0.7633
 5531TIP3   OH216531   5.342   7.060   1.798 -0.4588 -0.7650  0.0171
 5531TIP3    H116532   5.396   7.101   1.865 -1.0646  2.1040 -1.1768
 5531TIP3    H216533   5.261   7.037   1.843 -0.0928 -0.7070  0.7119
 5532TIP3   OH216534   2.040   0.699   1.328 -0.0996 -0.0326  0.5417
 5532TIP3    H116535   2.084   0.763   1.384  3.8665 -1.7219 -0.4570
 5532TIP3    H216536   2.029   0.744   1.244  1.3862 -0.1248  0.2787
 5533TIP3   OH216537   5.090   6.148   0.350  0.3731  0.1493  0.2576
 5533TIP3    H116538   5.071   6.139   0.443  0.4234  0.0132  0.2541
 5533TIP3    H216539   5.128   6.236   0.342  0.9911 -0.0980  0.4664
 5534TIP3   OH216540   6.726   7.994   1.722  0.0996 -0.2983 -0.1204
 5534TIP3    H116541   6.663   8.000   1.651 -0.1845 -0.0814  0.1449
 5534TIP3    H216542   6.794   7.935   1.690  0.5041  0.6183 -0.9699
 5535TIP3   OH216543   8.395   0.234   1.514  0.0890  0.0153  0.3257
 5535TIP3    H116544   8.428   0.144   1.517 -2.0349 -0.8158  0.2800
 5535TIP3    H216545   8.423   0.267   1.428  0.6847 -0.6823  0.2476
 5536TIP3   OH216546   2.876   6.658   0.306 -0.2401  0.1769  0.0863
 5536TIP3    H116547   2.827   6.657   0.224 -2.0787 -2.2737  1.1655
 5536TIP3    H216548   2.842   6.732   0.354 -0.9929  0.0761 -0.2934
 5537TIP3   OH216549   1.699   6.152   1.761 -0.2638 -0.2366  0.5995
 5537TIP3    H116550   1.719   6.064   1.728  1.4159  0.0756  0.7428
 5537TIP3    H216551   1.706   6.144   1.856  0.9880  0.2855  0.5691
 5538TIP3   OH216552   7.522   0.403   0.517 -0.4672  0.1851 -0.7373
 5538TIP3    H116553   7.569   0.469   0.568 -1.1727  0.3573 -0.3099
 5538TIP3    H216554   7.577   0.325   0.522 -0.4776  0.2407  0.1712
 5539TIP3   OH216555   0.219   1.592   1.017  0.4377 -0.1653  0.1117
 5539TIP3    H116556   0.249   1.668   1.067  0.0756 -0.9386  1.5375
 5539TIP3    H216557   0.262   1.601   0.932  1.4964  0.8933  0.7390
 5540TIP3   OH216558   3.386   6.946   3.160 -0.1380  0.0821 -0.0909
 5540TIP3    H116559   3.431   7.027   3.135 -1.3146  0.9141  0.4461
 5540TIP3    H216560   3.420   6.880   3.099  0.9747  0.9298 -0.4035
 5541TIP3   OH216561   6.331   5.642   1.083 -0.0204  0.2304 -0.3304
 5541TIP3    H116562   6.256   5.613   1.031  0.2728 -1.2940  0.0576
 5541TIP3    H216563   6.326   5.737   1.083 -1.8254  0.1450 -0.4903
 5542TIP3   OH216564   6.551   7.327   2.042 -0.2829 -0.3482  0.0179
 5542TIP3    H116565   6.618   7.261   2.060  0.5740  0.6290  0.5251
 5542TIP3    H216566   6.495   7.287   1.975  1.0435 -1.0421 -0.7063
 5543TIP3   OH216567   4.936   7.509   2.756 -0.3566 -0.2120 -0.0385
 5543TIP3    H116568   4.931   7.595   2.797  0.1274  0.4199 -1.2581
 5543TIP3    H216569   5.026   7.480   2.771 -0.6711 -0.7631  0.8463
 5544TIP3   OH216570   8.068   0.344   2.578 -0.2186  0.3294 -0.2974
 5544TIP3    H116571   7.984   0.363   2.619 -1.4483 -0.3641 -2.4579
 5544TIP3    H216572   8.068   0.395   2.497  0.6962 -1.0636 -1.1943
 5545TIP3   OH216573   8.092   0.693   1.351 -0.2294  0.1682 -0.1953
 5545TIP3    H116574   8.082   0.783   1.384 -1.4842 -0.4715  1.2091
 5545TIP3    H216575   8.138   0.647   1.420  1.5806  0.0170 -1.4610
 5546TIP3   OH216576   4.081   4.126   6.884  0.0172  0.1758 -0.1722
 5546TIP3    H116577   4.143   4.063   6.848  0.4523 -0.1850  1.1628
 5546TIP3    H216578   4.133   4.205   6.898  0.2044 -0.1502  1.0160
 5547TIP3   OH216579   0.999   0.199   1.416 -0.2237 -0.3483 -0.3733
 5547TIP3    H116580   0.959   0.229   1.334  0.0680 -0.1405 -0.4406
 5547TIP3    H216581   1.092   0.217   1.404 -0.3018  0.6131  0.4127
 5548TIP3   OH216582   1.295   3.125   2.458  0.6378 -0.4087 -0.2865
 5548TIP3    H116583   1.355   3.060   2.496 -0.0679 -1.1898 -0.4902
 5548TIP3    H216584   1.234   3.073   2.405 -0.8655  0.2494  0.7663
 5549TIP3   OH216585   7.411   5.180   1.948 -0.1072  0.3971 -0.6728
 5549TIP3    H116586   7.367   5.166   2.031  2.6931 -1.1130  0.6343
 5549TIP3    H216587   7.362   5.127   1.885 -2.3175  1.6611 -0.0730
 5550TIP3   OH216588   2.729   0.926   0.937  0.3463 -0.8110 -0.1020
 5550TIP3    H116589   2.750   1.011   0.897  0.6216 -0.5822  0.5235
 5550TIP3    H216590   2.795   0.914   1.005  0.0686 -1.3424  0.0790
 5551TIP3   OH216591   8.161   1.528   0.647 -0.2916  0.2761  0.6271
 5551TIP3    H116592   8.219   1.551   0.720 -0.4408  0.9725  0.5287
 5551TIP3    H216593   8.212   1.547   0.568  0.0527 -0.9642  0.5528
 5552TIP3   OH216594   7.342   7.140   0.255  0.1985 -0.1856 -0.0352
 5552TIP3    H116595   7.304   7.136   0.343  0.0680  1.6061 -0.0032
 5552TIP3    H216596   7.296   7.212   0.212  3.7105  2.2380  0.1038
 5553TIP3   OH216597   0.170   0.507   1.589  0.1293 -0.2130  0.6240
 5553TIP3    H116598   0.085   0.548   1.607 -1.1797 -3.0322  1.1311
 5553TIP3    H216599   0.232   0.555   1.644 -1.9046 -1.0070  3.7284
 5554TIP3   OH216600   3.018   2.776   6.161 -0.4786  0.3348  0.0893
 5554TIP3    H116601   3.076   2.848   6.184  0.5505 -0.3376 -0.3367
 5554TIP3    H216602   2.941   2.817   6.122 -0.4440  1.2580  1.0047
 5555TIP3   OH216603   2.919   0.552   0.942 -0.3274 -0.0163  0.0217
 5555TIP3    H116604   2.881   0.506   1.017 -0.2666 -0.6921 -0.3564
 5555TIP3    H216605   2.994   0.599   0.979 -0.1060 -0.6008  0.3247
 5556TIP3   OH216606   6.411   7.902   1.706  0.2138 -0.6254  0.1174
 5556TIP3    H116607   6.434   7.985   1.665  0.1919 -0.4155  0.5237
 5556TIP3    H216608   6.470   7.895   1.781  0.3145 -1.0459 -0.0015
 5557TIP3   OH216609   7.909   0.918   1.281  0.4647 -0.0870 -0.8804
 5557TIP3    H116610   7.903   0.829   1.317 -0.8070 -0.6044 -2.3177
 5557TIP3    H216611   7.957   0.907   1.199  1.2739  0.7304 -0.5247
 5558TIP3   OH216612   7.450   7.450   2.420 -0.3232 -0.0233  0.0611
 5558TIP3    H116613   7.445   7.474   2.513  0.9784 -0.4560  0.2459
 5558TIP3    H216614   7.504   7.519   2.381  0.6124 -0.8029 -0.0360
 5559TIP3   OH216615   4.123   7.009   2.779 -0.6248  0.1215  0.5943
 5559TIP3    H116616   4.039   6.963   2.786 -2.1709  2.5987 -0.9169
 5559TIP3    H216617   4.101   7.101   2.795  1.9260  0.7365  0.7353
 5560TIP3   OH216618   8.278   1.789   1.798 -0.1935  0.1184  0.1320
 5560TIP3    H116619   8.209   1.737   1.838 -0.3112 -0.9632 -1.4136
 5560TIP3    H216620   8.234   1.840   1.730  0.6661 -1.4510 -1.6559
 5561TIP3   OH216621   7.199   1.203   2.627  0.4962  0.3207 -0.5161
 5561TIP3    H116622   7.216   1.151   2.705  1.9183 -0.9046 -1.5976
 5561TIP3    H216623   7.160   1.284   2.659  1.2406 -0.0824  1.4723
 5562TIP3   OH216624   1.144   2.327   2.596  0.5559  0.6571  0.4520
 5562TIP3    H116625   1.178   2.241   2.620  0.5086  1.1035  2.2244
 5562TIP3    H216626   1.211   2.365   2.539  1.2456  0.0228  0.8407
 5563TIP3   OH216627   0.767   0.149   1.573 -0.3113 -0.3403  0.1697
 5563TIP3    H116628   0.837   0.202   1.535 -1.3213  0.7717 -0.1522
 5563TIP3    H216629   0.695   0.210   1.587 -1.7870 -1.7642 -0.9679
 5564TIP3   OH216630   2.776   1.218   1.892  0.2225 -0.4274  0.2062
 5564TIP3    H116631   2.705   1.272   1.927  0.8169  0.3393  0.2262
 5564TIP3    H216632   2.841   1.216   1.962  0.5439 -0.5266 -0.0944
 5565TIP3   OH216633   5.423   6.742   2.319  0.1871 -0.3960  0.1222
 5565TIP3    H116634   5.442   6.768   2.409  1.1232 -0.7089  0.0216
 5565TIP3    H216635   5.356   6.674   2.326 -0.6773  0.4779  0.5068
 5566TIP3   OH216636   8.100   6.067   1.829 -0.6617  0.1483 -0.3640
 5566TIP3    H116637   8.026   6.026   1.874 -0.0983 -0.2494  0.2144
 5566TIP3    H216638   8.116   6.011   1.753 -1.2107  0.4571 -0.7018
 5567TIP3   OH216639   0.296   6.555   2.251  0.2357 -0.2486 -0.8688
 5567TIP3    H116640   0.203   6.533   2.254  0.3301 -0.7811 -1.6115
 5567TIP3    H216641   0.337   6.497   2.314  0.2031 -0.7439 -1.3033
 5568TIP3   OH216642   6.475   6.688   2.052  0.7019  0.3215  0.3366
 5568TIP3    H116643   6.430   6.704   2.135 -0.5986  0.5361 -0.3874
 5568TIP3    H216644   6.416   6.724   1.986  1.0383 -1.1119 -0.7811
 5569TIP3   OH216645   1.765   0.672   4.008  0.1935  0.1446 -0.4161
 5569TIP3    H116646   1.674   0.689   4.031  0.5069  0.0827  0.8819
 5569TIP3    H216647   1.760   0.603   3.942 -0.7990  1.5564 -1.8557
 5570TIP3   OH216648   0.739   2.537   1.661 -0.2117  0.1007 -0.7311
 5570TIP3    H116649   0.738   2.502   1.572  0.2101 -0.4254 -0.5363
 5570TIP3    H216650   0.767   2.628   1.650 -1.2263  0.3600 -1.2338
 5571TIP3   OH216651   6.189   6.669   2.722  0.7326 -0.1859 -0.2678
 5571TIP3    H116652   6.242   6.599   2.760 -0.0191 -0.9476 -0.5957
 5571TIP3    H216653   6.179   6.644   2.630  1.5559  1.0371 -0.6987
 5572TIP3   OH216654   0.233   2.200   2.870  0.0556 -0.0488 -0.2605
 5572TIP3    H116655   0.213   2.188   2.777  0.2896 -0.7898 -0.2184
 5572TIP3    H216656   0.246   2.111   2.903  1.3948  0.2983  0.1689
 5573TIP3   OH216657   1.071   2.192   3.300  0.2287 -0.1497  0.0247
 5573TIP3    H116658   1.100   2.282   3.283 -0.6050 -0.0058 -0.6620
 5573TIP3    H216659   1.099   2.143   3.223 -0.9894 -0.0939 -0.4515
 5574TIP3   OH216660   5.906   7.124   0.923  0.7078  0.4826 -0.4708
 5574TIP3    H116661   5.872   7.155   0.839 -0.1886  3.5047  0.9441
 5574TIP3    H216662   5.872   7.186   0.987  2.0521 -1.2984  2.0474
 5575TIP3   OH216663   5.893   7.550   2.375  0.2341  0.1170 -0.5439
 5575TIP3    H116664   5.881   7.559   2.470 -0.1461  0.3245 -0.6124
 5575TIP3    H216665   5.826   7.607   2.337  0.3731  0.0161 -0.9376
 5576TIP3   OH216666   8.000   6.208   3.307 -0.1584 -0.0683  0.3742
 5576TIP3    H116667   7.955   6.269   3.249  2.1713  2.0604  0.7076
 5576TIP3    H216668   7.989   6.122   3.266 -0.6945  1.0542 -1.8741
 5577TIP3   OH216669   1.457   2.471   6.725  0.4442 -0.0693 -0.6335
 5577TIP3    H116670   1.541   2.510   6.750  0.8493 -1.6682  0.5855
 5577TIP3    H216671   1.393   2.512   6.784  0.7262 -0.5086 -0.0092
 5578TIP3   OH216672   3.854   7.206   0.124 -0.1384 -0.0865 -0.0917
 5578TIP3    H116673   3.867   7.112   0.138 -0.4946  0.1828  2.1545
 5578TIP3    H216674   3.762   7.213   0.099 -0.1548 -0.3178 -0.1023
 5579TIP3   OH216675   2.208   1.888   6.804 -0.4851 -0.0936  1.0263
 5579TIP3    H116676   2.247   1.801   6.816 -0.5545 -0.3187 -0.3369
 5579TIP3    H216677   2.197   1.922   6.893  1.5342 -0.5979  1.4774
 5580TIP3   OH216678   2.175   0.998   4.110 -0.2956  0.1790  0.1100
 5580TIP3    H116679   2.266   0.988   4.137 -0.5700  0.0963  1.0057
 5580TIP3    H216680   2.141   0.908   4.109 -0.3573  0.2040 -0.2839
 5581TIP3   OH216681   7.663   7.732   4.574  0.1646  0.2187  0.0239
 5581TIP3    H116682   7.638   7.824   4.584 -2.2341 -0.2257 -1.5607
 5581TIP3    H216683   7.609   7.686   4.638  1.1340 -0.1557  0.5891
 5582TIP3   OH216684   7.125   7.693   4.256 -0.0496 -0.1555 -0.3489
 5582TIP3    H116685   7.187   7.649   4.198 -0.1758 -0.8470  0.0254
 5582TIP3    H216686   7.045   7.701   4.204 -0.1472 -0.7316 -0.2970
 5583TIP3   OH216687   4.906   0.061   3.432 -0.9364  0.8800 -0.0693
 5583TIP3    H116688   4.939   0.003   3.363 -0.4100 -0.6371  1.4411
 5583TIP3    H216689   4.830   0.015   3.468  0.2248  0.4766  1.9774
 5584TIP3   OH216690   4.715   4.731   0.352 -0.1590 -0.8084 -0.4763
 5584TIP3    H116691   4.674   4.728   0.439 -1.0348 -1.1465 -0.8879
 5584TIP3    H216692   4.656   4.680   0.297  1.1268 -1.7625 -0.9765
 5585TIP3   OH216693   0.648   7.238   2.996  0.3594 -0.1334 -0.0669
 5585TIP3    H116694   0.555   7.239   2.973  0.7402 -1.8128 -1.7864
 5585TIP3    H216695   0.675   7.330   2.992 -1.0192  0.2710 -0.3757
 5586TIP3   OH216696   6.352   7.800   5.715 -0.2765  0.3374 -0.1119
 5586TIP3    H116697   6.315   7.727   5.765  0.6689  0.4905  0.8413
 5586TIP3    H216698   6.435   7.767   5.681 -0.9516  0.2077 -1.6798
 5587TIP3   OH216699   0.412   7.037   2.734 -0.1785 -0.1203  0.0476
 5587TIP3    H116700   0.360   7.100   2.784  0.1308  0.4783 -0.3801
 5587TIP3    H216701   0.383   6.952   2.766 -0.7961  0.2295  0.4359
 5588TIP3   OH216702   2.212   1.473   4.232 -0.3699 -0.6458 -0.1928
 5588TIP3    H116703   2.215   1.398   4.172 -0.9131 -0.8781  0.0698
 5588TIP3    H216704   2.119   1.482   4.255 -0.2841 -0.0002 -0.0862
 5589TIP3   OH216705   0.762   0.442   5.631  0.2086 -0.1666  0.3258
 5589TIP3    H116706   0.685   0.498   5.624 -0.1008 -0.6661 -0.4176
 5589TIP3    H216707   0.745   0.370   5.570  0.2978 -1.4277  1.7630
 5590TIP3   OH216708   0.446   1.358   3.454 -0.3587  0.3491  0.8187
 5590TIP3    H116709   0.369   1.308   3.482  0.1994  0.1178  1.9852
 5590TIP3    H216710   0.439   1.442   3.500 -0.8914  1.0450 -0.5360
 5591TIP3   OH216711   0.548   0.904   4.103  0.0454  0.0509  0.0164
 5591TIP3    H116712   0.635   0.943   4.113 -0.2047  0.2940  1.3034
 5591TIP3    H216713   0.516   0.939   4.019  1.9781 -1.6229 -1.4817
 5592TIP3   OH216714   1.418   1.245   4.302  0.5546  0.3258  0.7100
 5592TIP3    H116715   1.460   1.193   4.233  1.1678  0.2534  1.1309
 5592TIP3    H216716   1.344   1.192   4.332  0.2138  0.4126  0.0278
 5593TIP3   OH216717   6.773   4.603   0.877 -0.3425  0.3760  0.1212
 5593TIP3    H116718   6.693   4.552   0.863 -0.7500  1.0591 -0.0707
 5593TIP3    H216719   6.807   4.617   0.788 -0.0433  0.1397  0.1990
 5594TIP3   OH216720   8.491   6.901   2.997  0.5497 -0.1890 -0.1726
 5594TIP3    H116721   8.410   6.949   3.012 -0.6043 -1.5091 -2.0042
 5594TIP3    H216722   8.496   6.839   3.070 -1.3609 -1.7333 -1.2884
 5595TIP3   OH216723   5.835   6.558   0.513 -0.0231 -0.4778 -0.5177
 5595TIP3    H116724   5.835   6.518   0.600  1.2955 -0.1456 -0.3507
 5595TIP3    H216725   5.848   6.485   0.453 -1.3919 -0.7663 -0.4795
 5596TIP3   OH216726   2.405   0.720   5.929 -0.0489 -0.7496 -0.2745
 5596TIP3    H116727   2.425   0.679   6.014 -0.9716  0.4241  0.5341
 5596TIP3    H216728   2.446   0.663   5.864 -0.5294 -2.4496  0.8797
 5597TIP3   OH216729   2.471   0.306   4.865 -0.0860  0.5570  0.1493
 5597TIP3    H116730   2.416   0.384   4.872  0.2827  0.7183  1.4674
 5597TIP3    H216731   2.487   0.281   4.956  0.0096 -0.9105 -0.2689
 5598TIP3   OH216732   2.719   0.532   5.535 -0.3978  0.2570 -0.0413
 5598TIP3    H116733   2.665   0.596   5.490 -0.7102 -0.7837 -1.1754
 5598TIP3    H216734   2.801   0.578   5.552 -0.7979  1.1157 -0.3866
 5599TIP3   OH216735   7.298   5.897   4.178  0.3510 -0.2585  0.2155
 5599TIP3    H116736   7.305   5.802   4.179  2.3604 -0.1389 -0.1774
 5599TIP3    H216737   7.253   5.916   4.095  0.0499 -0.8554  0.2369
 5600TIP3   OH216738   0.073   6.665   4.239 -0.1133 -0.2574 -0.4340
 5600TIP3    H116739   0.020   6.744   4.227 -0.2471 -0.1528  0.7921
 5600TIP3    H216740   0.080   6.655   4.334  1.8690 -0.4009 -0.5662
 5601TIP3   OH216741   0.411   7.837   4.927  0.3669  0.2861 -0.1317
 5601TIP3    H116742   0.460   7.911   4.962 -0.3504  2.3364 -3.2534
 5601TIP3    H216743   0.474   7.791   4.871  0.9081 -1.7272  2.0538
 5602TIP3   OH216744   6.839   1.758   5.995  0.6004  0.2268 -1.1302
 5602TIP3    H116745   6.805   1.754   6.084  3.5592  0.7717  0.0810
 5602TIP3    H216746   6.892   1.679   5.985  0.4651  0.2760 -2.3334
 5603TIP3   OH216747   8.444   6.743   3.503 -0.1486  0.1812  0.2746
 5603TIP3    H116748   8.505   6.788   3.446  0.1836 -0.6034 -0.0045
 5603TIP3    H216749   8.382   6.810   3.531 -0.6985  0.4296 -1.5232
 5604TIP3   OH216750   2.444   0.101   4.635  0.0794 -0.5706  0.1465
 5604TIP3    H116751   2.409   0.021   4.672 -0.8281  0.2073  1.0079
 5604TIP3    H216752   2.387   0.122   4.561 -2.5934  1.7285  2.6955
 5605TIP3   OH216753   8.321   6.517   4.149  0.3599 -0.5209 -0.2525
 5605TIP3    H116754   8.345   6.490   4.060  1.1496  1.4878 -0.6854
 5605TIP3    H216755   8.385   6.586   4.170 -1.3105  0.6870  0.9436
 5606TIP3   OH216756   1.490   7.926   3.591 -0.2062  0.1937  0.1195
 5606TIP3    H116757   1.546   7.982   3.644 -0.3308 -0.6193  1.1341
 5606TIP3    H216758   1.417   7.982   3.566 -0.3535  0.4831  1.1596
 5607TIP3   OH216759   6.837   6.988   4.868  0.3959 -0.0580  0.5521
 5607TIP3    H116760   6.858   7.034   4.787  0.0483 -0.2617  0.3497
 5607TIP3    H216761   6.752   6.948   4.852  1.2503 -1.8074  0.2984
 5608TIP3   OH216762   2.313   0.545   6.692  0.3671  0.0454  0.0255
 5608TIP3    H116763   2.288   0.490   6.617 -1.3914 -0.0965  0.7064
 5608TIP3    H216764   2.384   0.600   6.658  0.6494 -1.0958 -1.2956
 5609TIP3   OH216765   2.033   0.221   3.793  0.2431  0.2920 -0.5887
 5609TIP3    H116766   2.043   0.309   3.827  0.9720  0.5984 -1.5813
 5609TIP3    H216767   2.101   0.212   3.726  1.2261 -1.5719  0.6164
 5610TIP3   OH216768   5.788   7.910   6.200  0.0228  0.6285  0.3772
 5610TIP3    H116769   5.737   7.840   6.158  1.1964  0.2043 -0.3466
 5610TIP3    H216770   5.828   7.868   6.276 -1.4582  1.2035  1.5136
 5611TIP3   OH216771   2.734   0.430   3.313 -0.9636 -0.2207 -1.0594
 5611TIP3    H116772   2.758   0.353   3.363  0.5952  0.9945  0.1319
 5611TIP3    H216773   2.785   0.423   3.232  1.4691  0.9849  0.3032
 5612TIP3   OH216774   1.318   0.502   6.471  0.1356  0.1249  0.0593
 5612TIP3    H116775   1.230   0.466   6.456  1.2326 -2.3705 -0.7721
 5612TIP3    H216776   1.316   0.588   6.429 -2.5350  1.0232  1.8817
 5613TIP3   OH216777   3.127   0.395   4.584 -0.3277 -0.3324  0.2814
 5613TIP3    H116778   3.151   0.479   4.545 -1.5581 -0.3271 -0.4955
 5613TIP3    H216779   3.206   0.366   4.629  1.8419 -1.3940 -3.9812
 5614TIP3   OH216780   7.297   7.261   3.903  0.7251 -0.3453  0.0516
 5614TIP3    H116781   7.219   7.258   3.958  0.7445  0.9273  0.1724
 5614TIP3    H216782   7.274   7.321   3.832  1.7357  0.4046  0.3420
 5615TIP3   OH216783   0.918   7.589   3.317  0.2158  0.0054 -0.4780
 5615TIP3    H116784   0.983   7.527   3.284  0.6802  0.7486 -0.9886
 5615TIP3    H216785   0.871   7.618   3.239 -1.0027 -0.8200 -0.0634
 5616TIP3   OH216786   3.721   1.277   4.659 -0.2309  0.2822 -0.5561
 5616TIP3    H116787   3.638   1.306   4.697 -1.0986  1.1084 -2.9703
 5616TIP3    H216788   3.702   1.190   4.623  0.4518 -0.2923  0.4456
 5617TIP3   OH216789   3.640   0.786   4.293 -0.5133 -0.6695  0.2501
 5617TIP3    H116790   3.732   0.780   4.269 -0.4864 -2.0457  0.6575
 5617TIP3    H216791   3.598   0.714   4.246 -1.6248  0.7399 -0.9835
 5618TIP3   OH216792   3.836   0.786   3.272 -0.7134  0.2185 -0.3747
 5618TIP3    H116793   3.877   0.730   3.338 -1.4556  1.9282  1.5871
 5618TIP3    H216794   3.745   0.792   3.298 -1.3190 -0.0881 -2.3073
 5619TIP3   OH216795   2.593   1.705   4.846  0.2843 -0.6726  0.0776
 5619TIP3    H116796   2.541   1.780   4.817  1.9378 -0.2738 -2.0037
 5619TIP3    H216797   2.587   1.708   4.941  0.1816  2.0397  0.0504
 5620TIP3   OH216798   0.221   0.335   5.563 -0.4536  0.4280 -0.3589
 5620TIP3    H116799   0.269   0.418   5.572  0.7349 -0.3167  0.1960
 5620TIP3    H216800   0.134   0.354   5.598 -0.2033  1.4613 -0.2725
 5621TIP3   OH216801   8.192   7.468   2.545 -0.0923 -0.7486  0.3623
 5621TIP3    H116802   8.136   7.413   2.599 -1.3127  0.9337  0.8579
 5621TIP3    H216803   8.166   7.447   2.455  1.0817 -2.6450  0.4286
 5622TIP3   OH216804   1.178   0.455   3.985 -0.1030 -0.3247  0.0426
 5622TIP3    H116805   1.132   0.470   4.067 -0.8898 -1.1544 -0.2344
 5622TIP3    H216806   1.250   0.518   3.985 -1.3974  1.1867  0.3604
 5623TIP3   OH216807   8.495   7.852   3.597  0.6556 -0.6136 -0.7298
 5623TIP3    H116808   8.434   7.882   3.665 -0.3536 -1.3035 -1.3079
 5623TIP3    H216809   8.509   7.759   3.617  1.8371 -0.3596 -0.3705
 5624TIP3   OH216810   0.703   7.056   3.211  0.5207  0.3676  0.0429
 5624TIP3    H116811   0.635   7.106   3.256 -1.3261 -2.2304  0.2993
 5624TIP3    H216812   0.700   7.086   3.121  0.7376  2.0066  0.5680
 5625TIP3   OH216813   4.599   0.658   5.659 -0.0366 -0.0839  0.2326
 5625TIP3    H116814   4.529   0.678   5.722 -1.3512 -0.6951 -1.0180
 5625TIP3    H216815   4.554   0.613   5.587  1.4817  0.5361 -1.1061
 5626TIP3   OH216816   7.576   7.977   4.447  0.4070 -0.0766 -0.3783
 5626TIP3    H116817   7.544   7.914   4.383  2.3050 -2.3253  0.8252
 5626TIP3    H216818   7.625   8.041   4.396 -1.3989  0.3923 -1.5814
 5627TIP3   OH216819   3.784   2.769   4.474  0.5229  0.3783 -0.4130
 5627TIP3    H116820   3.799   2.731   4.388  0.0018  2.4476 -1.4485
 5627TIP3    H216821   3.871   2.795   4.505  0.8823 -1.6285  0.3124
 5628TIP3   OH216822   1.541   0.873   4.336 -0.4148 -0.3973  0.6730
 5628TIP3    H116823   1.556   0.962   4.306  0.5321 -0.9520 -0.5579
 5628TIP3    H216824   1.626   0.844   4.368 -0.7555 -0.8048  1.2119
 5629TIP3   OH216825   8.030   7.896   2.459 -0.4765 -0.2820 -0.5975
 5629TIP3    H116826   8.021   7.825   2.395  0.0282 -0.1639 -0.8018
 5629TIP3    H216827   8.076   7.966   2.412 -1.4831  0.4035 -0.5704
 5630TIP3   OH216828   7.964   7.603   3.956 -0.4251 -0.3242  0.0596
 5630TIP3    H116829   7.940   7.549   3.881 -1.0442  0.2905 -0.1947
 5630TIP3    H216830   7.885   7.603   4.011 -0.8482  1.3056 -0.5322
 5631TIP3   OH216831   1.721   3.766   5.156 -0.4029 -1.1920  0.2387
 5631TIP3    H116832   1.759   3.690   5.113 -0.4285 -1.2638  0.3443
 5631TIP3    H216833   1.710   3.740   5.248  1.0395 -0.5194  0.6109
 5632TIP3   OH216834   7.493   6.268   5.485  0.6205 -0.1831 -0.0692
 5632TIP3    H116835   7.426   6.329   5.516  0.7831  0.4040 -0.8780
 5632TIP3    H216836   7.500   6.203   5.555  2.4359  2.2308  2.0857
 5633TIP3   OH216837   4.134   5.135   0.760  0.4523 -0.1239  0.2623
 5633TIP3    H116838   4.174   5.123   0.846 -0.2943 -0.2986  0.5847
 5633TIP3    H216839   4.159   5.057   0.711  0.3552 -0.3152  0.5190
 5634TIP3   OH216840   5.802   7.574   5.176  0.3981  0.0415  0.6087
 5634TIP3    H116841   5.827   7.520   5.251 -0.6442  0.4019  1.2410
 5634TIP3    H216842   5.787   7.661   5.214 -0.7428  0.0823  0.0935
 5635TIP3   OH216843   2.131   1.303   6.877 -0.3163  0.0814 -0.0528
 5635TIP3    H116844   2.213   1.332   6.917 -0.1374  0.9580 -1.0463
 5635TIP3    H216845   2.063   1.344   6.931 -0.1695 -2.2024  1.9618
 5636TIP3   OH216846   1.806   0.382   3.545 -0.6071 -0.3101  0.0086
 5636TIP3    H116847   1.769   0.309   3.595 -0.3637 -0.9278 -0.6978
 5636TIP3    H216848   1.777   0.460   3.592 -0.8946 -0.8581  0.7619
 5637TIP3   OH216849   2.614   0.766   5.210  0.2735 -0.3859 -0.1337
 5637TIP3    H116850   2.622   0.862   5.217  0.1224 -0.2938 -1.1032
 5637TIP3    H216851   2.558   0.741   5.283  0.2478  0.2795  0.0785
 5638TIP3   OH216852   1.718   7.669   4.289 -0.0635 -0.0494 -0.0586
 5638TIP3    H116853   1.709   7.763   4.271 -1.5493 -0.4496 -1.4711
 5638TIP3    H216854   1.765   7.666   4.373 -1.0938  1.9698  0.6481
 5639TIP3   OH216855   2.083   0.571   4.242  0.0624  0.4356  0.4486
 5639TIP3    H116856   2.077   0.650   4.189  1.3235  0.2535  0.0274
 5639TIP3    H216857   2.093   0.500   4.179  0.6343  0.1148  0.8990
 5640TIP3   OH216858   2.180   3.226   5.092  0.4673 -0.3971 -0.4528
 5640TIP3    H116859   2.094   3.268   5.092 -0.4355 -2.1977  0.1103
 5640TIP3    H216860   2.163   3.136   5.119  2.5394 -0.7795 -0.3165
 5641TIP3   OH216861   3.353   0.870   3.109  0.3840 -0.7772  0.0395
 5641TIP3    H116862   3.437   0.903   3.141  0.1032 -1.3020  1.3445
 5641TIP3    H216863   3.296   0.871   3.186 -1.2935  1.0859 -1.1932
 5642TIP3   OH216864   3.057   1.923   5.405 -0.2479  0.4105  0.4802
 5642TIP3    H116865   3.008   1.944   5.484 -0.8092 -2.0436  0.8470
 5642TIP3    H216866   3.146   1.907   5.436 -0.4856 -0.6304  0.6500
 5643TIP3   OH216867   0.099   0.589   4.061  0.1340  0.5135 -0.1104
 5643TIP3    H116868   0.139   0.506   4.035 -0.5878  1.3460 -4.1991
 5643TIP3    H216869   0.168   0.654   4.051 -0.3625  0.9574 -0.7604
 5644TIP3   OH216870   2.838   0.980   6.173 -0.1504 -0.0945  0.2516
 5644TIP3    H116871   2.826   0.887   6.195 -2.1716 -0.0274 -0.3935
 5644TIP3    H216872   2.902   1.012   6.237  1.5227 -2.2189 -0.3102
 5645TIP3   OH216873   4.204   0.436   2.566  0.1823  0.4155  0.4437
 5645TIP3    H116874   4.138   0.464   2.630  1.6801  3.8746  0.5586
 5645TIP3    H216875   4.286   0.431   2.617  0.8074  0.2528 -0.5622
 5646TIP3   OH216876   1.140   7.812   5.894 -0.4521 -0.0004 -0.0790
 5646TIP3    H116877   1.098   7.878   5.841  0.1906  1.0512  0.7006
 5646TIP3    H216878   1.117   7.834   5.984 -0.2649 -0.8561  0.1907
 5647TIP3   OH216879   0.878   7.100   3.777 -0.1695  0.4870  0.0115
 5647TIP3    H116880   0.809   7.164   3.757 -0.5950 -0.1491 -0.5574
 5647TIP3    H216881   0.916   7.132   3.859 -1.0343  0.9331  0.2507
 5648TIP3   OH216882   2.943   1.150   3.147 -0.0607 -0.1663  0.9303
 5648TIP3    H116883   2.914   1.058   3.147 -0.3372 -0.1013 -1.7161
 5648TIP3    H216884   3.025   1.149   3.098  0.1426  0.9718  1.2373
 5649TIP3   OH216885   2.861   1.424   3.156 -0.8178  0.2406 -0.3822
 5649TIP3    H116886   2.889   1.334   3.140 -1.6731  0.2991 -2.3554
 5649TIP3    H216887   2.829   1.423   3.247  0.6523 -1.0482  0.1460
 5650TIP3   OH216888   4.058   2.110   6.666  0.2828  0.1946  0.3751
 5650TIP3    H116889   4.035   2.196   6.700 -3.0120  0.4893 -2.3499
 5650TIP3    H216890   4.133   2.126   6.608 -0.3322  1.2334 -0.1426
 5651TIP3   OH216891   3.535   0.090   5.586 -0.2696 -0.4587 -0.3483
 5651TIP3    H116892   3.584   0.102   5.504  0.8694  0.7981  0.4933
 5651TIP3    H216893   3.470   0.159   5.586 -0.1042 -0.2996 -0.0846
 5652TIP3   OH216894   6.117   0.834   5.835 -0.1355 -0.0553  0.7669
 5652TIP3    H116895   6.090   0.925   5.840 -2.1132 -0.5817  0.3781
 5652TIP3    H216896   6.213   0.836   5.830 -0.2278  2.0535 -0.6589
 5653TIP3   OH216897   4.474   1.125   5.843  0.1962 -0.4307 -0.2941
 5653TIP3    H116898   4.515   1.110   5.757 -0.2280 -2.7188 -0.1490
 5653TIP3    H216899   4.386   1.157   5.823 -0.0492 -1.3615 -0.7332
 5654TIP3   OH216900   0.825   7.784   3.773 -0.7787  0.0053  0.1639
 5654TIP3    H116901   0.791   7.861   3.728 -0.5653 -0.9822 -1.7346
 5654TIP3    H216902   0.920   7.800   3.778 -0.9669  0.7428  1.5133
 5655TIP3   OH216903   1.190   1.188   3.709  0.1201 -0.0604 -0.1038
 5655TIP3    H116904   1.208   1.272   3.666  1.3604 -0.4405 -0.3253
 5655TIP3    H216905   1.217   1.201   3.799 -0.7001  0.1139  0.1273
 5656TIP3   OH216906   7.101   7.406   2.904 -0.2907  0.3887 -0.0603
 5656TIP3    H116907   7.093   7.312   2.917 -0.3217  0.4749  0.5630
 5656TIP3    H216908   7.054   7.423   2.822 -1.9159  0.1187  0.7924
 5657TIP3   OH216909   1.245   8.022   4.199  0.0520 -0.2862  0.1145
 5657TIP3    H116910   1.238   8.032   4.104 -0.8216  0.4584  0.2480
 5657TIP3    H216911   1.267   7.929   4.212  1.2377 -0.1525 -0.8484
 5658TIP3   OH216912   1.186   7.721   6.459  0.3081 -0.3389 -0.3036
 5658TIP3    H116913   1.189   7.795   6.398 -2.0014 -1.2555 -1.6247
 5658TIP3    H216914   1.113   7.741   6.517 -0.6269 -1.7446 -0.9485
 5659TIP3   OH216915   1.984   2.090   3.931 -0.1030 -0.0614  0.4585
 5659TIP3    H116916   2.010   2.101   3.840 -0.0677 -0.4866  0.4157
 5659TIP3    H216917   1.968   1.996   3.940  0.5143 -0.1150  1.0563
 5660TIP3   OH216918   3.261   0.234   4.731 -0.3034  0.0534 -0.2102
 5660TIP3    H116919   3.189   0.261   4.787  1.3861 -0.4586  2.2827
 5660TIP3    H216920   3.231   0.152   4.691 -0.9405 -0.4038  1.1702
 5661TIP3   OH216921   1.735   7.756   6.546  0.5285  0.0671 -0.3482
 5661TIP3    H116922   1.690   7.742   6.463  1.1484 -1.6588 -0.4197
 5661TIP3    H216923   1.828   7.748   6.525  0.6241 -2.2387  0.7968
 5662TIP3   OH216924   1.784   7.462   3.954 -0.2694 -0.4404 -0.4171
 5662TIP3    H116925   1.779   7.408   4.033  1.5104 -0.0118 -0.0007
 5662TIP3    H216926   1.753   7.405   3.884  0.6274 -1.6736  0.1849
 5663TIP3   OH216927   3.100   1.496   4.644 -0.0536  0.2488 -0.7069
 5663TIP3    H116928   3.096   1.482   4.739 -0.0169  0.2445 -0.7065
 5663TIP3    H216929   3.113   1.590   4.634 -0.9890  0.3836 -0.7240
 5664TIP3   OH216930   3.996   0.383   4.104  0.0105  0.1001 -0.6524
 5664TIP3    H116931   3.924   0.342   4.151 -0.9863  1.8197 -0.6071
 5664TIP3    H216932   3.999   0.473   4.139  1.3633  0.4181 -1.5387
 5665TIP3   OH216933   1.779   7.306   4.219  0.0992  0.4764  0.1864
 5665TIP3    H116934   1.849   7.369   4.238 -0.2568  0.9605 -0.1110
 5665TIP3    H216935   1.798   7.232   4.276  0.3293  0.9866  0.7742
 5666TIP3   OH216936   3.595   0.274   3.872 -0.1931  0.3354 -0.4281
 5666TIP3    H116937   3.668   0.334   3.888  0.1864  0.0904 -1.2258
 5666TIP3    H216938   3.518   0.322   3.904  0.1907  0.9748 -0.4434
 5667TIP3   OH216939   7.027   4.937   0.459 -0.1024 -0.6186 -0.4617
 5667TIP3    H116940   7.074   4.993   0.521  1.1083 -0.5411 -1.4246
 5667TIP3    H216941   6.939   4.976   0.453  0.4391  0.6456 -0.4154
 5668TIP3   OH216942   6.246   5.392   0.415  0.1526  0.5029 -0.2995
 5668TIP3    H116943   6.197   5.468   0.383 -1.3240  0.6053  2.0982
 5668TIP3    H216944   6.212   5.318   0.363  0.0801  1.1349 -1.1647
 5669TIP3   OH216945   3.033   2.037   5.161  0.2733  0.1807 -0.0612
 5669TIP3    H116946   2.970   2.099   5.198 -0.4845 -0.9826  0.6601
 5669TIP3    H216947   3.067   1.989   5.236 -1.9619 -2.8435 -0.8537
 5670TIP3   OH216948   1.160   1.210   6.236  0.2863  0.4566 -0.3620
 5670TIP3    H116949   1.138   1.218   6.329 -0.1451 -0.7870 -0.3554
 5670TIP3    H216950   1.144   1.298   6.200  1.7787  1.3036  1.0088
 5671TIP3   OH216951   1.691   1.622   1.870 -0.2158  0.1983  0.5367
 5671TIP3    H116952   1.766   1.623   1.929  0.8039  0.3368 -0.7580
 5671TIP3    H216953   1.691   1.534   1.832 -0.4673  0.3360  0.2166
 5672TIP3   OH216954   2.573   7.379   4.284  0.1695 -0.6359 -0.5365
 5672TIP3    H116955   2.621   7.302   4.316 -0.3412 -0.7993 -0.1435
 5672TIP3    H216956   2.510   7.398   4.354 -2.6266 -2.4595 -2.4250
 5673TIP3   OH216957   2.646   1.860   3.552 -0.6734  0.0231  1.0806
 5673TIP3    H116958   2.674   1.800   3.622  0.0301  0.1468  0.9109
 5673TIP3    H216959   2.586   1.808   3.499  0.1735 -0.6409  0.7582
 5674TIP3   OH216960   2.470   0.902   2.384  0.1774  0.4516  0.5925
 5674TIP3    H116961   2.529   0.966   2.343  0.2642 -0.8949 -1.4368
 5674TIP3    H216962   2.382   0.934   2.364  0.2177 -0.3136 -0.8764
 5675TIP3   OH216963   0.990   6.673   4.457  0.3546  0.3478  0.3574
 5675TIP3    H116964   1.022   6.694   4.545  0.5311  0.4705  0.2626
 5675TIP3    H216965   1.060   6.701   4.398  0.7522 -0.8285  0.2492
 5676TIP3   OH216966   8.374   7.979   5.180 -0.1220  0.7773 -0.3299
 5676TIP3    H116967   8.327   7.977   5.096 -0.2932 -1.5305 -0.2022
 5676TIP3    H216968   8.397   8.072   5.192 -1.5512  1.3993 -2.1076
 5677TIP3   OH216969   3.151   0.052   5.245 -0.5378 -0.2992  0.0978
 5677TIP3    H116970   3.204   0.043   5.167  0.6380  0.5771  0.7808
 5677TIP3    H216971   3.063   0.026   5.218  0.3188 -2.1557 -0.9336
 5678TIP3   OH216972   5.041   0.682   6.436  0.3432  0.1826  0.5430
 5678TIP3    H116973   4.982   0.700   6.510  0.4707  0.1546  0.6529
 5678TIP3    H216974   5.086   0.601   6.460  0.2776  0.0941  0.3658
 5679TIP3   OH216975   2.858   1.332   5.397 -0.4281 -0.2436  0.4888
 5679TIP3    H116976   2.821   1.388   5.465  0.4918  2.0206 -0.8263
 5679TIP3    H216977   2.921   1.276   5.443  1.4260  2.3998  1.3025
 5680TIP3   OH216978   3.068   2.000   4.571 -0.4749 -0.1763  0.2527
 5680TIP3    H116979   3.083   1.978   4.479 -0.6473 -1.7092  0.5774
 5680TIP3    H216980   3.007   2.073   4.569  0.7207  0.8328 -0.8862
 5681TIP3   OH216981   2.257   1.159   3.587  0.6923 -0.4659  0.4115
 5681TIP3    H116982   2.230   1.250   3.575  0.2762 -0.4643  1.3237
 5681TIP3    H216983   2.225   1.114   3.509 -2.0071 -0.4794  1.4581
 5682TIP3   OH216984   2.140   1.304   5.079 -0.0376  0.0577  0.0864
 5682TIP3    H116985   2.050   1.310   5.108  0.2914 -0.8628  1.3072
 5682TIP3    H216986   2.174   1.224   5.119  0.8491 -0.4739 -1.6557
 5683TIP3   OH216987   1.845   2.437   4.266 -0.2425  0.2798  0.5277
 5683TIP3    H116988   1.938   2.444   4.245 -0.8788  2.3258 -1.8428
 5683TIP3    H216989   1.806   2.394   4.189 -1.6066  1.6389  0.4385
 5684TIP3   OH216990   2.268   7.880   5.407  0.2275 -0.0829  0.0567
 5684TIP3    H116991   2.272   7.864   5.313  0.3908 -0.8202  0.1852
 5684TIP3    H216992   2.175   7.872   5.429  0.1862  0.1146 -0.0428
 5685TIP3   OH216993   3.450   0.550   5.196 -0.2970  0.5533 -0.6449
 5685TIP3    H116994   3.519   0.614   5.213 -1.6114  2.3810 -1.9212
 5685TIP3    H216995   3.383   0.600   5.149 -1.3049 -1.8251 -1.7899
 5686TIP3   OH216996   0.107   6.970   3.834 -0.0296  0.3959 -0.3334
 5686TIP3    H116997   0.190   6.940   3.871  0.6160  0.4695 -1.6889
 5686TIP3    H216998   0.091   7.055   3.875  0.3827  0.2126  0.2010
 5687TIP3   OH216999   0.257   7.802   4.686  0.1507 -0.2762  0.0569
 5687TIP3    H117000   0.174   7.778   4.726  0.7849 -0.6906  1.1563
 5687TIP3    H217001   0.314   7.823   4.760  1.4121 -1.2591 -0.6073
 5688TIP3   OH217002   2.632   0.897   5.623  0.2268 -0.4937  0.3534
 5688TIP3    H117003   2.599   0.853   5.701  0.4974 -0.0471  0.7217
 5688TIP3    H217004   2.570   0.874   5.554  1.3658 -2.9813  0.1024
 5689TIP3   OH217005   8.220   7.007   3.027 -0.4720 -0.3897  0.6087
 5689TIP3    H117006   8.205   7.018   2.933 -2.2266  1.4609  1.0579
 5689TIP3    H217007   8.134   6.984   3.062 -0.3538  1.1899  2.0396
 5690TIP3   OH217008   3.473   2.502   0.009  0.7057 -0.4298  0.9266
 5690TIP3    H117009   3.517   2.570  -0.042 -0.8364 -0.2539 -0.1889
 5690TIP3    H217010   3.400   2.547   0.052 -1.2788 -1.6476 -1.0627
 5691TIP3   OH217011   0.715   7.645   3.517  0.0234 -0.3077 -0.0387
 5691TIP3    H117012   0.788   7.604   3.470  0.0946  0.0532 -0.2368
 5691TIP3    H217013   0.757   7.697   3.586 -0.0492 -0.1010 -0.1518
 5692TIP3   OH217014   2.656   2.147   5.107 -0.2295  0.2872 -0.0082
 5692TIP3    H117015   2.724   2.165   5.173  0.2431 -0.6977 -0.2134
 5692TIP3    H217016   2.701   2.158   5.023 -0.2237 -0.7365 -0.1419
 5693TIP3   OH217017   2.577   1.859   6.466 -0.2500 -0.5207 -0.0552
 5693TIP3    H117018   2.656   1.845   6.414  0.2796  1.3866  0.2110
 5693TIP3    H217019   2.510   1.880   6.401 -0.4104 -1.5103 -0.2261
 5694TIP3   OH217020   3.873   0.745   5.308 -0.1556  0.2838  0.1729
 5694TIP3    H117021   3.808   0.791   5.361 -0.1081  0.3363  0.1860
 5694TIP3    H217022   3.877   0.657   5.345  0.3817  0.5251  0.7056
 5695TIP3   OH217023   3.226   0.617   4.394 -0.4347 -0.2416  0.3122
 5695TIP3    H117024   3.316   0.619   4.364 -0.5923 -4.6488 -0.9324
 5695TIP3    H217025   3.174   0.635   4.316 -0.6510 -0.3415  0.4323
 5696TIP3   OH217026   7.760   6.733   5.139 -0.7413  0.8513 -0.2711
 5696TIP3    H117027   7.778   6.823   5.165 -2.2367  1.1104 -0.1060
 5696TIP3    H217028   7.804   6.723   5.054  2.0597  0.7584  1.1247
 5697TIP3   OH217029   1.508   7.502   4.510 -0.1046  0.0788  0.9719
 5697TIP3    H117030   1.503   7.408   4.496 -0.7256  0.5206 -2.2556
 5697TIP3    H217031   1.593   7.527   4.474 -0.4765  0.9015  0.6481
 5698TIP3   OH217032   1.301   7.897   3.161  0.3716  0.0710  0.3331
 5698TIP3    H117033   1.306   7.813   3.206 -3.4881 -1.0418 -1.1062
 5698TIP3    H217034   1.329   7.878   3.072  0.4813  0.5204  0.2710
 5699TIP3   OH217035   3.552   1.675   6.608  0.2814  0.8082 -0.0994
 5699TIP3    H117036   3.549   1.763   6.645 -1.2305  1.0079 -0.6612
 5699TIP3    H217037   3.510   1.620   6.674  2.7506  0.2023  1.0156
 5700TIP3   OH217038   3.281   1.698   5.344 -0.2123 -0.1881  0.6649
 5700TIP3    H117039   3.302   1.751   5.421 -0.3588  0.0283  0.5561
 5700TIP3    H217040   3.362   1.696   5.294 -0.2767  0.1357  0.5488
 5701TIP3   OH217041   7.951   6.488   4.114 -0.3754  0.2693  0.6742
 5701TIP3    H117042   7.923   6.571   4.153  1.1122  0.3737  1.5527
 5701TIP3    H217043   8.010   6.450   4.178 -0.1047 -0.9130 -0.2536
 5702TIP3   OH217044   2.962   0.013   3.389 -0.2968  0.6101 -0.2980
 5702TIP3    H117045   3.028   0.047   3.450 -1.4362  0.8293  0.8333
 5702TIP3    H217046   2.916  -0.055   3.438 -2.0002  1.5875 -0.4992
 5703TIP3   OH217047   4.044   2.198   2.343 -0.1472 -0.1031  0.1672
 5703TIP3    H117048   4.048   2.112   2.384 -0.5835 -0.3576 -0.3236
 5703TIP3    H217049   4.074   2.183   2.253 -1.2225  0.0674 -0.2257
 5704TIP3   OH217050   5.790  -0.003   4.110 -0.4795  0.1298 -0.3153
 5704TIP3    H117051   5.796   0.090   4.088 -2.0320  0.6322  1.2648
 5704TIP3    H217052   5.716  -0.036   4.058 -0.5590  0.0104 -0.1285
 5705TIP3   OH217053   0.630   6.446   3.324  0.1541 -0.2253  0.4268
 5705TIP3    H117054   0.605   6.419   3.413 -0.1742 -0.1178  0.3662
 5705TIP3    H217055   0.705   6.390   3.303  2.3540  1.9970  2.0501
 5706TIP3   OH217056   0.030   6.504   2.242 -0.6957  0.1370 -0.8064
 5706TIP3    H117057   0.005   6.415   2.269  0.1746  0.1591  0.1028
 5706TIP3    H217058  -0.035   6.528   2.176 -0.4236 -1.5179 -1.7077
 5707TIP3   OH217059   3.422   0.666   3.865  0.0787  0.0399 -0.1266
 5707TIP3    H117060   3.336   0.624   3.872 -0.0965  0.4012 -0.0981
 5707TIP3    H217061   3.469   0.637   3.943  0.8611 -2.1348 -1.3651
 5708TIP3   OH217062   7.929   7.973   2.707  0.7563  0.3809  0.0015
 5708TIP3    H117063   7.958   7.942   2.622  2.3024  1.9062 -0.0621
 5708TIP3    H217064   7.835   7.987   2.697  1.0457  1.2439 -1.6698
 5709TIP3   OH217065   3.672   0.133   4.370  0.2194  0.5501 -0.0030
 5709TIP3    H117066   3.764   0.124   4.393  0.1972  0.7639  0.1668
 5709TIP3    H217067   3.627   0.145   4.454 -0.0994 -0.7407  0.0320
 5710TIP3   OH217068   6.235   5.304   1.097  0.0062  0.0932  0.0877
 5710TIP3    H117069   6.275   5.259   1.171 -2.4255 -1.3278  0.5772
 5710TIP3    H217070   6.173   5.366   1.136 -1.3510 -0.7191 -0.7343
 5711TIP3   OH217071   4.673   0.995   5.374 -0.1037 -0.6226 -0.7185
 5711TIP3    H117072   4.747   1.055   5.363  0.1048 -0.6583  0.4313
 5711TIP3    H217073   4.687   0.927   5.309  0.0599  0.1904 -1.5351
 5712TIP3   OH217074   4.290   2.024   4.778  0.2802  0.7361  0.6472
 5712TIP3    H117075   4.241   1.947   4.807  0.3708 -0.2924 -1.8136
 5712TIP3    H217076   4.224   2.091   4.763  0.0515  0.6747  1.3801
 5713TIP3   OH217077   3.082   0.429   2.757 -0.1035 -0.4885  0.3792
 5713TIP3    H117078   3.083   0.348   2.808 -1.3180 -0.2902  0.7264
 5713TIP3    H217079   3.158   0.478   2.789 -0.8988 -0.3254  2.0770
 5714TIP3   OH217080   5.976   5.675   1.503  0.1570  0.4496 -0.1915
 5714TIP3    H117081   5.906   5.624   1.461 -0.4959  0.4317  0.9008
 5714TIP3    H217082   5.947   5.685   1.593  0.2386  2.8356 -0.4021
 5715TIP3   OH217083   4.412   1.653   5.381  0.1724  0.5846  0.2667
 5715TIP3    H117084   4.379   1.563   5.386  1.4148  0.1693  1.1459
 5715TIP3    H217085   4.399   1.678   5.289  1.2771 -1.0694 -0.3586
 5716TIP3   OH217086   1.602   0.196   3.605  0.5069 -0.2693  0.3057
 5716TIP3    H117087   1.650   0.145   3.540  1.1612  0.2162  0.4083
 5716TIP3    H217088   1.589   0.135   3.678  0.0916 -0.7015 -0.1257
 5717TIP3   OH217089   3.364   0.276   5.232  0.1653  0.4868  0.1578
 5717TIP3    H117090   3.393   0.237   5.314 -0.5979  0.0091  0.2029
 5717TIP3    H217091   3.402   0.364   5.232  1.4210 -0.0474  0.3189
 5718TIP3   OH217092   1.906   0.902   5.867  0.0434  0.0932  0.0774
 5718TIP3    H117093   1.910   0.812   5.899 -1.4839  0.7296  2.1573
 5718TIP3    H217094   1.955   0.953   5.932  2.7086  0.5102 -2.1768
 5719TIP3   OH217095   4.563   0.293   3.715  0.8515  0.1841 -0.1861
 5719TIP3    H117096   4.551   0.329   3.803 -0.3748 -0.6464 -0.0054
 5719TIP3    H217097   4.614   0.360   3.669 -0.1973  1.5278  0.5607
 5720TIP3   OH217098   1.721   3.167   5.702  0.1361 -0.0108  0.2954
 5720TIP3    H117099   1.639   3.145   5.658 -0.3838  1.9835  0.2121
 5720TIP3    H217100   1.740   3.092   5.758 -1.6480 -0.5757  0.1603
 5721TIP3   OH217101   1.772   1.026   3.898 -0.4752  0.0884 -0.0395
 5721TIP3    H117102   1.857   0.985   3.885 -0.5511  0.1366 -0.7198
 5721TIP3    H217103   1.709   0.960   3.870 -0.5445  1.2431 -2.7672
 5722TIP3   OH217104   3.650   1.483   5.369 -0.2941  0.3844 -0.4325
 5722TIP3    H117105   3.698   1.402   5.385  0.3258  0.2369 -2.9093
 5722TIP3    H217106   3.687   1.545   5.432 -0.9230 -1.2754  1.6249
 5723TIP3   OH217107   8.354   7.450   1.243  1.1197 -0.3562  0.1984
 5723TIP3    H117108   8.430   7.508   1.237  0.0453  0.9995 -0.3448
 5723TIP3    H217109   8.327   7.455   1.335 -0.7683  2.3432 -0.4503
 5724TIP3   OH217110   1.830   1.135   5.721  0.0814  0.5246 -0.3532
 5724TIP3    H117111   1.765   1.173   5.780 -0.2867  1.8202 -1.5673
 5724TIP3    H217112   1.854   1.051   5.762 -0.0373  1.4741  1.7048
 5725TIP3   OH217113   2.389   1.415   6.878 -0.1497  0.2507 -0.2579
 5725TIP3    H117114   2.369   1.508   6.873  2.2762  0.8303 -0.0051
 5725TIP3    H217115   2.481   1.412   6.907  0.6837 -2.1561 -2.9621
 5726TIP3   OH217116   3.044   1.926   4.294  0.3451 -0.1502 -0.9505
 5726TIP3    H117117   2.980   1.982   4.250  0.3597 -0.2853 -1.1472
 5726TIP3    H217118   2.999   1.842   4.303 -0.0679  0.1892  0.3051
 5727TIP3   OH217119   3.664   0.796   4.921 -0.1947  0.2087  0.2274
 5727TIP3    H117120   3.717   0.741   4.978  3.1902  0.8749 -2.1745
 5727TIP3    H217121   3.643   0.740   4.846 -2.4284  0.1473  0.8560
 5728TIP3   OH217122   1.291   1.674   3.955  0.1055 -0.6720  0.4862
 5728TIP3    H117123   1.317   1.719   4.035 -0.8621 -3.7167  2.6278
 5728TIP3    H217124   1.373   1.657   3.909  0.7691  0.1546  1.3580
 5729TIP3   OH217125   3.681   1.700   5.763 -0.5205  0.0190  0.2501
 5729TIP3    H117126   3.682   1.695   5.668 -0.2703 -1.6724  0.3284
 5729TIP3    H217127   3.617   1.768   5.782 -1.7670 -0.7267 -1.1114
 5730TIP3   OH217128   1.175   1.211   3.328 -0.3942  0.1208 -0.0342
 5730TIP3    H117129   1.241   1.141   3.328 -0.6632 -0.1327  0.2116
 5730TIP3    H217130   1.123   1.195   3.249 -1.0720 -0.5433  0.5325
 5731TIP3   OH217131   0.007   7.830   4.026 -0.0564 -0.0111  0.4893
 5731TIP3    H117132   0.099   7.853   4.013  0.5827 -1.0908  2.8392
 5731TIP3    H217133   0.003   7.736   4.009 -0.6328 -0.0530  0.8463
 5732TIP3   OH217134   1.612   6.158   4.491 -0.0036 -0.4967  0.2345
 5732TIP3    H117135   1.624   6.063   4.482  0.4914 -0.4837  0.7341
 5732TIP3    H217136   1.645   6.178   4.578  1.1637  0.3496 -0.3897
 5733TIP3   OH217137   2.186   7.640   5.998 -0.0057  0.0219 -0.0757
 5733TIP3    H117138   2.221   7.551   5.997 -1.9107 -0.7552 -1.5257
 5733TIP3    H217139   2.197   7.671   5.908 -0.1675  0.9162  0.2050
 5734TIP3   OH217140   3.350   0.038   1.993 -0.0098 -0.2003 -0.3307
 5734TIP3    H117141   3.274   0.027   2.051  0.6703 -0.9563  0.4093
 5734TIP3    H217142   3.414  -0.025   2.024  1.4421  1.3438 -0.1194
 5735TIP3   OH217143   3.215   7.752   5.125  0.0961 -0.2030  0.5430
 5735TIP3    H117144   3.274   7.712   5.061 -1.2964 -0.8492 -0.3624
 5735TIP3    H217145   3.270   7.769   5.201  1.3051 -1.4242 -0.0400
 5736TIP3   OH217146   0.566   1.479   3.844  0.0737 -0.1967  1.2407
 5736TIP3    H117147   0.639   1.468   3.783 -0.7936 -1.3352  0.3964
 5736TIP3    H217148   0.509   1.543   3.802 -0.2006 -0.4894  1.1706
 5737TIP3   OH217149   0.318   7.949   4.303  0.9748  0.6251  0.0583
 5737TIP3    H117150   0.301   7.855   4.302 -1.7454  1.0802 -0.3277
 5737TIP3    H217151   0.333   7.969   4.396  0.4767  0.0017  0.2781
 5738TIP3   OH217152   4.682   1.976   4.585 -0.3587  0.3750 -0.0788
 5738TIP3    H117153   4.773   1.983   4.558 -0.1631 -0.8403  0.2380
 5738TIP3    H217154   4.634   1.957   4.504 -0.0664 -0.9637  0.0475
 5739TIP3   OH217155   3.254   0.692   5.011 -0.4585  0.0095  0.0558
 5739TIP3    H117156   3.181   0.753   4.998 -0.1364  0.1472 -1.2080
 5739TIP3    H217157   3.300   0.693   4.928  0.0924 -1.2640  0.3364
 5740TIP3   OH217158   1.994   0.043   5.078  0.8659 -0.4463  0.3455
 5740TIP3    H117159   2.071   0.033   5.022  0.4314 -0.1304 -0.3208
 5740TIP3    H217160   2.001   0.132   5.112  0.4940 -0.2165 -0.1760
 5741TIP3   OH217161   5.572   3.854   1.348 -0.3310 -0.2966  0.3795
 5741TIP3    H117162   5.584   3.773   1.299  0.6419  0.8573 -1.3348
 5741TIP3    H217163   5.647   3.858   1.407  2.0881  1.4832 -2.6425
 5742TIP3   OH217164   3.732   2.245   6.293 -0.4996  0.5107 -0.2095
 5742TIP3    H117165   3.726   2.299   6.214 -2.0789  1.3934  0.5178
 5742TIP3    H217166   3.824   2.253   6.319 -0.3944  1.7203 -0.8893
 5743TIP3   OH217167   6.718   7.805   0.647  0.3419 -0.3785  0.0854
 5743TIP3    H117168   6.808   7.812   0.678  0.7749  0.6995 -1.3842
 5743TIP3    H217169   6.691   7.895   0.629 -0.5059 -0.8201 -0.9320
 5744TIP3   OH217170   1.539   7.206   4.474 -0.0753  0.2318  0.5766
 5744TIP3    H117171   1.611   7.146   4.455 -0.9070 -1.2216  1.9102
 5744TIP3    H217172   1.507   7.179   4.560 -0.3373  2.7371  1.3015
 5745TIP3   OH217173   7.549   5.675   0.159  0.4220 -0.4386 -0.0957
 5745TIP3    H117174   7.518   5.742   0.098 -0.8734 -0.1654  0.8322
 5745TIP3    H217175   7.627   5.639   0.117 -0.5540 -0.4046 -2.0077
 5746TIP3   OH217176   3.174   0.857   3.361  0.3190 -0.4602 -0.4506
 5746TIP3    H117177   3.080   0.843   3.372 -0.0388  1.1219 -1.3528
 5746TIP3    H217178   3.208   0.863   3.451 -0.4658 -0.7583 -0.1257
 5747TIP3   OH217179   5.032   0.086   6.957  0.2457  0.5676  0.6770
 5747TIP3    H117180   4.990   0.062   6.875  1.4712 -0.2773  0.2713
 5747TIP3    H217181   4.994   0.170   6.981 -1.1934  0.1106  0.0099
 5748TIP3   OH217182   3.020   0.454   5.615 -0.6573 -0.4008 -0.4772
 5748TIP3    H117183   3.008   0.389   5.685 -0.4315 -1.2640 -1.2353
 5748TIP3    H217184   3.082   0.414   5.555 -0.0193  0.7951 -0.6313
 5749TIP3   OH217185   3.767   0.259   5.769 -0.0092  0.3294  0.3745
 5749TIP3    H117186   3.718   0.211   5.702  0.1198 -0.1592  0.6300
 5749TIP3    H217187   3.723   0.344   5.775 -0.3458  0.1764  0.0472
 5750TIP3   OH217188   3.535   1.449   6.363 -0.8360 -0.1465 -0.9843
 5750TIP3    H117189   3.555   1.539   6.335  0.1528 -0.3732 -1.0308
 5750TIP3    H217190   3.492   1.459   6.448 -2.2190  0.4538 -1.7324
 5751TIP3   OH217191   2.147   7.874   4.355  0.4254  0.0725  0.1901
 5751TIP3    H117192   2.240   7.868   4.376  1.0614  1.6740 -1.9229
 5751TIP3    H217193   2.145   7.877   4.259 -1.4162  4.7544  0.2600
 5752TIP3   OH217194   5.594   0.451   6.870  0.5904 -0.0087  0.4754
 5752TIP3    H117195   5.503   0.464   6.894  1.0837  2.9063  0.9204
 5752TIP3    H217196   5.598   0.476   6.777  0.9726  0.0406  0.5043
 5753TIP3   OH217197   0.771   7.638   5.867  0.0967  0.3020  0.7408
 5753TIP3    H117198   0.852   7.606   5.827 -1.5464 -2.5170 -0.5122
 5753TIP3    H217199   0.778   7.614   5.959  0.2533 -0.9157  0.4229
 5754TIP3   OH217200   3.744   0.924   4.582 -0.1087 -0.3287  0.5014
 5754TIP3    H117201   3.657   0.885   4.588 -0.3207  0.0526 -0.0602
 5754TIP3    H217202   3.800   0.853   4.550 -0.4695 -0.2034 -0.4003
 5755TIP3   OH217203   4.972   1.739   2.935  0.0760  0.2127 -0.0473
 5755TIP3    H117204   4.967   1.731   2.840  0.5355  0.8769 -0.1316
 5755TIP3    H217205   4.996   1.652   2.965  1.6234  0.4141 -0.6737
 5756TIP3   OH217206   3.135   0.257   6.519 -0.2823  0.2768 -0.3314
 5756TIP3    H117207   3.101   0.289   6.603 -1.2681  0.0518 -0.6323
 5756TIP3    H217208   3.056   0.242   6.466  0.4025  2.4279 -2.0390
 5757TIP3   OH217209   5.298   4.427   0.319 -0.1958 -0.2433 -0.1087
 5757TIP3    H117210   5.246   4.491   0.367 -1.0396 -0.9766 -0.0341
 5757TIP3    H217211   5.294   4.348   0.372  1.0289 -0.2973 -0.0875
 5758TIP3   OH217212   3.077   2.160   4.911 -0.7185 -0.9123 -0.2054
 5758TIP3    H117213   3.134   2.234   4.933 -0.5381 -1.1219  0.0346
 5758TIP3    H217214   3.079   2.105   4.988 -1.2954 -0.8950 -0.1790
 5759TIP3   OH217215   5.726   0.858   6.708  0.4421 -0.4409 -0.1666
 5759TIP3    H117216   5.734   0.786   6.644 -0.8835 -0.9578  0.2230
 5759TIP3    H217217   5.743   0.937   6.657 -0.3811 -0.8673 -1.1344
 5760TIP3   OH217218   3.842   1.738   6.498 -0.2032  0.3535  0.1982
 5760TIP3    H117219   3.828   1.815   6.443 -1.0907  1.1253  1.4844
 5760TIP3    H217220   3.754   1.710   6.524  0.2617  0.8969  2.4335
 5761TIP3   OH217221   2.581   7.730   6.937 -0.4956 -0.4519  0.3736
 5761TIP3    H117222   2.586   7.793   7.008 -0.9371  0.7818 -0.6630
 5761TIP3    H217223   2.542   7.779   6.864  0.5076 -1.5126 -0.9067
 5762TIP3   OH217224   0.899   0.262   3.238 -0.0610 -0.5059 -0.0762
 5762TIP3    H117225   0.834   0.298   3.178  0.4361 -0.6225 -0.6815
 5762TIP3    H217226   0.873   0.295   3.324 -0.7789 -0.3516 -0.3513
 5763TIP3   OH217227   6.578   6.902   4.828 -0.0684 -0.5166  0.2498
 5763TIP3    H117228   6.520   6.883   4.754  0.0657 -0.0827  0.0288
 5763TIP3    H217229   6.589   6.819   4.872  0.7660 -1.0232 -0.8731
 5764TIP3   OH217230   1.579   1.133   5.289  0.0077 -0.0188 -0.1780
 5764TIP3    H117231   1.508   1.076   5.319 -1.6786  1.6956 -0.8046
 5764TIP3    H217232   1.564   1.216   5.333  0.4387  0.9751 -1.8387
 5765TIP3   OH217233   0.842   7.511   6.097  0.1894  0.4421  0.3741
 5765TIP3    H117234   0.853   7.433   6.044  0.2735  1.4121 -1.0796
 5765TIP3    H217235   0.863   7.483   6.187  2.0386 -0.7639 -0.3981
 5766TIP3   OH217236   5.183   1.498   5.238 -0.2796 -0.0030  0.1526
 5766TIP3    H117237   5.221   1.515   5.152  2.0499  0.2808  1.1954
 5766TIP3    H217238   5.198   1.579   5.287 -0.3585 -0.6560  1.2595
 5767TIP3   OH217239   3.622   0.240   6.949 -0.1659 -0.0756  0.8865
 5767TIP3    H117240   3.678   0.195   6.886 -0.7419  0.0594  0.2724
 5767TIP3    H217241   3.676   0.312   6.983 -0.8874  1.8711 -1.8545
 5768TIP3   OH217242   4.711   0.661   3.798  0.9054  0.4489 -0.3166
 5768TIP3    H117243   4.779   0.692   3.738  2.0634 -1.7300 -0.1997
 5768TIP3    H217244   4.664   0.594   3.749  1.5352 -0.9883  1.0091
 5769TIP3   OH217245   6.001   0.092   3.816 -0.4868 -0.0677 -0.3591
 5769TIP3    H117246   6.079   0.108   3.870 -1.8039 -0.0258  1.5617
 5769TIP3    H217247   6.001  -0.003   3.802  0.0935 -0.0283 -0.6602
 5770TIP3   OH217248   4.638   0.032   4.631  0.0614  0.6395  0.0213
 5770TIP3    H117249   4.611  -0.035   4.694 -1.2603 -0.6336 -1.8639
 5770TIP3    H217250   4.672   0.103   4.685 -0.3978 -0.7163  2.1448
 5771TIP3   OH217251   3.416   7.989   3.659 -0.4509 -0.1005  0.6625
 5771TIP3    H117252   3.344   7.929   3.680  0.2707 -1.5918 -1.0243
 5771TIP3    H217253   3.495   7.937   3.676  0.1745 -0.2738 -2.5016
 5772TIP3   OH217254   2.156   7.778   6.741  0.4305 -0.1705  0.2584
 5772TIP3    H117255   2.248   7.787   6.714 -0.3594  0.2450 -2.4040
 5772TIP3    H217256   2.130   7.867   6.765  0.5099 -0.1634  0.3191
 5773TIP3   OH217257   0.797   5.784   5.349 -0.0217 -0.3747  0.6694
 5773TIP3    H117258   0.830   5.783   5.439  1.8695 -1.7760 -0.0111
 5773TIP3    H217259   0.831   5.865   5.312  2.8123 -1.8054 -0.0265
 5774TIP3   OH217260   4.559   0.383   3.972  0.3274 -0.2699  0.0713
 5774TIP3    H117261   4.599   0.423   4.050  0.2997  1.2353 -0.6662
 5774TIP3    H217262   4.471   0.358   4.000  0.2897  0.3413  0.5078
 5775TIP3   OH217263   1.033   7.904   4.686 -0.0276 -0.4741 -0.0524
 5775TIP3    H117264   0.991   7.948   4.760 -0.4251 -0.8333 -0.0624
 5775TIP3    H217265   1.022   7.965   4.613 -0.2210 -0.4141  0.0261
 5776TIP3   OH217266   0.043   4.908   4.710  0.2361 -0.0647  0.1136
 5776TIP3    H117267   0.029   4.873   4.622 -0.4958  0.9358 -0.1880
 5776TIP3    H217268  -0.045   4.934   4.739  0.6904  1.0206  0.5322
 5777TIP3   OH217269   3.625   1.211   6.460 -0.5397 -0.1832  0.1226
 5777TIP3    H117270   3.594   1.274   6.396  3.2842  1.2507 -0.4496
 5777TIP3    H217271   3.601   1.126   6.424 -1.2941  0.7375 -1.5941
 5778TIP3   OH217272   1.180   5.268   3.142  0.1275  0.5053  0.0376
 5778TIP3    H117273   1.251   5.315   3.186  1.2526  0.2874 -1.4752
 5778TIP3    H217274   1.126   5.234   3.212  2.4035 -0.6321  1.2913
 5779TIP3   OH217275   2.727   7.039   4.064  0.4832 -0.3660  0.1322
 5779TIP3    H117276   2.721   6.995   4.148  0.7497 -1.0772 -0.2136
 5779TIP3    H217277   2.809   7.006   4.026  0.2617 -0.2022 -0.4905
 5780TIP3   OH217278   0.564   6.845   4.611 -0.1960 -0.0798  0.3224
 5780TIP3    H117279   0.514   6.926   4.599 -0.1519  0.1277  1.5317
 5780TIP3    H217280   0.652   6.874   4.633 -0.5743 -0.4447  2.4059
 5781TIP3   OH217281   4.538   2.026   2.804  0.0216 -0.0555 -0.5372
 5781TIP3    H117282   4.577   2.092   2.861  1.9102 -1.9839  0.5051
 5781TIP3    H217283   4.475   1.979   2.859 -1.5398  1.0466 -1.3566
 5782TIP3   OH217284   7.835   7.106   0.065 -0.4860 -0.7017  0.1083
 5782TIP3    H117285   7.835   7.160  -0.014 -0.5601 -1.4781 -0.4340
 5782TIP3    H217286   7.804   7.164   0.134  0.0197  0.1213 -0.3376
 5783TIP3   OH217287   3.588   0.209   4.609 -0.5210  0.2648 -0.3682
 5783TIP3    H117288   3.593   0.137   4.672  2.6575  1.2427  0.5883
 5783TIP3    H217289   3.590   0.288   4.662  2.5667  1.1201 -1.6399
 5784TIP3   OH217290   2.608   2.454   5.114 -0.1192 -0.3764  0.6314
 5784TIP3    H117291   2.692   2.496   5.096 -0.3217 -0.5511 -0.7293
 5784TIP3    H217292   2.614   2.368   5.073 -0.2572 -1.1410  2.1638
 5785TIP3   OH217293   5.104   0.217   6.213 -0.1278 -0.4848  0.2998
 5785TIP3    H117294   5.088   0.267   6.133  0.4622 -1.6824 -0.5999
 5785TIP3    H217295   5.144   0.279   6.273  1.9614 -0.2023 -1.3209
 5786TIP3   OH217296   6.087   4.691   0.034  0.4496 -0.6032 -0.6505
 5786TIP3    H117297   6.088   4.610  -0.017  0.8479 -1.6246  0.9616
 5786TIP3    H217298   6.003   4.691   0.079  0.4287 -0.0754 -0.6768
 5787TIP3   OH217299   2.972   0.457   4.030 -0.0930  0.1427 -0.0720
 5787TIP3    H117300   2.952   0.431   4.120  1.5131 -1.2505 -0.0888
 5787TIP3    H217301   2.892   0.498   3.998 -1.7510 -2.1640  0.9683
 5788TIP3   OH217302   5.110   1.587   6.183  0.1601  0.5650 -0.1496
 5788TIP3    H117303   5.124   1.605   6.276  0.8537  0.5513 -0.2485
 5788TIP3    H217304   5.161   1.508   6.165 -0.3183  0.3177 -0.4450
 5789TIP3   OH217305   2.192   1.875   5.850  0.4182  0.2395 -0.4110
 5789TIP3    H117306   2.284   1.863   5.875  0.6750 -1.6331 -2.1450
 5789TIP3    H217307   2.143   1.853   5.929  1.3557 -1.8065 -0.3810
 5790TIP3   OH217308   2.533   1.250   4.351 -0.3753  0.7303 -0.2920
 5790TIP3    H117309   2.479   1.328   4.343 -1.0258  0.1140 -2.2639
 5790TIP3    H217310   2.470   1.179   4.366  0.0052  0.2614 -0.8613
 5791TIP3   OH217311   2.449   1.303   5.161  0.1698 -0.1072  0.7302
 5791TIP3    H117312   2.417   1.267   5.078 -0.6717  0.3542  0.8376
 5791TIP3    H217313   2.544   1.307   5.151  0.0925 -0.2879 -0.1190
 5792TIP3   OH217314   1.095   1.186   5.399 -0.2934 -0.3952 -0.3236
 5792TIP3    H117315   1.161   1.255   5.408  1.2468 -2.0963  2.1216
 5792TIP3    H217316   1.132   1.126   5.334 -1.6962  1.0898 -2.5543
 5793TIP3   OH217317   4.180   2.082   5.444 -0.0885 -0.1623 -0.3125
 5793TIP3    H117318   4.274   2.081   5.461 -0.4452  0.5064  1.8797
 5793TIP3    H217319   4.172   2.061   5.351  2.2487  0.3231 -0.6513
 5794TIP3   OH217320   3.207   1.379   5.408 -0.7787 -0.1198 -0.2645
 5794TIP3    H117321   3.149   1.333   5.468 -1.5095  2.2283  0.8580
 5794TIP3    H217322   3.252   1.444   5.462  0.6116  0.1684 -1.7151
 5795TIP3   OH217323   3.612   0.203   2.910 -0.1089 -0.4168  0.1471
 5795TIP3    H117324   3.551   0.208   2.984 -2.4827 -0.0140 -1.7878
 5795TIP3    H217325   3.677   0.271   2.929 -0.2377 -0.8333  2.2240
 5796TIP3   OH217326   4.597   0.598   3.535  0.1952  1.0433  0.0711
 5796TIP3    H117327   4.638   0.682   3.512 -0.9980  2.2326  2.1084
 5796TIP3    H217328   4.508   0.605   3.499  0.2382  0.4413 -0.1534
 5797TIP3   OH217329   0.792   6.574   5.387 -0.0740  0.0765 -0.2470
 5797TIP3    H117330   0.726   6.566   5.457 -0.1802  0.1288 -0.3410
 5797TIP3    H217331   0.872   6.541   5.427 -0.3665 -0.8731 -0.4295
 5798TIP3   OH217332   3.631   0.419   5.475 -0.1528 -0.1413  0.0011
 5798TIP3    H117333   3.547   0.399   5.517 -1.4942 -0.3334 -2.6814
 5798TIP3    H217334   3.636   0.358   5.401  1.9141  0.5305 -0.4384
 5799TIP3   OH217335   1.266   7.928   3.932  0.5378 -0.1980 -0.2809
 5799TIP3    H117336   1.283   7.848   3.980  1.9600  0.2101 -0.0685
 5799TIP3    H217337   1.210   7.901   3.859 -0.5578 -1.0320  0.8512
 5800TIP3   OH217338   7.653   7.936   2.649 -0.1645  0.1240 -0.3678
 5800TIP3    H117339   7.573   7.904   2.691  0.1240 -0.8947 -0.5945
 5800TIP3    H217340   7.648   8.031   2.660 -1.6552  0.1231 -0.8119
 5801TIP3   OH217341   3.231   1.504   4.919 -0.0774 -0.7490  0.1270
 5801TIP3    H117342   3.225   1.549   5.003 -2.7124 -0.7472 -0.0231
 5801TIP3    H217343   3.227   1.411   4.942  0.7993 -0.7950  0.1077
 5802TIP3   OH217344   5.504   2.246   5.993 -0.5030  0.3559  0.2224
 5802TIP3    H117345   5.421   2.278   5.957 -1.3235 -0.6118  1.2233
 5802TIP3    H217346   5.539   2.322   6.040 -1.2297  0.5354  0.4907
 5803TIP3   OH217347   6.404   1.103   6.563 -0.7957 -0.2982  0.2875
 5803TIP3    H117348   6.423   1.059   6.480 -1.7352 -0.1571 -0.0059
 5803TIP3    H217349   6.363   1.186   6.538 -1.7022 -0.5519  0.9024
 5804TIP3   OH217350   1.023   7.699   6.137 -0.0065 -0.2648 -0.3984
 5804TIP3    H117351   1.065   7.640   6.199 -0.4111 -0.5458 -0.3920
 5804TIP3    H217352   0.941   7.655   6.113 -0.7638  0.7225  0.3270
 5805TIP3   OH217353   6.595   0.907   4.030  0.4412 -0.2444  0.2404
 5805TIP3    H117354   6.531   0.859   4.084  1.5110 -2.7485 -0.6468
 5805TIP3    H217355   6.546   0.983   3.999 -0.8220  0.1735  3.0353
 5806TIP3   OH217356   0.061   1.543   3.531 -0.0790 -0.1539  0.0547
 5806TIP3    H117357   0.116   1.564   3.455 -1.4836 -0.8485 -1.1884
 5806TIP3    H217358   0.002   1.475   3.499 -0.9973 -0.1287  1.6560
 5807TIP3   OH217359   0.527   7.127   4.482 -0.5712  0.7203 -0.2012
 5807TIP3    H117360   0.597   7.189   4.458 -0.7961  1.3835  0.8043
 5807TIP3    H217361   0.447   7.169   4.451 -0.5832  0.2399 -0.8207
 5808TIP3   OH217362   4.405   1.384   5.052  0.1561  0.1946 -0.3813
 5808TIP3    H117363   4.419   1.300   5.008  0.7424 -0.4289  0.9687
 5808TIP3    H217364   4.473   1.441   5.018  1.0867 -0.5086  0.2736
 5809TIP3   OH217365   1.171   7.840   3.678  0.4542 -0.1678 -0.4234
 5809TIP3    H117366   1.182   7.916   3.621 -0.4297  0.1102 -0.2243
 5809TIP3    H217367   1.160   7.767   3.618 -0.8667  0.1829 -0.6193
 5810TIP3   OH217368   5.088   1.713   5.684 -0.3814  0.4111  0.3218
 5810TIP3    H117369   5.053   1.781   5.626  0.0352 -0.4624 -0.9604
 5810TIP3    H217370   5.043   1.633   5.659  1.2254 -0.3777 -0.1542
 5811TIP3   OH217371   5.297   1.612   6.446  0.3081 -0.1429 -0.7558
 5811TIP3    H117372   5.304   1.696   6.491 -2.4363  1.1258 -2.5222
 5811TIP3    H217373   5.231   1.563   6.496  3.2121 -2.0298  1.3367
 5812TIP3   OH217374   1.272   5.980   3.841 -0.3977 -0.0251  0.1971
 5812TIP3    H117375   1.367   5.977   3.837 -0.1430  2.6035  2.5916
 5812TIP3    H217376   1.246   5.896   3.879  0.7644 -1.6935 -2.6235
 5813TIP3   OH217377   2.785   7.938   4.598 -0.4793 -0.0407  0.2019
 5813TIP3    H117378   2.785   7.904   4.509 -1.3668 -0.3535  0.3111
 5813TIP3    H217379   2.784   7.860   4.653  1.1390  0.1447  0.4982
 5814TIP3   OH217380   5.949   2.580   4.935  0.4200 -0.3908  0.0811
 5814TIP3    H117381   5.981   2.656   4.983 -0.3668  1.4011 -2.0874
 5814TIP3    H217382   5.863   2.562   4.973  0.0739  0.6107 -0.2058
 5815TIP3   OH217383   6.539   1.106   4.404  0.1859 -0.6562 -0.5003
 5815TIP3    H117384   6.488   1.056   4.341 -0.2790  2.1806 -2.4567
 5815TIP3    H217385   6.478   1.124   4.476 -0.1150 -1.4116 -0.5594
 5816TIP3   OH217386   3.118   7.920   5.587 -0.8755 -0.5372 -0.0051
 5816TIP3    H117387   3.073   7.849   5.541 -0.2358 -0.7320 -0.3326
 5816TIP3    H217388   3.064   7.935   5.665 -1.7381 -0.4716 -0.6127
 5817TIP3   OH217389   4.773   0.424   6.392 -0.1259 -0.5403 -0.0595
 5817TIP3    H117390   4.790   0.423   6.298 -0.4092  0.7822 -0.1353
 5817TIP3    H217391   4.685   0.388   6.400 -0.1727 -0.4861 -0.3196
 5818TIP3   OH217392   4.238   0.642   4.789 -0.3614 -0.3888 -0.1735
 5818TIP3    H117393   4.197   0.558   4.769  0.5999 -0.8141 -0.3536
 5818TIP3    H217394   4.167   0.695   4.825 -0.9704 -1.2723 -0.0618
 5819TIP3   OH217395   3.818   1.452   5.919 -0.4324  0.1278  0.6608
 5819TIP3    H117396   3.802   1.401   5.998 -1.1201  1.2335  1.2428
 5819TIP3    H217397   3.748   1.517   5.918  0.0108  0.5964 -0.4626
 5820TIP3   OH217398   4.971   0.536   3.882  0.3779  0.1983  0.1287
 5820TIP3    H117399   5.016   0.533   3.966 -0.8678 -2.6360  0.7603
 5820TIP3    H217400   4.881   0.559   3.904  0.5090  1.5466 -0.6786
 5821TIP3   OH217401   3.527   2.152   5.580  0.4163 -0.1095 -0.0981
 5821TIP3    H117402   3.464   2.216   5.613  0.1540 -1.2253  1.6597
 5821TIP3    H217403   3.610   2.199   5.577 -0.0469  0.7159 -0.1780
 5822TIP3   OH217404   6.549   1.878   4.212 -0.4909 -0.3579 -0.5851
 5822TIP3    H117405   6.465   1.890   4.256  0.9191  0.2564  2.0230
 5822TIP3    H217406   6.603   1.833   4.276  1.3049 -0.4192 -2.1099
 5823TIP3   OH217407   5.719   1.627   5.045  0.2434  0.0415 -0.0390
 5823TIP3    H117408   5.809   1.603   5.067 -0.6798 -2.3578  1.2588
 5823TIP3    H217409   5.706   1.591   4.957  0.3032 -0.2656  0.0771
 5824TIP3   OH217410   5.139   1.217   4.437 -0.8565 -0.8206  0.7323
 5824TIP3    H117411   5.219   1.163   4.436 -0.5012 -0.3361 -2.9396
 5824TIP3    H217412   5.170   1.304   4.461 -0.3976 -0.7859  0.0130
 5825TIP3   OH217413   5.800   1.731   6.118 -0.0221 -0.3427  0.4501
 5825TIP3    H117414   5.760   1.787   6.051  0.7323 -0.6829 -0.2977
 5825TIP3    H217415   5.728   1.710   6.178 -0.4082  1.0438  0.4845
 5826TIP3   OH217416   5.763   0.868   4.216  0.1228  0.0382 -0.2782
 5826TIP3    H117417   5.828   0.888   4.284 -0.4093  0.7128  0.0392
 5826TIP3    H217418   5.801   0.902   4.135  0.0365  0.7033 -0.0428
 5827TIP3   OH217419   1.958   7.401   5.129  0.1748  0.0599 -0.2580
 5827TIP3    H117420   1.983   7.424   5.219 -1.5176  0.2053  0.1846
 5827TIP3    H217421   1.921   7.481   5.093 -2.2458 -0.8860  0.0360
 5828TIP3   OH217422   5.549   1.927   5.556  0.4776 -0.1638  0.1131
 5828TIP3    H117423   5.640   1.923   5.528  0.5713 -1.3613  0.5417
 5828TIP3    H217424   5.535   1.845   5.604 -0.8893 -0.1034 -0.1514
 5829TIP3   OH217425   6.976   0.716   6.612 -0.2354  0.3634 -0.6629
 5829TIP3    H117426   6.909   0.665   6.566  0.3456 -1.4976  0.4843
 5829TIP3    H217427   6.958   0.700   6.705  2.2735 -0.7966 -0.3512
 5830TIP3   OH217428   7.726   2.572   5.518  0.1268 -0.5408  0.0762
 5830TIP3    H117429   7.798   2.577   5.581  1.1009  0.1174 -1.0856
 5830TIP3    H217430   7.747   2.497   5.463  0.2258  0.0009 -0.6302
 5831TIP3   OH217431   3.875   2.529   4.829 -0.3142  0.1196 -0.2283
 5831TIP3    H117432   3.968   2.551   4.827 -0.7187  1.9202 -0.0435
 5831TIP3    H217433   3.865   2.479   4.910  0.1137  1.8078  0.9000
 5832TIP3   OH217434   4.112   0.985   4.658 -0.4722  0.3156  0.4089
 5832TIP3    H117435   4.019   1.003   4.645 -0.0401  0.9188 -2.0562
 5832TIP3    H217436   4.151   1.071   4.673  0.2180  0.5402 -2.3333
 5833TIP3   OH217437   6.690   1.206   5.483 -0.5784 -0.0301  0.5153
 5833TIP3    H117438   6.764   1.184   5.427 -1.7898  1.6700 -1.8589
 5833TIP3    H217439   6.627   1.135   5.471 -1.4545  1.0430 -1.5094
 5834TIP3   OH217440   4.132   2.640   6.607 -0.2088  0.8106 -0.2857
 5834TIP3    H117441   4.125   2.731   6.637 -1.0040  0.5319  0.4144
 5834TIP3    H217442   4.042   2.615   6.587  0.1003  0.4064 -1.1928
 5835TIP3   OH217443   4.949   1.324   5.931 -0.3507  1.1045 -0.0896
 5835TIP3    H117444   4.898   1.251   5.898  2.4605 -1.3126  0.6900
 5835TIP3    H217445   4.984   1.293   6.014  0.5896  3.4967  0.4414
 5836TIP3   OH217446   4.499   7.760   5.143  0.3985 -0.1769  0.1125
 5836TIP3    H117447   4.566   7.785   5.079  0.8786 -1.4454  0.0861
 5836TIP3    H217448   4.535   7.788   5.227  0.2337  0.5747 -0.0644
 5837TIP3   OH217449   3.145   1.795   6.695 -0.2682 -0.2236  0.2519
 5837TIP3    H117450   3.122   1.883   6.727  1.9267  0.2661  0.6030
 5837TIP3    H217451   3.220   1.810   6.637  1.2374 -2.0386  1.6738
 5838TIP3   OH217452   4.802   2.175   4.301 -0.7056  0.1834 -0.3353
 5838TIP3    H117453   4.771   2.087   4.276 -1.5598  0.2098  0.5876
 5838TIP3    H217454   4.758   2.234   4.240  0.5170 -0.1009 -1.4913
 5839TIP3   OH217455   5.351   1.075   4.710 -0.5180 -0.1611  0.2557
 5839TIP3    H117456   5.348   1.067   4.614 -1.7956 -0.8371  0.3331
 5839TIP3    H217457   5.370   0.986   4.740 -1.0811 -0.1437  0.6636
 5840TIP3   OH217458   5.171   0.420   4.942 -0.5298  0.1480  0.0206
 5840TIP3    H117459   5.195   0.328   4.927 -0.6846  0.3488 -1.5969
 5840TIP3    H217460   5.087   0.416   4.986  0.7778 -0.5194  2.5327
 5841TIP3   OH217461   4.484   1.385   3.993 -0.1557 -0.0473  0.7087
 5841TIP3    H117462   4.567   1.426   3.969  0.9304 -2.2567  0.5498
 5841TIP3    H217463   4.477   1.310   3.934 -2.2652  0.0893  0.7588
 5842TIP3   OH217464   5.722   0.278   6.069  0.1100  0.6885  0.5365
 5842TIP3    H117465   5.710   0.348   6.006  0.0729  1.6997  1.6575
 5842TIP3    H217466   5.817   0.263   6.070  0.2588  1.6487  1.2803
 5843TIP3   OH217467   3.462   0.371   6.066 -0.4106 -0.3665 -0.2581
 5843TIP3    H117468   3.470   0.350   6.159 -0.1201  0.6861 -0.0380
 5843TIP3    H217469   3.372   0.348   6.043 -0.4154 -0.8330  0.2267
 5844TIP3   OH217470   7.658   1.457   4.796  0.2586  0.4529  1.0052
 5844TIP3    H117471   7.735   1.507   4.768  1.2928 -1.0610  1.1068
 5844TIP3    H217472   7.694   1.378   4.836 -1.3944 -0.8326 -0.0115
 5845TIP3   OH217473   6.634   1.745   3.279 -0.3492 -0.0921 -0.3846
 5845TIP3    H117474   6.725   1.714   3.279  0.0057  0.9155 -0.6319
 5845TIP3    H217475   6.625   1.793   3.361 -0.8608 -0.7567 -0.0520
 5846TIP3   OH217476   7.068   1.620   3.637  0.6021 -0.0830 -0.1733
 5846TIP3    H117477   7.125   1.652   3.707  1.4241 -1.0022 -0.4032
 5846TIP3    H217478   7.024   1.698   3.604 -0.9938  0.1631  2.4146
 5847TIP3   OH217479   4.516   2.993   4.365 -0.4031 -0.1304  0.7336
 5847TIP3    H117480   4.519   2.899   4.383 -1.4975 -0.2590  0.2955
 5847TIP3    H217481   4.431   3.021   4.397 -1.5762  0.0047 -2.3271
 5848TIP3   OH217482   5.343   1.058   5.276 -0.0101 -0.4509  0.3834
 5848TIP3    H117483   5.266   1.109   5.252  0.1043 -0.6910 -0.4963
 5848TIP3    H217484   5.382   1.106   5.349 -1.0519 -0.3891  0.9030
 5849TIP3   OH217485   4.270   2.060   6.081 -0.3523 -1.0065  0.7187
 5849TIP3    H117486   4.240   1.969   6.090 -2.3234 -0.6218 -1.2850
 5849TIP3    H217487   4.346   2.055   6.024 -1.1007 -1.3419 -0.2787
 5850TIP3   OH217488   5.971   2.223   4.583  0.3203 -0.1598  0.2469
 5850TIP3    H117489   6.032   2.222   4.510 -1.6342 -1.0413 -1.3996
 5850TIP3    H217490   5.929   2.309   4.579  0.5504 -0.0235  0.6463
 5851TIP3   OH217491   5.040   2.750   5.462  0.2135 -0.4009 -0.1523
 5851TIP3    H117492   5.085   2.666   5.463 -1.3028 -1.2452  1.4795
 5851TIP3    H217493   4.971   2.741   5.396  0.2391 -0.3386 -0.1882
 5852TIP3   OH217494   5.734   6.212   5.183  0.4670  0.2865  0.2547
 5852TIP3    H117495   5.726   6.252   5.097 -2.7064 -1.2268 -0.2063
 5852TIP3    H217496   5.762   6.122   5.166 -1.5787 -0.4507  0.6853
 5853TIP3   OH217497   5.548   1.458   4.039  0.0429 -0.0183 -0.1353
 5853TIP3    H117498   5.529   1.368   4.013 -0.9014 -0.1334  0.9070
 5853TIP3    H217499   5.515   1.512   3.967  1.8234 -0.5480 -1.3916
 5854TIP3   OH217500   3.939   1.465   6.450  0.6676  0.4144 -0.4871
 5854TIP3    H117501   3.879   1.540   6.453 -0.2164 -0.2841 -0.4043
 5854TIP3    H217502   3.972   1.463   6.360  0.4320  0.6985 -0.5792
 5855TIP3   OH217503   1.144   7.935   6.295 -0.2124 -0.4464  0.0679
 5855TIP3    H117504   1.206   7.978   6.236 -0.9977  1.1071  0.3796
 5855TIP3    H217505   1.092   7.878   6.238  0.4262 -0.5408 -0.4267
 5856TIP3   OH217506   5.563   2.381   4.679  0.0177 -0.1557 -0.3633
 5856TIP3    H117507   5.512   2.403   4.600  0.8077 -0.2123 -0.8957
 5856TIP3    H217508   5.648   2.424   4.665  0.9872 -2.1271 -0.6382
 5857TIP3   OH217509   6.357   0.882   6.017 -0.3332 -0.3837 -0.0517
 5857TIP3    H117510   6.316   0.807   6.061 -0.4086  0.0464  0.6168
 5857TIP3    H217511   6.451   0.865   6.024 -0.3147  0.2551  1.2893
 5858TIP3   OH217512   3.538   7.739   3.691  0.4112 -0.4592 -0.5843
 5858TIP3    H117513   3.515   7.738   3.783  0.5572 -1.3700 -0.5524
 5858TIP3    H217514   3.539   7.647   3.665 -1.2113 -0.1373 -1.8798
 5859TIP3   OH217515   3.476   0.925   5.664 -0.3341 -0.2570  0.0191
 5859TIP3    H117516   3.409   0.858   5.656  0.3333 -0.8316 -0.8711
 5859TIP3    H217517   3.438   1.002   5.623  0.1692 -1.0546 -2.0263
 5860TIP3   OH217518   2.205   5.697   3.833  0.2682  0.3520  0.1375
 5860TIP3    H117519   2.293   5.709   3.868  0.3601 -0.0452  0.0444
 5860TIP3    H217520   2.209   5.729   3.743 -0.1160  1.9170  0.6703
 5861TIP3   OH217521   8.081   5.869   0.158 -0.1514  0.0138 -0.3927
 5861TIP3    H117522   8.007   5.911   0.114 -0.6854  0.4097  0.8623
 5861TIP3    H217523   8.069   5.890   0.250  2.7750  1.9963 -0.3891
 5862TIP3   OH217524   5.266   2.198   5.662  0.3440 -0.1895  0.3911
 5862TIP3    H117525   5.279   2.135   5.592 -0.4650  0.2568 -0.1812
 5862TIP3    H217526   5.349   2.244   5.670  0.5977 -0.5979  0.0831
 5863TIP3   OH217527   0.812   7.285   4.001  0.4924 -0.0782  0.3726
 5863TIP3    H117528   0.788   7.350   3.935 -1.3034  0.9989  2.0399
 5863TIP3    H217529   0.729   7.258   4.039  1.2819 -2.7758  0.2864
 5864TIP3   OH217530   6.003   1.114   5.533 -0.2857  0.3845  0.2777
 5864TIP3    H117531   5.921   1.117   5.581 -1.0079  0.1237 -0.9248
 5864TIP3    H217532   5.993   1.041   5.472  0.1348  1.4539 -1.0972
 5865TIP3   OH217533   2.613   1.099   4.669  0.6860  0.3280  0.1547
 5865TIP3    H117534   2.682   1.035   4.651  0.2841  0.2450 -1.1632
 5865TIP3    H217535   2.539   1.069   4.616 -0.0294  0.9835  0.7789
 5866TIP3   OH217536   5.041   1.922   6.556 -0.2116  0.5543  0.6255
 5866TIP3    H117537   5.081   1.978   6.490  1.7416 -0.3556  0.9709
 5866TIP3    H217538   5.116   1.880   6.599 -1.5965 -2.2055  0.4511
 5867TIP3   OH217539   4.879   6.812   2.185 -0.1475  0.3099 -0.0812
 5867TIP3    H117540   4.881   6.905   2.160 -0.4370  1.1465  2.8563
 5867TIP3    H217541   4.792   6.782   2.159  0.3537  0.5205 -2.1006
 5868TIP3   OH217542   0.986   6.477   4.719 -0.1998 -0.3227  0.1981
 5868TIP3    H117543   1.070   6.498   4.760 -0.1518 -0.2986  0.0882
 5868TIP3    H217544   1.009   6.420   4.646 -0.2008  0.3783 -0.3475
 5869TIP3   OH217545   4.274   0.112   5.120  0.0810  0.5258 -0.1516
 5869TIP3    H117546   4.351   0.088   5.172 -0.1108 -0.5939 -0.3815
 5869TIP3    H217547   4.307   0.121   5.031  0.4630  2.7007  0.1700
 5870TIP3   OH217548   0.095   0.759   3.111 -0.4637 -0.0560 -0.0383
 5870TIP3    H117549   0.093   0.718   3.197 -2.6199  1.4939  0.6936
 5870TIP3    H217550   0.143   0.840   3.125 -0.4329 -0.0167 -0.3804
 5871TIP3   OH217551   2.754   6.540   2.871  0.3295 -0.4810 -0.3188
 5871TIP3    H117552   2.718   6.487   2.800 -0.7550 -0.2041  0.0132
 5871TIP3    H217553   2.678   6.580   2.913  1.0393  0.3419  0.2296
 5872TIP3   OH217554   0.171   4.112   0.136 -0.6770  0.3973 -0.3993
 5872TIP3    H117555   0.123   4.060   0.200 -0.6839  0.7093 -0.1468
 5872TIP3    H217556   0.107   4.131   0.068 -0.8704  0.6844 -0.1376
 5873TIP3   OH217557   6.326   2.339   4.044 -0.1090  0.1767 -0.1895
 5873TIP3    H117558   6.378   2.409   4.083  0.3458  0.2612 -0.9300
 5873TIP3    H217559   6.286   2.294   4.118 -0.3063  1.1432  0.3059
 5874TIP3   OH217560   3.921   0.505   3.258  0.1752 -0.4132  0.3711
 5874TIP3    H117561   3.855   0.544   3.202 -0.9732 -0.2692  1.7960
 5874TIP3    H217562   3.908   0.411   3.248  1.5109 -0.4355 -1.3787
 5875TIP3   OH217563   0.897   7.878   2.657  0.0215  0.3473  0.2611
 5875TIP3    H117564   0.944   7.856   2.737 -0.2859  0.4540  0.4706
 5875TIP3    H217565   0.966   7.892   2.592  0.4179  2.7474  1.1136
 5876TIP3   OH217566   6.298   4.496   0.253 -0.1176  0.0618 -0.3406
 5876TIP3    H117567   6.228   4.512   0.189  0.0083  0.7837 -0.3063
 5876TIP3    H217568   6.260   4.434   0.315 -1.4389  1.9626  0.8116
 5877TIP3   OH217569   5.171   2.725   4.881 -0.1910 -0.0979  0.0150
 5877TIP3    H117570   5.186   2.666   4.806 -2.8369 -0.7952 -0.0222
 5877TIP3    H217571   5.234   2.796   4.869 -1.5749  0.6239 -3.7973
 5878TIP3   OH217572   6.558   2.616   5.576 -0.2849  0.3312 -0.3721
 5878TIP3    H117573   6.509   2.593   5.655 -1.8907  2.0498 -0.8254
 5878TIP3    H217574   6.573   2.710   5.585 -0.2904  0.4931 -2.0024
 5879TIP3   OH217575   6.094   2.193   3.799 -0.0019  0.3715 -0.2972
 5879TIP3    H117576   6.095   2.109   3.845  0.7777  0.5506  0.0241
 5879TIP3    H217577   6.033   2.180   3.726  0.5658 -0.6696 -0.6040
 5880TIP3   OH217578   4.753   2.390   6.897 -0.3179 -0.8285  0.0289
 5880TIP3    H117579   4.812   2.374   6.823 -1.6203 -1.6756 -0.8418
 5880TIP3    H217580   4.799   2.455   6.950  2.4592 -3.1012  0.5499
 5881TIP3   OH217581   5.521   3.601   4.326 -0.5286  0.4091 -0.6623
 5881TIP3    H117582   5.507   3.634   4.237  0.4380  0.5029 -0.7799
 5881TIP3    H217583   5.580   3.664   4.367  0.6123 -0.6985 -0.5963
 5882TIP3   OH217584   6.012   0.261   4.146 -0.3945  0.2352  0.6691
 5882TIP3    H117585   6.072   0.241   4.219 -0.2009  1.1211  0.7591
 5882TIP3    H217586   6.067   0.306   4.082 -0.5348 -0.6683 -0.0940
 5883TIP3   OH217587   3.046   6.397   3.678 -0.2373 -0.1781 -0.1431
 5883TIP3    H117588   3.129   6.423   3.719 -0.9364  3.6103 -1.0220
 5883TIP3    H217589   2.987   6.380   3.752  0.7213 -1.0089  0.4528
 5884TIP3   OH217590   5.512   1.178   4.032  0.1490 -0.0634  0.0286
 5884TIP3    H117591   5.585   1.138   3.985 -0.0618 -0.1152 -0.2545
 5884TIP3    H217592   5.515   1.138   4.120 -0.5364 -1.2864 -0.4924
 5885TIP3   OH217593   3.542   0.956   6.387 -0.1466 -0.2434 -0.0925
 5885TIP3    H117594   3.501   0.919   6.465 -2.0304 -2.0344 -1.8709
 5885TIP3    H217595   3.610   0.893   6.363 -0.1955 -0.1663 -0.4375
 5886TIP3   OH217596   4.525   0.585   6.554 -0.3336 -0.4482  0.5088
 5886TIP3    H117597   4.446   0.639   6.554 -1.5217 -2.1407 -0.9662
 5886TIP3    H217598   4.497   0.500   6.587  0.6795 -1.3067 -0.7424
 5887TIP3   OH217599   2.956   2.341   5.528  0.1293 -0.0427  0.3621
 5887TIP3    H117600   2.888   2.303   5.584  0.2777 -2.3013 -0.9133
 5887TIP3    H217601   3.036   2.295   5.553  0.7722  1.1082  0.4103
 5888TIP3   OH217602   4.788   2.977   6.030 -0.2959  0.2039 -0.0652
 5888TIP3    H117603   4.696   2.963   6.007 -0.2528 -0.1090 -0.0477
 5888TIP3    H217604   4.785   3.015   6.118 -0.3251 -1.9317  0.8849
 5889TIP3   OH217605   5.763   1.880   3.633 -0.1535 -0.5573 -0.1304
 5889TIP3    H117606   5.793   1.867   3.543  1.2817 -2.2739  0.5579
 5889TIP3    H217607   5.669   1.861   3.631 -0.2789  0.1733 -1.3985
 5890TIP3   OH217608   4.311   0.976   6.297  0.0325 -0.1708  0.4056
 5890TIP3    H117609   4.394   0.999   6.256  0.5279 -0.5543  1.1818
 5890TIP3    H217610   4.304   1.036   6.371  0.0507 -0.7296  0.8662
 5891TIP3   OH217611   6.020   0.161   5.253  0.6053 -0.3537 -0.1117
 5891TIP3    H117612   6.104   0.121   5.278  1.2264  1.2840  0.5263
 5891TIP3    H217613   5.994   0.115   5.173  2.4523 -0.4673 -0.6802
 5892TIP3   OH217614   3.940   1.733   6.949  0.3183 -0.4474 -0.0400
 5892TIP3    H117615   3.967   1.816   6.988 -1.3092  0.5370 -0.9603
 5892TIP3    H217616   3.957   1.743   6.856 -0.2420 -1.0168 -0.2062
 5893TIP3   OH217617   4.437   1.706   5.119  0.0517  0.6001 -0.3307
 5893TIP3    H117618   4.505   1.642   5.098  1.6655  1.7542  1.2889
 5893TIP3    H217619   4.434   1.764   5.043  2.5266  1.9314  0.5551
 5894TIP3   OH217620   4.118   7.290   2.493  0.1650  0.1426 -0.3854
 5894TIP3    H117621   4.182   7.242   2.546 -0.5790 -1.3137 -0.7865
 5894TIP3    H217622   4.079   7.353   2.555 -0.1326 -0.9965  0.6099
 5895TIP3   OH217623   4.339   0.474   2.235  0.1026  0.2204 -0.3922
 5895TIP3    H117624   4.252   0.511   2.250  0.0469  0.7688 -2.0479
 5895TIP3    H217625   4.337   0.390   2.281 -1.2457  0.3025 -0.2783
 5896TIP3   OH217626   4.914   1.113   5.330  0.4890  0.7300  0.0997
 5896TIP3    H117627   4.918   1.131   5.423  0.8748 -0.2081  0.2738
 5896TIP3    H217628   4.983   1.166   5.291  1.6475 -0.3956  0.6001
 5897TIP3   OH217629   4.903   1.250   5.585  0.3325 -0.4370 -0.3020
 5897TIP3    H117630   4.990   1.228   5.617  0.9572  1.7676 -0.4687
 5897TIP3    H217631   4.898   1.345   5.589 -2.7874 -0.5885  1.5891
 5898TIP3   OH217632   0.438   5.880   1.620 -0.7829 -0.0511  0.0404
 5898TIP3    H117633   0.436   5.943   1.692 -1.1870 -1.5236  1.3298
 5898TIP3    H217634   0.497   5.920   1.556  0.8164  0.5819  1.8377
 5899TIP3   OH217635   5.595   1.873   4.506  0.1375  0.1537 -0.1640
 5899TIP3    H117636   5.560   1.962   4.512 -0.7619 -0.2533  0.7937
 5899TIP3    H217637   5.545   1.832   4.435 -0.0934  0.1256  0.0147
 5900TIP3   OH217638   4.113   0.862   4.958  0.1728  0.2177 -0.4072
 5900TIP3    H117639   4.123   0.899   4.870  2.1260  0.3592 -0.1532
 5900TIP3    H217640   4.118   0.937   5.017 -0.4601  0.0500 -0.1414
 5901TIP3   OH217641   7.153   2.289   4.308  0.1381 -0.2588 -0.0939
 5901TIP3    H117642   7.241   2.259   4.285  0.1873  1.0333 -1.6759
 5901TIP3    H217643   7.094   2.224   4.267  0.3314 -0.4380 -0.0869
 5902TIP3   OH217644   4.663   2.192   6.118  0.8033  0.2795  0.3095
 5902TIP3    H117645   4.735   2.238   6.076 -0.0466  0.8350 -0.5588
 5902TIP3    H217646   4.633   2.252   6.187 -1.1046  1.6303 -1.6115
 5903TIP3   OH217647   7.754   1.465   3.316 -0.9128 -0.2476 -0.0103
 5903TIP3    H117648   7.710   1.479   3.400 -1.1264 -0.6590 -0.0564
 5903TIP3    H217649   7.797   1.549   3.298 -1.7883  0.2008 -0.0321
 5904TIP3   OH217650   3.780   2.765   5.046 -0.2209 -0.2422 -0.2773
 5904TIP3    H117651   3.695   2.725   5.024  2.0839 -3.8042 -3.4687
 5904TIP3    H217652   3.803   2.726   5.130 -1.0677 -0.4639 -0.1351
 5905TIP3   OH217653   2.124   7.535   5.713  0.3046 -0.0407  0.2091
 5905TIP3    H117654   2.212   7.513   5.682 -0.6668 -0.3336 -2.4718
 5905TIP3    H217655   2.123   7.631   5.716  0.6134 -0.0284 -0.0671
 5906TIP3   OH217656   4.300   1.104   6.799  0.2546  0.0916 -0.1505
 5906TIP3    H117657   4.324   1.195   6.815 -0.8695  0.3987 -0.1054
 5906TIP3    H217658   4.369   1.070   6.742  0.4202  1.1229 -0.5748
 5907TIP3   OH217659   3.828   3.226   6.612 -0.6281  0.6845  0.1918
 5907TIP3    H117660   3.855   3.309   6.651 -0.1314  0.1777  0.9520
 5907TIP3    H217661   3.817   3.245   6.519  0.3668  1.3868  0.2114
 5908TIP3   OH217662   3.368   2.721   2.648 -0.1568 -0.4000  0.1475
 5908TIP3    H117663   3.356   2.706   2.742 -0.1233  0.0080  0.2202
 5908TIP3    H217664   3.427   2.651   2.619 -0.6770 -0.9038  0.3014
 5909TIP3   OH217665   5.686   2.944   4.269  0.1903 -0.1738 -0.5546
 5909TIP3    H117666   5.643   2.987   4.343 -0.0175  0.4106 -1.0176
 5909TIP3    H217667   5.667   2.999   4.194 -0.3748 -1.2564 -1.2236
 5910TIP3   OH217668   0.474   1.152   5.327  0.1467  0.2907  0.3465
 5910TIP3    H117669   0.436   1.239   5.317  0.0806  0.0493 -1.6160
 5910TIP3    H217670   0.409   1.102   5.376  0.5585  1.5613  2.2718
 5911TIP3   OH217671   0.470   4.257   1.321 -0.1170 -0.5433 -0.7682
 5911TIP3    H117672   0.510   4.311   1.389  0.0228 -1.1422 -0.3640
 5911TIP3    H217673   0.523   4.272   1.243  0.3787 -0.6795 -0.4598
 5912TIP3   OH217674   1.917   7.711   4.056 -0.2420 -0.3249  0.1654
 5912TIP3    H117675   1.863   7.718   4.135 -1.9266 -0.1734 -0.9612
 5912TIP3    H217676   1.905   7.621   4.026 -0.9331  0.0791 -0.8117
 5913TIP3   OH217677   3.087   1.675   4.103  0.3319 -0.1084  0.0761
 5913TIP3    H117678   3.179   1.695   4.089  0.6369 -1.6560 -0.2725
 5913TIP3    H217679   3.047   1.688   4.017 -0.0128  1.6945  0.4900
 5914TIP3   OH217680   2.820   6.681   3.778  0.0034 -0.9306  0.4253
 5914TIP3    H117681   2.914   6.685   3.761  0.2483 -0.3651  1.9028
 5914TIP3    H217682   2.813   6.680   3.873 -1.5408  0.1664  0.3324
 5915TIP3   OH217683   5.777   3.403   5.143 -0.2850 -0.1035 -0.4785
 5915TIP3    H117684   5.783   3.328   5.084 -0.3134 -0.1960 -0.3641
 5915TIP3    H217685   5.724   3.467   5.095  0.2604  0.0877 -0.8279
 5916TIP3   OH217686   4.467   0.952   6.623 -0.0125 -0.4286  0.0251
 5916TIP3    H117687   4.518   0.922   6.698 -2.2207 -1.3172  1.2407
 5916TIP3    H217688   4.394   0.890   6.618 -0.3557  0.1087 -2.3698
 5917TIP3   OH217689   4.983   2.592   6.192  0.0793 -0.4940  0.3478
 5917TIP3    H117690   4.955   2.614   6.103 -0.8822  1.7245  1.1556
 5917TIP3    H217691   5.037   2.514   6.182 -0.6098 -0.6861 -2.0968
 5918TIP3   OH217692   5.208   3.115   5.580  0.0096 -0.3721 -0.2788
 5918TIP3    H117693   5.124   3.087   5.545  0.4685 -0.3464 -1.4171
 5918TIP3    H217694   5.251   3.035   5.608  0.7581 -0.6924 -2.2778
 5919TIP3   OH217695   6.073   0.426   5.349  0.3779  0.1819  0.0486
 5919TIP3    H117696   6.071   0.344   5.300 -1.3887  0.4327 -0.3118
 5919TIP3    H217697   6.048   0.493   5.286 -2.3337  0.4543  1.3344
 5920TIP3   OH217698   4.945   0.056   6.436 -0.1862  0.5615  0.0882
 5920TIP3    H117699   5.037   0.032   6.441 -0.1954  0.8045  1.4339
 5920TIP3    H217700   4.932   0.080   6.344  0.7988 -0.6164 -0.3712
 5921TIP3   OH217701   4.578   0.037   3.756 -0.0347  0.0374  0.5777
 5921TIP3    H117702   4.638   0.025   3.829 -1.2955  0.6537  1.7303
 5921TIP3    H217703   4.588   0.129   3.730  1.4216 -0.5321 -0.9405
 5922TIP3   OH217704   5.820   0.455   5.061  0.3889 -0.2945 -0.2252
 5922TIP3    H117705   5.795   0.375   5.108  0.3566 -0.8854 -1.2391
 5922TIP3    H217706   5.797   0.438   4.970  1.3210  0.4818 -0.6187
 5923TIP3   OH217707   4.720   0.878   5.912  0.0563 -0.4386 -0.4789
 5923TIP3    H117708   4.685   0.903   5.826  1.1142 -0.2604 -0.8590
 5923TIP3    H217709   4.694   0.950   5.970 -2.2267 -1.4018 -0.2300
 5924TIP3   OH217710   5.549   1.279   5.912  0.8750 -0.3465 -0.1469
 5924TIP3    H117711   5.565   1.188   5.888  1.3524 -0.1598 -0.5516
 5924TIP3    H217712   5.575   1.329   5.834  2.6670  0.2979  0.8367
 5925TIP3   OH217713   1.194   3.879   1.145  0.4914 -0.1938 -0.7350
 5925TIP3    H117714   1.213   3.788   1.123 -0.4370 -0.8878  1.2221
 5925TIP3    H217715   1.279   3.920   1.158  0.8422 -1.8152  2.3424
 5926TIP3   OH217716   0.643   2.916   1.840 -0.0456  0.6989  0.3059
 5926TIP3    H117717   0.603   2.989   1.887  0.2502  0.5843  0.7408
 5926TIP3    H217718   0.580   2.894   1.771  0.2257  1.8886 -0.3326
 5927TIP3   OH217719   5.072   0.830   6.201 -0.2355 -0.9712  0.2170
 5927TIP3    H117720   5.060   0.760   6.264  0.4730 -1.6978 -0.4474
 5927TIP3    H217721   4.991   0.881   6.206 -0.5399 -1.5350  1.0646
 5928TIP3   OH217722   2.256   6.378   2.555 -0.3897 -0.3929 -0.2146
 5928TIP3    H117723   2.334   6.376   2.498  0.8219 -1.2926  1.4459
 5928TIP3    H217724   2.232   6.286   2.565 -1.7255 -0.1117 -0.7593
 5929TIP3   OH217725   1.317   7.080   3.177 -0.3536  0.7877 -0.0615
 5929TIP3    H117726   1.373   7.145   3.136  1.3427 -0.4192  0.3192
 5929TIP3    H217727   1.348   6.996   3.144 -1.2488  0.0320  0.9644
 5930TIP3   OH217728   3.625   2.663   5.281  0.8315  0.2099 -0.3112
 5930TIP3    H117729   3.600   2.712   5.360  0.5709  0.9856 -0.8719
 5930TIP3    H217730   3.674   2.588   5.315  0.9378  0.6647  0.5796
 5931TIP3   OH217731   4.764   0.971   3.927  0.0543  0.5104 -0.3329
 5931TIP3    H117732   4.676   1.004   3.946  0.2393 -0.6283  2.8223
 5931TIP3    H217733   4.749   0.891   3.877 -0.6300  1.1318 -1.1457
 5932TIP3   OH217734   6.495   2.603   5.102  0.3650  0.3465 -0.0618
 5932TIP3    H117735   6.457   2.520   5.072  1.3471  0.3022 -1.2233
 5932TIP3    H217736   6.434   2.669   5.070 -1.2782  0.0167  2.2365
 5933TIP3   OH217737   0.074   1.053   4.545  0.0587 -0.6032  0.2805
 5933TIP3    H117738   0.056   1.013   4.460  0.7561  1.3018 -0.7999
 5933TIP3    H217739   0.158   1.016   4.573  0.5112 -0.1748 -0.5195
 5934TIP3   OH217740   5.262   0.786   5.269  0.2615  0.0278  0.1334
 5934TIP3    H117741   5.193   0.756   5.328 -0.1967 -0.9595 -0.9048
 5934TIP3    H217742   5.271   0.879   5.289 -0.0468 -0.2480  1.6064
 5935TIP3   OH217743   5.707   0.892   4.661 -0.4398  0.4927  0.8387
 5935TIP3    H117744   5.634   0.829   4.667 -0.2174  0.1535  0.0514
 5935TIP3    H217745   5.687   0.957   4.728 -2.1497  1.0884 -0.1944
 5936TIP3   OH217746   6.702   0.563   6.114  0.6882 -0.2889  0.1205
 5936TIP3    H117747   6.636   0.561   6.045 -1.3021  0.3819  1.9311
 5936TIP3    H217748   6.753   0.643   6.097  0.6663 -0.5058 -0.9670
 5937TIP3   OH217749   7.043   2.381   6.114 -0.6991  0.6250 -0.1786
 5937TIP3    H117750   7.014   2.328   6.040 -0.4454 -2.0722  1.5927
 5937TIP3    H217751   7.010   2.469   6.095 -2.8131 -0.5601 -2.2286
 5938TIP3   OH217752   2.831   7.673   4.945 -0.1941 -0.2526 -0.1972
 5938TIP3    H117753   2.744   7.709   4.930 -0.4281 -0.5759  0.4041
 5938TIP3    H217754   2.873   7.676   4.858 -0.2797  1.2577 -0.1976
 5939TIP3   OH217755   6.213   0.207   3.475 -0.2031 -0.4770 -0.4404
 5939TIP3    H117756   6.189   0.144   3.408  0.2048 -0.1324 -0.9158
 5939TIP3    H217757   6.218   0.156   3.556  1.7634 -1.3976 -1.1083
 5940TIP3   OH217758   2.671   7.970   2.552 -0.0213 -0.5461  0.2276
 5940TIP3    H117759   2.674   7.891   2.606 -0.6658  0.7284  2.2100
 5940TIP3    H217760   2.706   8.039   2.608  0.3699  0.6237 -1.4093
 5941TIP3   OH217761   0.406   1.864   5.420 -0.0633 -0.4446 -0.3628
 5941TIP3    H117762   0.437   1.897   5.335 -0.2215 -0.6165 -0.4862
 5941TIP3    H217763   0.463   1.907   5.484  1.6627 -2.1473 -0.6894
 5942TIP3   OH217764   5.646   2.774   3.765 -0.0517 -0.1417  0.1732
 5942TIP3    H117765   5.736   2.787   3.736  0.0172 -1.4499 -0.2111
 5942TIP3    H217766   5.636   2.679   3.770 -1.1189  0.0152  1.1271
 5943TIP3   OH217767   6.569   2.411   5.812  0.0977 -0.0561 -0.1896
 5943TIP3    H117768   6.617   2.428   5.893 -0.3848 -0.5045  0.2007
 5943TIP3    H217769   6.508   2.340   5.835 -0.6812  0.4385 -0.6970
 5944TIP3   OH217770   6.329   0.229   4.112 -0.1874  0.3401  0.1027
 5944TIP3    H117771   6.328   0.241   4.017 -0.8800  0.5901  0.1378
 5944TIP3    H217772   6.410   0.181   4.129 -0.3727 -0.2662 -0.6778
 5945TIP3   OH217773   6.553   0.177   3.330 -0.4668 -0.4242 -0.0504
 5945TIP3    H117774   6.541   0.094   3.376  2.3034 -0.7492  0.1576
 5945TIP3    H217775   6.541   0.244   3.397  1.0241 -0.8032  0.6024
 5946TIP3   OH217776   3.093   7.838   6.801  0.0071 -0.1541 -0.0715
 5946TIP3    H117777   3.163   7.775   6.816  0.0104 -0.2019 -0.2760
 5946TIP3    H217778   3.089   7.891   6.881  0.3561 -0.0749 -0.1075
 5947TIP3   OH217779   3.859   7.324   5.385  0.4432  0.3273 -0.2904
 5947TIP3    H117780   3.911   7.330   5.304 -1.8371  0.4668 -1.7852
 5947TIP3    H217781   3.771   7.348   5.359 -0.8971 -2.1433  1.7044
 5948TIP3   OH217782   7.027   5.468   0.949 -0.1506 -0.2216 -0.5804
 5948TIP3    H117783   6.967   5.395   0.968  0.1653 -0.8518 -1.9627
 5948TIP3    H217784   7.068   5.445   0.866  2.2897  0.0321  0.5088
 5949TIP3   OH217785   3.706   0.294   4.158  0.4357  0.4631  0.3271
 5949TIP3    H117786   3.665   0.246   4.086  1.4886  0.6579 -0.4131
 5949TIP3    H217787   3.703   0.234   4.232 -1.0053  0.4072  0.2295
 5950TIP3   OH217788   5.233   0.972   6.744 -0.0573 -0.5070  0.1713
 5950TIP3    H117789   5.281   0.937   6.669 -0.0015  0.9230 -0.4794
 5950TIP3    H217790   5.289   1.043   6.777 -0.5152 -0.5215  0.9938
 5951TIP3   OH217791   5.949   6.814   0.051  0.0919  0.8115 -0.1385
 5951TIP3    H117792   5.962   6.783  -0.038  0.1740 -0.9429  0.4537
 5951TIP3    H217793   5.922   6.905   0.042  1.0697  0.9306 -1.8961
 5952TIP3   OH217794   7.579   2.649   6.008 -0.1588 -0.8141 -0.0463
 5952TIP3    H117795   7.565   2.684   5.920  1.0012  2.4624  0.9902
 5952TIP3    H217796   7.492   2.648   6.048 -0.5061 -1.0735 -0.8154
 5953TIP3   OH217797   6.089   0.845   6.417 -0.2193  0.0751 -0.8358
 5953TIP3    H117798   6.077   0.938   6.397 -0.8823  0.4026  1.0289
 5953TIP3    H217799   6.115   0.806   6.333 -0.1265  1.8969 -1.6787
 5954TIP3   OH217800   5.573   0.378   4.078  0.1804 -0.1552 -0.3012
 5954TIP3    H117801   5.636   0.311   4.051 -0.8556 -0.6568 -1.5057
 5954TIP3    H217802   5.492   0.330   4.093 -0.6652  0.8649 -1.4942
 5955TIP3   OH217803   3.870   1.480   5.065 -0.1050 -0.2751 -0.4874
 5955TIP3    H117804   3.897   1.493   4.974 -0.0514  1.9157 -0.1731
 5955TIP3    H217805   3.784   1.521   5.071  0.5919  1.0108  0.8464
 5956TIP3   OH217806   6.837   6.964   0.306  0.3268  0.1771  0.4096
 5956TIP3    H117807   6.903   6.911   0.352  1.9282  2.4068  0.8147
 5956TIP3    H217808   6.814   7.032   0.370 -0.7222  0.7160 -0.5379
 5957TIP3   OH217809   3.941   1.402   3.096  0.0330  0.5391  0.0084
 5957TIP3    H117810   4.022   1.396   3.046  0.1679  1.4188  0.1224
 5957TIP3    H217811   3.968   1.426   3.184 -0.2771 -0.1596  0.3044
 5958TIP3   OH217812   5.804   4.209   5.304 -0.4203 -0.6274 -0.3858
 5958TIP3    H117813   5.742   4.143   5.272  1.2998 -1.4780 -2.0406
 5958TIP3    H217814   5.825   4.182   5.393 -1.2539 -1.1806 -0.3488
 5959TIP3   OH217815   5.651   3.890   5.997  0.2493 -0.1025  0.1096
 5959TIP3    H117816   5.701   3.810   6.012  1.0036  0.2588 -0.4341
 5959TIP3    H217817   5.663   3.942   6.077  2.0680  0.6663 -0.6201
 5960TIP3   OH217818   4.944   1.877   5.505 -0.3967 -0.0388 -0.7004
 5960TIP3    H117819   4.978   1.918   5.426 -1.4918 -0.8451 -1.6018
 5960TIP3    H217820   4.902   1.949   5.553 -0.4888  0.2840 -1.2708
 5961TIP3   OH217821   1.821   6.416   4.740 -0.2918  0.1709  0.0759
 5961TIP3    H117822   1.735   6.376   4.730 -0.4708  0.9723 -1.8408
 5961TIP3    H217823   1.880   6.343   4.762 -1.1475 -0.6294 -0.2786
 5962TIP3   OH217824   5.593   2.701   4.520  0.6227  0.0778  0.7461
 5962TIP3    H117825   5.539   2.778   4.503 -0.2144 -0.5910  0.3066
 5962TIP3    H217826   5.615   2.707   4.613  1.0966  1.1773  0.5623
 5963TIP3   OH217827   0.924   7.095   4.237  0.9421 -0.2085 -0.7873
 5963TIP3    H117828   0.968   7.128   4.158  2.2127  0.8315  0.3136
 5963TIP3    H217829   0.914   7.001   4.222 -0.3335  0.2198 -2.8704
 5964TIP3   OH217830   4.741   2.578   4.329  0.3182  0.2008 -0.3702
 5964TIP3    H117831   4.786   2.535   4.402  1.8198 -0.6387 -1.7642
 5964TIP3    H217832   4.744   2.672   4.350  1.3605  0.0191  0.2922
 5965TIP3   OH217833   5.982   2.965   5.107  0.1768 -0.4448  0.5016
 5965TIP3    H117834   5.892   2.952   5.138 -0.2186  0.6049 -0.1774
 5965TIP3    H217835   6.037   2.941   5.182 -0.6266 -2.1673  0.5581
 5966TIP3   OH217836   6.520   2.304   4.447 -0.5297  0.4964 -0.2485
 5966TIP3    H117837   6.544   2.289   4.356  0.5272  1.8357 -0.2030
 5966TIP3    H217838   6.425   2.287   4.449 -0.7348  1.3096 -1.7897
 5967TIP3   OH217839   0.391   0.204   2.028 -0.8435 -0.2012 -0.6829
 5967TIP3    H117840   0.363   0.169   2.112 -0.8560  0.6054 -0.3420
 5967TIP3    H217841   0.469   0.257   2.048  1.1815 -2.6745 -1.6586
 5968TIP3   OH217842   0.504   0.170   2.877 -0.4673 -0.0808  0.3075
 5968TIP3    H117843   0.412   0.143   2.877 -0.2779 -0.7212  0.3573
 5968TIP3    H217844   0.547   0.110   2.937 -0.2204  0.9381  1.1804
 5969TIP3   OH217845   6.104   1.150   4.771 -0.8120  0.4872 -0.1903
 5969TIP3    H117846   6.060   1.087   4.714  0.3997  0.0188 -0.6320
 5969TIP3    H217847   6.135   1.098   4.845  0.4907  0.4898 -0.7229
 5970TIP3   OH217848   8.110   0.285   4.322  0.1861  0.2567  0.3403
 5970TIP3    H117849   8.102   0.316   4.231  1.7468 -0.9740 -0.2392
 5970TIP3    H217850   8.126   0.191   4.313 -2.1917 -0.3329  1.9933
 5971TIP3   OH217851   3.404   7.838   4.756 -0.0729  0.2582 -0.1763
 5971TIP3    H117852   3.388   7.751   4.792  2.7102 -0.6134 -0.9405
 5971TIP3    H217853   3.404   7.825   4.662 -1.2010  1.4021 -0.3470
 5972TIP3   OH217854   7.799   1.205   3.226 -0.2263 -0.5740 -0.1718
 5972TIP3    H117855   7.787   1.300   3.232  2.2291 -0.2994  1.4519
 5972TIP3    H217856   7.824   1.178   3.315  1.0860 -2.4052 -1.0499
 5973TIP3   OH217857   4.267   7.694   5.849  0.0265  0.0211  0.9264
 5973TIP3    H117858   4.306   7.711   5.935  0.3084 -0.5546  0.9189
 5973TIP3    H217859   4.285   7.773   5.798  0.5564  0.0542  1.1582
 5974TIP3   OH217860   7.796   1.597   5.361 -0.6359 -0.4313 -1.0994
 5974TIP3    H117861   7.890   1.612   5.366 -0.5504 -0.6137 -2.1780
 5974TIP3    H217862   7.759   1.654   5.429  0.0647  1.2986 -2.1378
 5975TIP3   OH217863   7.179   2.789   5.663 -0.2112 -0.0565  0.0620
 5975TIP3    H117864   7.136   2.873   5.682 -0.8068  0.3148 -2.7739
 5975TIP3    H217865   7.261   2.814   5.620  0.2596 -0.9108  0.4584
 5976TIP3   OH217866   4.675   7.880   3.908  0.2377 -0.5061 -0.3660
 5976TIP3    H117867   4.763   7.903   3.935  0.1119 -0.4422 -0.0057
 5976TIP3    H217868   4.639   7.831   3.982 -0.2047 -0.0903 -0.3044
 5977TIP3   OH217869   6.492   1.528   6.801  0.1163 -0.1673 -0.0677
 5977TIP3    H117870   6.572   1.578   6.820  0.6250 -1.2825  0.7785
 5977TIP3    H217871   6.423   1.594   6.798  1.3297  1.0797 -2.7331
 5978TIP3   OH217872   0.699   0.651   4.903 -0.4780  0.1878  0.3060
 5978TIP3    H117873   0.770   0.586   4.906 -0.5128  0.1239 -0.3361
 5978TIP3    H217874   0.739   0.729   4.866 -0.6088  0.3226  0.4481
 5979TIP3   OH217875   3.724   7.815   6.689 -0.1120  0.2851 -0.4196
 5979TIP3    H117876   3.736   7.904   6.720 -1.1287  1.1020 -2.2991
 5979TIP3    H217877   3.800   7.767   6.722  0.1542  1.6934  1.0704
 5980TIP3   OH217878   6.480   1.301   4.990  0.1595 -0.7941  0.0493
 5980TIP3    H117879   6.428   1.333   5.063  0.4404 -0.1866 -0.0151
 5980TIP3    H217880   6.468   1.367   4.921  2.2223  0.1618  0.5614
 5981TIP3   OH217881   5.221   7.502   6.330  0.4864  0.5429  0.3067
 5981TIP3    H117882   5.280   7.465   6.265  1.5007  1.3010  0.7940
 5981TIP3    H217883   5.138   7.455   6.317  0.4166  1.2972 -2.0856
 5982TIP3   OH217884   7.131   2.925   4.152  0.0243  0.1491 -0.4789
 5982TIP3    H117885   7.141   2.931   4.247 -1.9443  0.0918 -0.2477
 5982TIP3    H217886   7.193   2.858   4.125  0.1435 -0.2803  0.8447
 5983TIP3   OH217887   6.662   1.128   3.516  0.1652 -0.0282 -0.2340
 5983TIP3    H117888   6.742   1.133   3.568  1.2607 -3.3812 -1.4658
 5983TIP3    H217889   6.693   1.119   3.426 -1.6710  1.6168 -1.0765
 5984TIP3   OH217890   7.369   0.074   3.548  0.6546 -1.0126 -0.1639
 5984TIP3    H117891   7.431   0.003   3.564  1.8682  0.2825  1.0563
 5984TIP3    H217892   7.346   0.105   3.636  1.1370  0.9243 -0.6949
 5985TIP3   OH217893   4.627   7.094   5.549  0.1006  0.0193  0.6299
 5985TIP3    H117894   4.663   7.146   5.476  1.5520  0.8032  1.8560
 5985TIP3    H217895   4.668   7.008   5.539 -0.9140 -0.3596 -0.3677
 5986TIP3   OH217896   6.145   1.102   3.740 -0.3552 -0.2852  0.2676
 5986TIP3    H117897   6.220   1.142   3.696  1.2894 -2.5748  0.9131
 5986TIP3    H217898   6.150   1.136   3.830  0.8002 -1.5660  0.7058
 5987TIP3   OH217899   7.267   2.883   1.311 -0.3499  0.5012  0.3032
 5987TIP3    H117900   7.235   2.800   1.276  0.0420  0.6221 -0.3583
 5987TIP3    H217901   7.295   2.862   1.400  1.1083 -0.4221 -0.3462
 5988TIP3   OH217902   5.043   3.106   3.351 -0.2533 -0.3697 -0.2951
 5988TIP3    H117903   5.034   3.048   3.275 -0.9090 -1.1043  0.3283
 5988TIP3    H217904   5.072   3.189   3.314  0.7994 -1.1108 -1.2006
 5989TIP3   OH217905   6.318   2.372   5.566  0.2048 -0.0304  0.3080
 5989TIP3    H117906   6.316   2.467   5.578  2.4128 -0.0248  1.0393
 5989TIP3    H217907   6.307   2.337   5.654 -2.5599 -0.5221 -0.2117
 5990TIP3   OH217908   7.906   2.974   6.054  0.1883  0.4404 -0.5306
 5990TIP3    H117909   7.890   3.062   6.089  0.7248  0.9723 -1.5873
 5990TIP3    H217910   7.999   2.974   6.033 -0.0674  0.0490 -1.7059
 5991TIP3   OH217911   7.512   1.654   4.991 -0.3019 -0.2116  0.0120
 5991TIP3    H117912   7.548   1.572   4.956  0.3190 -0.0779  0.3254
 5991TIP3    H217913   7.585   1.715   4.989 -0.7745  0.3520 -0.2503
 5992TIP3   OH217914   8.434   0.831   5.156 -0.2475 -0.3631 -0.2499
 5992TIP3    H117915   8.430   0.922   5.126 -1.6394 -1.0164 -2.1496
 5992TIP3    H217916   8.497   0.789   5.098 -0.0626 -0.7623  0.2301
 5993TIP3   OH217917   7.410   1.397   5.832  0.0469  0.4195  0.1704
 5993TIP3    H117918   7.416   1.457   5.758  0.1494  0.3273  0.1033
 5993TIP3    H217919   7.368   1.318   5.797  1.2597 -0.1188 -0.1077
 5994TIP3   OH217920   2.603   5.902   6.853 -0.1413  0.0578 -0.6985
 5994TIP3    H117921   2.585   5.961   6.927 -0.0019  0.3214 -0.8742
 5994TIP3    H217922   2.519   5.859   6.835  0.1804 -1.1755  0.6340
 5995TIP3   OH217923   0.706   0.507   4.183  0.1437 -0.5050  0.0613
 5995TIP3    H117924   0.641   0.540   4.244  1.6919  0.4497  1.2223
 5995TIP3    H217925   0.685   0.549   4.100 -0.9288 -0.4889  0.3376
 5996TIP3   OH217926   7.590   2.803   5.772  0.2097 -0.0380 -0.3069
 5996TIP3    H117927   7.680   2.782   5.798 -0.0733 -1.8087 -0.6764
 5996TIP3    H217928   7.600   2.860   5.696  1.0250  0.7543  0.3850
 5997TIP3   OH217929   7.279   2.006   3.235 -0.0510 -0.2402 -0.3218
 5997TIP3    H117930   7.236   2.083   3.199  0.8599  0.2654 -0.3282
 5997TIP3    H217931   7.316   2.035   3.318 -0.5929 -0.9383  0.1647
 5998TIP3   OH217932   5.755   1.535   5.879 -0.1039 -0.2906  0.4269
 5998TIP3    H117933   5.733   1.599   5.946 -1.3281 -0.3230  0.0778
 5998TIP3    H217934   5.827   1.575   5.830 -1.0820  1.0052 -0.0077
 5999TIP3   OH217935   6.611   7.789   3.181  0.3410 -0.5187  0.4080
 5999TIP3    H117936   6.689   7.798   3.236 -1.1317 -0.2421  2.5087
 5999TIP3    H217937   6.574   7.705   3.207 -1.1029  0.2328  0.8506
 6000TIP3   OH217938   6.882   1.454   6.721  0.2894 -0.5597 -0.1183
 6000TIP3    H117939   6.934   1.389   6.768 -0.6075 -0.9886  0.2877
 6000TIP3    H217940   6.805   1.406   6.690 -0.7092  0.4221  0.7382
 6001TIP3   OH217941   0.426   0.020   4.322  0.3207  0.1962 -0.2993
 6001TIP3    H117942   0.392   0.105   4.294 -0.7422  0.0476  0.5419
 6001TIP3    H217943   0.470   0.038   4.405 -1.7188 -0.4538  0.9281
 6002TIP3   OH217944   0.159   4.843   0.628  0.3460  0.2191  0.4343
 6002TIP3    H117945   0.132   4.933   0.615 -1.8043 -0.7364 -2.2087
 6002TIP3    H217946   0.242   4.836   0.581  0.4534  0.7597  0.5398
 6003TIP3   OH217947   6.896   2.648   3.718  0.0973  0.2694 -0.2789
 6003TIP3    H117948   6.860   2.655   3.806  1.5588 -0.7863  0.4080
 6003TIP3    H217949   6.831   2.596   3.670 -0.2212  0.0156  0.4259
 6004TIP3   OH217950   6.787   2.408   5.651 -0.3920 -0.0507  0.4299
 6004TIP3    H117951   6.705   2.417   5.699  0.2802  2.1275  1.2576
 6004TIP3    H217952   6.762   2.409   5.558 -1.5657 -2.7858  0.6871
 6005TIP3   OH217953   6.234   0.480   4.288 -0.8326 -0.4621  0.6407
 6005TIP3    H117954   6.276   0.474   4.374 -0.0771  3.2496  0.6092
 6005TIP3    H217955   6.296   0.441   4.227  0.7677  1.1801  1.1761
 6006TIP3   OH217956   1.136   2.142   3.580  0.3910  0.1526 -0.1235
 6006TIP3    H117957   1.134   2.223   3.630 -0.6394  0.8119 -1.2235
 6006TIP3    H217958   1.051   2.138   3.536  0.0901 -1.9491  0.5753
 6007TIP3   OH217959   5.283   1.699   5.436 -0.1969  0.0831  0.2117
 6007TIP3    H117960   5.326   1.703   5.522  0.8378 -1.3893 -0.2079
 6007TIP3    H217961   5.335   1.757   5.381 -0.5923  0.6768  0.4547
 6008TIP3   OH217962   6.348   2.259   4.730  0.2695 -0.0544  0.2542
 6008TIP3    H117963   6.443   2.252   4.728  0.1359 -1.6773 -1.4039
 6008TIP3    H217964   6.317   2.170   4.715 -1.5215  0.5104  0.4734
 6009TIP3   OH217965   0.674   3.087   4.300 -0.0162 -0.1668  0.4826
 6009TIP3    H117966   0.716   3.170   4.280 -0.9303  0.3110  0.5315
 6009TIP3    H217967   0.724   3.052   4.374  0.8060 -0.0048  0.0127
 6010TIP3   OH217968   6.355   1.953   4.402 -0.0438 -0.6487  0.1585
 6010TIP3    H117969   6.405   1.930   4.480  1.5945  1.7692 -0.1251
 6010TIP3    H217970   6.337   2.047   4.412 -2.3347 -0.9404 -0.9860
 6011TIP3   OH217971   6.931   2.288   2.997 -0.8698  0.5529  0.1224
 6011TIP3    H117972   6.955   2.219   2.935 -1.7657  1.2205 -0.9891
 6011TIP3    H217973   6.855   2.253   3.044 -1.3987  0.8207 -0.5254
 6012TIP3   OH217974   6.545   0.779   5.038 -0.1189 -0.2347 -0.1062
 6012TIP3    H117975   6.535   0.843   4.967  0.8369 -0.8385 -0.8036
 6012TIP3    H217976   6.491   0.813   5.109  1.8220  2.3353  0.2261
 6013TIP3   OH217977   6.648   0.176   2.337 -0.5679  0.4730 -0.5222
 6013TIP3    H117978   6.615   0.224   2.413 -0.6490  0.1817 -0.3763
 6013TIP3    H217979   6.719   0.232   2.303 -1.1223  1.0355 -0.7621
 6014TIP3   OH217980   4.161   6.926   4.712  0.2816  0.2740 -0.3429
 6014TIP3    H117981   4.092   6.988   4.734 -0.7700 -0.5094 -1.3818
 6014TIP3    H217982   4.120   6.840   4.720  0.7673 -0.1508 -2.1983
 6015TIP3   OH217983   8.394   1.802   4.643  0.2905 -0.2174 -0.2499
 6015TIP3    H117984   8.362   1.890   4.627 -1.2538 -0.3708  1.7351
 6015TIP3    H217985   8.319   1.745   4.624  0.3601 -0.8548  1.3163
 6016TIP3   OH217986   8.353   2.557   5.635 -0.7229 -0.2398 -0.2801
 6016TIP3    H117987   8.294   2.546   5.560  0.7720  0.8051 -1.6560
 6016TIP3    H217988   8.372   2.467   5.664 -0.3304 -0.7204 -1.9709
 6017TIP3   OH217989   8.053   1.213   2.658 -0.6490  0.2631  0.0611
 6017TIP3    H117990   8.147   1.196   2.647 -0.8422 -0.4771 -0.4866
 6017TIP3    H217991   8.039   1.208   2.752 -0.1018  0.5729  0.1626
 6018TIP3   OH217992   8.339   1.798   3.719 -0.0972 -0.1406  0.3795
 6018TIP3    H117993   8.246   1.811   3.701 -0.1652  0.1180  0.9079
 6018TIP3    H217994   8.375   1.763   3.637 -0.8122 -1.0056  0.4335
 6019TIP3   OH217995   8.097   1.172   5.490  0.3285  0.1067 -0.1887
 6019TIP3    H117996   8.070   1.194   5.401  0.7951  0.8676 -0.1516
 6019TIP3    H217997   8.146   1.091   5.482 -2.2192 -1.4978 -0.2245
 6020TIP3   OH217998   8.402   0.315   4.808 -0.0854  0.2932 -0.6288
 6020TIP3    H117999   8.432   0.332   4.898 -0.1283  0.1047 -0.5794
 6020TIP3    H218000   8.457   0.371   4.754  0.8081 -0.5471 -0.5950
 6021TIP3   OH218001   0.263   0.978   3.130  0.4804 -0.1400  0.4027
 6021TIP3    H118002   0.348   1.016   3.151  0.4600  0.7750 -1.1256
 6021TIP3    H218003   0.203   1.052   3.128  0.2368 -0.3607 -1.5463
 6022TIP3   OH218004   0.456   3.296   4.725 -0.4301 -0.4821 -0.4722
 6022TIP3    H118005   0.536   3.342   4.701 -1.6536  1.3950 -1.1371
 6022TIP3    H218006   0.445   3.228   4.659 -0.8933  1.1385 -2.1043
 6023TIP3   OH218007   0.528   1.144   5.723  0.3962  0.0279 -0.1169
 6023TIP3    H118008   0.448   1.093   5.709  1.3798 -2.2077  1.9497
 6023TIP3    H218009   0.510   1.194   5.803  2.0759 -2.8397  2.1774
 6024TIP3   OH218010   5.654   2.236   4.018  0.1783  0.2693  0.0869
 6024TIP3    H118011   5.725   2.290   3.983  0.2227 -0.3114 -0.7567
 6024TIP3    H218012   5.671   2.231   4.112 -0.1645  2.2085  0.2647
 6025TIP3   OH218013   5.901   2.106   4.818  0.2703 -0.4472  0.2079
 6025TIP3    H118014   5.912   2.138   4.729  0.8154 -0.2619  0.3394
 6025TIP3    H218015   5.855   2.023   4.808 -1.5683  0.5830 -0.1056
 6026TIP3   OH218016   0.695   2.502   3.631  0.2784  0.3909  0.6934
 6026TIP3    H118017   0.624   2.462   3.681  0.6791  0.0365  0.9817
 6026TIP3    H218018   0.738   2.561   3.693  1.2230 -0.5879  0.9802
 6027TIP3   OH218019   3.974   1.141   5.572 -0.1264 -0.1882 -0.4856
 6027TIP3    H118020   3.888   1.180   5.589  0.0402 -0.0998  0.1549
 6027TIP3    H218021   3.972   1.058   5.618  0.1331 -0.1880 -0.4735
 6028TIP3   OH218022   3.563   7.855   5.597 -0.4257 -0.1237 -0.1499
 6028TIP3    H118023   3.511   7.781   5.628 -0.3604  0.1848  0.7138
 6028TIP3    H218024   3.615   7.882   5.673  0.8785 -0.3221 -0.9529
 6029TIP3   OH218025   7.409   1.286   4.514 -0.0970  0.1238  0.6214
 6029TIP3    H118026   7.417   1.302   4.420  2.1315  0.6793  0.8705
 6029TIP3    H218027   7.358   1.360   4.546 -1.2332 -0.2891 -0.2142
 6030TIP3   OH218028   6.258   1.505   6.202  0.0322 -0.2089 -0.0293
 6030TIP3    H118029   6.195   1.562   6.157 -0.2982 -1.2613 -0.9530
 6030TIP3    H218030   6.340   1.516   6.154  0.5327  1.0789  1.1062
 6031TIP3   OH218031   0.360   0.509   4.446  0.6668 -0.1915  0.3037
 6031TIP3    H118032   0.288   0.561   4.480  0.4392 -0.1920 -0.1716
 6031TIP3    H218033   0.408   0.569   4.389  1.8862  0.2325  1.7235
 6032TIP3   OH218034   5.548   2.184   5.630 -0.1121 -0.1949  0.1699
 6032TIP3    H118035   5.580   2.095   5.616  2.1143  0.7972 -1.2889
 6032TIP3    H218036   5.606   2.220   5.698  0.4836  0.8795 -0.8830
 6033TIP3   OH218037   6.937   0.846   5.414 -0.2155 -0.3469  0.1133
 6033TIP3    H118038   7.004   0.801   5.464 -1.6954 -1.8800  0.7778
 6033TIP3    H218039   6.886   0.776   5.373 -0.5091  0.8194 -1.5859
 6034TIP3   OH218040   7.623   1.694   3.776  0.3652  0.1371  0.4219
 6034TIP3    H118041   7.536   1.733   3.788  0.3303  0.1882  0.0125
 6034TIP3    H218042   7.651   1.672   3.865  0.0345  0.3389  0.5810
 6035TIP3   OH218043   0.524   2.874   2.454 -0.4626  0.0748 -0.2117
 6035TIP3    H118044   0.545   2.788   2.419 -0.3673  0.3134 -0.7407
 6035TIP3    H218045   0.550   2.935   2.385  0.6618  0.6083  0.6789
 6036TIP3   OH218046   2.632   3.565   0.820 -0.0703  0.5186  0.3046
 6036TIP3    H118047   2.696   3.576   0.890 -1.1758  1.2780  1.1995
 6036TIP3    H218048   2.626   3.470   0.808  0.9064  0.4284  0.5057
 6037TIP3   OH218049   4.625   0.170   1.327  0.2341 -0.0543 -0.5203
 6037TIP3    H118050   4.543   0.132   1.296 -0.0197  0.3108 -0.2835
 6037TIP3    H218051   4.621   0.262   1.302  0.7125 -0.1036 -0.7991
 6038TIP3   OH218052   0.718   1.280   4.006  0.0426 -0.0651 -0.1987
 6038TIP3    H118053   0.658   1.326   3.948  0.5687  1.2722  0.3004
 6038TIP3    H218054   0.802   1.281   3.960  0.5946  1.4906  0.8124
 6039TIP3   OH218055   5.094   2.033   5.311  1.0450 -0.4762 -0.2177
 6039TIP3    H118056   5.184   2.044   5.342  1.5238  0.3505 -1.8501
 6039TIP3    H218057   5.103   2.008   5.220 -0.3781 -1.1805 -0.1722
 6040TIP3   OH218058   8.365   1.186   4.663 -0.5016 -0.0008  0.1687
 6040TIP3    H118059   8.445   1.136   4.648 -0.7195 -0.5553  0.8246
 6040TIP3    H218060   8.299   1.119   4.681 -1.2992  0.3994 -1.1786
 6041TIP3   OH218061   5.548   0.770   5.814  1.0037  0.1819  0.1253
 6041TIP3    H118062   5.581   0.691   5.771  2.2520  1.3642 -1.1379
 6041TIP3    H218063   5.495   0.813   5.747  1.8858  1.3708  0.1765
 6042TIP3   OH218064   6.986   1.619   4.599 -0.4335 -0.2617  0.7445
 6042TIP3    H118065   6.977   1.669   4.518  0.5915 -0.9732  0.1808
 6042TIP3    H218066   7.075   1.584   4.596  0.4505  1.6006  3.2715
 6043TIP3   OH218067   6.662   0.841   3.071  0.1143 -0.3756  0.1383
 6043TIP3    H118068   6.725   0.770   3.084 -0.9586 -1.7099 -1.5917
 6043TIP3    H218069   6.674   0.866   2.979 -0.1247  1.1107  0.4995
 6044TIP3   OH218070   4.287   7.954   2.838 -0.3275 -0.3320 -0.6660
 6044TIP3    H118071   4.203   7.964   2.882  0.5358  0.8882  0.7580
 6044TIP3    H218072   4.331   7.883   2.886  0.3670  0.5937  0.1112
 6045TIP3   OH218073   0.282   2.934   4.071 -0.0829 -0.0896  0.2127
 6045TIP3    H118074   0.294   2.901   4.161  0.1248 -0.7598 -0.0596
 6045TIP3    H218075   0.337   3.012   4.067  2.3606 -1.7878 -0.2754
 6046TIP3   OH218076   6.347   0.086   3.886 -0.3247  0.3877  0.2747
 6046TIP3    H118077   6.401   0.010   3.906 -2.1992 -1.0678 -0.0466
 6046TIP3    H218078   6.293   0.058   3.812  0.9559  3.0102 -1.7216
 6047TIP3   OH218079   0.837   6.473   0.332  0.2096  0.0554 -0.1252
 6047TIP3    H118080   0.850   6.389   0.376  1.0385 -0.5024 -1.3942
 6047TIP3    H218081   0.788   6.452   0.253  0.3776  0.7669 -0.4284
 6048TIP3   OH218082   7.537   2.611   3.698  0.5651  0.1168 -0.3568
 6048TIP3    H118083   7.499   2.685   3.745  1.3813  0.7166 -0.6139
 6048TIP3    H218084   7.463   2.556   3.674 -0.0530  0.8738 -0.1890
 6049TIP3   OH218085   8.372   1.574   1.362 -0.7099 -0.1704  0.0034
 6049TIP3    H118086   8.301   1.576   1.426 -0.2625  0.2625  0.4914
 6049TIP3    H218087   8.405   1.664   1.360 -0.1475 -0.3802 -0.1878
 6050TIP3   OH218088   7.086   1.696   6.869 -0.0937  0.1946  0.1072
 6050TIP3    H118089   7.008   1.661   6.826  0.8375 -0.0345 -1.4212
 6050TIP3    H218090   7.107   1.632   6.937  0.4596 -1.2373 -1.3836
 6051TIP3   OH218091   2.669   8.011   0.507  0.4274 -0.0238  0.2805
 6051TIP3    H118092   2.755   7.969   0.500 -0.1026 -0.8719 -1.8033
 6051TIP3    H218093   2.659   8.058   0.423 -0.0218  2.3026  1.5891
 6052TIP3   OH218094   7.099   1.264   4.726 -0.3601 -0.2169  0.2674
 6052TIP3    H118095   7.173   1.222   4.770 -1.5620 -1.6878  0.9645
 6052TIP3    H218096   7.054   1.313   4.795  0.8637  2.0260 -0.4879
 6053TIP3   OH218097   8.035   1.447   5.600  0.0327  0.1939 -0.6128
 6053TIP3    H118098   8.049   1.352   5.599  0.8861  0.2793  1.0560
 6053TIP3    H218099   7.959   1.459   5.657 -0.3356  0.5006 -1.1604
 6054TIP3   OH218100   3.965   7.873   4.946  0.0145  0.6254 -0.0718
 6054TIP3    H118101   4.013   7.914   4.874  0.6259  0.8833  0.4832
 6054TIP3    H218102   3.873   7.884   4.921  0.1390  2.9773  0.3969
 6055TIP3   OH218103   8.176   1.222   6.209 -0.0360  0.3572 -0.1207
 6055TIP3    H118104   8.110   1.241   6.142  0.6021  1.6507 -0.3880
 6055TIP3    H218105   8.259   1.223   6.162  0.1820 -1.3903  0.1934
 6056TIP3   OH218106   5.434   1.420   2.941 -0.4766 -0.4475  0.4398
 6056TIP3    H118107   5.458   1.339   2.896  1.1686  0.2488  0.0035
 6056TIP3    H218108   5.348   1.442   2.907  0.1124 -0.7297 -1.2998
 6057TIP3   OH218109   5.745   3.322   3.849  0.2719  0.6494  0.0933
 6057TIP3    H118110   5.819   3.369   3.887  0.4667  0.5624 -0.1812
 6057TIP3    H218111   5.668   3.361   3.891  0.2989  2.6630 -1.6368
 6058TIP3   OH218112   5.573   1.867   3.237 -0.2586 -0.0690  0.7461
 6058TIP3    H118113   5.535   1.897   3.154  0.1895  0.0794  0.5971
 6058TIP3    H218114   5.518   1.793   3.262  0.4679 -1.0067 -0.3975
 6059TIP3   OH218115   8.325   1.177   2.772 -0.1775  0.0785  0.3817
 6059TIP3    H118116   8.314   1.111   2.839  0.7866  0.5709  1.0306
 6059TIP3    H218117   8.409   1.157   2.731 -0.0260  0.6983  0.3734
 6060TIP3   OH218118   5.472   1.653   2.197  0.2810  0.0303  0.1909
 6060TIP3    H118119   5.378   1.671   2.192  0.1863 -0.5797 -0.2821
 6060TIP3    H218120   5.480   1.585   2.263  0.4513  0.4645  0.6245
 6061TIP3   OH218121   5.812   3.079   3.426 -0.2200 -0.4589 -0.0262
 6061TIP3    H118122   5.758   3.145   3.383 -2.0332 -1.0555  1.2731
 6061TIP3    H218123   5.763   2.998   3.416  0.5842 -1.0741  0.9209
 6062TIP3   OH218124   7.773   1.152   5.284  0.0769  0.1231 -0.8098
 6062TIP3    H118125   7.736   1.066   5.265 -0.6196 -0.1314  1.4978
 6062TIP3    H218126   7.712   1.214   5.245 -1.4430 -0.3540  0.7514
 6063TIP3   OH218127   8.075   1.872   3.782  0.5518  0.5305 -0.7193
 6063TIP3    H118128   8.007   1.870   3.715  0.5648  1.2031 -0.7595
 6063TIP3    H218129   8.045   1.811   3.849  0.9675 -0.8187 -1.7381
 6064TIP3   OH218130   0.538   2.148   4.923  0.4541  0.1692 -0.3585
 6064TIP3    H118131   0.561   2.134   5.015  0.6623 -0.7156 -0.5439
 6064TIP3    H218132   0.518   2.060   4.890 -0.7453  0.6209 -0.8556
 6065TIP3   OH218133   6.235   2.020   4.692  0.4663  0.1820 -0.1206
 6065TIP3    H118134   6.225   1.974   4.775 -0.4027 -0.1669 -0.4215
 6065TIP3    H218135   6.147   2.027   4.657  0.9336 -0.5542 -1.4974
 6066TIP3   OH218136   7.118   0.189   5.343 -0.1596 -0.0534 -0.1112
 6066TIP3    H118137   7.099   0.184   5.249  0.0648  1.5983 -0.2487
 6066TIP3    H218138   7.123   0.097   5.371  0.2175 -0.5678 -1.8026
 6067TIP3   OH218139   5.723   0.908   3.687 -0.1346  0.1985  0.1854
 6067TIP3    H118140   5.736   0.984   3.744 -1.5140  0.4273  0.1916
 6067TIP3    H218141   5.729   0.944   3.598  1.6549 -0.1010  0.1535
 6068TIP3   OH218142   6.210   1.323   3.336 -0.4107 -0.2597 -0.7370
 6068TIP3    H118143   6.138   1.275   3.295 -0.2971 -1.1105  0.0356
 6068TIP3    H218144   6.172   1.407   3.361 -1.3117 -0.9325  0.2106
 6069TIP3   OH218145   1.305   0.661   2.681 -0.3745 -0.2168  0.0212
 6069TIP3    H118146   1.210   0.659   2.684 -0.4279  1.7827  0.3930
 6069TIP3    H218147   1.333   0.630   2.767 -0.7039 -0.0705  0.1804
 6070TIP3   OH218148   5.637   2.591   5.588  0.0844  0.0334 -0.4067
 6070TIP3    H118149   5.587   2.637   5.521 -0.0315 -1.1146 -1.1231
 6070TIP3    H218150   5.683   2.660   5.636 -0.0787  0.8840 -1.4678
 6071TIP3   OH218151   5.396   1.120   4.428 -0.3642  0.4694 -0.0993
 6071TIP3    H118152   5.442   1.197   4.395  0.3776  1.4568  2.9755
 6071TIP3    H218153   5.431   1.047   4.377  1.6583  1.7410 -0.6078
 6072TIP3   OH218154   8.417   5.045   0.650  0.0798 -0.9334  0.2618
 6072TIP3    H118155   8.439   5.073   0.739  1.0700 -1.9105  0.3270
 6072TIP3    H218156   8.370   5.120   0.613  0.5753 -0.1139  1.2487
 6073TIP3   OH218157   3.829   7.282   2.208  0.5831  0.1270 -0.2747
 6073TIP3    H118158   3.766   7.313   2.144  1.0902 -0.6992 -1.1787
 6073TIP3    H218159   3.856   7.196   2.176 -0.5318 -1.1316  2.0033
 6074TIP3   OH218160   8.336   2.000   5.995 -0.4977  0.1515  0.1586
 6074TIP3    H118161   8.324   2.078   5.942 -0.4965  0.2291  0.2711
 6074TIP3    H218162   8.393   1.944   5.943 -1.6807 -0.3952 -0.5548
 6075TIP3   OH218163   1.581   0.576   5.215  0.9669  0.1915  0.2569
 6075TIP3    H118164   1.534   0.614   5.141 -0.1245 -0.7402  0.4619
 6075TIP3    H218165   1.543   0.618   5.292  1.4356  0.4484  0.3539
 6076TIP3   OH218166   2.255   7.641   4.955 -0.5349 -0.2511  0.4184
 6076TIP3    H118167   2.247   7.719   4.899  0.8131  0.7329  1.5732
 6076TIP3    H218168   2.240   7.568   4.895  0.2567  0.7985 -1.1121
 6077TIP3   OH218169   3.968   7.828   3.495 -0.4704 -0.1382 -0.1268
 6077TIP3    H118170   4.018   7.885   3.437 -1.3228  0.3038 -0.4270
 6077TIP3    H218171   4.022   7.821   3.574 -0.9901  2.1992  0.4623
 6078TIP3   OH218172   7.716   2.109   5.544  0.0398  0.2891  0.0686
 6078TIP3    H118173   7.690   2.141   5.631  1.5361 -0.9172  0.9860
 6078TIP3    H218174   7.733   2.189   5.493 -2.1767  1.0401  0.4336
 6079TIP3   OH218175   0.183   0.963   2.612  0.0504  0.2256 -0.1853
 6079TIP3    H118176   0.217   0.951   2.701 -1.1780 -0.8894  0.1659
 6079TIP3    H218177   0.258   0.946   2.555  1.0965  1.9390  0.6454
 6080TIP3   OH218178   1.267   2.273   4.683  0.2544 -0.5295 -0.2455
 6080TIP3    H118179   1.221   2.237   4.758  1.7620 -1.1233  0.4210
 6080TIP3    H218180   1.220   2.240   4.607 -2.6554  1.8912  0.4307
 6081TIP3   OH218181   5.740   2.629   2.726 -0.0097  0.3732 -0.0563
 6081TIP3    H118182   5.648   2.644   2.704 -0.1108  0.2714  0.2974
 6081TIP3    H218183   5.762   2.547   2.682  1.2168  2.6929 -3.9967
 6082TIP3   OH218184   0.392   1.029   3.905  0.2597  0.2296  0.6746
 6082TIP3    H118185   0.316   1.087   3.905  1.1098  1.3720  0.0119
 6082TIP3    H218186   0.381   0.975   3.827  0.4755  0.8663  0.2006
 6083TIP3   OH218187   6.237   2.628   5.634 -0.2061 -0.6566  0.4461
 6083TIP3    H118188   6.169   2.589   5.688 -2.2708  1.9512 -0.1665
 6083TIP3    H218189   6.286   2.685   5.693 -1.8550  1.4530 -0.1930
 6084TIP3   OH218190   3.706   7.639   4.464 -0.2676  0.1546  0.0658
 6084TIP3    H118191   3.755   7.598   4.535  1.8737  1.6862 -0.5107
 6084TIP3    H218192   3.651   7.568   4.429  1.2049 -1.4793  0.9914
 6085TIP3   OH218193   0.384   1.994   5.952 -0.6943 -0.0400 -0.4107
 6085TIP3    H118194   0.395   1.941   6.031 -1.9414 -0.3033 -0.4076
 6085TIP3    H218195   0.428   1.944   5.883  1.0555  0.5507  0.2432
 6086TIP3   OH218196   8.077   1.592   1.845 -0.2212 -0.9763 -0.2735
 6086TIP3    H118197   7.985   1.617   1.850  0.1419  0.3772 -0.1566
 6086TIP3    H218198   8.079   1.501   1.875 -1.6162 -1.2457 -0.9835
 6087TIP3   OH218199   5.590   7.978   5.743  0.6877  0.4058 -0.2677
 6087TIP3    H118200   5.677   8.014   5.723  0.2024  0.1234 -3.0459
 6087TIP3    H218201   5.529   8.044   5.709 -0.2017  0.3048  1.1073
 6088TIP3   OH218202   4.270   0.721   6.213  0.0839 -0.0031 -0.0674
 6088TIP3    H118203   4.282   0.814   6.230 -1.0976  0.4939 -1.8302
 6088TIP3    H218204   4.355   0.691   6.181  0.8703  0.1339  1.7959
 6089TIP3   OH218205   1.187   3.810   0.374 -0.2906  0.1574 -0.4244
 6089TIP3    H118206   1.106   3.760   0.363  0.0408 -0.4602 -0.1160
 6089TIP3    H218207   1.238   3.791   0.295  0.1998 -0.7006  0.0807
 6090TIP3   OH218208   0.479   0.399   3.727 -0.1785 -0.1424 -0.1669
 6090TIP3    H118209   0.431   0.482   3.728  0.0681  0.0126 -1.0144
 6090TIP3    H218210   0.539   0.405   3.801 -1.8871 -0.5908  1.2782
 6091TIP3   OH218211   7.854   2.785   5.843  0.0739  0.1146  0.1909
 6091TIP3    H118212   7.946   2.771   5.818  0.4605  1.3992  0.8213
 6091TIP3    H218213   7.854   2.872   5.884 -1.2261 -0.3393  1.1787
 6092TIP3   OH218214   1.195   0.062   2.710  0.4356 -0.1876 -0.2019
 6092TIP3    H118215   1.147  -0.021   2.699 -0.2453  0.1785  0.0000
 6092TIP3    H218216   1.275   0.050   2.657 -0.1006 -0.6189 -0.9322
 6093TIP3   OH218217   7.428   2.318   5.662 -1.0121  0.3502  0.1850
 6093TIP3    H118218   7.403   2.408   5.643 -0.6516  0.4854  0.3340
 6093TIP3    H218219   7.369   2.264   5.609 -2.6482  0.6160  1.6809
 6094TIP3   OH218220   6.175   0.185   4.361  0.3230  0.0056 -0.0800
 6094TIP3    H118221   6.263   0.188   4.325 -0.1038 -2.2894 -1.4266
 6094TIP3    H218222   6.184   0.138   4.444 -0.0226 -2.8756 -1.6190
 6095TIP3   OH218223   5.830   1.595   4.398 -0.0972  0.2720 -0.1068
 6095TIP3    H118224   5.750   1.620   4.351 -0.0975 -0.0607 -0.2911
 6095TIP3    H218225   5.812   1.506   4.428  0.1911  0.2120 -0.1169
 6096TIP3   OH218226   4.019   3.340   4.128 -0.3894 -0.3791  0.1536
 6096TIP3    H118227   4.005   3.246   4.140 -1.5764 -0.4392 -1.5795
 6096TIP3    H218228   4.105   3.346   4.088 -1.4376 -0.9379 -2.2880
 6097TIP3   OH218229   2.470   0.763   2.063 -0.6272 -0.3866 -0.6923
 6097TIP3    H118230   2.551   0.800   2.029  0.0644  0.2081  1.5675
 6097TIP3    H218231   2.404   0.831   2.050 -0.2869 -0.0236 -0.4836
 6098TIP3   OH218232   6.559   0.518   5.086  0.0017 -0.0072 -0.5476
 6098TIP3    H118233   6.563   0.534   5.181 -0.0693  2.3556 -0.8983
 6098TIP3    H218234   6.541   0.605   5.048  0.1362 -0.9005 -2.7334
 6099TIP3   OH218235   1.092   0.472   3.090 -0.3877  0.2789 -0.2416
 6099TIP3    H118236   1.019   0.529   3.116 -0.0252 -0.4653  2.6797
 6099TIP3    H218237   1.050   0.392   3.058 -0.8832  0.4267  0.0288
 6100TIP3   OH218238   0.090   0.544   2.920  0.1631 -0.4679  0.7094
 6100TIP3    H118239   0.006   0.546   2.874  0.0609 -0.2770  0.9046
 6100TIP3    H218240   0.095   0.629   2.964  1.1213  0.1057 -0.4759
 6101TIP3   OH218241   7.601   2.663   4.908  0.1395  0.0645 -0.2108
 6101TIP3    H118242   7.670   2.712   4.952  0.5441  0.4135 -1.2160
 6101TIP3    H218243   7.546   2.630   4.979  0.1258  1.5713  0.5038
 6102TIP3   OH218244   8.479   1.046   3.042 -0.1459  0.3395  0.1799
 6102TIP3    H118245   8.399   1.018   2.997  0.4092  0.7240 -1.0811
 6102TIP3    H218246   8.450   1.109   3.107 -1.0713 -0.9032  0.9710
 6103TIP3   OH218247   6.497   3.317   5.743 -0.2096  0.6922  0.1785
 6103TIP3    H118248   6.512   3.262   5.820  0.1365  0.3259 -0.1487
 6103TIP3    H218249   6.452   3.394   5.777  0.0844  0.6028  0.7770
 6104TIP3   OH218250   7.069   1.831   5.336 -0.0184 -0.2266  0.0826
 6104TIP3    H118251   6.986   1.871   5.308 -0.8738 -0.5937  2.0526
 6104TIP3    H218252   7.067   1.744   5.295 -1.4735 -0.9314  1.6059
 6105TIP3   OH218253   0.346   1.781   3.725  0.1830  0.0436 -0.2519
 6105TIP3    H118254   0.286   1.844   3.765 -0.3441 -0.1286 -0.7667
 6105TIP3    H218255   0.334   1.792   3.630  1.3573  0.3881 -0.3761
 6106TIP3   OH218256   7.340   1.700   3.805  0.2398 -0.2959 -0.6278
 6106TIP3    H118257   7.340   1.605   3.795  1.2723 -0.3649 -0.0559
 6106TIP3    H218258   7.323   1.715   3.898  0.5626  0.0572 -0.6213
 6107TIP3   OH218259   6.808   2.942   3.628  0.1354 -0.2791 -0.0692
 6107TIP3    H118260   6.713   2.953   3.640 -0.0188 -0.6337 -0.9099
 6107TIP3    H218261   6.844   2.947   3.716 -0.6469  0.0887  0.2371
 6108TIP3   OH218262   0.552   1.986   3.759 -0.0311 -0.6193  0.0783
 6108TIP3    H118263   0.492   2.011   3.689  1.2376 -1.1368 -1.2121
 6108TIP3    H218264   0.517   1.904   3.793 -0.2936 -0.6985 -0.3802
 6109TIP3   OH218265   0.598   1.206   4.235  0.2304  0.4295 -0.0061
 6109TIP3    H118266   0.639   1.223   4.150 -0.2147  1.6596  0.0253
 6109TIP3    H218267   0.541   1.281   4.250 -1.2611 -0.7813  0.4301
 6110TIP3   OH218268   3.659   7.643   5.047 -0.3927 -0.2587  0.0222
 6110TIP3    H118269   3.697   7.694   4.975 -0.0078  2.0826  1.8370
 6110TIP3    H218270   3.719   7.569   5.059  0.5779  0.3995 -0.7667
 6111TIP3   OH218271   1.830   1.299   3.521 -0.5331  0.9265  0.0296
 6111TIP3    H118272   1.816   1.209   3.550 -0.5270  0.6293 -0.8774
 6111TIP3    H218273   1.771   1.310   3.447  0.3570  1.2735 -0.6433
 6112TIP3   OH218274   1.207   1.453   3.614 -0.3591 -0.1807  0.3156
 6112TIP3    H118275   1.135   1.468   3.553  0.6289 -0.6520 -0.9908
 6112TIP3    H218276   1.229   1.541   3.647 -1.4852 -0.0311  0.6759
 6113TIP3   OH218277   1.765   8.019   6.627 -0.1458  0.1021 -0.5014
 6113TIP3    H118278   1.801   7.931   6.633 -0.7966  0.0178  2.9911
 6113TIP3    H218279   1.682   8.008   6.581  0.7789 -0.7493 -2.0161
 6114TIP3   OH218280   7.305   1.925   4.815  0.1578  0.6945  0.1073
 6114TIP3    H118281   7.237   1.988   4.792  0.0861  0.6326  0.1494
 6114TIP3    H218282   7.298   1.856   4.749 -0.4099  0.2445  0.6316
 6115TIP3   OH218283   7.080   3.381   2.091  0.0261  0.6576 -0.2871
 6115TIP3    H118284   7.009   3.361   2.030 -0.7821 -1.3668  1.2640
 6115TIP3    H218285   7.129   3.452   2.049 -1.2630  0.1752 -2.6657
 6116TIP3   OH218286   5.981   3.501   4.478  0.1211 -0.5663 -0.1849
 6116TIP3    H118287   6.049   3.444   4.443 -0.4891 -0.7842 -1.0417
 6116TIP3    H218288   6.027   3.581   4.504  0.8960 -1.2425  0.5233
 6117TIP3   OH218289   1.968   2.364   5.777 -1.2640 -0.3143  0.7651
 6117TIP3    H118290   1.947   2.301   5.708 -1.1083 -1.6990  1.9537
 6117TIP3    H218291   1.891   2.421   5.782 -1.9689 -1.2374  0.5892
 6118TIP3   OH218292   1.615   6.377   1.124 -0.1691  0.2000  0.5997
 6118TIP3    H118293   1.679   6.360   1.193 -0.8196 -1.8874  0.6970
 6118TIP3    H218294   1.657   6.444   1.069  1.4448 -0.0239  1.5322
 6119TIP3   OH218295   0.455   1.468   4.246  0.0257 -0.0823 -0.0158
 6119TIP3    H118296   0.362   1.444   4.244  0.1521 -0.5056 -0.8017
 6119TIP3    H218297   0.458   1.551   4.198  0.2238 -0.6676 -1.0331
 6120TIP3   OH218298   5.944   2.847   4.383 -0.0148  0.4612 -0.7356
 6120TIP3    H118299   5.855   2.871   4.357 -0.4063  0.2238  0.3754
 6120TIP3    H218300   5.963   2.904   4.458  0.6743  0.3344 -0.8130
 6121TIP3   OH218301   6.522   1.041   3.179  0.2182  0.5373  0.1679
 6121TIP3    H118302   6.572   0.979   3.125 -1.6374  0.8981 -2.0463
 6121TIP3    H218303   6.486   0.987   3.250  0.7217 -0.4258 -0.2942
 6122TIP3   OH218304   7.794   2.229   5.116  0.3457 -0.5438 -0.2508
 6122TIP3    H118305   7.834   2.297   5.063 -0.6922  0.9205  0.8082
 6122TIP3    H218306   7.835   2.148   5.086  2.1669  0.6169 -0.9913
 6123TIP3   OH218307   0.515   0.516   5.727  0.4774  0.1434 -0.3697
 6123TIP3    H118308   0.447   0.584   5.722 -1.0721 -1.3806 -0.3919
 6123TIP3    H218309   0.588   0.559   5.772 -0.1330  2.1005 -1.1693
 6124TIP3   OH218310   7.945   2.229   4.695 -0.1833  0.6174  0.1371
 6124TIP3    H118311   7.851   2.223   4.680 -0.3948  1.1528  1.2237
 6124TIP3    H218312   7.955   2.212   4.788  0.6887  1.7256  0.2521
 6125TIP3   OH218313   7.362   2.799   4.055  0.3529 -0.0640  0.2153
 6125TIP3    H118314   7.360   2.815   3.960 -0.8100 -0.6506  0.1366
 6125TIP3    H218315   7.455   2.802   4.077  0.4992  2.5096 -0.5166
 6126TIP3   OH218316   6.901   1.006   2.633  0.2392 -0.2505  0.4699
 6126TIP3    H118317   6.856   0.991   2.550  1.2442 -1.5702  0.1650
 6126TIP3    H218318   6.883   1.098   2.654 -0.1891  0.0218 -1.0912
 6127TIP3   OH218319   5.450   5.456   5.325  0.5655  0.4245  0.4252
 6127TIP3    H118320   5.435   5.386   5.389 -1.6600  1.0085  0.5879
 6127TIP3    H218321   5.375   5.450   5.265  0.0508  3.0033  0.7539
 6128TIP3   OH218322   2.361   7.477   4.425 -0.1558  0.2016  0.3094
 6128TIP3    H118323   2.336   7.508   4.339 -2.3143 -0.4432  0.6654
 6128TIP3    H218324   2.405   7.551   4.466 -0.8995  1.1737 -0.6218
 6129TIP3   OH218325   7.680   1.243   4.614 -0.1801 -0.1394  0.3033
 6129TIP3    H118326   7.679   1.308   4.683 -0.4653 -1.6449  1.7608
 6129TIP3    H218327   7.588   1.238   4.585 -0.4068 -0.7893  1.0909
 6130TIP3   OH218328   3.865   7.699   5.359 -0.2803  0.1549  0.2499
 6130TIP3    H118329   3.936   7.711   5.296  1.0982  0.0434  1.7431
 6130TIP3    H218330   3.902   7.730   5.442 -2.0284  0.2026  1.0177
 6131TIP3   OH218331   5.102   1.310   4.125  0.2220 -0.8135 -0.3177
 6131TIP3    H118332   5.023   1.270   4.089  0.7586 -1.8455 -0.3495
 6131TIP3    H218333   5.114   1.267   4.210 -0.8057  1.2974  0.9432
 6132TIP3   OH218334   7.138   3.938   6.490  0.1103 -0.1036 -0.4114
 6132TIP3    H118335   7.079   3.942   6.416 -0.0817 -1.5912 -0.3548
 6132TIP3    H218336   7.110   4.009   6.548 -1.8093 -0.9765 -0.2444
 6133TIP3   OH218337   8.437   1.283   1.356 -0.4620 -0.2446 -0.2717
 6133TIP3    H118338   8.365   1.243   1.404 -2.1211  1.0385 -1.6013
 6133TIP3    H218339   8.428   1.377   1.373  2.6758 -0.2529  1.8908
 6134TIP3   OH218340   7.649   0.976   3.115  0.7548 -0.5592 -0.4491
 6134TIP3    H118341   7.715   0.906   3.123  1.2564 -0.0802 -0.3305
 6134TIP3    H218342   7.698   1.057   3.132  0.1211 -0.1998 -0.3097
 6135TIP3   OH218343   0.459   2.697   3.349 -0.0584 -0.2421 -0.0184
 6135TIP3    H118344   0.428   2.611   3.376 -0.2636 -0.4166 -0.7946
 6135TIP3    H218345   0.406   2.718   3.272  0.8485  0.0373 -0.5695
 6136TIP3   OH218346   7.620   1.774   3.074  0.2652  0.1724  0.1572
 6136TIP3    H118347   7.580   1.824   3.003  0.1893  0.2888  0.2805
 6136TIP3    H218348   7.593   1.684   3.059  1.1068  0.0359 -0.5551
 6137TIP3   OH218349   1.384   1.287   2.740 -0.3426 -0.1155 -0.1384
 6137TIP3    H118350   1.393   1.267   2.646  1.5006 -0.3555  0.0717
 6137TIP3    H218351   1.461   1.340   2.760 -0.9276  0.2396  1.1677
 6138TIP3   OH218352   0.897   0.450   4.896 -0.3076 -0.4675  0.3484
 6138TIP3    H118353   0.961   0.388   4.931 -0.3267  0.5753  2.3195
 6138TIP3    H218354   0.857   0.404   4.822  1.0720 -2.0226  0.5373
 6139TIP3   OH218355   8.348   2.224   3.479 -0.3412  0.0339 -0.0955
 6139TIP3    H118356   8.320   2.225   3.570  0.1662 -0.0960  0.0639
 6139TIP3    H218357   8.282   2.170   3.434 -1.2081  1.0246 -0.0167
 6140TIP3   OH218358   7.451   3.199   1.576  0.0324 -0.1326  0.0040
 6140TIP3    H118359   7.431   3.106   1.575  0.8697 -0.3186  0.2145
 6140TIP3    H218360   7.463   3.222   1.484 -1.1785 -0.0073 -0.1291
 6141TIP3   OH218361   5.888   6.746   1.890  0.1259 -0.2354 -0.8899
 6141TIP3    H118362   5.891   6.833   1.929 -0.1009 -0.4336 -0.4313
 6141TIP3    H218363   5.795   6.729   1.875 -0.0266 -1.3677  1.1943
 6142TIP3   OH218364   0.463   1.366   4.512 -0.2072  0.1985  0.1393
 6142TIP3    H118365   0.532   1.425   4.480  0.0087  0.9005  1.8207
 6142TIP3    H218366   0.398   1.364   4.441  0.7102  0.9330 -0.7363
 6143TIP3   OH218367   4.930   7.195   1.815  0.0576  0.1778  0.0085
 6143TIP3    H118368   5.006   7.243   1.847 -0.3123  1.0347 -0.3798
 6143TIP3    H218369   4.856   7.236   1.861 -0.0622 -1.3888  1.2352
 6144TIP3   OH218370   0.994   1.557   4.994  0.7716  1.1086  0.0205
 6144TIP3    H118371   1.074   1.584   4.949  1.7388  0.0124  1.0196
 6144TIP3    H218372   1.024   1.493   5.060 -0.8127  1.3502  1.0136
 6145TIP3   OH218373   1.708   0.664   3.604 -0.0592  0.4890  0.6359
 6145TIP3    H118374   1.625   0.651   3.557  0.1525  0.1500  0.3492
 6145TIP3    H218375   1.682   0.694   3.691 -0.4816  0.4570  0.5230
 6146TIP3   OH218376   6.931   2.195   2.342 -0.1176  0.3292 -0.2382
 6146TIP3    H118377   6.948   2.170   2.252  0.8724 -0.9885  0.2933
 6146TIP3    H218378   6.973   2.281   2.352  2.0161 -0.6778 -0.3180
 6147TIP3   OH218379   7.584   2.028   6.500 -0.2174  0.1306  0.1522
 6147TIP3    H118380   7.519   2.081   6.455 -1.6268 -0.4931  1.4135
 6147TIP3    H218381   7.555   1.938   6.489 -0.1143 -0.0864  1.5632
 6148TIP3   OH218382   0.567   0.657   3.965  0.3739  0.0744  0.3185
 6148TIP3    H118383   0.581   0.731   4.025  1.2717 -1.0517  1.5089
 6148TIP3    H218384   0.481   0.674   3.927 -0.3888  0.6145  2.2137
 6149TIP3   OH218385   6.622   1.919   2.863  0.0525 -0.1607  0.0812
 6149TIP3    H118386   6.564   1.996   2.870  1.8143  1.3753 -1.5409
 6149TIP3    H218387   6.668   1.932   2.780  1.6488 -2.0994  0.6384
 6150TIP3   OH218388   7.142   2.471   1.437 -0.1093 -0.5184 -0.2738
 6150TIP3    H118389   7.104   2.395   1.480 -0.5003  0.9261  2.0399
 6150TIP3    H218390   7.236   2.464   1.454 -0.0481 -0.9258 -0.7852
 6151TIP3   OH218391   6.789   2.203   5.384 -0.4160 -0.0580  0.4642
 6151TIP3    H118392   6.711   2.258   5.385  0.7067  1.6467 -1.2466
 6151TIP3    H218393   6.859   2.260   5.415  0.6525 -0.7148 -0.6906
 6152TIP3   OH218394   7.969   0.163   5.090  0.1999  0.5376 -0.6832
 6152TIP3    H118395   8.042   0.164   5.029 -1.3698  0.0728 -2.6174
 6152TIP3    H218396   7.952   0.255   5.109  1.5697  0.6294  0.1415
 6153TIP3   OH218397   7.235   3.554   3.899  0.3606 -0.7927 -0.0052
 6153TIP3    H118398   7.183   3.485   3.859  0.1449 -1.3192  1.1485
 6153TIP3    H218399   7.257   3.613   3.827 -1.8002 -0.5740 -0.5217
 6154TIP3   OH218400   6.390   0.187   2.226  0.1252  0.5871 -0.5220
 6154TIP3    H118401   6.439   0.269   2.211  1.4564  0.3432  2.1378
 6154TIP3    H218402   6.456   0.126   2.260 -1.9005  0.1382  2.8412
 6155TIP3   OH218403   8.208   2.295   3.065  0.6381  0.0366 -0.6040
 6155TIP3    H118404   8.152   2.270   2.991 -0.1144 -0.2953  0.0628
 6155TIP3    H218405   8.246   2.379   3.039 -1.7095  1.2528 -0.2705
 6156TIP3   OH218406   0.406   2.112   1.867  0.3836 -0.4574 -0.3119
 6156TIP3    H118407   0.475   2.151   1.814 -0.6179 -0.7989 -1.8912
 6156TIP3    H218408   0.404   2.020   1.840 -0.7131 -0.4428 -0.3085
 6157TIP3   OH218409   6.884   1.509   5.375  0.1051  0.6816  0.4661
 6157TIP3    H118410   6.856   1.597   5.399  0.7132  0.8807  0.4411
 6157TIP3    H218411   6.861   1.501   5.282 -0.7840  0.4807  0.6939
 6158TIP3   OH218412   1.732   0.386   4.240  0.5122  0.4905 -0.2298
 6158TIP3    H118413   1.686   0.303   4.250  0.6896  0.3503 -0.5899
 6158TIP3    H218414   1.816   0.363   4.201  0.4512  0.8709 -0.5877
 6159TIP3   OH218415   4.031   7.661   5.677  0.6871  0.0548 -0.1477
 6159TIP3    H118416   4.054   7.580   5.632  1.0212 -0.9785  1.8091
 6159TIP3    H218417   4.111   7.686   5.724  0.1849  0.7833  0.3360
 6160TIP3   OH218418   2.053   0.881   1.958 -0.1261  0.5443 -0.0417
 6160TIP3    H118419   1.968   0.906   1.923 -1.0383 -0.5284  1.3361
 6160TIP3    H218420   2.047   0.786   1.969  1.1473  0.4981  0.3305
 6161TIP3   OH218421   6.646   2.067   4.845  0.5051 -0.3591  1.0286
 6161TIP3    H118422   6.606   2.154   4.857  0.2844 -0.2618 -0.3967
 6161TIP3    H218423   6.654   2.033   4.934 -1.6138  0.1407  1.4320
 6162TIP3   OH218424   0.310   0.972   4.250 -0.0843 -0.4304 -0.4544
 6162TIP3    H118425   0.327   1.059   4.285 -0.2922 -0.2321 -0.8302
 6162TIP3    H218426   0.393   0.945   4.211  0.1046 -0.5903  0.0628
 6163TIP3   OH218427   8.282   0.707   3.777 -0.1284 -0.4890 -0.4180
 6163TIP3    H118428   8.305   0.659   3.857 -0.0297 -0.3806 -0.3817
 6163TIP3    H218429   8.228   0.645   3.727 -1.3631 -0.0689  0.3712
 6164TIP3   OH218430   7.587   2.655   1.593  0.3949  0.6936 -0.1724
 6164TIP3    H118431   7.632   2.649   1.677  1.6337  0.4212 -0.8414
 6164TIP3    H218432   7.647   2.704   1.537 -0.1338  0.3200 -1.0846
 6165TIP3   OH218433   7.510   2.593   5.155  0.1301  0.4136 -0.2289
 6165TIP3    H118434   7.441   2.620   5.216 -0.0152  1.7035 -0.9485
 6165TIP3    H218435   7.554   2.520   5.200  0.0189  1.3155  1.4026
 6166TIP3   OH218436   0.886   1.625   3.681 -0.3235 -0.1025 -0.4966
 6166TIP3    H118437   0.867   1.543   3.635 -0.0803 -0.8344  0.6955
 6166TIP3    H218438   0.866   1.693   3.617  0.4086 -1.1152 -1.8329
 6167TIP3   OH218439   2.833   1.645   3.012 -0.5831 -0.0136  0.0274
 6167TIP3    H118440   2.828   1.596   3.094  0.9969 -0.4927 -0.1349
 6167TIP3    H218441   2.876   1.584   2.951 -0.3924  0.8674 -0.7236
 6168TIP3   OH218442   0.438   1.804   6.823 -0.0055  0.1588  0.4829
 6168TIP3    H118443   0.363   1.810   6.883 -1.4284 -0.2524 -1.2119
 6168TIP3    H218444   0.501   1.749   6.868 -0.8824  0.1964  1.7803
 6169TIP3   OH218445   2.915   7.296   0.288  0.2063  0.4412 -0.2446
 6169TIP3    H118446   2.881   7.378   0.323  1.0568  0.0806  1.4381
 6169TIP3    H218447   2.840   7.237   0.289 -0.0516  0.7699 -0.1300
 6170TIP3   OH218448   2.373   0.321   5.574  0.3637  0.7190 -0.0926
 6170TIP3    H118449   2.440   0.274   5.524 -1.1055 -1.0564 -0.4763
 6170TIP3    H218450   2.295   0.316   5.520 -0.5548  1.1131  1.1688
 6171TIP3   OH218451   0.469   0.885   5.937  0.3839  0.2130 -0.1038
 6171TIP3    H118452   0.461   0.836   6.019  2.3317  2.5814  1.5770
 6171TIP3    H218453   0.391   0.941   5.934 -0.6670 -1.2624 -0.8695
 6172TIP3   OH218454   7.069   2.359   5.743  0.3334  0.0032 -0.1928
 6172TIP3    H118455   6.980   2.392   5.745  0.7718  1.2052 -0.3137
 6172TIP3    H218456   7.119   2.427   5.698  1.1358 -1.0716 -0.9566
 6173TIP3   OH218457   1.855   0.970   2.935 -0.0785  0.3603  0.0376
 6173TIP3    H118458   1.819   1.042   2.989  0.1770  0.7738 -0.3382
 6173TIP3    H218459   1.879   1.012   2.853  0.7837 -0.0116  0.0904
 6174TIP3   OH218460   1.235   2.816   6.413  0.4052  0.7898  0.3614
 6174TIP3    H118461   1.255   2.726   6.388  2.9904  1.1440  1.0000
 6174TIP3    H218462   1.209   2.858   6.331 -1.6312 -0.6932  0.1936
 6175TIP3   OH218463   3.404   2.384   5.692  0.3971  0.2586  0.5251
 6175TIP3    H118464   3.336   2.450   5.703 -1.4872 -1.9286  2.6860
 6175TIP3    H218465   3.472   2.409   5.755  0.1198  0.6248  0.6813
 6176TIP3   OH218466   2.881   0.714   5.195 -0.0279  0.4367 -0.2293
 6176TIP3    H118467   2.936   0.775   5.146  2.7227 -0.6849  1.3694
 6176TIP3    H218468   2.792   0.746   5.182  1.0694  2.8067 -2.1751
 6177TIP3   OH218469   2.502   0.417   4.515 -0.2099  0.0653 -0.2341
 6177TIP3    H118470   2.507   0.416   4.419  0.2442 -0.1320 -0.2090
 6177TIP3    H218471   2.416   0.454   4.534 -0.2496  0.2259 -0.7180
 6178TIP3   OH218472   2.120   0.289   4.533 -0.1115  0.1946 -0.1809
 6178TIP3    H118473   2.181   0.354   4.498  0.8683 -0.5629  0.0761
 6178TIP3    H218474   2.133   0.212   4.477 -0.9268  0.0709 -0.2000
 6179TIP3   OH218475   7.870   2.433   4.935  0.1911  0.6675 -0.1712
 6179TIP3    H118476   7.803   2.498   4.954  0.0790 -0.2505  2.8840
 6179TIP3    H218477   7.938   2.481   4.888 -0.8706  2.4657  0.0951
 6180TIP3   OH218478   7.147   3.857   6.096 -0.1247  0.1777 -0.1580
 6180TIP3    H118479   7.108   3.902   6.171 -0.0312  0.0582 -0.0376
 6180TIP3    H218480   7.116   3.766   6.104 -1.2482  0.4741 -1.0425
 6181TIP3   OH218481   2.125   2.030   4.974 -0.1245  0.1986 -0.7478
 6181TIP3    H118482   2.049   2.019   4.916  0.9530 -0.9048 -1.9800
 6181TIP3    H218483   2.180   1.953   4.957  0.7568  0.4345  0.9267
 6182TIP3   OH218484   8.360   1.082   5.197 -0.5846  0.1709 -0.1770
 6182TIP3    H118485   8.314   1.064   5.279 -2.1608  2.5440 -0.5001
 6182TIP3    H218486   8.449   1.107   5.223 -0.9757  0.5493  0.7732
 6183TIP3   OH218487   4.234   5.723   0.280  0.3136  0.1545  0.7902
 6183TIP3    H118488   4.219   5.796   0.340  0.4557 -0.2050  1.2615
 6183TIP3    H218489   4.173   5.739   0.208 -0.2671  0.2764  1.3063
 6184TIP3   OH218490   0.621   2.244   6.103 -0.2844 -0.5022  0.2014
 6184TIP3    H118491   0.589   2.226   6.191 -0.2070 -0.6200  0.2065
 6184TIP3    H218492   0.556   2.205   6.045 -0.3520 -0.3958  0.2060
 6185TIP3   OH218493   0.927   2.234   6.535  0.0171 -0.3788  0.2892
 6185TIP3    H118494   1.006   2.219   6.587  0.1334  0.6098  0.4033
 6185TIP3    H218495   0.959   2.267   6.452 -0.2621 -0.2622  0.2282
 6186TIP3   OH218496   1.674   0.587   4.759 -0.3059  0.3859 -0.0748
 6186TIP3    H118497   1.638   0.549   4.678 -0.8204  0.0273  0.3152
 6186TIP3    H218498   1.737   0.653   4.729  0.5262 -0.7036 -0.7641
 6187TIP3   OH218499   8.260   2.325   4.420 -0.6221  0.8096  0.0320
 6187TIP3    H118500   8.230   2.325   4.512 -0.9219  0.5349 -0.0632
 6187TIP3    H218501   8.295   2.238   4.406  1.3538  1.5155  0.4935
 6188TIP3   OH218502   0.285   0.470   2.724 -0.0036 -0.0910 -0.6348
 6188TIP3    H118503   0.236   0.414   2.664 -0.6617  0.3683 -0.5239
 6188TIP3    H218504   0.220   0.504   2.785  0.7155 -0.8643  0.5874
 6189TIP3   OH218505   2.650   3.298   0.751 -0.2117 -0.3410  0.5867
 6189TIP3    H118506   2.675   3.224   0.805 -0.4342 -0.0495  1.0882
 6189TIP3    H218507   2.731   3.323   0.706 -0.1637 -0.9694  0.3063
 6190TIP3   OH218508   0.833   1.606   5.239  0.0186  0.1962  0.2226
 6190TIP3    H118509   0.833   1.693   5.199  1.9044  0.5415  0.9261
 6190TIP3    H218510   0.874   1.550   5.173 -0.2392  0.0418  0.1934
 6191TIP3   OH218511   5.698   7.466   6.293  0.4976 -0.0129 -0.2269
 6191TIP3    H118512   5.666   7.377   6.312  2.0047 -0.3826  0.6715
 6191TIP3    H218513   5.627   7.523   6.319 -0.1099 -0.9131  0.1153
 6192TIP3   OH218514   7.453   2.058   3.477 -0.5955  0.5156 -0.3364
 6192TIP3    H118515   7.540   2.022   3.495 -1.2884 -1.4334 -0.8217
 6192TIP3    H218516   7.393   2.002   3.526 -1.5214  2.5496  0.9445
 6193TIP3   OH218517   1.674   1.950   5.425 -0.2766  0.2398 -0.1110
 6193TIP3    H118518   1.665   2.007   5.501  0.6274  0.0499  0.1413
 6193TIP3    H218519   1.636   2.001   5.353 -2.1478 -0.0233  0.6581
 6194TIP3   OH218520   1.598   1.154   5.873 -0.1478 -0.1864 -0.0323
 6194TIP3    H118521   1.591   1.248   5.884  0.1223 -0.1760  0.0553
 6194TIP3    H218522   1.531   1.117   5.931 -1.1127 -0.0025 -1.0266
 6195TIP3   OH218523   0.743   2.405   5.733  0.5459 -0.1158  0.2217
 6195TIP3    H118524   0.727   2.314   5.709  0.2719  0.3950 -1.5816
 6195TIP3    H218525   0.771   2.401   5.825 -0.7878 -1.8855  0.5838
 6196TIP3   OH218526   2.107   1.193   6.269  0.0444 -0.2502 -0.1717
 6196TIP3    H118527   2.163   1.270   6.286  0.0847 -0.2440 -0.3272
 6196TIP3    H218528   2.020   1.220   6.298  0.3304 -0.6409  1.0714
 6197TIP3   OH218529   2.508   1.430   2.901  0.0806  0.7224 -0.3131
 6197TIP3    H118530   2.418   1.412   2.927  0.1188 -1.8275 -1.7670
 6197TIP3    H218531   2.501   1.494   2.830 -0.7422 -1.0536 -1.8574
 6198TIP3   OH218532   2.252   1.831   3.443 -0.1896 -0.7609 -0.3424
 6198TIP3    H118533   2.221   1.761   3.501  0.3284 -0.2947  0.4985
 6198TIP3    H218534   2.318   1.789   3.388  0.0333 -0.9669  0.0804
 6199TIP3   OH218535   0.870   2.076   6.137 -0.1506  0.0849  0.6298
 6199TIP3    H118536   0.781   2.106   6.118 -0.9981 -2.2429  0.7890
 6199TIP3    H218537   0.899   2.033   6.057  1.0434  1.2299  0.4171
 6200TIP3   OH218538   0.941   2.751   3.497  0.0633  0.0502  0.4800
 6200TIP3    H118539   0.986   2.668   3.480  0.1987 -0.1045  1.5411
 6200TIP3    H218540   0.930   2.791   3.411  2.8781  0.4346  0.2576
 6201TIP3   OH218541   2.272   1.529   3.303 -0.3044 -0.4026 -0.0480
 6201TIP3    H118542   2.298   1.441   3.276 -0.0170 -1.2319  2.7454
 6201TIP3    H218543   2.178   1.522   3.319 -0.0870 -0.4760  1.2017
 6202TIP3   OH218544   5.492   7.836   5.495 -0.0931 -0.4329  0.0334
 6202TIP3    H118545   5.411   7.786   5.493 -0.4991  0.2087  0.3705
 6202TIP3    H218546   5.520   7.834   5.586  0.8195 -1.5217 -0.2585
 6203TIP3   OH218547   1.511   2.917   6.176 -0.3765  0.2986 -0.0073
 6203TIP3    H118548   1.504   2.833   6.222  0.5198  0.1006 -0.2228
 6203TIP3    H218549   1.462   2.978   6.230  2.5544  0.6009  2.4733
 6204TIP3   OH218550   6.469   1.750   5.554  0.1422  0.0327  0.0077
 6204TIP3    H118551   6.558   1.735   5.524 -0.2747  0.2915 -1.3793
 6204TIP3    H218552   6.413   1.713   5.486 -0.8147  0.2264  0.6668
 6205TIP3   OH218553   6.932   6.555   4.845  0.3374 -0.0273 -0.5467
 6205TIP3    H118554   6.849   6.525   4.810  0.0949  1.1480 -0.9986
 6205TIP3    H218555   6.962   6.621   4.783  0.9696  0.5007  0.3039
 6206TIP3   OH218556   0.035   2.228   5.506 -0.0404 -0.3990 -0.2117
 6206TIP3    H118557   0.069   2.293   5.445  2.2341 -0.8526  0.5062
 6206TIP3    H218558   0.082   2.148   5.484  0.6427 -0.6181  1.9527
 6207TIP3   OH218559   0.141   1.039   5.465  0.2731  0.2367  0.1942
 6207TIP3    H118560   0.143   1.067   5.373  1.3326  2.4646  0.8705
 6207TIP3    H218561   0.091   1.107   5.510  2.1626  0.6712  1.7287
 6208TIP3   OH218562   0.235   0.002   5.982  0.6132 -0.2669  0.3619
 6208TIP3    H118563   0.214  -0.042   6.065  1.7303 -0.9829  0.2837
 6208TIP3    H218564   0.188   0.085   5.986  2.4308  0.7303  2.7641
 6209TIP3   OH218565   4.976   6.747   6.192 -0.1778  0.2989  0.1519
 6209TIP3    H118566   4.995   6.748   6.098 -2.5287  1.1604 -0.3477
 6209TIP3    H218567   4.898   6.802   6.201  0.1704  0.4343  2.6458
 6210TIP3   OH218568   6.972   3.977   6.265  0.0003  0.1734 -0.7529
 6210TIP3    H118569   6.883   3.941   6.271  0.3257 -0.6450 -0.8609
 6210TIP3    H218570   6.959   4.067   6.233 -1.0023  1.0538  1.9219
 6211TIP3   OH218571   1.578   2.349   5.983 -0.1820 -0.1958  0.3014
 6211TIP3    H118572   1.494   2.376   6.019 -0.1397 -0.6285  0.7298
 6211TIP3    H218573   1.559   2.267   5.937  0.5617 -1.9225  2.9544
 6212TIP3   OH218574   0.288   1.490   6.833 -0.3675  0.4141 -0.1435
 6212TIP3    H118575   0.306   1.437   6.911  0.0438  0.7546 -0.0021
 6212TIP3    H218576   0.365   1.546   6.824 -0.5188  0.5402 -0.6615
 6213TIP3   OH218577   8.123   1.017   6.390  0.6336 -0.1218  0.2010
 6213TIP3    H118578   8.122   1.091   6.329  0.7603 -0.6615 -0.4605
 6213TIP3    H218579   8.179   0.952   6.348  3.0950  0.6049  2.2196
 6214TIP3   OH218580   5.790   5.560   1.322  0.6083  0.5253 -0.0577
 6214TIP3    H118581   5.708   5.598   1.356  0.8610  0.5606  0.5272
 6214TIP3    H218582   5.801   5.479   1.372 -0.6391 -1.0621 -2.2457
 6215TIP3   OH218583   0.543   3.169   6.019 -0.2597  0.1752 -0.1701
 6215TIP3    H118584   0.584   3.212   5.944  1.2669 -0.6918  0.1338
 6215TIP3    H218585   0.551   3.232   6.090 -0.6929  0.5549 -0.4602
 6216TIP3   OH218586   1.079   2.166   4.493  0.0442  0.1319  0.0580
 6216TIP3    H118587   1.042   2.217   4.421 -1.3934  0.3606  0.9246
 6216TIP3    H218588   1.099   2.081   4.455 -3.6099 -0.8066  0.0739
 6217TIP3   OH218589   8.306   2.559   4.900  0.3465  0.1155 -0.4347
 6217TIP3    H118590   8.376   2.624   4.906  0.3881 -0.0499  1.2425
 6217TIP3    H218591   8.346   2.486   4.852  1.5880 -0.2878  1.1678
 6218TIP3   OH218592   1.189   2.709   4.985 -0.5318  0.1324 -0.5821
 6218TIP3    H118593   1.280   2.738   4.976 -0.2208  0.3225  2.6375
 6218TIP3    H218594   1.173   2.655   4.907  2.5647 -0.5364 -0.8152
 6219TIP3   OH218595   1.385   1.138   5.038 -0.3684  0.4488 -0.4919
 6219TIP3    H118596   1.472   1.161   5.070 -0.6987  0.5326  0.3724
 6219TIP3    H218597   1.401   1.074   4.969  0.3788  0.4726 -0.3449
 6220TIP3   OH218598   0.989   1.426   4.360  0.4277 -0.0530  0.2676
 6220TIP3    H118599   1.045   1.357   4.323  0.5606  0.5020 -0.5905
 6220TIP3    H218600   0.983   1.491   4.290 -0.5830  0.2993  0.6742
 6221TIP3   OH218601   1.584   2.391   5.513 -0.3531 -0.7355 -0.3166
 6221TIP3    H118602   1.504   2.419   5.467  0.4443 -1.0381 -1.9414
 6221TIP3    H218603   1.654   2.410   5.450  0.7632 -1.2535  0.7720
 6222TIP3   OH218604   2.036   1.631   6.702 -0.3064  0.3283 -0.3840
 6222TIP3    H118605   2.050   1.656   6.793  1.1216  0.8860 -0.7466
 6222TIP3    H218606   2.066   1.540   6.697 -0.1454  0.3793 -0.3516
 6223TIP3   OH218607   2.531   0.163   5.417  0.2184  0.1167  0.3673
 6223TIP3    H118608   2.614   0.205   5.436  0.4465 -0.0091 -0.3548
 6223TIP3    H218609   2.548   0.069   5.425  0.6181  0.0043 -1.6295
 6224TIP3   OH218610   0.282   1.057   6.037  0.5066  0.6740 -0.2369
 6224TIP3    H118611   0.199   1.083   5.999  0.4223 -0.2044 -0.6697
 6224TIP3    H218612   0.273   1.076   6.130 -0.2911  0.3216 -0.2349
 6225TIP3   OH218613   2.699   0.456   5.254 -0.1297  0.5672 -0.3798
 6225TIP3    H118614   2.715   0.458   5.348 -1.8128  0.0228 -0.0707
 6225TIP3    H218615   2.701   0.548   5.228  2.0810  0.6094 -0.1327
 6226TIP3   OH218616   0.229   2.463   6.142  0.0223 -0.0024 -0.7051
 6226TIP3    H118617   0.309   2.513   6.158  0.8137 -1.3800 -0.2747
 6226TIP3    H218618   0.197   2.495   6.058  0.1847  1.6543 -0.1603
 6227TIP3   OH218619   0.191   2.729   4.780 -0.1999  0.5677  0.3863
 6227TIP3    H118620   0.218   2.766   4.865  0.2714  0.0067  0.4840
 6227TIP3    H218621   0.188   2.635   4.795  1.3262  0.3413 -0.6170
 6228TIP3   OH218622   6.933   8.018   4.589  0.5974 -0.5604  0.1844
 6228TIP3    H118623   6.920   7.962   4.665  0.3593  1.1514  1.4341
 6228TIP3    H218624   6.900   7.967   4.515 -1.9010 -1.1172  1.6266
 6229TIP3   OH218625   3.622   5.419   0.316 -0.3972 -0.5262 -0.1131
 6229TIP3    H118626   3.685   5.416   0.388 -0.8647  4.8046  0.7488
 6229TIP3    H218627   3.674   5.448   0.240 -1.0524 -0.1355 -0.4166
 6230TIP3   OH218628   7.555   3.104   6.851  0.2193  0.4825  0.0105
 6230TIP3    H118629   7.649   3.119   6.841  0.2845  0.6758  0.9222
 6230TIP3    H218630   7.519   3.126   6.765  0.6829  3.1156  0.4275
 6231TIP3   OH218631   1.945   1.579   4.264  0.3637  0.5876 -0.2677
 6231TIP3    H118632   1.898   1.545   4.340  0.3299  0.5915 -0.2866
 6231TIP3    H218633   1.907   1.533   4.189  1.8279 -0.9217 -0.0971
 6232TIP3   OH218634   1.861   0.310   4.575  0.0486 -0.7666 -0.5221
 6232TIP3    H118635   1.953   0.304   4.549  0.0694 -0.1056 -0.6173
 6232TIP3    H218636   1.844   0.228   4.621  2.1729  1.2898  4.2077
 6233TIP3   OH218637   0.273   2.262   5.850 -0.2370  0.4417 -0.3606
 6233TIP3    H118638   0.321   2.180   5.864 -0.3721  0.4250 -0.0035
 6233TIP3    H218639   0.332   2.314   5.795  0.4782  0.6772  0.6156
 6234TIP3   OH218640   4.869   5.828   0.231 -0.6022  0.3857 -0.0437
 6234TIP3    H118641   4.789   5.839   0.179 -1.5061  0.4309  1.3307
 6234TIP3    H218642   4.933   5.886   0.190 -1.3913  0.6369 -0.9268
 6235TIP3   OH218643   1.569   1.972   2.841 -0.3181 -0.2855  0.5528
 6235TIP3    H118644   1.547   2.026   2.916 -0.3896  1.3584 -0.6178
 6235TIP3    H218645   1.589   1.885   2.877  1.1595  0.8793  2.5906
 6236TIP3   OH218646   2.832   1.182   4.373  0.0474 -0.0544 -0.3930
 6236TIP3    H118647   2.738   1.170   4.362 -0.1870  1.8544 -0.5587
 6236TIP3    H218648   2.841   1.254   4.435  1.4131 -1.0070  0.5598
 6237TIP3   OH218649   0.401   7.312   2.428  0.1593  0.2991  0.4083
 6237TIP3    H118650   0.336   7.380   2.447 -0.2010  0.4448 -1.2112
 6237TIP3    H218651   0.353   7.230   2.439 -0.2878  0.4029 -0.6283
 6238TIP3   OH218652   0.698   2.002   4.344 -0.4915 -0.5987  0.5798
 6238TIP3    H118653   0.627   2.035   4.400 -0.5673  0.9743 -0.4255
 6238TIP3    H218654   0.764   1.971   4.406 -0.9432  0.3234  1.5555
 6239TIP3   OH218655   0.942   3.094   2.845 -0.1675  0.1892  0.2894
 6239TIP3    H118656   0.922   3.160   2.779 -2.0284 -1.1788 -0.5438
 6239TIP3    H218657   0.993   3.028   2.799 -0.0662  0.0361  0.6208
 6240TIP3   OH218658   8.275   3.933   6.522  0.4177  0.2666 -0.1293
 6240TIP3    H118659   8.365   3.966   6.531  0.5504  0.2950 -1.5727
 6240TIP3    H218660   8.226   4.005   6.483  0.0907 -0.2680 -0.7010
 6241TIP3   OH218661   1.786   1.536   4.473  0.4373  0.4264  0.1102
 6241TIP3    H118662   1.693   1.559   4.470  0.4104  0.1622 -1.9545
 6241TIP3    H218663   1.823   1.595   4.539 -1.3466 -0.1136  1.6319
 6242TIP3   OH218664   0.677   0.130   4.839  0.3144  0.3335  0.0242
 6242TIP3    H118665   0.656   0.198   4.904  0.9049  0.5631 -0.0208
 6242TIP3    H218666   0.725   0.177   4.770  0.4757 -0.0789 -0.1466
 6243TIP3   OH218667   3.171   0.531   5.977 -0.1306  0.0026 -0.1667
 6243TIP3    H118668   3.180   0.609   6.033  3.6190 -2.4106  2.8327
 6243TIP3    H218669   3.080   0.504   5.989 -0.2585  1.3451  2.3588
 6244TIP3   OH218670   1.342   0.953   5.377  0.3472  0.2372 -0.2348
 6244TIP3    H118671   1.303   0.989   5.456 -0.6647 -0.3666 -0.4348
 6244TIP3    H218672   1.268   0.943   5.317  1.0166  0.1961 -1.0622
 6245TIP3   OH218673   1.106   1.891   6.579  0.0285 -0.3146 -0.2451
 6245TIP3    H118674   1.035   1.868   6.519 -0.4580  0.3730  0.0696
 6245TIP3    H218675   1.062   1.917   6.660  0.6530 -0.2907  0.0879
 6246TIP3   OH218676   8.387   1.406   2.082  0.4352  0.0291 -0.3473
 6246TIP3    H118677   8.363   1.335   2.022  0.1104 -0.8214  0.7888
 6246TIP3    H218678   8.410   1.479   2.024  1.3944 -1.1898 -1.5303
 6247TIP3   OH218679   5.906   5.066   0.558 -0.2529 -0.1929  0.3963
 6247TIP3    H118680   5.961   5.026   0.491 -0.2280 -0.0936  0.3589
 6247TIP3    H218681   5.905   5.159   0.537  2.6195  0.3939  2.5704
 6248TIP3   OH218682   2.095   1.078   6.022  0.2440  0.0589 -0.0598
 6248TIP3    H118683   2.188   1.060   6.011  0.3780  1.1952 -0.8524
 6248TIP3    H218684   2.086   1.105   6.114  0.3017 -2.3015  0.6822
 6249TIP3   OH218685   8.382   2.554   5.324  0.3693  0.1762  0.1098
 6249TIP3    H118686   8.390   2.522   5.234  0.8796  2.2091 -0.5885
 6249TIP3    H218687   8.289   2.574   5.334  0.4055  0.4716 -0.1454
 6250TIP3   OH218688   0.429   0.383   5.970  0.0898  0.0675 -0.1902
 6250TIP3    H118689   0.334   0.388   5.967 -0.0163 -2.0272 -2.0571
 6250TIP3    H218690   0.456   0.401   5.879  1.3435 -1.1903 -0.0772
 6251TIP3   OH218691   1.456   7.676   0.170 -0.1159  0.0184  0.2750
 6251TIP3    H118692   1.396   7.615   0.213 -1.1381 -1.1632 -2.7123
 6251TIP3    H218693   1.534   7.624   0.151  0.0084  0.3018  0.0058
 6252TIP3   OH218694   7.700   2.211   4.364 -0.1032  0.2749 -0.5349
 6252TIP3    H118695   7.794   2.226   4.349  0.1616 -0.4972  0.3125
 6252TIP3    H218696   7.686   2.240   4.454  0.0106 -2.6152  0.4728
 6253TIP3   OH218697   1.377   2.822   6.900 -0.1791 -0.1921 -0.5037
 6253TIP3    H118698   1.365   2.834   6.805  0.4490  1.2075 -0.4121
 6253TIP3    H218699   1.471   2.804   6.910 -0.2149 -0.1621 -0.1255
 6254TIP3   OH218700   2.184   1.411   4.794  0.0141 -0.7496  0.5345
 6254TIP3    H118701   2.173   1.403   4.888  0.1123 -1.9534  0.4547
 6254TIP3    H218702   2.151   1.329   4.758 -0.9907  0.1078 -0.5767
 6255TIP3   OH218703   2.525   3.548   3.849  0.3062 -0.2043  0.5320
 6255TIP3    H118704   2.509   3.620   3.788  1.5546 -0.1845  0.2131
 6255TIP3    H218705   2.560   3.478   3.794  1.6135 -0.1275  1.2473
 6256TIP3   OH218706   8.419   0.148   5.471  0.2046 -0.2777 -0.0302
 6256TIP3    H118707   8.325   0.143   5.457  0.3552 -0.0284 -1.1135
 6256TIP3    H218708   8.456   0.079   5.417  0.6573 -0.3341  0.3402
 6257TIP3   OH218709   5.391   5.182   0.440  0.0719 -0.2871 -0.4790
 6257TIP3    H118710   5.356   5.195   0.528 -0.5605 -1.1045 -0.6020
 6257TIP3    H218711   5.433   5.096   0.443  1.4716  0.3963 -0.5301
 6258TIP3   OH218712   1.414   0.798   5.929  0.0730  0.3572 -0.0600
 6258TIP3    H118713   1.343   0.734   5.935 -1.6591  2.4287  2.4965
 6258TIP3    H218714   1.394   0.847   5.849  1.1197 -1.8479 -1.7481
 6259TIP3   OH218715   0.294   0.677   6.324  0.2225 -0.1533  0.0812
 6259TIP3    H118716   0.227   0.688   6.392  0.0427 -1.9464  0.2198
 6259TIP3    H218717   0.312   0.583   6.323  1.5760  0.0990 -1.0808
 6260TIP3   OH218718   2.379   0.559   5.247 -0.1255  0.2219  0.3162
 6260TIP3    H118719   2.408   0.485   5.192  0.8119  0.7865  0.0304
 6260TIP3    H218720   2.307   0.523   5.299  0.1702 -0.8356  0.0204
 6261TIP3   OH218721   0.286   2.458   4.256 -0.3281  0.5771  0.2704
 6261TIP3    H118722   0.213   2.513   4.281  0.2783  0.7775  1.6241
 6261TIP3    H218723   0.291   2.391   4.324  0.5306  0.3589  0.0017
 6262TIP3   OH218724   7.740   1.296   2.884  0.1411  0.4347 -0.2034
 6262TIP3    H118725   7.803   1.228   2.908  0.2894  0.8760  0.6646
 6262TIP3    H218726   7.789   1.357   2.829  0.3866  0.5918  0.1859
 6263TIP3   OH218727   0.381   2.374   4.557 -0.0044 -0.2791 -0.0176
 6263TIP3    H118728   0.378   2.355   4.650 -1.3185  1.0890  0.2360
 6263TIP3    H218729   0.435   2.453   4.550 -1.2239  0.5416 -0.2447
 6264TIP3   OH218730   8.176   3.043   6.025 -0.3433  0.3100 -0.1997
 6264TIP3    H118731   8.141   3.123   6.064 -1.7830 -0.6968  0.6395
 6264TIP3    H218732   8.266   3.039   6.056 -0.6612  0.9308  0.8337
 6265TIP3   OH218733   0.905   2.183   4.719  0.1401 -0.4001  0.3884
 6265TIP3    H118734   0.840   2.239   4.675  0.1336 -0.0630  0.8232
 6265TIP3    H218735   0.967   2.160   4.649 -0.0437 -0.1272  0.1301
 6266TIP3   OH218736   2.711   2.285   4.366 -0.1748  0.1095  0.0274
 6266TIP3    H118737   2.758   2.334   4.298 -2.8126  0.4814 -1.5923
 6266TIP3    H218738   2.656   2.350   4.409 -0.9138 -0.7474  0.3757
 6267TIP3   OH218739   6.071   7.969   6.496 -0.6910 -0.5775  0.0561
 6267TIP3    H118740   6.025   7.922   6.565  0.1056 -0.9038  0.3771
 6267TIP3    H218741   6.070   8.060   6.524 -0.4454 -0.6970  0.4645
 6268TIP3   OH218742   6.682   3.165   6.772  0.0162  0.2056 -0.2732
 6268TIP3    H118743   6.597   3.168   6.816 -0.4925  1.3254 -1.3229
 6268TIP3    H218744   6.682   3.241   6.715  2.2733  0.9716  0.7100
 6269TIP3   OH218745   8.030   1.414   5.951  0.5832 -0.2039 -0.3263
 6269TIP3    H118746   8.033   1.509   5.963  0.9865 -0.2509 -0.0476
 6269TIP3    H218747   7.951   1.399   5.900  0.2818  0.2454  0.0014
 6270TIP3   OH218748   0.630   0.922   5.560 -0.5244  0.1010  0.3002
 6270TIP3    H118749   0.708   0.956   5.516 -1.5695  1.9751 -0.1479
 6270TIP3    H218750   0.581   1.000   5.586 -1.6818 -1.0388  1.6203
 6271TIP3   OH218751   0.098   2.655   4.243  0.0856 -0.3998  0.5775
 6271TIP3    H118752   0.042   2.687   4.172 -0.6856 -2.6016  0.1507
 6271TIP3    H218753   0.038   2.639   4.315  0.4030 -1.1710  0.6746
 6272TIP3   OH218754   0.416   0.121   5.040 -0.0819  0.0521  0.3087
 6272TIP3    H118755   0.422   0.068   5.120  1.1403  0.8649  0.7711
 6272TIP3    H218756   0.466   0.200   5.060 -0.6930  0.7535 -0.8808
 6273TIP3   OH218757   0.382   0.106   6.246  0.3580 -0.3721  0.2030
 6273TIP3    H118758   0.429   0.029   6.212  1.8692  0.1043  1.1426
 6273TIP3    H218759   0.333   0.073   6.321 -0.6424 -0.8188 -0.6263
 6274TIP3   OH218760   0.405   1.106   4.872  0.0415  0.7293 -0.0745
 6274TIP3    H118761   0.453   1.183   4.842 -1.0286  0.7483 -1.7887
 6274TIP3    H218762   0.314   1.135   4.876 -0.9800 -1.4702 -4.5771
 6275TIP3   OH218763   2.090   0.898   3.825  0.9692 -0.8526 -0.4768
 6275TIP3    H118764   2.029   0.932   3.759 -1.1911 -1.0913  1.3294
 6275TIP3    H218765   2.163   0.960   3.824 -0.2885  0.6693 -1.2046
 6276TIP3   OH218766   1.769   2.378   5.267 -1.1631  0.1187 -0.2554
 6276TIP3    H118767   1.698   2.419   5.218 -1.5140 -0.1043  0.0689
 6276TIP3    H218768   1.744   2.286   5.275 -1.0361  0.1214  0.2132
 6277TIP3   OH218769   1.701   0.813   5.532  0.0192 -0.5931 -0.2118
 6277TIP3    H118770   1.618   0.798   5.488 -0.0939  0.2683 -0.3125
 6277TIP3    H218771   1.683   0.885   5.593  0.9966  0.5022 -1.1701
 6278TIP3   OH218772   0.460   0.642   2.127 -0.1254  0.2050 -0.1589
 6278TIP3    H118773   0.517   0.715   2.104  0.7519 -0.3241  0.3108
 6278TIP3    H218774   0.515   0.584   2.179 -2.2265  1.6241  3.8620
 6279TIP3   OH218775   1.792   0.766   4.356 -0.1195 -0.6844  0.2212
 6279TIP3    H118776   1.832   0.692   4.401 -0.6915 -0.2283  1.4827
 6279TIP3    H218777   1.814   0.752   4.263  0.9637 -1.6759  0.6167
 6280TIP3   OH218778   0.096   2.220   6.076  0.0560 -0.2599 -0.0746
 6280TIP3    H118779   0.146   2.296   6.108  0.6330  0.0267 -1.6313
 6280TIP3    H218780   0.141   2.193   5.996 -0.5916 -1.7965  0.0613
 6281TIP3   OH218781   0.762   2.283   5.391  0.3042  0.0899 -0.5267
 6281TIP3    H118782   0.821   2.350   5.427  0.6979 -0.0489 -0.9180
 6281TIP3    H218783   0.816   2.205   5.384 -0.2768 -0.3931  0.3418
 6282TIP3   OH218784   0.130   1.935   3.819  0.2667 -0.0246  0.2140
 6282TIP3    H118785   0.099   1.966   3.734  0.9836  0.9406  0.3031
 6282TIP3    H218786   0.050   1.919   3.869 -0.1160  1.4160  0.0750
 6283TIP3   OH218787   2.487   1.111   4.095 -0.6569  0.0443 -0.3213
 6283TIP3    H118788   2.498   1.195   4.140 -0.3100 -0.7921  1.1740
 6283TIP3    H218789   2.444   1.134   4.012  0.6778  1.8572 -0.5469
 6284TIP3   OH218790   1.148   1.386   4.654 -0.1094 -0.4562 -0.6193
 6284TIP3    H118791   1.126   1.298   4.624  0.5580 -0.5742 -0.7688
 6284TIP3    H218792   1.126   1.385   4.747  0.7614 -1.0841 -0.4056
 6285TIP3   OH218793   7.495   1.416   6.508  0.0850  0.0082  0.2067
 6285TIP3    H118794   7.534   1.503   6.513 -0.7893  0.3818  0.5261
 6285TIP3    H218795   7.401   1.431   6.515 -0.0869 -0.9412  0.0195
 6286TIP3   OH218796   2.917   7.772   0.245  0.0589  0.4260  0.7419
 6286TIP3    H118797   2.896   7.706   0.179 -2.6186  1.5287  0.4465
 6286TIP3    H218798   2.997   7.740   0.286 -0.1423 -2.0167 -0.6903
 6287TIP3   OH218799   1.133   3.312   6.077  0.6491  0.5380 -0.2121
 6287TIP3    H118800   1.045   3.278   6.058  0.5021  0.3705  0.7565
 6287TIP3    H218801   1.190   3.265   6.016  0.1576  0.1442 -0.3758
 6288TIP3   OH218802   0.321   2.281   5.174  0.2482 -0.0157 -0.1046
 6288TIP3    H118803   0.277   2.327   5.245 -0.5848 -0.3417 -0.4077
 6288TIP3    H218804   0.333   2.346   5.106 -0.8763 -0.2276 -0.5105
 6289TIP3   OH218805   2.665   2.272   5.552 -0.5941  0.1665  0.1319
 6289TIP3    H118806   2.570   2.274   5.550 -0.6929 -1.9405  1.0996
 6289TIP3    H218807   2.688   2.185   5.520  1.0568  0.9920 -1.0393
 6290TIP3   OH218808   1.263   0.838   3.400  0.2211 -0.1976  0.1655
 6290TIP3    H118809   1.212   0.768   3.359  0.6614  0.3387 -1.3165
 6290TIP3    H218810   1.289   0.895   3.328  0.5118  1.0963  1.2626
 6291TIP3   OH218811   7.730   3.846   6.442 -0.1851  0.3385 -0.2370
 6291TIP3    H118812   7.782   3.857   6.521  0.9163  0.6432 -0.9992
 6291TIP3    H218813   7.639   3.847   6.473  0.2586 -0.6511  1.1521
 6292TIP3   OH218814   7.373   0.201   6.159 -0.2014  0.6387  0.1802
 6292TIP3    H118815   7.464   0.174   6.169 -0.5389 -0.8277 -0.5475
 6292TIP3    H218816   7.328   0.168   6.237 -0.4656 -0.2550 -0.3449
 6293TIP3   OH218817   0.477   3.063   6.589  0.5528  0.1965  0.3337
 6293TIP3    H118818   0.546   2.998   6.596 -0.0548 -0.4702  0.1986
 6293TIP3    H218819   0.456   3.085   6.680 -1.8724 -2.6321  0.5393
 6294TIP3   OH218820   2.249   3.192   4.300 -0.2618  0.3393 -0.3406
 6294TIP3    H118821   2.263   3.201   4.205 -1.0879  2.1806 -0.3037
 6294TIP3    H218822   2.156   3.206   4.312 -0.3396 -0.9795  0.6429
 6295TIP3   OH218823   1.905   2.081   4.388  0.4267 -0.0307  0.0820
 6295TIP3    H118824   1.877   1.992   4.366 -1.1359  0.4128  0.2318
 6295TIP3    H218825   1.850   2.137   4.333  0.0996  0.9036  1.3525
 6296TIP3   OH218826   0.211   1.981   5.707  0.0512 -0.3965 -0.0033
 6296TIP3    H118827   0.186   2.017   5.622 -3.0455 -1.4091  0.4093
 6296TIP3    H218828   0.295   1.938   5.691  0.3965  0.9966 -2.0969
 6297TIP3   OH218829   5.284   2.090   6.744 -0.5022  0.0185  0.3873
 6297TIP3    H118830   5.321   2.149   6.810  1.1988 -2.0520  1.3717
 6297TIP3    H218831   5.198   2.067   6.778 -1.1453  1.8376  0.0401
 6298TIP3   OH218832   0.447   0.097   5.825 -0.6371  0.5433  0.1070
 6298TIP3    H118833   0.504   0.168   5.856  1.0670 -0.3612 -0.9001
 6298TIP3    H218834   0.399   0.070   5.903  0.0340  1.5720  0.9042
 6299TIP3   OH218835   0.505   1.366   4.792 -0.7617 -0.1671  0.6040
 6299TIP3    H118836   0.553   1.440   4.828 -1.9619  0.7872  0.2554
 6299TIP3    H218837   0.499   1.385   4.698 -0.6619 -0.9403  0.4383
 6300TIP3   OH218838   7.795   1.872   4.521 -0.1135 -0.0005  0.0418
 6300TIP3    H118839   7.849   1.912   4.589  0.9058  2.4367 -2.1286
 6300TIP3    H218840   7.855   1.811   4.476  0.4689  1.6123 -1.4179
 6301TIP3   OH218841   7.945   0.427   5.030  0.1413  0.8514  0.3904
 6301TIP3    H118842   8.015   0.453   5.090 -0.1619  0.9305  0.7077
 6301TIP3    H218843   7.904   0.509   5.004  1.4922  0.9835 -1.4185
 6302TIP3   OH218844   1.976   3.150   4.329  0.1648  0.5896 -0.0897
 6302TIP3    H118845   1.889   3.135   4.366  0.5074  2.0356  1.3661
 6302TIP3    H218846   1.983   3.087   4.258 -2.3436  0.8912 -0.6573
 6303TIP3   OH218847   1.128   0.635   4.527 -0.6023  0.1212 -0.5282
 6303TIP3    H118848   1.103   0.722   4.495  0.4362  0.0515 -1.5818
 6303TIP3    H218849   1.048   0.584   4.525 -1.1812  1.0033 -0.1029
 6304TIP3   OH218850   7.546   3.322   5.809  0.2518  0.5578 -0.2569
 6304TIP3    H118851   7.503   3.314   5.895  1.9009  0.3758  0.5703
 6304TIP3    H218852   7.529   3.413   5.783  0.9022  1.0260  0.9107
 6305TIP3   OH218853   2.375   5.374   0.509 -0.2536 -0.7386 -0.1313
 6305TIP3    H118854   2.303   5.311   0.509 -1.5574  0.7145  0.0204
 6305TIP3    H218855   2.352   5.437   0.577 -0.4189  1.4801 -2.1449
 6306TIP3   OH218856   1.159   2.046   5.904  0.0731  0.4020  0.4614
 6306TIP3    H118857   1.115   2.130   5.888 -0.4478  0.3059  1.3690
 6306TIP3    H218858   1.089   1.982   5.907  0.4766 -0.0879 -0.2720
 6307TIP3   OH218859   3.807   5.103   0.182  0.2031  0.4696 -0.3876
 6307TIP3    H118860   3.742   5.051   0.229  1.1560 -0.2184  0.1708
 6307TIP3    H218861   3.814   5.062   0.096  0.7404 -0.1517 -0.0483
 6308TIP3   OH218862   2.784   1.599   5.046  0.0200  0.3114 -0.0379
 6308TIP3    H118863   2.856   1.539   5.064  0.3723  0.8058  0.2338
 6308TIP3    H218864   2.713   1.544   5.014  0.1395 -0.3196  0.7698
 6309TIP3   OH218865   7.670   0.601   6.194 -0.4381 -0.8279 -0.2408
 6309TIP3    H118866   7.667   0.539   6.121 -1.3979 -1.1396  0.0659
 6309TIP3    H218867   7.585   0.645   6.192 -0.2427 -0.4257  0.3321
 6310TIP3   OH218868   2.364   3.032   4.940  0.5250  0.2193 -0.2875
 6310TIP3    H118869   2.397   3.121   4.953  1.4532 -0.1649  0.0420
 6310TIP3    H218870   2.420   2.977   4.995 -1.2708 -0.3515  0.9989
 6311TIP3   OH218871   1.033   1.570   3.924 -0.3923  0.0066 -0.3963
 6311TIP3    H118872   1.116   1.615   3.942  0.2072 -0.6709 -1.3854
 6311TIP3    H218873   0.991   1.622   3.856 -0.5389  0.0704 -0.2565
 6312TIP3   OH218874   4.334   4.857   0.229  0.6178 -0.0852  0.1343
 6312TIP3    H118875   4.266   4.817   0.174  1.1529 -0.7843 -0.0383
 6312TIP3    H218876   4.336   4.949   0.202  1.5007 -0.6085 -1.6925
 6313TIP3   OH218877   0.030   0.598   5.586  0.5068 -0.5160  0.5342
 6313TIP3    H118878   0.096   0.583   5.654 -0.6048 -0.2315  1.6999
 6313TIP3    H218879   0.080   0.626   5.510  1.6918  0.2925  1.5836
 6314TIP3   OH218880   1.056   3.861   3.716  0.1242 -0.2772  0.2706
 6314TIP3    H118881   1.081   3.853   3.808 -1.3661  1.8674  0.9048
 6314TIP3    H218882   0.966   3.892   3.718  0.5940  1.3785 -1.8906
 6315TIP3   OH218883   1.014   1.643   2.841 -0.6554  0.1360 -0.0245
 6315TIP3    H118884   0.939   1.696   2.869 -0.8200 -0.3396  0.4464
 6315TIP3    H218885   1.059   1.697   2.777 -0.6037  1.0125  0.7311
 6316TIP3   OH218886   1.211   2.682   4.255 -0.3419  0.4722  0.4269
 6316TIP3    H118887   1.249   2.707   4.339 -2.2039  0.4500  1.2894
 6316TIP3    H218888   1.131   2.733   4.248 -0.4435  0.1270 -1.1263
 6317TIP3   OH218889   8.112   0.543   6.327  0.2950 -0.1118 -0.1763
 6317TIP3    H118890   8.113   0.486   6.404 -1.2549 -1.2054 -0.9319
 6317TIP3    H218891   8.036   0.600   6.341  1.2099  1.0513  0.0629
 6318TIP3   OH218892   1.896   2.199   4.650  0.2343  0.4012 -0.1653
 6318TIP3    H118893   1.991   2.204   4.645  0.4936 -1.3007  2.0311
 6318TIP3    H218894   1.870   2.157   4.568  1.4634 -0.0472 -0.3373
 6319TIP3   OH218895   1.977   4.025   5.828  0.6605 -0.5174  0.7196
 6319TIP3    H118896   1.883   4.009   5.816  0.8139 -1.2721  0.4777
 6319TIP3    H218897   1.985   4.120   5.836 -0.0863 -0.4290  0.4090
 6320TIP3   OH218898   2.732   1.955   4.757  0.6677 -0.6506  0.4929
 6320TIP3    H118899   2.782   1.908   4.824 -0.0532  0.5509  1.9044
 6320TIP3    H218900   2.743   2.047   4.779 -0.3453 -0.2767 -0.5005
 6321TIP3   OH218901   7.924   0.025   4.518  0.1249 -0.3612 -0.2593
 6321TIP3    H118902   7.902  -0.050   4.463  1.6182 -0.9580 -0.0517
 6321TIP3    H218903   8.013   0.049   4.492 -0.0222  0.7903  0.2863
 6322TIP3   OH218904   1.113   7.614   4.603  0.2375 -0.9435  0.2080
 6322TIP3    H118905   1.134   7.663   4.524  0.4884  0.5698  1.1929
 6322TIP3    H218906   1.076   7.680   4.662 -0.1648 -2.1065  1.2565
 6323TIP3   OH218907   1.859   2.622   5.187  0.0156  0.3164 -0.1258
 6323TIP3    H118908   1.891   2.657   5.270  0.0996  0.4175 -0.2009
 6323TIP3    H218909   1.838   2.531   5.206 -1.7395  0.8312  0.4797
 6324TIP3   OH218910   8.307   1.595   5.304 -0.1716  0.6203 -0.3070
 6324TIP3    H118911   8.324   1.549   5.222  0.0734 -2.0126  1.1540
 6324TIP3    H218912   8.212   1.610   5.304 -0.5540 -1.6765  0.0547
 6325TIP3   OH218913   2.589   1.265   3.507 -0.0067  0.1633  0.1575
 6325TIP3    H118914   2.585   1.287   3.600  0.8501  2.1270 -0.2419
 6325TIP3    H218915   2.654   1.325   3.471 -0.9638  0.0150 -1.8789
 6326TIP3   OH218916   1.218   1.164   5.897 -0.0026 -0.4996  0.2252
 6326TIP3    H118917   1.175   1.079   5.893  1.6839 -1.3079 -0.8981
 6326TIP3    H218918   1.171   1.218   5.834 -0.3988 -0.9041  0.1739
 6327TIP3   OH218919   1.036   3.111   4.601 -0.0533  0.0287 -0.1882
 6327TIP3    H118920   1.084   3.192   4.622  2.0673 -1.1324 -0.3589
 6327TIP3    H218921   1.089   3.041   4.641 -2.0228 -1.2524  0.2308
 6328TIP3   OH218922   0.169   3.279   4.278  0.1749  0.1024 -0.0177
 6328TIP3    H118923   0.104   3.348   4.268  0.2277  0.4466  1.8239
 6328TIP3    H218924   0.125   3.211   4.328  0.2172 -1.0840 -1.5774
 6329TIP3   OH218925   1.350   1.038   4.628 -0.1641  0.0423 -0.2121
 6329TIP3    H118926   1.291   1.027   4.553  1.7274 -0.8935 -1.5988
 6329TIP3    H218927   1.419   1.096   4.597  0.0324  0.5595  1.1701
 6330TIP3   OH218928   4.986   4.287   0.276 -0.0899 -0.2338  0.4694
 6330TIP3    H118929   4.900   4.322   0.302  1.1511  1.3000  2.6365
 6330TIP3    H218930   5.036   4.365   0.251  1.3510 -0.9084  1.2373
 6331TIP3   OH218931   2.238   0.551   4.511  0.0205  0.6741 -0.2318
 6331TIP3    H118932   2.161   0.590   4.552  0.7436  2.0507 -0.1652
 6331TIP3    H218933   2.254   0.605   4.434  1.1425  0.6258 -0.0377
 6332TIP3   OH218934   0.579   0.790   6.913 -0.2423  0.3772  0.2923
 6332TIP3    H118935   0.485   0.792   6.897 -0.0692 -0.3871 -0.8835
 6332TIP3    H218936   0.588   0.736   6.992 -0.5830 -2.4074 -1.4956
 6333TIP3   OH218937   6.542   7.860   5.334  0.1113 -0.0172  0.5540
 6333TIP3    H118938   6.490   7.809   5.273 -0.4669  0.2119  0.8474
 6333TIP3    H218939   6.576   7.796   5.397  0.8232 -0.2712 -0.0815
 6334TIP3   OH218940   6.156   7.418   5.493 -0.4716  0.4663 -0.3914
 6334TIP3    H118941   6.107   7.398   5.573 -0.4812  0.3671 -0.4206
 6334TIP3    H218942   6.111   7.492   5.455 -2.4114 -1.4564 -1.9691
 6335TIP3   OH218943   1.096   1.813   3.175 -0.2038 -0.2125 -0.1817
 6335TIP3    H118944   1.002   1.812   3.159 -0.5176 -0.4143  1.5756
 6335TIP3    H218945   1.122   1.904   3.162 -0.5668 -0.2241 -1.0380
 6336TIP3   OH218946   2.065   0.956   6.390  0.1974  0.5313 -0.4124
 6336TIP3    H118947   2.153   0.961   6.430  1.1486 -0.6294 -2.3063
 6336TIP3    H218948   2.066   1.023   6.322 -0.3151  0.3516 -0.5963
 6337TIP3   OH218949   3.850   2.428   5.822  0.0519 -0.0401 -0.2530
 6337TIP3    H118950   3.890   2.504   5.780 -0.0067  0.4412  0.5503
 6337TIP3    H218951   3.923   2.374   5.850  0.1645  0.9026  1.3317
 6338TIP3   OH218952   1.631   0.486   4.502 -0.6116  0.2777 -0.4199
 6338TIP3    H118953   1.628   0.526   4.415 -0.0812  0.1498 -0.4945
 6338TIP3    H218954   1.712   0.436   4.503 -0.3278  0.7464  0.3529
 6339TIP3   OH218955   7.269   5.790   4.794 -0.0442 -0.0651 -0.2722
 6339TIP3    H118956   7.300   5.739   4.719 -1.1787  1.8249 -2.0690
 6339TIP3    H218957   7.201   5.735   4.834  0.7695 -1.2089 -0.4301
 6340TIP3   OH218958   2.095   6.970   0.361 -0.4252  0.0609  0.0821
 6340TIP3    H118959   2.093   6.946   0.454  0.0533 -1.7911 -0.3701
 6340TIP3    H218960   2.002   6.979   0.337 -0.6362 -1.9497  0.1147
 6341TIP3   OH218961   1.317   2.559   5.200 -0.3922 -0.0124 -0.5897
 6341TIP3    H118962   1.277   2.619   5.137  0.1605  0.8418 -0.1400
 6341TIP3    H218963   1.406   2.546   5.168 -1.0811 -2.1629 -1.7608
 6342TIP3   OH218964   4.196   5.619   1.706  0.3971 -0.4397  0.2740
 6342TIP3    H118965   4.239   5.607   1.790 -0.3407  2.1334  1.0664
 6342TIP3    H218966   4.206   5.712   1.687 -1.0007 -0.6386 -1.6248
 6343TIP3   OH218967   5.701   7.758   0.789  0.2525 -0.3915  0.6451
 6343TIP3    H118968   5.636   7.692   0.764  0.0310 -0.4512  1.3767
 6343TIP3    H218969   5.653   7.818   0.847  1.5259 -1.9284  3.3720
 6344TIP3   OH218970   2.401   2.573   6.105 -0.0609 -0.0407  0.0043
 6344TIP3    H118971   2.413   2.487   6.144  1.4386 -0.0191 -0.3586
 6344TIP3    H218972   2.486   2.617   6.117 -0.5848  1.1148 -0.4382
 6345TIP3   OH218973   7.326   5.612   4.163  0.6549  0.2865 -0.3157
 6345TIP3    H118974   7.301   5.563   4.085 -2.8396 -1.4598  1.7740
 6345TIP3    H218975   7.338   5.546   4.230 -1.0646  2.0101  1.7883
 6346TIP3   OH218976   7.392   3.243   5.554 -0.3764  0.2119 -0.4334
 6346TIP3    H118977   7.434   3.273   5.635 -1.6432  1.2302 -0.1413
 6346TIP3    H218978   7.459   3.191   5.511  0.9646  1.2483  0.3560
 6347TIP3   OH218979   0.948   3.719   4.172  0.2699  0.1734  0.6113
 6347TIP3    H118980   1.037   3.748   4.190  0.4712  0.5324 -0.9055
 6347TIP3    H218981   0.895   3.760   4.239  0.9606  1.6887  0.2458
 6348TIP3   OH218982   0.045   1.620   4.957  0.3981 -0.0955 -0.2464
 6348TIP3    H118983   0.083   1.653   4.875 -2.7989  0.9873 -1.4014
 6348TIP3    H218984  -0.011   1.547   4.929  3.2499 -3.0872  1.6583
 6349TIP3   OH218985   6.281   5.565   0.699 -0.4897 -0.7509 -0.1546
 6349TIP3    H118986   6.209   5.503   0.689 -0.9911 -0.0087 -1.2817
 6349TIP3    H218987   6.354   5.525   0.653 -0.8515 -0.4716 -0.9971
 6350TIP3   OH218988   1.636   6.774   0.337 -0.4735 -0.1200  0.2601
 6350TIP3    H118989   1.687   6.701   0.302  0.2544  0.3618  0.3023
 6350TIP3    H218990   1.553   6.770   0.290  0.0545 -0.1829 -0.6790
 6351TIP3   OH218991   1.039   2.306   4.285 -0.7115  0.4384  0.6465
 6351TIP3    H118992   0.967   2.289   4.224 -1.2376 -1.6307  1.7769
 6351TIP3    H218993   1.019   2.391   4.324 -0.0221  2.1129 -2.4786
 6352TIP3   OH218994   2.584   2.697   6.706  0.2583 -0.3577 -0.0129
 6352TIP3    H118995   2.652   2.659   6.761 -0.2575 -0.4509  0.5672
 6352TIP3    H218996   2.626   2.773   6.665  0.3704  0.2455  1.2219
 6353TIP3   OH218997   1.353   1.992   5.355 -0.1511 -0.7799  0.6783
 6353TIP3    H118998   1.311   2.011   5.439 -2.4280  0.4127 -0.6837
 6353TIP3    H218999   1.436   2.041   5.358 -0.3034 -0.5945  2.1496
 6354TIP3   OH219000   1.263   1.068   5.614 -0.3081 -0.3882  0.4519
 6354TIP3    H119001   1.211   1.001   5.659 -0.2769 -0.8702 -0.2286
 6354TIP3    H219002   1.232   1.151   5.651  1.6687 -0.8674  3.4626
 6355TIP3   OH219003   8.182   7.860   3.548  0.2327 -0.1743 -0.2773
 6355TIP3    H119004   8.221   7.879   3.463 -1.3899  0.2787 -0.9509
 6355TIP3    H219005   8.125   7.785   3.532 -0.3468  0.1318  0.3207
 6356TIP3   OH219006   0.479   1.287   5.946 -0.4123 -0.5626  0.1846
 6356TIP3    H119007   0.543   1.279   6.016 -0.7225 -0.1956  0.5125
 6356TIP3    H219008   0.409   1.227   5.971 -0.5754 -0.3474  0.2485
 6357TIP3   OH219009   1.802   1.909   6.705 -0.3344 -0.1772 -0.3046
 6357TIP3    H119010   1.727   1.874   6.753 -1.5599  1.4066 -1.0206
 6357TIP3    H219011   1.812   1.851   6.630 -1.0382 -0.1956 -0.3820
 6358TIP3   OH219012   2.108   1.034   5.401  0.3966 -0.3795  0.9315
 6358TIP3    H119013   2.066   0.985   5.471 -0.9347  0.7985  0.9807
 6358TIP3    H219014   2.035   1.070   5.349  1.3554 -0.7592 -0.7111
 6359TIP3   OH219015   5.914   1.852   5.037  0.2008 -0.4938 -0.2587
 6359TIP3    H119016   5.852   1.907   5.085 -1.2410 -2.2640 -0.0144
 6359TIP3    H219017   5.865   1.823   4.959  1.5267 -0.0134 -1.2939
 6360TIP3   OH219018   1.618   1.642   3.852  0.0887  0.5337  0.3104
 6360TIP3    H119019   1.608   1.608   3.763 -0.1246 -0.2723  0.6354
 6360TIP3    H219020   1.651   1.731   3.841 -0.8718  0.7865 -0.6020
 6361TIP3   OH219021   1.243   3.784   4.548  0.1832 -0.0857  0.1146
 6361TIP3    H119022   1.154   3.751   4.554 -0.0279  0.8025  2.2118
 6361TIP3    H219023   1.248   3.852   4.615  2.4841 -0.2699  0.1671
 6362TIP3   OH219024   0.407   0.285   3.209  0.1724  0.4962  0.0477
 6362TIP3    H119025   0.416   0.244   3.295  0.3884  1.7977  0.6556
 6362TIP3    H219026   0.317   0.266   3.182 -0.3478  1.2708  1.1945
 6363TIP3   OH219027   5.086   7.934   2.091  0.1235 -0.0048  0.0143
 6363TIP3    H119028   5.160   7.980   2.132  1.0883 -1.6983  0.2246
 6363TIP3    H219029   5.106   7.936   1.997 -0.2374  0.6846 -0.0510
 6364TIP3   OH219030   1.833   2.410   6.398 -0.8344 -0.1174  0.4228
 6364TIP3    H119031   1.777   2.438   6.325  0.1790 -0.8601 -0.6518
 6364TIP3    H219032   1.818   2.316   6.405  0.7169 -0.4150 -0.2415
 6365TIP3   OH219033   0.767   3.911   4.662 -0.0165  0.4081 -0.4040
 6365TIP3    H119034   0.736   3.975   4.597  1.2901  0.2069 -1.2400
 6365TIP3    H219035   0.691   3.855   4.678 -0.4976  0.7543 -1.4136
 6366TIP3   OH219036   2.308   3.338   5.300  0.2724 -0.4739  0.2297
 6366TIP3    H119037   2.397   3.324   5.266 -0.0965 -1.7489 -0.2372
 6366TIP3    H219038   2.251   3.327   5.224 -0.3185 -0.0535  0.6081
 6367TIP3   OH219039   0.501   7.954   6.248 -0.0835 -0.1312 -0.7445
 6367TIP3    H119040   0.506   8.011   6.325  0.6145  0.6430 -1.3568
 6367TIP3    H219041   0.578   7.978   6.196 -0.5813 -0.6134 -1.7020
 6368TIP3   OH219042   2.467   0.815   3.887  0.1702 -0.4441 -0.3831
 6368TIP3    H119043   2.437   0.869   3.814  0.0565  0.2426  0.1659
 6368TIP3    H219044   2.562   0.807   3.874  0.1673 -0.2218 -0.5358
 6369TIP3   OH219045   2.578   0.586   4.150  0.3428 -0.3588 -0.5600
 6369TIP3    H119046   2.578   0.682   4.143 -2.1885 -0.2215  0.7459
 6369TIP3    H219047   2.642   0.557   4.085  0.3149  2.1592 -1.7671
 6370TIP3   OH219048   2.048   1.106   4.331 -0.3255 -0.6973 -0.2141
 6370TIP3    H119049   2.092   1.081   4.250  1.1758 -1.5901  0.8737
 6370TIP3    H219050   1.990   1.178   4.305 -0.3351 -1.4009 -2.1994
 6371TIP3   OH219051   1.451   0.661   3.498  0.0722 -0.2661  0.5805
 6371TIP3    H119052   1.460   0.676   3.403 -1.0949 -0.9127  0.3614
 6371TIP3    H219053   1.368   0.703   3.521  1.1317  1.3240  1.6440
 6372TIP3   OH219054   3.758   4.536   5.104 -0.4148 -0.2666 -0.1894
 6372TIP3    H119055   3.760   4.453   5.056 -2.6901 -0.5401  0.1270
 6372TIP3    H219056   3.807   4.597   5.049  0.8507 -1.6903 -0.6657
 6373TIP3   OH219057   5.844   7.922   0.070 -0.2597 -0.3747 -0.3298
 6373TIP3    H119058   5.782   7.960   0.009 -0.3987  1.0128  0.6623
 6373TIP3    H219059   5.922   7.903   0.017 -0.9177 -0.5845 -1.2263
 6374TIP3   OH219060   4.963   0.134   5.649  0.7115 -0.5265  0.3677
 6374TIP3    H119061   4.958   0.221   5.688 -0.3671 -0.9228  1.1339
 6374TIP3    H219062   5.049   0.100   5.675 -0.1423 -0.9417  2.7711
 6375TIP3   OH219063   1.691   2.479   5.741 -0.8883 -0.2514  0.3008
 6375TIP3    H119064   1.647   2.466   5.657 -2.4134  1.5359  0.8042
 6375TIP3    H219065   1.641   2.427   5.803 -0.2858 -0.8636  0.2861
 6376TIP3   OH219066   4.604   7.381   1.109  0.0830 -0.0419 -0.0688
 6376TIP3    H119067   4.549   7.341   1.042  1.6490 -1.3061 -0.6338
 6376TIP3    H219068   4.634   7.307   1.162 -0.5128  0.8660  1.5725
 6377TIP3   OH219069   4.256   4.868   5.707  0.3204 -0.6910 -0.2219
 6377TIP3    H119070   4.258   4.821   5.623  0.1790 -0.6298 -0.2614
 6377TIP3    H219071   4.337   4.918   5.709  0.6767 -1.2799  0.0196
 6378TIP3   OH219072   1.061   1.183   4.896 -0.0807  0.3165 -0.0700
 6378TIP3    H119073   1.049   1.219   4.983 -1.1310  1.3897 -0.6518
 6378TIP3    H219074   1.133   1.121   4.906 -0.3748  0.2281  1.6078
 6379TIP3   OH219075   3.746   2.290   5.626 -0.5217  0.3023  0.4635
 6379TIP3    H119076   3.800   2.214   5.646  0.8462  1.4311  1.1989
 6379TIP3    H219077   3.761   2.350   5.700 -2.2890  0.9056  0.3549
 6380TIP3   OH219078   2.455   1.393   6.136 -0.1487  0.6134 -0.2815
 6380TIP3    H119079   2.488   1.340   6.209  1.0494  0.5785 -0.8369
 6380TIP3    H219080   2.533   1.433   6.098 -1.0058  2.4939 -0.0999
 6381TIP3   OH219081   1.710   2.249   3.569  0.6874  0.7290  0.2885
 6381TIP3    H119082   1.732   2.156   3.574  0.3895  0.5994 -0.6960
 6381TIP3    H219083   1.631   2.258   3.621 -2.3638 -0.5820 -3.8139
 6382TIP3   OH219084   3.793   1.666   4.624 -0.5196  0.5289  0.6009
 6382TIP3    H119085   3.747   1.696   4.545 -0.1270 -0.9338 -0.2130
 6382TIP3    H219086   3.725   1.627   4.678 -0.1683 -2.5863 -1.0667
 6383TIP3   OH219087   0.660   4.482   4.599 -0.4658 -0.4000 -0.0301
 6383TIP3    H119088   0.725   4.529   4.650 -0.0259 -0.7092 -0.2982
 6383TIP3    H219089   0.691   4.489   4.508 -1.3327  0.3023 -0.2770
 6384TIP3   OH219090   4.353   1.717   3.780 -0.1375  0.1675 -0.6796
 6384TIP3    H119091   4.293   1.689   3.848  0.7285 -0.4917 -0.1778
 6384TIP3    H219092   4.360   1.812   3.792  0.3293 -0.0025  0.4151
 6385TIP3   OH219093   3.618   0.077   3.695  0.1552 -0.0438  0.1214
 6385TIP3    H119094   3.658   0.105   3.613 -0.3766 -1.0416 -0.4794
 6385TIP3    H219095   3.612   0.157   3.747  2.3707  0.2496  0.0013
 6386TIP3   OH219096   1.104   2.424   3.680 -0.0648 -0.0370  0.0449
 6386TIP3    H119097   1.184   2.461   3.718 -0.8578  1.0858  0.6429
 6386TIP3    H219098   1.086   2.479   3.604  0.4506 -1.0945 -0.8418
 6387TIP3   OH219099   0.006   1.717   5.551 -0.4193  0.2450  0.2765
 6387TIP3    H119100   0.075   1.703   5.486 -0.5783  0.3253  0.0913
 6387TIP3    H219101  -0.060   1.652   5.531 -0.5865  0.4377  0.1982
 6388TIP3   OH219102   5.020   0.864   5.134 -0.2949  0.2027  0.2410
 6388TIP3    H119103   5.034   0.949   5.093 -1.6694  0.2212 -0.2176
 6388TIP3    H219104   5.108   0.833   5.156  0.3180  1.0597 -0.9662
 6389TIP3   OH219105   4.063   2.624   6.872 -0.9601  0.4503  0.5972
 6389TIP3    H119106   4.062   2.717   6.896 -1.2416  0.8090 -0.7534
 6389TIP3    H219107   4.131   2.617   6.805 -1.9886 -0.0189 -0.4175
 6390TIP3   OH219108   3.551   3.366   4.790  0.3009 -0.1399  0.4810
 6390TIP3    H119109   3.605   3.419   4.732 -1.9301 -0.2849 -1.8190
 6390TIP3    H219110   3.595   3.370   4.875  2.3391  2.0549 -0.6357
 6391TIP3   OH219111   2.464   2.137   2.621  0.0080  0.3518  0.5636
 6391TIP3    H119112   2.370   2.157   2.630 -0.0536 -0.1132  0.9583
 6391TIP3    H219113   2.496   2.132   2.711  0.1606 -0.7029  0.4516
 6392TIP3   OH219114   2.173   1.524   3.796 -0.2549  0.2503  0.7189
 6392TIP3    H119115   2.117   1.569   3.732  1.3685  0.8420 -0.3203
 6392TIP3    H219116   2.260   1.523   3.756  0.1143 -2.3154  1.4977
 6393TIP3   OH219117   0.981  -0.005   4.902 -0.3457  0.6535 -0.3771
 6393TIP3    H119118   0.954   0.086   4.917  0.4458  0.6194  1.3956
 6393TIP3    H219119   1.042  -0.024   4.973 -1.7416 -1.7875  0.2308
 6394TIP3   OH219120   1.089   7.932   2.452 -0.0390 -0.1203  0.5497
 6394TIP3    H119121   1.095   7.847   2.408  0.6925  0.5561 -0.7023
 6394TIP3    H219122   1.165   7.934   2.510  0.6767  0.1993 -0.3852
 6395TIP3   OH219123   1.849   1.244   6.367  0.0500 -0.4500  0.6694
 6395TIP3    H119124   1.803   1.325   6.389  0.8654  0.4251 -0.7641
 6395TIP3    H219125   1.848   1.193   6.448  0.2932  1.3641  1.8394
 6396TIP3   OH219126   4.399   1.577   6.546  0.2328 -0.2933 -0.2563
 6396TIP3    H119127   4.485   1.567   6.503  0.3505  1.7766 -0.5366
 6396TIP3    H219128   4.413   1.544   6.635  0.6391 -2.3233 -1.0490
 6397TIP3   OH219129   3.901   1.666   3.956 -0.0150  0.6140 -0.0200
 6397TIP3    H119130   3.915   1.755   3.925 -0.8446  1.0135  0.7195
 6397TIP3    H219131   3.879   1.616   3.877  0.7930  0.9866 -0.4818
 6398TIP3   OH219132   3.487   1.323   5.579  0.3348 -0.0533  0.0899
 6398TIP3    H119133   3.460   1.410   5.549 -1.0263 -0.5126 -0.0546
 6398TIP3    H219134   3.433   1.262   5.529  1.6895 -1.0117 -0.2348
 6399TIP3   OH219135   2.255   2.804   4.294 -0.6858 -0.1321  0.0059
 6399TIP3    H119136   2.340   2.847   4.289 -1.6186  1.7373 -0.0580
 6399TIP3    H219137   2.239   2.793   4.387  0.1642 -1.6179 -0.0057
 6400TIP3   OH219138   7.826   6.224   0.451 -0.7205 -0.3811 -0.2740
 6400TIP3    H119139   7.904   6.187   0.493 -0.9522 -0.7572 -0.1748
 6400TIP3    H219140   7.858   6.258   0.367 -0.6853 -1.6998 -0.8136
 6401TIP3   OH219141   3.683   2.076   5.092  0.7572 -0.2700 -0.2051
 6401TIP3    H119142   3.715   2.019   5.163  0.6245 -0.2563 -0.1345
 6401TIP3    H219143   3.651   2.015   5.025  3.3532 -0.3541 -1.4250
 6402TIP3   OH219144   3.605   6.593   5.292 -0.2389 -0.1172  0.1250
 6402TIP3    H119145   3.633   6.535   5.363 -2.0134 -0.0523  0.8830
 6402TIP3    H219146   3.521   6.628   5.320 -0.5875  0.5478 -1.6567
 6403TIP3   OH219147   1.254   2.025   5.608 -0.0393 -0.2384 -0.3854
 6403TIP3    H119148   1.197   2.044   5.682  0.1251 -0.3959 -0.2186
 6403TIP3    H219149   1.244   1.931   5.593  1.1663 -0.5182  0.4731
 6404TIP3   OH219150   2.938   0.741   3.690 -0.3069 -0.3480  0.1115
 6404TIP3    H119151   2.924   0.788   3.608  0.8781  0.7472  0.5305
 6404TIP3    H219152   2.869   0.773   3.748 -0.7558 -0.6543 -0.2465
 6405TIP3   OH219153   1.641   2.203   4.342  0.3493  0.3354  0.6766
 6405TIP3    H119154   1.606   2.261   4.274 -1.7161 -0.7881  0.7578
 6405TIP3    H219155   1.660   2.262   4.416  0.3085  1.2028  0.0061
 6406TIP3   OH219156   1.348   3.993   5.139 -0.8464 -0.5637 -0.1410
 6406TIP3    H119157   1.435   4.020   5.108 -1.3236 -0.6644 -1.5908
 6406TIP3    H219158   1.325   4.058   5.205 -1.3930  1.8721 -2.6298
 6407TIP3   OH219159   1.415   3.218   5.910  0.4823 -0.0186 -0.4138
 6407TIP3    H119160   1.346   3.159   5.877  0.5230  0.5237 -1.4707
 6407TIP3    H219161   1.492   3.162   5.917 -0.7474 -1.4059  3.6717
 6408TIP3   OH219162   1.441   7.303   4.236  0.1103 -0.3342  0.1890
 6408TIP3    H119163   1.440   7.225   4.181  2.9917  0.5320 -1.1794
 6408TIP3    H219164   1.498   7.280   4.309  2.7243  1.1210 -1.3120
 6409TIP3   OH219165   1.972   3.423   4.217  0.2453 -0.8307 -0.0875
 6409TIP3    H119166   1.971   3.328   4.226  0.0436 -0.8132  0.1049
 6409TIP3    H219167   1.892   3.452   4.263 -0.5568 -0.6957 -1.5261
 6410TIP3   OH219168   2.626   2.439   3.287  0.0511 -0.2545  0.0930
 6410TIP3    H119169   2.641   2.532   3.265 -0.8716  0.0334  0.6646
 6410TIP3    H219170   2.692   2.392   3.236 -0.2456  0.6263 -1.1404
 6411TIP3   OH219171   2.394   2.066   4.121 -0.1981 -0.4562  0.2760
 6411TIP3    H119172   2.408   2.161   4.119  0.6075 -0.5954 -0.8926
 6411TIP3    H219173   2.482   2.029   4.131 -0.3679 -1.1210 -0.6197
 6412TIP3   OH219174   1.558   2.153   5.230 -0.1380 -0.1489 -0.1145
 6412TIP3    H119175   1.470   2.182   5.207 -0.3346 -1.7253 -1.4452
 6412TIP3    H219176   1.602   2.139   5.146  0.9196 -0.7303  0.5217
 6413TIP3   OH219177   3.650   0.106   3.392  0.4666  0.5583 -0.1104
 6413TIP3    H119178   3.557   0.117   3.372 -0.0354 -1.5277  0.9478
 6413TIP3    H219179   3.686   0.064   3.314  0.3445  0.5979 -0.1886
 6414TIP3   OH219180   3.713   0.548   5.841 -0.8595  0.0893 -0.1583
 6414TIP3    H119181   3.685   0.560   5.932  1.9411 -1.9026  1.0399
 6414TIP3    H219182   3.735   0.636   5.811 -1.7082  0.7634  1.1255
 6415TIP3   OH219183   4.476   0.102   4.904  0.2561  0.7257 -0.6361
 6415TIP3    H119184   4.479   0.011   4.934 -0.0995  0.4637 -1.3804
 6415TIP3    H219185   4.559   0.139   4.932  0.5017  0.1090 -0.5331
 6416TIP3   OH219186   3.300   2.299   3.541  0.4276 -0.0748 -0.0954
 6416TIP3    H119187   3.267   2.356   3.472  0.2885  0.3330  0.3103
 6416TIP3    H219188   3.255   2.328   3.621  0.0585 -0.9964  0.0409
 6417TIP3   OH219189   4.091   2.870   5.616  0.3458 -0.3198  0.0833
 6417TIP3    H119190   4.038   2.905   5.544  0.6779 -1.1900 -0.5932
 6417TIP3    H219191   4.172   2.920   5.612  1.1791 -1.7665 -1.4569
 6418TIP3   OH219192   6.554   5.535   0.850  0.3915  0.1237  0.5025
 6418TIP3    H119193   6.463   5.557   0.829  1.0035  1.9747 -0.3018
 6418TIP3    H219194   6.574   5.586   0.929  0.3752 -1.1707  1.3458
 6419TIP3   OH219195   3.656   3.268   4.061 -0.3138 -0.2881  0.1124
 6419TIP3    H119196   3.733   3.238   4.012  0.3804  1.8631 -0.1502
 6419TIP3    H219197   3.677   3.246   4.152  0.4499 -0.0578  0.0011
 6420TIP3   OH219198   6.147   7.670   6.046 -0.0213 -0.1087  0.8809
 6420TIP3    H119199   6.184   7.628   5.968 -1.0166  2.3650 -0.9877
 6420TIP3    H219200   6.068   7.621   6.065  0.7210 -1.3073  0.9094
 6421TIP3   OH219201   2.858   4.606   5.212  0.5518  0.1114  0.1163
 6421TIP3    H119202   2.866   4.555   5.131  0.7742  1.3828 -0.6900
 6421TIP3    H219203   2.893   4.549   5.280  1.8358 -0.3834 -0.9371
 6422TIP3   OH219204   2.340   1.621   4.684  0.1067  0.3055  0.2823
 6422TIP3    H119205   2.422   1.604   4.730  1.2815  0.4261 -1.7171
 6422TIP3    H219206   2.278   1.557   4.719  0.2655  1.9712  3.7889
 6423TIP3   OH219207   3.195   0.511   3.849  0.2612  0.3398  0.0990
 6423TIP3    H119208   3.201   0.462   3.767 -2.4502 -0.1920  0.1679
 6423TIP3    H219209   3.109   0.488   3.885  1.4705  0.3819  3.2109
 6424TIP3   OH219210   3.913   2.534   6.487 -0.2342 -0.2309 -0.1948
 6424TIP3    H119211   3.866   2.595   6.430 -1.5357 -0.5663  0.5116
 6424TIP3    H219212   3.865   2.536   6.570 -0.5462 -2.4997 -0.2869
 6425TIP3   OH219213   1.332   1.996   3.876 -0.3714 -0.0737 -0.1504
 6425TIP3    H119214   1.292   1.982   3.962  0.6520 -0.6824  0.2375
 6425TIP3    H219215   1.261   1.983   3.814 -0.8340 -0.8820  0.5401
 6426TIP3   OH219216   2.341   1.693   4.123  0.1752 -0.1874  0.0216
 6426TIP3    H119217   2.349   1.722   4.214 -0.7219 -0.1473  0.0934
 6426TIP3    H219218   2.279   1.620   4.127  0.3050 -0.3306 -0.5313
 6427TIP3   OH219219   4.091   0.820   3.457 -0.3603  0.0063  0.0036
 6427TIP3    H119220   4.076   0.881   3.529 -1.3833  0.6534 -0.7534
 6427TIP3    H219221   4.116   0.874   3.383  1.5097 -0.7281  0.0710
 6428TIP3   OH219222   4.367   0.222   3.524 -0.0928 -0.1424  0.0792
 6428TIP3    H119223   4.409   0.247   3.606 -1.7045  0.6338  0.7025
 6428TIP3    H219224   4.356   0.304   3.476  0.1803 -0.4931 -0.6032
 6429TIP3   OH219225   2.022   3.108   3.334 -0.2911 -0.1951 -0.3018
 6429TIP3    H119226   1.948   3.071   3.286  0.0987 -1.5411  0.1173
 6429TIP3    H219227   2.064   3.033   3.375  0.8512  0.6543  0.1081
 6430TIP3   OH219228   2.424   1.935   4.716  0.1675  0.2575  0.6808
 6430TIP3    H119229   2.509   1.920   4.675 -0.3995 -0.1670 -0.3727
 6430TIP3    H219230   2.424   2.028   4.739 -0.3631  1.1094 -2.4358
 6431TIP3   OH219231   3.351   0.106   3.349  0.4763 -0.2308 -0.4948
 6431TIP3    H119232   3.274   0.098   3.405  0.4297 -0.1864 -0.5514
 6431TIP3    H219233   3.381   0.016   3.336 -1.0261 -0.5004 -2.4718
 6432TIP3   OH219234   2.542   0.562   5.772  0.3428  0.9090  0.1335
 6432TIP3    H119235   2.490   0.483   5.787 -0.9401  1.7053 -0.1317
 6432TIP3    H219236   2.608   0.534   5.708  0.7372 -0.2922  1.0278
 6433TIP3   OH219237   3.270   2.085   1.864 -0.1631 -0.7094  0.3378
 6433TIP3    H119238   3.194   2.044   1.822 -1.5013  0.6269  1.3483
 6433TIP3    H219239   3.283   2.035   1.944 -0.2951 -0.6294  0.4095
 6434TIP3   OH219240   3.542   2.472   5.009  0.1358  0.4300 -0.7893
 6434TIP3    H119241   3.526   2.471   4.914 -0.4720 -0.1864 -0.6900
 6434TIP3    H219242   3.530   2.563   5.035 -1.9120  0.2283 -0.9530
 6435TIP3   OH219243   4.108   0.069   3.533 -0.4008  0.5438  0.2082
 6435TIP3    H119244   4.031   0.114   3.498 -0.1372  0.9086  0.0928
 6435TIP3    H219245   4.182   0.106   3.484 -0.0271  1.0769  1.1559
 6436TIP3   OH219246   3.395   0.245   3.097  0.2547 -0.3324 -0.1717
 6436TIP3    H119247   3.418   0.335   3.122 -2.4586  0.9554 -2.0266
 6436TIP3    H219248   3.369   0.203   3.178  0.6106  0.8593  0.5666
 6437TIP3   OH219249   4.220   2.333   5.566 -0.4643  0.0920 -0.1665
 6437TIP3    H119250   4.247   2.274   5.637  1.8435 -0.7975 -1.6956
 6437TIP3    H219251   4.171   2.278   5.506 -0.1101  0.1987 -0.5610
 6438TIP3   OH219252   3.382   0.309   5.538  0.0296 -0.3826  0.3459
 6438TIP3    H119253   3.362   0.340   5.627  1.0656  2.7166 -0.4044
 6438TIP3    H219254   3.307   0.337   5.486 -0.3633 -1.7940  0.1419
 6439TIP3   OH219255   1.797   0.894   4.760 -0.1170  0.2082 -0.7671
 6439TIP3    H119256   1.841   0.936   4.834 -1.6686  1.6756 -0.6508
 6439TIP3    H219257   1.842   0.929   4.683  2.0424 -1.9362 -0.5533
 6440TIP3   OH219258   3.673   3.029   4.537  0.1009 -0.3402 -0.0879
 6440TIP3    H119259   3.603   3.045   4.600  2.4397 -0.0696  2.5817
 6440TIP3    H219260   3.678   2.933   4.530 -2.0056 -0.3300 -2.0709
 6441TIP3   OH219261   2.856   0.644   4.759  0.7629 -0.0179 -0.3181
 6441TIP3    H119262   2.787   0.680   4.815  1.3290  0.5265  0.0407
 6441TIP3    H219263   2.833   0.674   4.671  0.1584 -0.4294 -0.3060
 6442TIP3   OH219264   2.873   1.702   4.287  0.4586  0.1790  0.5753
 6442TIP3    H119265   2.947   1.686   4.228  0.5100  0.2530  0.6189
 6442TIP3    H219266   2.824   1.619   4.287 -1.1297  1.0704 -1.7940
 6443TIP3   OH219267   0.489   7.980   4.055  0.5414  0.5533  0.1218
 6443TIP3    H119268   0.412   8.020   4.095  0.5243  2.5494 -1.7898
 6443TIP3    H219269   0.503   7.899   4.105 -1.5160  1.2094  1.8439
 6444TIP3   OH219270   0.663   2.656   5.619 -0.3862  0.3149 -0.7110
 6444TIP3    H119271   0.678   2.567   5.649 -1.7544 -0.8221 -3.2942
 6444TIP3    H219272   0.619   2.699   5.693 -0.9678 -1.5342  0.0369
 6445TIP3   OH219273   1.243   1.421   5.286 -0.1897  0.1845 -0.2562
 6445TIP3    H119274   1.302   1.416   5.211 -1.2579 -2.7415 -0.9589
 6445TIP3    H219275   1.186   1.496   5.267  0.6112  0.4783 -1.5639
 6446TIP3   OH219276   4.205   0.452   5.028 -0.0363 -0.0009  0.1424
 6446TIP3    H119277   4.196   0.508   5.104  2.6025 -0.6292  0.9794
 6446TIP3    H219278   4.298   0.459   5.004 -0.8169  0.3224 -3.1332
 6447TIP3   OH219279   4.105   1.268   5.335 -0.4860  0.1936  0.2379
 6447TIP3    H119280   4.036   1.304   5.279 -1.3355 -1.0449  0.4572
 6447TIP3    H219281   4.059   1.237   5.413  0.4175  0.0497  0.7199
 6448TIP3   OH219282   0.638   5.178   5.303 -0.5334 -0.4582 -0.2148
 6448TIP3    H119283   0.574   5.108   5.288 -1.5173  0.3396  0.2250
 6448TIP3    H219284   0.723   5.137   5.286 -1.0550 -1.9475  0.6741
 6449TIP3   OH219285   3.832   2.090   4.268  0.6040  0.4528 -0.4478
 6449TIP3    H119286   3.824   2.072   4.361  0.6034 -1.4263 -0.7964
 6449TIP3    H219287   3.743   2.112   4.240  0.2742 -0.8063 -0.3794
 6450TIP3   OH219288   1.365   1.895   4.574  0.1723  0.1109  0.2884
 6450TIP3    H119289   1.406   1.828   4.629 -0.7332 -2.2401 -1.7908
 6450TIP3    H219290   1.274   1.896   4.602  0.0386  0.0107 -0.1510
 6451TIP3   OH219291   2.707   2.319   3.990  0.0428  0.1136  0.1949
 6451TIP3    H119292   2.654   2.262   3.934  1.9899 -1.6935  0.1555
 6451TIP3    H219293   2.735   2.390   3.933 -0.8067  0.0997 -0.2450
 6452TIP3   OH219294   1.457   1.676   5.113 -0.0673  0.1771 -0.2029
 6452TIP3    H119295   1.533   1.710   5.065 -0.1260 -0.6354 -0.8841
 6452TIP3    H219296   1.459   1.582   5.096 -0.2925 -0.0798  1.1094
 6453TIP3   OH219297   3.827   2.164   6.947 -0.2422 -0.2747 -0.0458
 6453TIP3    H119298   3.901   2.188   6.892 -0.2991  0.6770  0.2895
 6453TIP3    H219299   3.784   2.247   6.968 -0.9181 -0.7399  0.4463
 6454TIP3   OH219300   2.758   2.258   3.558 -0.2287 -0.0322  0.2684
 6454TIP3    H119301   2.780   2.189   3.621 -0.9457 -0.0158  0.5411
 6454TIP3    H219302   2.799   2.337   3.594  2.0911 -0.6374 -0.9448
 6455TIP3   OH219303   4.373   1.958   4.333  0.5077 -0.4894 -0.0459
 6455TIP3    H119304   4.339   2.031   4.385  0.8016  1.0326 -1.9326
 6455TIP3    H219305   4.297   1.925   4.286  0.7979  0.1013 -0.9440
 6456TIP3   OH219306   3.337   3.809   4.335  0.0036 -0.0015 -0.2352
 6456TIP3    H119307   3.298   3.848   4.414  1.4001 -0.7595  0.8424
 6456TIP3    H219308   3.317   3.873   4.266 -2.2888  0.0973  0.4584
 6457TIP3   OH219309   4.459   3.119   5.868  0.9698  0.5920  0.1754
 6457TIP3    H119310   4.535   3.145   5.815  0.3865  1.5611 -0.2041
 6457TIP3    H219311   4.488   3.040   5.914  1.2197 -0.8186 -2.2573
 6458TIP3   OH219312   2.200   2.172   5.752  0.1933 -0.1914 -0.0793
 6458TIP3    H119313   2.112   2.201   5.726  0.1804 -0.2288 -0.0792
 6458TIP3    H219314   2.190   2.077   5.765  0.8913 -0.7123 -2.8971
 6459TIP3   OH219315   1.621   4.655   4.186  0.2238  0.0534  0.2822
 6459TIP3    H119316   1.658   4.675   4.272  0.3314 -1.1028  0.5137
 6459TIP3    H219317   1.528   4.641   4.202  0.2747 -0.3430  0.2456
 6460TIP3   OH219318   2.398   0.333   5.836 -0.8906 -0.1390 -0.0344
 6460TIP3    H119319   2.392   0.282   5.756 -0.0589 -1.2822  0.6045
 6460TIP3    H219320   2.307   0.354   5.858 -1.2127 -0.9335 -0.5735
 6461TIP3   OH219321   1.948   4.262   4.710  0.1072  0.2905 -0.6479
 6461TIP3    H119322   1.875   4.201   4.703 -0.0184  0.4691 -0.8984
 6461TIP3    H219323   1.989   4.242   4.794  0.2967 -0.3923 -0.9055
 6462TIP3   OH219324   2.708   4.579   4.460 -0.1550  0.5188 -0.1299
 6462TIP3    H119325   2.726   4.492   4.425 -0.3007  0.6664 -0.5664
 6462TIP3    H219326   2.659   4.562   4.541 -1.4334  0.2230 -0.9398
 6463TIP3   OH219327   3.911   0.751   4.243  0.1368 -0.3171  0.0991
 6463TIP3    H119328   3.955   0.836   4.238 -2.4891  1.0182 -1.4124
 6463TIP3    H219329   3.919   0.713   4.156  1.0959 -1.5404  0.7002
 6464TIP3   OH219330   3.154   2.603   4.638  0.5230 -0.4907 -0.2936
 6464TIP3    H119331   3.106   2.612   4.556 -0.0705 -0.6650  0.0354
 6464TIP3    H219332   3.199   2.687   4.649 -0.2635 -0.0775 -0.2477
 6465TIP3   OH219333   4.040   2.166   4.739 -0.2772  0.2284 -0.1967
 6465TIP3    H119334   4.006   2.078   4.719  0.8037 -0.3012  0.2639
 6465TIP3    H219335   3.985   2.197   4.810 -1.7393  0.6057 -1.4719
 6466TIP3   OH219336   4.196   1.505   4.594  0.1861  0.6697 -0.3835
 6466TIP3    H119337   4.240   1.578   4.552 -0.2964  1.8870  1.2118
 6466TIP3    H219338   4.152   1.543   4.670 -0.6784 -1.1376  0.0524
 6467TIP3   OH219339   3.587   0.619   6.087  0.0998  0.2616  0.0255
 6467TIP3    H119340   3.546   0.532   6.082  1.5859 -0.4258 -0.5560
 6467TIP3    H219341   3.516   0.680   6.064 -0.5671 -0.9001 -1.0943
 6468TIP3   OH219342   4.963   3.701   3.710 -0.2725  0.7242 -0.3406
 6468TIP3    H119343   4.989   3.792   3.721  1.0336  0.3677 -0.4256
 6468TIP3    H219344   4.895   3.688   3.776  0.8538  1.2379  0.9601
 6469TIP3   OH219345   3.590   4.538   5.335  0.0581 -0.0226  0.2557
 6469TIP3    H119346   3.665   4.539   5.276 -0.7412 -0.3789 -0.7850
 6469TIP3    H219347   3.566   4.630   5.345  0.1699  0.0348  0.0030
 6470TIP3   OH219348   1.546   2.262   4.759 -0.1720  0.1112  0.5213
 6470TIP3    H119349   1.461   2.244   4.719 -0.2627  1.5927  0.0393
 6470TIP3    H219350   1.604   2.194   4.725 -0.9292 -0.3310  0.1089
 6471TIP3   OH219351   1.793   2.994   3.252 -0.0416  0.2407  0.4507
 6471TIP3    H119352   1.752   3.033   3.329  0.0332 -1.3918  1.3378
 6471TIP3    H219353   1.725   2.997   3.184  0.8657  4.5161 -0.4332
 6472TIP3   OH219354   2.347   1.439   4.459 -0.1911 -0.2834 -0.2225
 6472TIP3    H119355   2.310   1.481   4.380  0.3223 -0.8399 -0.7641
 6472TIP3    H219356   2.339   1.506   4.527  0.4448  0.6342 -1.0304
 6473TIP3   OH219357   2.485   1.985   5.535  0.2782 -0.0301 -0.6146
 6473TIP3    H119358   2.573   2.001   5.501  0.3122 -2.3118 -1.7400
 6473TIP3    H219359   2.496   1.982   5.630  0.5613  4.3167 -0.4058
 6474TIP3   OH219360   1.602   0.475   2.938  0.3602  0.4847  0.3332
 6474TIP3    H119361   1.509   0.492   2.928  0.5553  1.3022 -0.1288
 6474TIP3    H219362   1.643   0.562   2.932  0.9831  0.3607  2.4441
 6475TIP3   OH219363   3.135   3.058   3.238 -0.2582  0.0835 -0.3503
 6475TIP3    H119364   3.214   3.075   3.287 -0.4930  0.6282 -0.1651
 6475TIP3    H219365   3.071   3.121   3.271 -0.9298 -0.7133 -0.1126
 6476TIP3   OH219366   0.630   7.790   4.430  0.0883 -0.8445 -0.3982
 6476TIP3    H119367   0.583   7.769   4.349  0.7725  0.7010 -1.2192
 6476TIP3    H219368   0.620   7.885   4.439  1.8136 -0.7172  0.1948
 6477TIP3   OH219369   4.141   4.276   5.415  0.3020  0.1177  0.2540
 6477TIP3    H119370   4.226   4.303   5.380 -0.2567  1.2616 -0.2396
 6477TIP3    H219371   4.139   4.313   5.504 -0.6202  2.0988 -0.5553
 6478TIP3   OH219372   3.794   1.007   3.577  0.1752  0.3823  0.0328
 6478TIP3    H119373   3.890   1.004   3.583  0.1065  0.4826  1.4976
 6478TIP3    H219374   3.776   1.045   3.492  1.4542  1.4282  0.2189
 6479TIP3   OH219375   1.754   3.398   2.808 -0.1908 -0.4717  0.2469
 6479TIP3    H119376   1.726   3.357   2.890  1.4197 -0.7322  0.6908
 6479TIP3    H219377   1.845   3.372   2.798  0.7907  2.6972  0.3603
 6480TIP3   OH219378   1.797   1.317   1.865  0.9135  1.2827 -0.2655
 6480TIP3    H119379   1.789   1.297   1.771  0.5817  0.7487 -0.1284
 6480TIP3    H219380   1.709   1.340   1.892  0.2910 -1.9176  0.6499
 6481TIP3   OH219381   3.108   0.161   4.139 -0.8639 -0.1292 -0.2438
 6481TIP3    H119382   3.084   0.080   4.183 -0.8483  0.4946  0.9471
 6481TIP3    H219383   3.052   0.228   4.180  0.7995  0.8504  0.5093
 6482TIP3   OH219384   4.191   3.703   3.913 -0.1296  0.5170 -0.5070
 6482TIP3    H119385   4.218   3.688   3.822 -2.2601  0.7100 -1.2174
 6482TIP3    H219386   4.122   3.639   3.928  0.7839 -0.0701  1.2775
 6483TIP3   OH219387   1.803   4.211   4.129  0.8642  0.1378 -0.0698
 6483TIP3    H119388   1.800   4.274   4.200 -0.2050  1.6148 -1.3973
 6483TIP3    H219389   1.896   4.190   4.119  1.1605  1.0331  0.7744
 6484TIP3   OH219390   1.331   1.934   5.061  0.1871 -0.0055 -0.1587
 6484TIP3    H119391   1.284   1.991   5.123  2.8603  1.5788  0.5019
 6484TIP3    H219392   1.384   1.878   5.117 -2.0280 -2.8802 -0.8435
 6485TIP3   OH219393   5.537   5.362   1.115  0.0861 -0.6004  0.1559
 6485TIP3    H119394   5.565   5.453   1.126  0.1298 -0.5068 -0.6507
 6485TIP3    H219395   5.445   5.362   1.142 -0.3415  0.0059 -1.2434
 6486TIP3   OH219396   3.078   3.082   4.581 -0.0615 -0.0019 -0.1532
 6486TIP3    H119397   3.083   3.177   4.596 -0.5492  0.1859 -1.1346
 6486TIP3    H219398   3.006   3.053   4.636  1.2447 -0.1061  1.5442
 6487TIP3   OH219399   1.292   2.302   3.900  0.3828  0.0447 -0.1937
 6487TIP3    H119400   1.288   2.336   3.989  0.7113 -0.5310  0.0460
 6487TIP3    H219401   1.203   2.274   3.880  0.3102  0.1702 -0.0383
 6488TIP3   OH219402   2.541   4.102   4.986  0.3463  0.4658  0.2631
 6488TIP3    H119403   2.612   4.060   4.938 -2.1203 -1.2242 -2.0234
 6488TIP3    H219404   2.553   4.196   4.969  1.4260  0.1232 -0.9396
 6489TIP3   OH219405   1.722   1.781   5.052 -0.3523 -0.2102  0.0101
 6489TIP3    H119406   1.780   1.734   5.111  1.4740  2.2632  0.2282
 6489TIP3    H219407   1.741   1.873   5.066 -3.1871  0.6190 -1.1054
 6490TIP3   OH219408   8.448   1.913   5.731 -0.2632  0.8736 -0.4840
 6490TIP3    H119409   8.535   1.952   5.737  0.0411  0.3040 -1.2161
 6490TIP3    H219410   8.455   1.847   5.663 -1.2160  0.6741 -0.4014
 6491TIP3   OH219411   3.401   5.013   5.322 -0.0051  0.3458 -0.3609
 6491TIP3    H119412   3.325   4.960   5.296 -0.2822  0.4573  0.2331
 6491TIP3    H219413   3.414   5.072   5.248  0.2579 -0.4969 -0.9978
 6492TIP3   OH219414   4.667   1.723   2.963 -0.9045 -0.4502 -0.5356
 6492TIP3    H119415   4.613   1.797   2.990 -0.4095 -0.0947 -0.5213
 6492TIP3    H219416   4.743   1.762   2.921 -1.2603 -0.9831 -1.6980
 6493TIP3   OH219417   2.426   2.235   4.749  0.0419  0.5782 -0.1296
 6493TIP3    H119418   2.471   2.246   4.664  0.3799  1.5032  0.1621
 6493TIP3    H219419   2.350   2.293   4.743  0.0557  0.6273  0.1924
 6494TIP3   OH219420   1.294   2.867   3.778  0.3215 -0.2916 -0.0162
 6494TIP3    H119421   1.327   2.818   3.703  2.3862  0.3141  0.4614
 6494TIP3    H219422   1.298   2.958   3.750  2.9912  0.0907  1.4994
 6495TIP3   OH219423   2.602   1.846   5.760  0.2551  0.3233  0.1158
 6495TIP3    H119424   2.669   1.810   5.701  0.7883  2.5432 -0.6794
 6495TIP3    H219425   2.537   1.776   5.767  2.0393 -1.4067 -0.0846
 6496TIP3   OH219426   4.269   3.110   3.624  0.1901  0.2267  0.1249
 6496TIP3    H119427   4.297   3.165   3.551 -2.0510  0.3092 -0.7096
 6496TIP3    H219428   4.190   3.153   3.657 -0.5839 -1.5387  0.5883
 6497TIP3   OH219429   2.284   3.058   5.420 -0.1358  0.2629  0.1929
 6497TIP3    H119430   2.306   3.149   5.403  0.2978 -0.0694 -1.0530
 6497TIP3    H219431   2.243   3.027   5.339  0.0799 -0.7602  0.4611
 6498TIP3   OH219432   1.624   1.849   3.149 -0.0990  0.0924  0.2464
 6498TIP3    H119433   1.590   1.938   3.154 -1.4111 -0.5151  2.7663
 6498TIP3    H219434   1.573   1.807   3.079  0.6991  1.3322 -1.1199
 6499TIP3   OH219435   1.433   2.945   2.631 -0.3833  0.3798  0.2709
 6499TIP3    H119436   1.457   2.871   2.575 -1.7209  0.5836 -0.5848
 6499TIP3    H219437   1.512   2.962   2.683 -0.1282 -1.8228  0.6706
 6500TIP3   OH219438   3.383   2.556   5.219  0.4914 -0.1580  0.1892
 6500TIP3    H119439   3.315   2.609   5.179 -0.1414 -1.5925 -0.6743
 6500TIP3    H219440   3.452   2.618   5.243 -1.4902  1.4243  1.8920
 6501TIP3   OH219441   3.325   1.446   3.164 -0.0001  0.5409  0.0663
 6501TIP3    H119442   3.350   1.489   3.246  0.2118  1.0493 -0.2587
 6501TIP3    H219443   3.396   1.466   3.104 -0.1335  0.1309 -0.2310
 6502TIP3   OH219444   2.866   2.253   5.248  0.1189  0.5185  0.3844
 6502TIP3    H119445   2.893   2.322   5.187  0.8863  0.6888  0.8962
 6502TIP3    H219446   2.891   2.287   5.334  0.0217 -0.1778  0.6887
 6503TIP3   OH219447   3.051   1.768   4.718  0.4789  0.3365 -0.6676
 6503TIP3    H119448   2.990   1.779   4.791 -0.7909  0.0449 -1.6757
 6503TIP3    H219449   3.064   1.857   4.684  2.4548  0.7336  0.9770
 6504TIP3   OH219450   1.565   3.330   6.409  0.1682  0.3120  0.2523
 6504TIP3    H119451   1.651   3.364   6.432  0.2126  0.1546  0.3232
 6504TIP3    H219452   1.545   3.266   6.478  0.2685 -0.1017 -0.1002
 6505TIP3   OH219453   4.843   5.847   0.512 -0.0641 -0.1759 -0.1367
 6505TIP3    H119454   4.774   5.783   0.523 -1.0646  0.6975 -1.1533
 6505TIP3    H219455   4.868   5.839   0.420 -1.3430  1.9953 -0.7076
 6506TIP3   OH219456   3.375   2.944   6.503  0.2998 -0.1410  0.5316
 6506TIP3    H119457   3.337   2.981   6.583 -1.1131  0.3282 -0.3406
 6506TIP3    H219458   3.420   2.865   6.532 -0.5927 -0.2266  1.7165
 6507TIP3   OH219459   6.346   7.211   0.489  0.7311 -0.2551  0.1236
 6507TIP3    H119460   6.292   7.224   0.567  0.4700 -0.6946  0.0172
 6507TIP3    H219461   6.427   7.256   0.509  1.5826 -2.3508  1.6161
 6508TIP3   OH219462   4.317   0.989   5.454 -0.3100  0.5807 -0.0934
 6508TIP3    H119463   4.325   1.083   5.437  1.6487  0.4433  0.0419
 6508TIP3    H219464   4.358   0.947   5.379  2.3784 -0.1023  1.6915
 6509TIP3   OH219465   3.435   2.434   4.737 -0.6110  0.0986  0.0824
 6509TIP3    H119466   3.461   2.474   4.654  0.3182 -0.7747 -0.0517
 6509TIP3    H219467   3.348   2.399   4.721 -0.6273  0.3476 -0.3795
 6510TIP3   OH219468   3.198   3.559   5.804  0.4222  0.1526 -0.0408
 6510TIP3    H119469   3.223   3.588   5.892  3.1008 -1.5337 -0.2050
 6510TIP3    H219470   3.186   3.465   5.812 -2.2529  0.3916 -0.8620
 6511TIP3   OH219471   2.572   2.493   5.421  0.4721 -0.0329 -0.2869
 6511TIP3    H119472   2.627   2.424   5.459 -1.9365 -2.2023 -0.6414
 6511TIP3    H219473   2.622   2.522   5.344  1.2756 -1.7720 -0.4526
 6512TIP3   OH219474   1.993   2.879   5.392 -0.2273  0.1796 -0.4953
 6512TIP3    H119475   2.059   2.897   5.459 -1.3857  1.2859  0.3768
 6512TIP3    H219476   1.975   2.786   5.401  0.0196  0.2082  0.3685
 6513TIP3   OH219477   4.086   1.683   5.665 -0.1021  0.3749 -0.1986
 6513TIP3    H119478   4.138   1.614   5.707  0.5913  0.4950 -0.8444
 6513TIP3    H219479   4.058   1.644   5.582  2.3392  1.6897 -1.6941
 6514TIP3   OH219480   0.457   1.803   5.789  0.1002 -0.4137  0.2156
 6514TIP3    H119481   0.545   1.789   5.754 -0.0889  1.3217 -1.0281
 6514TIP3    H219482   0.410   1.723   5.768  1.4556 -1.5090  1.2136
 6515TIP3   OH219483   3.556   2.112   6.668  0.5486 -0.5852 -0.0921
 6515TIP3    H119484   3.556   2.207   6.676 -0.3515 -0.4129 -1.8227
 6515TIP3    H219485   3.647   2.089   6.650  0.1643  0.4112 -3.9198
 6516TIP3   OH219486   3.673   0.599   6.729 -0.1680 -0.0135  0.8836
 6516TIP3    H119487   3.732   0.567   6.661 -1.1401 -0.1573  0.0846
 6516TIP3    H219488   3.703   0.687   6.748 -1.7490  1.2424 -2.0060
 6517TIP3   OH219489   1.464   2.085   3.131 -0.4766  0.3314  0.2323
 6517TIP3    H119490   1.497   2.175   3.143 -0.5566  0.0804  2.5142
 6517TIP3    H219491   1.412   2.068   3.209 -0.7224 -1.6099 -0.3331
 6518TIP3   OH219492   3.095   2.198   3.818  0.2388 -0.2046  0.0540
 6518TIP3    H119493   3.000   2.189   3.804  0.3531 -0.8783 -0.3043
 6518TIP3    H219494   3.110   2.293   3.818 -0.3038 -0.1068 -0.7927
 6519TIP3   OH219495   7.761   0.958   5.007 -0.3583  0.1010 -0.0064
 6519TIP3    H119496   7.678   0.969   5.054 -0.4344  0.2456 -0.1727
 6519TIP3    H219497   7.736   0.913   4.926 -0.6846  2.6054 -1.3421
 6520TIP3   OH219498   1.380   0.659   4.295 -0.9120  0.0637  0.1874
 6520TIP3    H119499   1.323   0.653   4.372 -1.8750 -0.5601 -0.5562
 6520TIP3    H219500   1.437   0.733   4.313 -0.7483 -0.4203  1.7529
 6521TIP3   OH219501   7.944   0.803   0.880 -0.0156 -0.1352  0.8366
 6521TIP3    H119502   7.965   0.711   0.897 -1.3404 -0.3358  1.4935
 6521TIP3    H219503   7.977   0.819   0.792  0.7914 -1.0632  0.9587
 6522TIP3   OH219504   1.324   1.683   3.210  0.0008  0.3267  0.4557
 6522TIP3    H119505   1.391   1.705   3.146 -0.0304 -1.0184 -0.0551
 6522TIP3    H219506   1.252   1.742   3.190 -0.1312 -0.2965 -0.9588
 6523TIP3   OH219507   0.723   7.988   6.113  0.0108  0.5747 -0.1596
 6523TIP3    H119508   0.812   8.021   6.121  0.2396 -0.2211  0.6979
 6523TIP3    H219509   0.719   7.951   6.025 -0.0774  2.3329 -0.9217
 6524TIP3   OH219510   2.524   4.767   4.216 -0.4457 -0.5951  0.2795
 6524TIP3    H119511   2.618   4.779   4.230 -0.9550  1.1617  2.3965
 6524TIP3    H219512   2.502   4.831   4.148 -0.2684 -0.4025  0.4014
 6525TIP3   OH219513   2.759   7.900   3.911  0.0573 -1.0223  0.1428
 6525TIP3    H119514   2.814   7.958   3.858  2.4942 -4.0183 -0.7182
 6525TIP3    H219515   2.684   7.879   3.855  0.6286 -1.0275 -0.6171
 6526TIP3   OH219516   3.898   2.140   3.143  0.1948  0.5725 -0.2056
 6526TIP3    H119517   3.986   2.163   3.115  1.0609 -1.1608  1.0326
 6526TIP3    H219518   3.841   2.193   3.087  1.9159 -0.8009 -3.3895
 6527TIP3   OH219519   2.511   2.468   3.761 -0.4387  0.5341  0.3818
 6527TIP3    H119520   2.489   2.452   3.670 -2.0112  0.1516  0.8107
 6527TIP3    H219521   2.527   2.381   3.798  0.3477  0.6988  0.4477
 6528TIP3   OH219522   7.764   8.005   3.997 -0.7919 -0.2760  0.3382
 6528TIP3    H119523   7.729   7.931   3.947 -1.0794  0.0058  0.1303
 6528TIP3    H219524   7.749   8.081   3.942  2.4300 -0.4713 -0.9185
 6529TIP3   OH219525   3.834   1.301   5.270  0.1223 -0.4716 -0.2468
 6529TIP3    H119526   3.854   1.214   5.233 -1.9369 -1.2671  0.4718
 6529TIP3    H219527   3.840   1.360   5.195 -0.0268 -1.4767 -1.0633
 6530TIP3   OH219528   0.997   2.788   3.758  0.1275  0.0379  0.1932
 6530TIP3    H119529   0.906   2.769   3.782  0.3627  1.9266  2.7599
 6530TIP3    H219530   1.002   2.766   3.665 -3.1638  0.6840 -0.1937
 6531TIP3   OH219531   2.567   2.058   4.459 -0.2306 -0.5199  0.0275
 6531TIP3    H119532   2.608   1.972   4.472 -0.0421 -0.2730  1.0965
 6531TIP3    H219533   2.639   2.114   4.431 -0.3447 -0.6969 -0.6266
 6532TIP3   OH219534   6.619   5.548   0.268 -0.6162  0.5652 -0.1095
 6532TIP3    H119535   6.556   5.599   0.217 -0.5858  0.7531  0.0385
 6532TIP3    H219536   6.689   5.610   0.289 -0.6574  0.5065  0.2082
 6533TIP3   OH219537   5.518   4.475   2.193 -0.6440 -0.5796  0.2454
 6533TIP3    H119538   5.460   4.406   2.226 -0.4543 -1.4401 -1.2204
 6533TIP3    H219539   5.467   4.518   2.125  0.4091 -1.3195 -1.0304
 6534TIP3   OH219540   5.408   0.829   4.779 -0.8580  0.2041  0.1628
 6534TIP3    H119541   5.371   0.768   4.842 -0.6920 -0.8081 -0.6979
 6534TIP3    H219542   5.399   0.785   4.694  4.0076 -1.0154  0.0790
 6535TIP3   OH219543   7.986   6.535   0.475  0.2583  0.2973  0.2617
 6535TIP3    H119544   8.016   6.490   0.554 -0.7644 -0.0471  0.4595
 6535TIP3    H219545   7.932   6.471   0.429  0.9165  0.4652 -0.7692
 6536TIP3   OH219546   3.871   1.019   5.159 -0.1783  0.6366 -0.4868
 6536TIP3    H119547   3.890   0.929   5.186 -0.2030  0.5961 -0.6025
 6536TIP3    H219548   3.874   1.015   5.063 -0.3731  0.7182 -0.4951
 6537TIP3   OH219549   3.358   1.393   4.000  0.3817  1.0110  0.5252
 6537TIP3    H119550   3.429   1.330   4.009  0.4295  1.3689  2.7974
 6537TIP3    H219551   3.312   1.366   3.920  1.9623 -0.3122  0.0426
 6538TIP3   OH219552   0.052   1.986   6.198  0.1746  0.4117 -0.2823
 6538TIP3    H119553  -0.011   1.955   6.133 -1.5898  0.0545  1.5202
 6538TIP3    H219554   0.075   2.074   6.170 -1.5095  0.7252 -0.7227
 6539TIP3   OH219555   3.088   3.402   6.479  0.2190 -0.3441  0.4930
 6539TIP3    H119556   3.159   3.465   6.491  1.2381 -1.6739  1.7911
 6539TIP3    H219557   3.027   3.444   6.419  1.3953  1.4254  0.5096
 6540TIP3   OH219558   4.669   1.539   5.352 -0.4984 -0.3278 -0.0724
 6540TIP3    H119559   4.613   1.617   5.358  0.1856  0.1418  0.3645
 6540TIP3    H219560   4.621   1.479   5.296 -1.5743 -0.0460  0.5249
 6541TIP3   OH219561   4.773   6.514   1.567  0.0824 -0.2472 -0.4539
 6541TIP3    H119562   4.758   6.525   1.473 -0.2029 -0.7568 -0.4691
 6541TIP3    H219563   4.733   6.430   1.588 -1.4816  0.7167  0.4927
 6542TIP3   OH219564   4.870   1.552   6.057 -0.6581  0.0971 -0.3933
 6542TIP3    H119565   4.886   1.468   6.014 -0.6400  1.2055 -2.6480
 6542TIP3    H219566   4.955   1.577   6.093 -0.9536 -1.4345  1.4137
 6543TIP3   OH219567   3.402   0.891   6.681 -0.0526  0.0809  0.0001
 6543TIP3    H119568   3.462   0.857   6.748  0.7082  0.0056 -0.7108
 6543TIP3    H219569   3.317   0.898   6.725  0.2409 -0.8398  0.7188
 6544TIP3   OH219570   2.715   1.484   4.294 -0.2143 -0.5377  0.3488
 6544TIP3    H119571   2.727   1.415   4.360  0.0202 -0.5041  0.3401
 6544TIP3    H219572   2.636   1.457   4.246  0.0197 -0.9326  0.1797
 6545TIP3   OH219573   4.096   0.266   5.280  0.2297 -0.1126  0.1270
 6545TIP3    H119574   4.156   0.205   5.238  1.2038  1.1078 -0.2893
 6545TIP3    H219575   4.139   0.351   5.273 -0.3138  0.3681  2.2089
 6546TIP3   OH219576   4.716   2.724   6.401 -0.3894  0.2456 -0.1471
 6546TIP3    H119577   4.673   2.683   6.326 -1.3817 -0.1236  0.6110
 6546TIP3    H219578   4.651   2.786   6.435 -0.1827 -0.0322  0.7722
 6547TIP3   OH219579   0.672   0.736   5.786 -0.1630  0.0715 -0.1514
 6547TIP3    H119580   0.613   0.793   5.836 -1.6010 -0.8652 -0.7754
 6547TIP3    H219581   0.687   0.783   5.704 -1.4781 -0.5033 -0.7328
 6548TIP3   OH219582   1.465   1.687   4.740 -0.5474 -0.1445 -0.0937
 6548TIP3    H119583   1.395   1.687   4.806 -1.5060  0.6167 -1.0988
 6548TIP3    H219584   1.474   1.595   4.716  0.0850 -0.4850  1.3700
 6549TIP3   OH219585   3.585   2.519   5.853  0.3411 -0.0209  0.2521
 6549TIP3    H119586   3.673   2.482   5.850  0.7404  0.9748 -0.5063
 6549TIP3    H219587   3.596   2.605   5.895 -0.3724 -0.1827  0.7876
 6550TIP3   OH219588   2.647   2.570   4.510 -0.4110 -0.0005 -0.0082
 6550TIP3    H119589   2.705   2.642   4.534  1.4401 -1.4228 -0.1060
 6550TIP3    H219590   2.573   2.578   4.570  0.2449  1.3581  0.6443
 6551TIP3   OH219591   3.402   5.207   3.957  0.4110  0.1427  0.3233
 6551TIP3    H119592   3.319   5.200   3.909  0.4051  0.1274  0.3359
 6551TIP3    H219593   3.463   5.152   3.907 -0.0063 -1.1654  1.2321
 6552TIP3   OH219594   7.062   4.755   1.049 -0.8635 -0.0286  0.7375
 6552TIP3    H119595   7.076   4.845   1.078 -1.9982 -0.6135  3.2523
 6552TIP3    H219596   6.967   4.744   1.046 -0.7592 -0.7103 -1.0654
 6553TIP3   OH219597   2.993   1.134   5.173 -0.2430 -0.4079  0.8701
 6553TIP3    H119598   3.006   1.096   5.260 -0.2977 -0.1019  1.0132
 6553TIP3    H219599   3.010   1.227   5.185  0.8388 -0.5236  0.3210
 6554TIP3   OH219600   2.736   3.310   6.955  0.4368  0.2840 -0.3561
 6554TIP3    H119601   2.782   3.385   6.917  2.5507 -2.4225 -3.3385
 6554TIP3    H219602   2.675   3.282   6.887 -1.2338 -0.0350  1.2131
 6555TIP3   OH219603   2.762   3.789   6.176  0.4313  0.0979 -0.4243
 6555TIP3    H119604   2.720   3.838   6.106  0.2594 -2.2245 -1.9884
 6555TIP3    H219605   2.795   3.856   6.236  0.0041  2.0950 -2.3801
 6556TIP3   OH219606   2.508   3.980   4.241 -0.5120  0.1700  0.6220
 6556TIP3    H119607   2.482   3.893   4.271 -0.5329  0.0891  0.3746
 6556TIP3    H219608   2.434   4.011   4.189 -0.1928  0.0147  0.0704
 6557TIP3   OH219609   4.754   4.395   5.188  0.3561  0.0908 -0.3985
 6557TIP3    H119610   4.707   4.356   5.262 -0.0188  0.6434 -0.3439
 6557TIP3    H219611   4.718   4.483   5.180 -0.2364 -0.2803 -1.8152
 6558TIP3   OH219612   1.765   2.803   4.062  0.1840  0.5049  0.4248
 6558TIP3    H119613   1.799   2.885   4.099 -0.9926  1.5568 -0.8181
 6558TIP3    H219614   1.762   2.818   3.968 -0.2532 -0.8871  0.2096
 6559TIP3   OH219615   3.002   7.894   6.019  0.0116  0.8756  0.2129
 6559TIP3    H119616   3.035   7.869   6.105  0.5707  0.4330 -0.1293
 6559TIP3    H219617   3.060   7.965   5.991  0.3965  0.4057 -0.1898
 6560TIP3   OH219618   0.618   3.695   5.116  0.0786  0.8532 -0.3422
 6560TIP3    H119619   0.671   3.773   5.101 -0.6460  1.4450  0.2112
 6560TIP3    H219620   0.530   3.719   5.087  0.1464 -0.2033 -1.4703
 6561TIP3   OH219621   3.423   1.366   4.713  0.1826 -0.2598 -0.3909
 6561TIP3    H119622   3.433   1.279   4.676  0.8196 -0.6683  0.7161
 6561TIP3    H219623   3.343   1.362   4.764  0.4200 -0.3201 -0.0184
 6562TIP3   OH219624   4.116   1.218   4.346 -0.1310  0.1494  0.3861
 6562TIP3    H119625   4.040   1.254   4.299 -0.0889  0.2885  0.4234
 6562TIP3    H219626   4.191   1.248   4.295  0.0009  1.5791  1.3771
 6563TIP3   OH219627   2.377   2.672   5.371 -0.4737  0.1616  0.0686
 6563TIP3    H119628   2.447   2.610   5.392 -0.9687 -0.1456  0.8246
 6563TIP3    H219629   2.338   2.694   5.455 -1.0507  0.6118 -0.3120
 6564TIP3   OH219630   2.262   2.620   3.851 -0.5140 -0.0651 -0.0488
 6564TIP3    H119631   2.271   2.587   3.941 -0.2531  0.6795  0.2011
 6564TIP3    H219632   2.272   2.542   3.796  2.0224 -0.1599  0.4488
 6565TIP3   OH219633   2.742   2.012   5.495  0.2068  0.6251 -0.5481
 6565TIP3    H119634   2.818   2.008   5.553 -0.2757  0.7195  0.0918
 6565TIP3    H219635   2.770   1.964   5.416  1.8932  3.0048 -1.4570
 6566TIP3   OH219636   2.157   1.571   2.669 -0.2066 -0.2263  0.0400
 6566TIP3    H119637   2.155   1.667   2.670 -0.0171 -0.2212 -0.0305
 6566TIP3    H219638   2.251   1.549   2.667 -0.2283 -0.4260  1.3632
 6567TIP3   OH219639   2.949   2.259   4.513  0.1111  0.6940 -0.1515
 6567TIP3    H119640   2.995   2.253   4.429 -0.7469  1.0185 -0.6537
 6567TIP3    H219641   2.857   2.271   4.489 -0.5405 -1.9289  0.7991
 6568TIP3   OH219642   4.946   2.518   3.698  0.3240 -0.3163 -0.2577
 6568TIP3    H119643   4.991   2.513   3.614 -2.4926  1.2446 -1.9172
 6568TIP3    H219644   4.883   2.445   3.696  1.9678 -1.8550  1.6158
 6569TIP3   OH219645   2.381   1.757   4.399  1.1068  0.1239  0.1721
 6569TIP3    H119646   2.467   1.798   4.397  1.2700 -0.2119  0.3097
 6569TIP3    H219647   2.349   1.772   4.488  1.6019 -0.9403  0.5374
 6570TIP3   OH219648   2.208   3.540   4.203  0.0232  0.5285 -0.0091
 6570TIP3    H119649   2.115   3.526   4.192  0.1276 -0.0425 -0.1432
 6570TIP3    H219650   2.249   3.500   4.127  0.2716  2.1495 -0.7579
 6571TIP3   OH219651   2.121   4.534   5.281  0.0898  0.0534  0.0755
 6571TIP3    H119652   2.163   4.462   5.233  0.1531 -0.2470  0.5755
 6571TIP3    H219653   2.067   4.490   5.347  0.1368  0.4652  0.3920
 6572TIP3   OH219654   2.031   2.908   4.193  0.5661  0.4674  0.7410
 6572TIP3    H119655   2.103   2.890   4.254  1.3312  1.0487  0.0275
 6572TIP3    H219656   2.074   2.914   4.107 -0.2487  1.3856  0.3936
 6573TIP3   OH219657   4.284   4.294   4.922  0.0841  0.0941  0.1385
 6573TIP3    H119658   4.312   4.370   4.872  1.7318 -0.2181  0.5437
 6573TIP3    H219659   4.217   4.252   4.867 -0.8563  1.8262 -0.0691
 6574TIP3   OH219660   1.783   2.070   5.098  0.9766 -0.5038 -0.3966
 6574TIP3    H119661   1.845   2.020   5.151  0.1334 -1.3240 -0.1699
 6574TIP3    H219662   1.819   2.067   5.010  1.4219 -0.7177 -0.2081
 6575TIP3   OH219663   3.928   1.821   5.902  0.3991  0.1497 -0.0360
 6575TIP3    H119664   3.866   1.750   5.889 -0.5916  1.0789 -0.3844
 6575TIP3    H219665   3.996   1.806   5.836 -0.5206  0.3189 -1.0282
 6576TIP3   OH219666   1.541   2.417   4.213 -0.0431 -0.3275  1.4805
 6576TIP3    H119667   1.576   2.503   4.189  0.6546 -1.2379 -0.9028
 6576TIP3    H219668   1.446   2.426   4.203  0.0329  0.1431  1.1596
 6577TIP3   OH219669   2.934   0.147   5.634 -0.1260  0.1992  0.1911
 6577TIP3    H119670   3.012   0.176   5.681  0.4129 -0.5001 -0.2483
 6577TIP3    H219671   2.958   0.061   5.599 -0.9603  0.1490 -0.2801
 6578TIP3   OH219672   2.169   1.913   5.319  0.1556 -0.4800 -0.5237
 6578TIP3    H119673   2.086   1.865   5.321 -1.6414  2.4085 -2.4095
 6578TIP3    H219674   2.173   1.958   5.404 -0.4241 -0.3281 -0.5729
 6579TIP3   OH219675   5.411   3.804   3.463  0.3564 -0.1820  0.0981
 6579TIP3    H119676   5.392   3.749   3.387 -1.4226  0.8073 -0.2037
 6579TIP3    H219677   5.389   3.892   3.434  1.8645  0.5097  1.0328
 6580TIP3   OH219678   5.345   0.663   4.574 -0.4059 -0.1404 -0.0892
 6580TIP3    H119679   5.256   0.698   4.576  0.3891  1.8965  1.6737
 6580TIP3    H219680   5.337   0.576   4.615 -1.5712  0.0635  0.1388
 6581TIP3   OH219681   2.803   2.850   4.491 -0.4502  0.3315  0.8189
 6581TIP3    H119682   2.830   2.933   4.453 -0.0740 -0.9366 -1.7870
 6581TIP3    H219683   2.794   2.868   4.584  1.1539  2.9002  0.5224
 6582TIP3   OH219684   5.541   3.165   5.549 -0.3655  0.2890  0.4261
 6582TIP3    H119685   5.455   3.187   5.583 -0.6898 -0.0775 -0.1531
 6582TIP3    H219686   5.535   3.183   5.455  1.0141  2.8468  0.7645
 6583TIP3   OH219687   5.287   1.531   4.194  0.5313  0.3785 -0.0810
 6583TIP3    H119688   5.301   1.487   4.278 -0.3851  1.2148  0.5164
 6583TIP3    H219689   5.236   1.469   4.142  0.9414 -0.0639  0.0393
 6584TIP3   OH219690   5.508   0.237   4.954  0.1758 -0.0954  0.5665
 6584TIP3    H119691   5.514   0.273   5.043  0.8302  0.3677  0.3338
 6584TIP3    H219692   5.586   0.182   4.945 -0.6793 -1.3860  0.8241
 6585TIP3   OH219693   5.296   2.069   4.324 -0.5270  0.6564  0.0028
 6585TIP3    H119694   5.263   1.993   4.276  1.7486  0.2384 -0.9411
 6585TIP3    H219695   5.221   2.128   4.330 -1.8200 -0.8678 -0.8679
 6586TIP3   OH219696   5.217   5.164   4.870 -0.0537  0.3035 -0.4538
 6586TIP3    H119697   5.212   5.253   4.906 -0.2671 -0.4030  1.3230
 6586TIP3    H219698   5.175   5.109   4.936 -0.9743 -0.9850 -2.0774
 6587TIP3   OH219699   6.503   3.669   6.160 -0.4838  0.4577 -0.0430
 6587TIP3    H119700   6.517   3.633   6.248 -1.0912  0.8771  0.2235
 6587TIP3    H219701   6.431   3.731   6.170 -1.6524 -0.7040 -1.1670
 6588TIP3   OH219702   5.629   3.061   3.891  0.2015  0.8737  0.1641
 6588TIP3    H119703   5.674   2.983   3.857 -2.7119  0.1669 -2.2960
 6588TIP3    H219704   5.606   3.111   3.813 -2.2497  1.7601  1.4036
 6589TIP3   OH219705   5.300   2.292   4.122  0.1410  0.5597  0.0495
 6589TIP3    H119706   5.239   2.253   4.185 -0.3995  1.5022  0.1079
 6589TIP3    H219707   5.345   2.217   4.084  0.6803 -0.0163  1.7583
 6590TIP3   OH219708   3.522   2.181   4.745 -0.6350  0.0959 -0.2752
 6590TIP3    H119709   3.496   2.271   4.725 -1.5542 -0.5150 -1.9704
 6590TIP3    H219710   3.439   2.135   4.761 -0.1052 -0.1949  1.8441
 6591TIP3   OH219711   4.314   3.629   6.090 -0.5335 -0.1860 -0.0586
 6591TIP3    H119712   4.330   3.704   6.032 -2.5517  1.3020  1.2603
 6591TIP3    H219713   4.334   3.553   6.035  2.6063  1.2861 -1.0967
 6592TIP3   OH219714   4.416   1.172   3.807 -0.0305 -0.5606 -0.2780
 6592TIP3    H119715   4.349   1.112   3.839 -0.2784  0.7015  1.6585
 6592TIP3    H219716   4.387   1.196   3.719 -2.6246  0.6890  0.8745
 6593TIP3   OH219717   6.296   7.507   0.055 -0.1634 -0.2313 -0.2147
 6593TIP3    H119718   6.385   7.512   0.022  0.0371  1.2375  0.5057
 6593TIP3    H219719   6.293   7.425   0.104  0.7026 -0.4180 -0.4695
 6594TIP3   OH219720   6.787   1.549   6.396  0.6414 -0.4232  0.1615
 6594TIP3    H119721   6.818   1.484   6.332 -1.4101 -0.8121 -0.4824
 6594TIP3    H219722   6.784   1.631   6.347 -1.7754 -0.8915 -0.5368
 6595TIP3   OH219723   0.912   7.374   4.499  0.4718 -0.4642 -0.6804
 6595TIP3    H119724   0.974   7.447   4.503 -0.8157  0.5832  0.2924
 6595TIP3    H219725   0.857   7.393   4.423  1.6547 -1.6815 -1.8833
 6596TIP3   OH219726   6.500   2.204   3.824 -0.4409  0.0465 -0.3787
 6596TIP3    H119727   6.422   2.255   3.846  0.2692  0.8970  0.1751
 6596TIP3    H219728   6.573   2.262   3.842  0.3869 -1.1945  0.3690
 6597TIP3   OH219729   5.547   0.466   3.317 -0.8633 -0.1100 -0.7421
 6597TIP3    H119730   5.524   0.557   3.333 -0.7012 -0.4130  1.3530
 6597TIP3    H219731   5.467   0.417   3.334 -0.5053 -0.5189 -0.2199
 6598TIP3   OH219732   7.317   1.122   5.476  0.4476  0.6955  0.1094
 6598TIP3    H119733   7.401   1.135   5.521  0.6078  0.5573 -0.1471
 6598TIP3    H219734   7.338   1.135   5.383  0.3180  0.0120 -0.0141
 6599TIP3   OH219735   5.085   7.013   0.499 -0.7147 -0.0605  0.2081
 6599TIP3    H119736   5.145   7.004   0.573  0.4313  0.6618 -0.6340
 6599TIP3    H219737   5.007   7.054   0.537 -0.2114  0.1409  1.0472
 6600TIP3   OH219738   4.047   2.258   5.920 -0.2550  0.4354 -0.2070
 6600TIP3    H119739   4.011   2.174   5.948  0.0253  1.2147  2.6974
 6600TIP3    H219740   4.139   2.239   5.899 -0.7390 -0.3775 -1.5883
 6601TIP3   OH219741   2.914   1.858   4.966  0.0804 -0.0386  0.0030
 6601TIP3    H119742   2.943   1.918   5.035  1.0468  0.2223 -0.6213
 6601TIP3    H219743   2.916   1.771   5.006  0.6804  0.1057  0.2828
 6602TIP3   OH219744   4.863   4.297   4.937  0.0267 -0.2207 -0.3646
 6602TIP3    H119745   4.833   4.293   5.028  2.1359  0.9865  0.4166
 6602TIP3    H219746   4.927   4.368   4.936  0.8815 -0.9831 -2.5422
 6603TIP3   OH219747   7.226   7.400   0.065  0.0778 -0.0493 -0.2315
 6603TIP3    H119748   7.285   7.446   0.125 -0.6385 -0.5794  0.8910
 6603TIP3    H219749   7.257   7.425  -0.023  2.2151 -0.6535  0.3257
 6604TIP3   OH219750   6.030   1.988   3.966 -0.3249 -0.1571 -0.9031
 6604TIP3    H119751   6.093   1.977   4.038 -0.4409  0.2927 -0.7325
 6604TIP3    H219752   5.967   1.917   3.979 -0.6803  0.2807 -0.2053
 6605TIP3   OH219753   4.290   4.552   5.822  0.1820 -0.1282 -0.0560
 6605TIP3    H119754   4.361   4.595   5.775  0.3040 -2.6618 -2.3454
 6605TIP3    H219755   4.255   4.619   5.880  3.5161  1.5850  0.0974
 6606TIP3   OH219756   5.974   0.843   2.889  0.2532  0.0960  0.2552
 6606TIP3    H119757   6.036   0.838   2.961  0.6613  0.6754 -0.0492
 6606TIP3    H219758   5.923   0.923   2.906 -1.4806 -1.2007  1.3419
 6607TIP3   OH219759   4.833   4.464   5.604  0.4608  1.0170 -0.2744
 6607TIP3    H119760   4.812   4.390   5.547 -0.4375  0.9034  0.2035
 6607TIP3    H219761   4.793   4.442   5.688  0.6933  1.7796  0.0437
 6608TIP3   OH219762   7.012   0.901   3.533  0.1726 -0.6202  0.2129
 6608TIP3    H119763   6.987   0.809   3.530 -2.0698  0.0012 -0.8433
 6608TIP3    H219764   7.024   0.926   3.442  0.1948  0.2939  0.4626
 6609TIP3   OH219765   3.695   2.413   5.390 -0.0830  0.1497  0.2690
 6609TIP3    H119766   3.644   2.339   5.358 -0.5542  0.7258 -0.3404
 6609TIP3    H219767   3.721   2.388   5.478  0.6215 -1.1653 -0.3066
 6610TIP3   OH219768   4.643   2.338   5.313 -0.3021  0.3135 -0.4381
 6610TIP3    H119769   4.646   2.384   5.229  1.5887 -0.3831 -0.7789
 6610TIP3    H219770   4.551   2.317   5.326 -0.8109  1.6824 -1.6467
 6611TIP3   OH219771   5.296   3.407   4.977 -0.1343  0.0039 -0.0570
 6611TIP3    H119772   5.287   3.326   5.026 -1.3696 -0.3477 -0.8333
 6611TIP3    H219773   5.389   3.428   4.981  0.3770 -2.0263 -0.7325
 6612TIP3   OH219774   3.811   1.677   5.484  0.3117  0.1646 -0.3886
 6612TIP3    H119775   3.870   1.640   5.419 -0.3188  0.7159 -1.2801
 6612TIP3    H219776   3.863   1.745   5.527  0.9342 -0.6332  0.1328
 6613TIP3   OH219777   4.817   1.851   5.993  0.1900 -0.6269 -0.2140
 6613TIP3    H119778   4.795   1.759   6.007 -1.1788 -0.2244  0.3937
 6613TIP3    H219779   4.781   1.872   5.907 -2.6463  0.2612  1.1462
 6614TIP3   OH219780   3.331   4.163   6.217  0.7340  0.3229  0.4144
 6614TIP3    H119781   3.387   4.103   6.167  1.1633 -0.3175  1.6456
 6614TIP3    H219782   3.393   4.218   6.264  0.3269  0.9889  0.1688
 6615TIP3   OH219783   4.541   1.435   4.651 -0.2511  0.2581 -0.2184
 6615TIP3    H119784   4.593   1.356   4.636  2.8508  2.0962  0.3187
 6615TIP3    H219785   4.516   1.464   4.563  1.7771  0.6838 -0.6813
 6616TIP3   OH219786   4.594   3.296   6.635 -0.2698  0.6210 -0.1415
 6616TIP3    H119787   4.540   3.231   6.589 -0.4325  0.1243  0.7351
 6616TIP3    H219788   4.658   3.325   6.570 -0.3578 -0.2404 -0.6168
 6617TIP3   OH219789   5.646   4.232   6.142 -0.3349  0.0020  0.2806
 6617TIP3    H119790   5.676   4.275   6.222 -1.8068  0.6954  0.4751
 6617TIP3    H219791   5.613   4.146   6.171  2.2251 -1.1312 -0.0532
 6618TIP3   OH219792   5.219   2.106   2.972 -0.0406  0.1198  0.1568
 6618TIP3    H119793   5.206   2.200   2.984 -0.0147  0.2801 -0.9876
 6618TIP3    H219794   5.197   2.067   3.057 -0.6447  1.1001  0.4547
 6619TIP3   OH219795   3.298   2.838   5.134  0.0179  0.1819  0.3106
 6619TIP3    H119796   3.239   2.912   5.118 -1.0855 -0.6222  0.5959
 6619TIP3    H219797   3.385   2.872   5.112 -0.3351  1.8712  1.3834
 6620TIP3   OH219798   4.369   3.682   4.883 -0.5113 -0.3392 -0.4162
 6620TIP3    H119799   4.357   3.592   4.851  1.3593 -1.3335  1.5574
 6620TIP3    H219800   4.433   3.720   4.822 -1.5868 -0.1906 -1.4794
 6621TIP3   OH219801   3.170   1.262   6.436  0.1947 -0.3940  0.1356
 6621TIP3    H119802   3.228   1.206   6.488  1.8738  0.9041 -0.3091
 6621TIP3    H219803   3.137   1.326   6.498 -0.1047 -0.6172  0.2086
 6622TIP3   OH219804   2.510   2.524   5.821 -0.1045 -0.1180  0.2271
 6622TIP3    H119805   2.469   2.472   5.890 -0.3789 -0.5606 -0.2791
 6622TIP3    H219806   2.550   2.460   5.762 -1.5312  0.1847 -1.0936
 6623TIP3   OH219807   5.726   2.488   3.693 -0.3030 -0.3162  0.0078
 6623TIP3    H119808   5.762   2.466   3.779 -0.2279  0.5680  0.2054
 6623TIP3    H219809   5.800   2.523   3.644 -0.6828  0.6191  0.0975
 6624TIP3   OH219810   8.015   1.348   1.984  0.0201  0.2763 -0.1293
 6624TIP3    H119811   8.085   1.306   1.933  0.3749  2.6803 -1.6681
 6624TIP3    H219812   8.035   1.323   2.075  2.8812  0.8303 -0.5330
 6625TIP3   OH219813   4.733   3.045   3.722  0.2362 -0.1412  0.0040
 6625TIP3    H119814   4.651   3.065   3.767  0.1719 -0.3463 -0.0229
 6625TIP3    H219815   4.732   3.102   3.645 -0.8891 -1.6638 -1.1493
 6626TIP3   OH219816   1.787   3.803   5.763 -0.5343  0.3080 -0.1162
 6626TIP3    H119817   1.700   3.763   5.767 -0.5921  0.5751  1.4155
 6626TIP3    H219818   1.835   3.749   5.700 -0.2175 -2.9462  2.7904
 6627TIP3   OH219819   4.690   2.545   5.488  0.3354 -0.0584  0.5174
 6627TIP3    H119820   4.691   2.611   5.418 -0.9111  0.5571  1.0652
 6627TIP3    H219821   4.697   2.461   5.442  1.1763  0.4198 -0.2349
 6628TIP3   OH219822   4.810   2.171   5.035 -0.3854 -0.0448 -0.0268
 6628TIP3    H119823   4.858   2.250   5.057 -0.0440 -0.6264  1.3764
 6628TIP3    H219824   4.723   2.202   5.008 -0.0166  0.8434 -0.1879
 6629TIP3   OH219825   2.813   4.645   2.321 -0.0350 -0.4067  0.2015
 6629TIP3    H119826   2.872   4.631   2.246 -0.5173 -0.0760 -0.2401
 6629TIP3    H219827   2.725   4.638   2.284 -0.2744 -0.6929  0.8273
 6630TIP3   OH219828   7.755   6.609   0.027  0.6778 -0.2796  0.1201
 6630TIP3    H119829   7.798   6.626  -0.057 -0.5080  0.7816 -0.2920
 6630TIP3    H219830   7.745   6.696   0.066  1.1734 -0.7704  1.3298
 6631TIP3   OH219831   7.649   1.236   3.550  0.2301  0.0860 -0.1468
 6631TIP3    H119832   7.731   1.196   3.521 -0.8235 -2.1191 -0.2001
 6631TIP3    H219833   7.656   1.327   3.523  2.6755 -0.0623 -0.1242
 6632TIP3   OH219834   3.026   3.623   4.614 -0.6015  0.1025 -0.0781
 6632TIP3    H119835   3.003   3.591   4.701  0.7538 -1.6844 -0.3449
 6632TIP3    H219836   3.109   3.579   4.593 -0.8240  0.6190 -2.2063
 6633TIP3   OH219837   7.762   7.679   0.448  0.5777  0.5857  0.7223
 6633TIP3    H119838   7.674   7.654   0.476 -0.0677  1.9308 -0.0351
 6633TIP3    H219839   7.767   7.773   0.467  1.8297  0.5243  0.7200
 6634TIP3   OH219840   3.557   4.794   5.373  0.0570 -0.0505  0.6098
 6634TIP3    H119841   3.650   4.811   5.392  0.5837 -1.7470 -0.3528
 6634TIP3    H219842   3.520   4.881   5.358  1.4126  0.6801  1.3335
 6635TIP3   OH219843   4.849   0.957   4.281 -0.3308  0.4611 -0.2319
 6635TIP3    H119844   4.809   0.921   4.360  0.7599 -1.3674 -0.4973
 6635TIP3    H219845   4.930   0.907   4.270 -0.1437  1.1469 -2.1507
 6636TIP3   OH219846   5.317   2.570   6.109 -0.2426  0.2952 -0.1619
 6636TIP3    H119847   5.267   2.514   6.168  1.6650 -0.5738  0.7112
 6636TIP3    H219848   5.316   2.524   6.025 -1.4518  0.6235 -0.3338
 6637TIP3   OH219849   4.119   2.194   3.911  0.4691 -0.2760  0.5697
 6637TIP3    H119850   4.065   2.270   3.933 -2.0374 -1.5322 -1.0953
 6637TIP3    H219851   4.125   2.144   3.993 -0.0242  0.4033  1.0251
 6638TIP3   OH219852   6.245   2.216   4.391  0.5020  0.3665 -0.6644
 6638TIP3    H119853   6.184   2.220   4.317 -0.4521 -0.2638  0.0802
 6638TIP3    H219854   6.226   2.295   4.442  0.3037  0.1706 -0.4326
 6639TIP3   OH219855   4.206   1.579   4.918 -0.2242 -0.5986  0.0145
 6639TIP3    H119856   4.155   1.507   4.880 -0.1100  0.1314 -1.5441
 6639TIP3    H219857   4.284   1.584   4.864 -0.9375  1.6888 -0.8329
 6640TIP3   OH219858   2.863   1.243   3.663 -0.3305  0.2556  0.2060
 6640TIP3    H119859   2.792   1.286   3.711 -2.1186  0.4707 -2.5130
 6640TIP3    H219860   2.880   1.162   3.712 -1.8026  0.6500  1.4138
 6641TIP3   OH219861   5.325   1.202   6.410 -0.1584 -0.4560  0.2825
 6641TIP3    H119862   5.334   1.257   6.333  2.4255  0.0447  0.8684
 6641TIP3    H219863   5.285   1.121   6.378 -0.4949  0.3247 -1.2892
 6642TIP3   OH219864   1.291   7.628   3.260  0.1890 -0.2870  0.1827
 6642TIP3    H119865   1.281   7.585   3.344 -0.4484 -0.9313 -0.2176
 6642TIP3    H219866   1.237   7.577   3.200  0.0515  0.5969 -0.4633
 6643TIP3   OH219867   5.386   2.472   5.668  0.3771  0.2604  0.2350
 6643TIP3    H119868   5.469   2.497   5.629  0.4043  0.7726  0.6252
 6643TIP3    H219869   5.320   2.511   5.611  0.3519 -1.7765 -1.2144
 6644TIP3   OH219870   6.190   1.076   5.030  0.2954  0.5321  0.1513
 6644TIP3    H119871   6.258   1.022   5.069 -0.1207 -0.5224 -0.5670
 6644TIP3    H219872   6.195   1.159   5.078  1.1107 -0.0444  1.0830
 6645TIP3   OH219873   7.429   6.610   0.364 -0.0680  0.2864  0.5315
 6645TIP3    H119874   7.433   6.570   0.276  0.5155 -0.3417  0.8397
 6645TIP3    H219875   7.404   6.701   0.348  4.5640  1.4599 -0.6461
 6646TIP3   OH219876   5.519   2.536   3.919  0.0018 -0.4293 -0.6144
 6646TIP3    H119877   5.503   2.461   3.862  0.6924 -1.1492  0.1152
 6646TIP3    H219878   5.560   2.498   3.997 -1.0829  0.5211  0.4298
 6647TIP3   OH219879   1.324   5.712   3.962  0.1656 -0.0594  0.0120
 6647TIP3    H119880   1.401   5.675   3.917  0.4910  2.6333 -1.7699
 6647TIP3    H219881   1.299   5.645   4.025  3.7527 -1.2034  0.3663
 6648TIP3   OH219882   3.454   0.862   4.475 -0.1676 -0.2590  0.1032
 6648TIP3    H119883   3.519   0.847   4.405  0.6897  0.1711  0.7959
 6648TIP3    H219884   3.468   0.790   4.536 -0.4591 -0.2504  0.1795
 6649TIP3   OH219885   5.219   0.108   5.470  0.5034 -0.8654 -0.2461
 6649TIP3    H119886   5.218   0.016   5.444  0.9776 -0.8349 -0.3849
 6649TIP3    H219887   5.135   0.142   5.442  1.4751 -0.5292 -2.8691
 6650TIP3   OH219888   4.866   2.322   5.977  0.1614 -0.0704  0.4502
 6650TIP3    H119889   4.845   2.409   5.945 -1.1457 -0.1341  1.1344
 6650TIP3    H219890   4.921   2.284   5.908  1.1876  1.4791  0.4053
 6651TIP3   OH219891   3.930   2.818   4.754  0.4575  0.3536 -0.0932
 6651TIP3    H119892   3.893   2.799   4.841 -1.7644  0.4959 -0.9920
 6651TIP3    H219893   3.935   2.732   4.712  0.8400  0.3805 -0.1026
 6652TIP3   OH219894   6.239   0.292   6.066  0.1256 -0.3959 -0.3715
 6652TIP3    H119895   6.277   0.260   6.147  0.6992  0.4826 -0.2852
 6652TIP3    H219896   6.314   0.314   6.011 -0.2345  1.1392 -0.2883
 6653TIP3   OH219897   3.115   1.739   3.821 -0.7451  0.1396 -0.1395
 6653TIP3    H119898   3.160   1.666   3.779  0.5387  0.7175  0.2082
 6653TIP3    H219899   3.103   1.803   3.751 -2.4575 -0.6578 -0.5959
 6654TIP3   OH219900   6.993   6.521   3.643 -0.4205  0.1961  0.1784
 6654TIP3    H119901   7.039   6.525   3.559  2.1350 -0.3275  1.5166
 6654TIP3    H219902   6.962   6.431   3.649  2.3364 -0.7234  1.2743
 6655TIP3   OH219903   3.307   2.468   6.014  0.1917 -0.2249 -0.1002
 6655TIP3    H119904   3.252   2.542   5.988  0.3267  0.4513  1.4980
 6655TIP3    H219905   3.394   2.489   5.979  0.3004  0.5212  0.6076
 6656TIP3   OH219906   5.306   3.018   4.903  0.1880  0.0112  0.3839
 6656TIP3    H119907   5.302   3.077   4.828  0.5634 -1.3920 -0.7561
 6656TIP3    H219908   5.292   3.075   4.979  0.9421  1.6124 -0.6570
 6657TIP3   OH219909   3.282   1.908   5.086 -0.0591  0.7721 -0.1997
 6657TIP3    H119910   3.362   1.945   5.047  0.4822  0.5037  0.6423
 6657TIP3    H219911   3.238   1.984   5.125 -0.4929  1.0069 -1.1348
 6658TIP3   OH219912   3.682   4.064   3.628  0.4145  0.4432  0.3362
 6658TIP3    H119913   3.597   4.075   3.584 -0.2449 -0.3454  1.3684
 6658TIP3    H219914   3.685   4.134   3.692  0.3870  0.2757  0.5230
 6659TIP3   OH219915   5.426   2.307   5.101 -0.4030 -0.0834  0.0378
 6659TIP3    H119916   5.459   2.311   5.191 -1.4883  1.6243  0.3867
 6659TIP3    H219917   5.504   2.295   5.048  0.1095 -2.4973  1.2916
 6660TIP3   OH219918   5.003   2.974   4.609  0.0553 -0.0717 -0.1468
 6660TIP3    H119919   4.986   3.052   4.661 -3.6597 -1.1605  0.3988
 6660TIP3    H219920   5.003   3.005   4.518 -2.4135  0.4615  0.0043
 6661TIP3   OH219921   5.249   2.980   5.303 -0.0828  0.1141  0.4155
 6661TIP3    H119922   5.256   2.932   5.386  1.9975 -0.5960 -0.1387
 6661TIP3    H219923   5.194   2.924   5.248  0.4332 -0.5368  0.5517
 6662TIP3   OH219924   4.759   0.503   2.668  0.3714  1.0135 -0.4432
 6662TIP3    H119925   4.668   0.527   2.688  0.4431 -0.0949  1.2997
 6662TIP3    H219926   4.809   0.582   2.685  0.0889  0.8139  1.4237
 6663TIP3   OH219927   3.897   4.620   5.363 -0.6786 -0.5425 -0.2523
 6663TIP3    H119928   3.886   4.697   5.308  0.9444 -0.5347 -0.5782
 6663TIP3    H219929   3.897   4.546   5.302 -0.6665 -0.6782 -0.0911
 6664TIP3   OH219930   4.284   3.154   4.443 -0.0707 -0.4146 -0.3154
 6664TIP3    H119931   4.198   3.190   4.466 -0.0077 -0.4223 -0.0752
 6664TIP3    H219932   4.338   3.230   4.423  0.2719 -0.3381  0.8915
 6665TIP3   OH219933   3.881   4.989   4.921 -0.0325  0.4136  0.1581
 6665TIP3    H119934   3.873   4.903   4.963  0.5598  0.1347 -0.2968
 6665TIP3    H219935   3.838   5.049   4.982  0.0278 -0.1196  0.7386
 6666TIP3   OH219936   7.146   3.340   4.103 -0.4853  0.4529  0.0678
 6666TIP3    H119937   7.104   3.389   4.173  1.9079 -2.0150  3.4013
 6666TIP3    H219938   7.090   3.263   4.091 -0.0359  0.0666  0.4271
 6667TIP3   OH219939   3.926   2.964   5.874 -0.1019  0.0929 -0.0990
 6667TIP3    H119940   4.005   3.017   5.870 -0.4263  0.5512 -0.5936
 6667TIP3    H219941   3.875   2.991   5.797 -1.6935  1.3200  1.3459
 6668TIP3   OH219942   7.347   1.519   4.647  0.1958 -0.4449 -0.3607
 6668TIP3    H119943   7.437   1.505   4.675  0.3024 -1.3455 -1.1560
 6668TIP3    H219944   7.338   1.614   4.644  0.9026 -0.3476  0.4033
 6669TIP3   OH219945   6.477   2.240   6.829  0.0239 -0.3561 -0.2197
 6669TIP3    H119946   6.480   2.150   6.862  0.5711 -0.5509 -0.7970
 6669TIP3    H219947   6.563   2.276   6.850  0.1625 -0.2911 -0.9048
 6670TIP3   OH219948   6.030   3.498   3.758  1.1043  0.4552  0.2609
 6670TIP3    H119949   6.100   3.561   3.777  0.0825  1.9222 -0.6658
 6670TIP3    H219950   5.968   3.510   3.829  0.0321  1.8404 -0.8734
 6671TIP3   OH219951   4.488   1.349   5.571  0.5626  0.1161 -0.2219
 6671TIP3    H119952   4.517   1.258   5.581  0.4723  0.0603 -0.4638
 6671TIP3    H219953   4.451   1.353   5.482  1.6835  0.6998 -0.6750
 6672TIP3   OH219954   4.871   2.251   4.626 -0.2983  0.2522  0.4060
 6672TIP3    H119955   4.865   2.175   4.567 -0.1841  0.2143  0.4425
 6672TIP3    H219956   4.900   2.214   4.710  1.0129  0.4862  0.0799
 6673TIP3   OH219957   8.486   3.636   0.447 -0.2270 -0.5396 -0.3305
 6673TIP3    H119958   8.395   3.665   0.451 -0.2973 -0.5819 -1.4799
 6673TIP3    H219959   8.526   3.669   0.528 -0.8028  1.0461 -0.6851
 6674TIP3   OH219960   6.590   3.110   5.140  0.6160  0.0158  0.2083
 6674TIP3    H119961   6.544   3.039   5.186 -1.4277  0.8698 -0.4701
 6674TIP3    H219962   6.678   3.074   5.123  0.4240 -1.4210  2.0684
 6675TIP3   OH219963   5.925   6.310   0.363  0.1601  0.2503 -0.1697
 6675TIP3    H119964   6.013   6.318   0.401  0.8801  3.3212 -2.3198
 6675TIP3    H219965   5.933   6.345   0.275 -3.2385  0.5617 -0.4287
 6676TIP3   OH219966   5.365   2.050   4.637  0.9588  0.0912  0.5511
 6676TIP3    H119967   5.396   2.106   4.565  0.5614 -0.3672  0.0289
 6676TIP3    H219968   5.271   2.042   4.623  1.0103 -0.6795  0.6620
 6677TIP3   OH219969   4.179   2.210   5.118 -0.8390  0.0625 -0.3325
 6677TIP3    H119970   4.103   2.216   5.060 -0.3399  1.6638 -0.8332
 6677TIP3    H219971   4.193   2.115   5.129 -2.0837 -0.2496 -1.3051
 6678TIP3   OH219972   5.270   2.619   4.664  0.0626 -0.2637  0.0721
 6678TIP3    H119973   5.186   2.601   4.623 -0.8453  0.7311  1.4509
 6678TIP3    H219974   5.311   2.684   4.608 -1.9151  2.4015  1.5757
 6679TIP3   OH219975   4.211   1.943   5.197 -0.6322 -0.1067 -0.5014
 6679TIP3    H119976   4.193   1.849   5.196 -1.4753 -0.0104  1.7688
 6679TIP3    H219977   4.299   1.951   5.232 -1.1744  0.0085  0.8588
 6680TIP3   OH219978   3.079   4.976   3.955 -0.3947  0.4086  0.7514
 6680TIP3    H119979   3.145   5.001   4.020 -0.5924  0.3724  0.9655
 6680TIP3    H219980   3.086   4.881   3.950 -2.7188  0.0324  3.2480
 6681TIP3   OH219981   4.583   0.048   4.189  0.2244  0.2576 -0.3960
 6681TIP3    H119982   4.534   0.127   4.212 -1.8583 -1.5824  1.7737
 6681TIP3    H219983   4.522  -0.005   4.138  0.0822 -1.7711  1.7735
 6682TIP3   OH219984   6.849   2.347   3.387  0.1738 -0.4528  0.1009
 6682TIP3    H119985   6.795   2.406   3.334 -0.6224 -0.7575  0.5685
 6682TIP3    H219986   6.852   2.387   3.473  0.1682 -0.7663  0.2465
 6683TIP3   OH219987   4.370   0.774   3.762  0.1980  0.4466  0.3490
 6683TIP3    H119988   4.313   0.698   3.762 -1.4573  1.6586  0.6368
 6683TIP3    H219989   4.388   0.791   3.670  0.7477 -0.4023  0.2936
 6684TIP3   OH219990   5.697   4.650   5.488 -0.3039  0.2999  0.4847
 6684TIP3    H119991   5.702   4.606   5.403 -2.9694  2.6203 -0.9514
 6684TIP3    H219992   5.659   4.585   5.546 -0.7328 -0.5203 -0.6837
 6685TIP3   OH219993   2.451   2.328   4.094 -0.6568  0.2084  0.8004
 6685TIP3    H119994   2.531   2.358   4.051 -2.1700  1.2267 -1.3612
 6685TIP3    H219995   2.411   2.408   4.129 -2.3727  0.1766 -0.9914
 6686TIP3   OH219996   3.729   3.124   5.390 -0.1926 -0.6667  0.6301
 6686TIP3    H119997   3.767   3.190   5.332  1.0178 -1.3281  0.6465
 6686TIP3    H219998   3.648   3.098   5.347 -1.7152  2.2723  1.6354
 6687TIP3   OH219999   2.729   6.540   3.520 -0.1527  0.0482 -0.5414
 6687TIP3    H120000   2.761   6.588   3.444  0.9173  0.2821  0.0424
 6687TIP3    H220001   2.780   6.575   3.594  0.8493 -2.1180 -0.1369
 6688TIP3   OH220002   6.925   3.888   5.090 -0.2501  0.0086  0.2715
 6688TIP3    H120003   6.853   3.875   5.028 -0.9964 -2.4876  1.6116
 6688TIP3    H220004   6.991   3.824   5.063  0.3950  0.5233  0.6210
 6689TIP3   OH220005   5.340   0.226   4.122  0.3053  0.4178  0.1142
 6689TIP3    H120006   5.258   0.194   4.083 -0.9148  2.7849  0.6790
 6689TIP3    H220007   5.324   0.224   4.216  0.9613  0.7113  0.2313
 6690TIP3   OH220008   4.446   1.836   2.196 -0.0328  0.2020 -0.2826
 6690TIP3    H120009   4.368   1.811   2.246 -0.4658  0.7951 -0.6549
 6690TIP3    H220010   4.516   1.843   2.261 -0.0368 -1.3591 -0.0741
 6691TIP3   OH220011   4.901   0.770   3.587  0.1596 -0.1698  0.3460
 6691TIP3    H120012   4.906   0.865   3.598 -0.6899 -0.1982  1.0475
 6691TIP3    H220013   4.834   0.758   3.520 -0.0551 -0.2951  0.5846
 6692TIP3   OH220014   3.917   2.888   5.356  0.6259  0.4872  0.2679
 6692TIP3    H120015   3.829   2.927   5.354 -0.4362 -1.7499  1.6532
 6692TIP3    H220016   3.976   2.962   5.340 -1.4389  2.2402  0.5077
 6693TIP3   OH220017   5.085   2.324   5.232  0.0573 -0.2871  0.0962
 6693TIP3    H120018   5.064   2.263   5.304  0.0927  0.7973  1.0381
 6693TIP3    H220019   5.129   2.269   5.168  4.5576 -0.3901  3.0514
 6694TIP3   OH220020   5.514   3.068   5.189  0.1318  0.4407 -0.0659
 6694TIP3    H120021   5.429   3.032   5.216  1.2613 -2.2082  0.1082
 6694TIP3    H220022   5.518   3.154   5.232 -1.1168 -0.7414  2.5650
 6695TIP3   OH220023   5.515   4.408   6.419  0.0899  0.1216  0.5756
 6695TIP3    H120024   5.469   4.346   6.363 -2.4174  1.0670  1.5361
 6695TIP3    H220025   5.606   4.405   6.388 -0.3913 -2.5108 -0.6887
 6696TIP3   OH220026   4.285   2.440   3.848 -0.4587  0.2539 -0.7191
 6696TIP3    H120027   4.263   2.516   3.794 -1.9592  0.4371  0.1477
 6696TIP3    H220028   4.203   2.413   3.887  0.4072 -0.6320  0.5272
 6697TIP3   OH220029   1.651   6.814   3.913 -0.1684  0.2048  0.1846
 6697TIP3    H120030   1.567   6.859   3.908  0.1874  0.9255  0.5295
 6697TIP3    H220031   1.706   6.872   3.967  1.0130  0.4894 -1.3003
 6698TIP3   OH220032   4.702   3.942   5.075  0.2576 -0.4454  0.3475
 6698TIP3    H120033   4.672   4.021   5.029  1.9382 -0.5983 -1.0918
 6698TIP3    H220034   4.713   3.970   5.166  0.0727  0.7785  0.0005
 6699TIP3   OH220035   4.129   1.301   5.024 -0.1098  0.2917  0.4000
 6699TIP3    H120036   4.208   1.349   5.052 -0.5323 -0.4562  2.9593
 6699TIP3    H220037   4.060   1.367   5.023 -0.0139  0.3969  0.7574
 6700TIP3   OH220038   3.949   2.620   5.286  0.6644  0.1711 -0.2962
 6700TIP3    H120039   3.951   2.709   5.319 -0.7702  0.8455 -1.9539
 6700TIP3    H220040   3.946   2.565   5.364 -1.5598  1.6925  0.7326
 6701TIP3   OH220041   3.506   1.389   3.686  0.8435  0.4325  0.0395
 6701TIP3    H120042   3.480   1.303   3.655  1.0571 -0.3053  1.8580
 6701TIP3    H220043   3.586   1.374   3.737  0.1956  1.4922  1.4364
 6702TIP3   OH220044   4.912   4.121   5.196 -0.4754  0.3015  0.5956
 6702TIP3    H120045   4.987   4.168   5.234  0.0345  1.0141 -1.2331
 6702TIP3    H220046   4.853   4.190   5.166 -0.8054 -0.2462 -0.0181
 6703TIP3   OH220047   2.914   4.721   3.439  0.2956  0.1165 -0.2451
 6703TIP3    H120048   2.984   4.666   3.404  0.3551 -0.6798  1.1083
 6703TIP3    H220049   2.833   4.683   3.405  0.2699 -1.4181  1.4492
 6704TIP3   OH220050   5.066   4.008   6.628  0.0953  0.4248  0.7885
 6704TIP3    H120051   5.046   4.048   6.544 -0.4529 -0.3767  0.5328
 6704TIP3    H220052   5.074   3.914   6.609  1.1775  0.3890  1.4100
 6705TIP3   OH220053   6.095   1.723   2.185  0.5193  0.0478 -0.0227
 6705TIP3    H120054   6.141   1.686   2.261  0.4725  1.8444  0.8892
 6705TIP3    H220055   6.156   1.709   2.112  1.4264  0.1328  0.7096
 6706TIP3   OH220056   3.665   1.494   2.830 -0.5699 -0.3265 -0.6582
 6706TIP3    H120057   3.734   1.477   2.766  0.1184  1.0446 -0.2950
 6706TIP3    H220058   3.711   1.522   2.909 -1.5915  2.3321 -0.9572
 6707TIP3   OH220059   3.946   3.423   4.652  0.1643 -0.5436  0.4135
 6707TIP3    H120060   3.984   3.417   4.564  2.1450 -0.9429  1.2765
 6707TIP3    H220061   3.852   3.435   4.636  0.7643  1.7182 -1.7804
 6708TIP3   OH220062   3.905   4.627   4.762 -0.2242  0.0604  0.2163
 6708TIP3    H120063   3.817   4.591   4.755 -0.7311  1.6608 -2.5121
 6708TIP3    H220064   3.958   4.572   4.704  0.1451  0.3727  0.2544
 6709TIP3   OH220065   5.521   1.463   6.385 -0.5623 -0.6448 -0.3597
 6709TIP3    H120066   5.567   1.467   6.300 -1.4805 -0.8149 -0.8688
 6709TIP3    H220067   5.448   1.523   6.375 -0.6858 -0.6874  0.3128
 6710TIP3   OH220068   4.700   5.907   4.150 -0.0337 -0.3108  0.4422
 6710TIP3    H120069   4.750   5.949   4.080  0.7122  0.6793  1.5511
 6710TIP3    H220070   4.611   5.939   4.138  0.0398 -0.3397 -0.1977
 6711TIP3   OH220071   3.848   3.326   5.276 -0.0611 -0.5164  0.3469
 6711TIP3    H120072   3.930   3.351   5.234  0.0075  0.9865  1.3360
 6711TIP3    H220073   3.845   3.379   5.356 -0.5362 -2.7732  1.8847
 6712TIP3   OH220074   3.594   4.877   4.275 -0.1809  0.0487 -0.5510
 6712TIP3    H120075   3.522   4.915   4.326 -1.3529  0.1156 -2.2371
 6712TIP3    H220076   3.620   4.799   4.325 -0.6722  0.6374  0.6397
 6713TIP3   OH220077   6.083   3.381   4.873  0.1550 -0.3913  0.6282
 6713TIP3    H120078   6.104   3.470   4.902  0.4301 -0.4624  0.6441
 6713TIP3    H220079   6.166   3.346   4.841 -0.5161  0.3832 -2.0978
 6714TIP3   OH220080   3.427   4.051   5.405 -0.2796 -0.4069 -0.3048
 6714TIP3    H120081   3.383   4.092   5.331 -2.1022 -1.6193  0.0706
 6714TIP3    H220082   3.389   3.963   5.410  1.8370 -1.3244  0.3509
 6715TIP3   OH220083   4.099   2.087   4.171  0.3879  0.1513  0.0765
 6715TIP3    H120084   4.006   2.110   4.183  0.7487  1.3145  0.7080
 6715TIP3    H220085   4.101   1.992   4.183 -0.5898  0.2294  0.9721
 6716TIP3   OH220086   3.700   3.718   5.300  0.2311 -0.3975 -0.3191
 6716TIP3    H120087   3.645   3.686   5.372  1.8006  0.1755  1.1821
 6716TIP3    H220088   3.733   3.638   5.258  1.3432 -0.7963  1.2386
 6717TIP3   OH220089   5.181   2.244   4.960  0.4997 -0.0634  0.0543
 6717TIP3    H120090   5.265   2.248   5.005 -0.1267 -0.3880  1.2821
 6717TIP3    H220091   5.175   2.327   4.911  1.2282  0.2480  0.4960
 6718TIP3   OH220092   4.340   1.915   3.968 -0.2850  0.2094 -0.4539
 6718TIP3    H120093   4.363   2.005   3.945  0.4026  0.4737  1.1282
 6718TIP3    H220094   4.408   1.889   4.031 -0.8406 -1.1863 -0.4117
 6719TIP3   OH220095   4.274   2.307   6.232 -0.6150  0.5854 -0.1800
 6719TIP3    H120096   4.219   2.295   6.309 -1.8442  0.2431 -1.0903
 6719TIP3    H220097   4.270   2.222   6.187  0.5681  0.5951 -0.3150
 6720TIP3   OH220098   4.987   2.095   4.848  0.4756 -0.2156 -0.1737
 6720TIP3    H120099   4.915   2.126   4.902 -0.4145  2.3050 -2.6995
 6720TIP3    H220100   5.063   2.145   4.877  0.0575  0.9379 -1.0481
 6721TIP3   OH220101   2.433   2.851   5.145  0.5536 -0.0288 -0.4541
 6721TIP3    H120102   2.344   2.873   5.117  0.4964 -0.7603 -0.8626
 6721TIP3    H220103   2.421   2.780   5.208  0.8739 -0.4374 -0.8545
 6722TIP3   OH220104   4.588   1.845   6.858 -0.2983 -0.4955 -0.5815
 6722TIP3    H120105   4.514   1.904   6.872 -0.5495 -0.7113 -0.9737
 6722TIP3    H220106   4.630   1.878   6.778  1.5073  1.1293  0.9800
 6723TIP3   OH220107   4.951   3.337   4.969  0.5176  0.1327  0.1388
 6723TIP3    H120108   4.906   3.354   5.051 -2.3469  0.7644 -1.5107
 6723TIP3    H220109   5.032   3.389   4.975 -0.2696  1.1817  2.0060
 6724TIP3   OH220110   4.776   3.663   5.357  0.4128  0.5314 -0.0130
 6724TIP3    H120111   4.724   3.631   5.431 -0.0433 -0.2545 -0.6622
 6724TIP3    H220112   4.780   3.758   5.369 -0.1407  0.4663  0.7087
 6725TIP3   OH220113   5.349   2.064   5.414 -0.0714  0.5328  0.0490
 6725TIP3    H120114   5.390   2.129   5.357  0.1712  0.9584  0.6978
 6725TIP3    H220115   5.421   2.029   5.467 -0.2340 -0.1134 -0.1513
 6726TIP3   OH220116   3.114   2.621   5.896  0.3041 -0.5597  0.4140
 6726TIP3    H120117   3.044   2.589   5.953 -0.5459  0.1473 -0.1994
 6726TIP3    H220118   3.074   2.623   5.808  0.5572  1.3763  0.3023
 6727TIP3   OH220119   4.379   2.368   5.189 -0.2135 -0.1445  1.4433
 6727TIP3    H120120   4.333   2.447   5.218 -0.9794 -0.2191  0.4539
 6727TIP3    H220121   4.309   2.309   5.162  0.3913 -0.9182  1.5643
 6728TIP3   OH220122   4.676   3.716   4.921 -0.2443 -0.1013 -0.0257
 6728TIP3    H120123   4.706   3.763   4.999  1.8376  1.2845 -1.6121
 6728TIP3    H220124   4.629   3.781   4.870  0.8286 -0.2495 -1.2407
 6729TIP3   OH220125   4.142   4.086   4.754 -0.3455  0.2757  0.4294
 6729TIP3    H120126   4.152   4.012   4.694 -1.4137 -1.0203  1.8092
 6729TIP3    H220127   4.119   4.046   4.838  1.6324  2.0070  1.8730
 6730TIP3   OH220128   3.580   3.626   4.391 -0.2051  0.1311  0.1878
 6730TIP3    H120129   3.535   3.686   4.449 -0.7208 -1.0293  1.0111
 6730TIP3    H220130   3.513   3.564   4.363  0.4451 -0.4440 -0.1253
 6731TIP3   OH220131   3.774   2.662   4.193  0.4794  0.6064 -0.0139
 6731TIP3    H120132   3.837   2.692   4.127 -0.6885  0.7434 -1.0935
 6731TIP3    H220133   3.789   2.568   4.200 -0.4527  0.3096 -1.6784
 6732TIP3   OH220134   2.767   6.757   5.523  0.2576  0.1208  0.3803
 6732TIP3    H120135   2.797   6.801   5.444  0.8326  2.0046  1.6193
 6732TIP3    H220136   2.829   6.684   5.535  1.7888  1.4122  0.5418
 6733TIP3   OH220137   6.485   5.332   5.720 -0.0278  0.2512 -0.5641
 6733TIP3    H120138   6.494   5.335   5.624  0.5673 -0.5616 -0.5350
 6733TIP3    H220139   6.550   5.394   5.752 -0.4375  0.7535 -0.6950
 6734TIP3   OH220140   4.416   2.547   5.559 -0.0117 -0.2135  0.0587
 6734TIP3    H120141   4.510   2.545   5.542  0.0478 -0.7536  0.4304
 6734TIP3    H220142   4.381   2.473   5.509  0.0718 -1.3703  1.6755
 6735TIP3   OH220143   5.470   2.288   2.335  0.0288 -0.7409 -1.0746
 6735TIP3    H120144   5.391   2.307   2.386  0.5733  0.7606 -0.7541
 6735TIP3    H220145   5.439   2.277   2.245 -0.6647 -1.1930 -0.7853
 6736TIP3   OH220146   6.139   4.107   5.294  0.3961  0.5612  0.0185
 6736TIP3    H120147   6.095   4.083   5.212 -1.5738  3.5988  0.0880
 6736TIP3    H220148   6.208   4.168   5.267  0.9440  0.1186  0.4317
 6737TIP3   OH220149   5.804   3.364   4.848 -0.2918 -0.1370 -0.0920
 6737TIP3    H120150   5.899   3.363   4.855 -0.1867  1.8923 -0.8196
 6737TIP3    H220151   5.783   3.453   4.820 -2.6221  0.3378  2.8908
 6738TIP3   OH220152   4.062   4.309   3.994 -0.9243  0.5513 -0.6168
 6738TIP3    H120153   4.096   4.371   4.058  1.7101 -1.2126 -0.2179
 6738TIP3    H220154   4.000   4.256   4.044  0.6658 -0.4172  0.3867
 6739TIP3   OH220155   3.942   3.094   4.829 -0.7239 -0.3785 -0.3557
 6739TIP3    H120156   3.932   3.147   4.750  1.7444  0.1411 -0.3567
 6739TIP3    H220157   3.997   3.020   4.801 -0.0573 -0.3266  0.8057
 6740TIP3   OH220158   6.229   2.464   4.565  0.2746 -0.1872 -0.0520
 6740TIP3    H120159   6.181   2.528   4.619 -1.0163  0.2847 -1.7341
 6740TIP3    H220160   6.289   2.422   4.627 -0.2697  1.2445  1.5011
 6741TIP3   OH220161   3.339   2.004   6.579  0.4317  0.2725  0.3957
 6741TIP3    H120162   3.347   2.035   6.489 -1.6854  2.6426  0.9692
 6741TIP3    H220163   3.422   2.027   6.621  0.5563  1.2152 -0.3612
 6742TIP3   OH220164   3.071   1.282   5.935  0.2949  0.2280 -0.5502
 6742TIP3    H120165   2.986   1.238   5.947 -0.1390  0.6984 -1.8352
 6742TIP3    H220166   3.081   1.335   6.014  0.6378 -1.8480  0.8407
 6743TIP3   OH220167   5.246   4.331   4.619  0.5381  0.3246  0.2288
 6743TIP3    H120168   5.162   4.330   4.665  0.6310 -0.9991  0.3851
 6743TIP3    H220169   5.221   4.337   4.526  0.1733 -2.1550  0.1215
 6744TIP3   OH220170   5.719   3.805   5.045 -0.4077  0.3445  0.4611
 6744TIP3    H120171   5.725   3.862   4.969 -2.0400  0.1146  0.1368
 6744TIP3    H220172   5.708   3.864   5.119  0.6791  0.5490  0.4599
 6745TIP3   OH220173   5.633   1.680   4.201  0.2717  0.1265  0.2318
 6745TIP3    H120174   5.562   1.739   4.175 -1.6161 -1.7285  1.0709
 6745TIP3    H220175   5.623   1.604   4.144  2.2315  0.2313 -0.3149
 6746TIP3   OH220176   6.721   3.145   3.941  0.0561 -0.7581  0.6268
 6746TIP3    H120177   6.808   3.142   3.981  0.5615 -0.1952 -0.3967
 6746TIP3    H220178   6.704   3.239   3.927  0.4522 -0.9932 -1.6214
 6747TIP3   OH220179   7.994   1.804   5.107 -0.0174  0.0586  0.3900
 6747TIP3    H120180   8.027   1.716   5.122 -0.3668 -0.2305 -0.4895
 6747TIP3    H220181   8.005   1.849   5.191 -0.7073 -1.1013  1.1130
 6748TIP3   OH220182   5.788   1.958   5.390 -0.3774 -0.2147 -0.4917
 6748TIP3    H120183   5.810   1.869   5.417  0.0714  0.0934  0.1648
 6748TIP3    H220184   5.751   1.948   5.302  2.9246 -0.7259 -1.9219
 6749TIP3   OH220185   5.074   1.559   6.623  0.3140  0.0135  0.0714
 6749TIP3    H120186   4.980   1.552   6.639  0.1037 -1.3305 -1.5147
 6749TIP3    H220187   5.101   1.638   6.670 -2.1077  1.9553 -1.6476
 6750TIP3   OH220188   6.354   2.762   4.613  0.4752  0.0147  0.1022
 6750TIP3    H120189   6.275   2.741   4.663 -0.0114 -1.4670 -1.2635
 6750TIP3    H220190   6.411   2.686   4.626  1.0287  0.3664 -0.2392
 6751TIP3   OH220191   4.243   1.764   4.507 -0.9797  0.0800  0.8490
 6751TIP3    H120192   4.312   1.817   4.467 -0.2019 -0.2430  1.7622
 6751TIP3    H220193   4.174   1.760   4.440  0.6611 -1.1685 -0.8124
 6752TIP3   OH220194   4.270   0.793   4.534 -0.2689 -0.2614  0.2681
 6752TIP3    H120195   4.209   0.863   4.558 -0.7190 -0.2238 -0.9335
 6752TIP3    H220196   4.251   0.722   4.595  0.0558  0.5903  1.3758
 6753TIP3   OH220197   4.759   1.688   4.353  0.5317  0.8981  0.3756
 6753TIP3    H120198   4.845   1.704   4.314 -0.2099  1.7447 -0.9635
 6753TIP3    H220199   4.747   1.593   4.347  0.9311  0.8903 -0.3957
 6754TIP3   OH220200   6.346   1.429   3.737  0.2189 -0.6091  0.1224
 6754TIP3    H120201   6.358   1.336   3.719  0.9135 -0.4226 -0.4052
 6754TIP3    H220202   6.350   1.471   3.651  2.7151  0.1935  0.5661
 6755TIP3   OH220203   3.190   1.190   3.472  0.2097  0.1394 -0.0089
 6755TIP3    H120204   3.142   1.209   3.392  1.0039 -1.2795 -0.8412
 6755TIP3    H220205   3.133   1.220   3.542 -1.3112 -0.3078 -1.0383
 6756TIP3   OH220206   6.970   3.169   3.534 -0.6321  0.0007 -0.1186
 6756TIP3    H120207   6.928   3.084   3.549 -0.4190 -0.1220 -0.2087
 6756TIP3    H220208   6.931   3.227   3.600 -1.0570 -0.0698 -0.3091
 6757TIP3   OH220209   3.318   1.012   4.803 -0.4036 -0.0218  0.0185
 6757TIP3    H120210   3.244   0.955   4.781 -0.5269  1.2838 -3.3420
 6757TIP3    H220211   3.352   1.040   4.718  2.0331  1.8643  1.5463
 6758TIP3   OH220212   4.879   2.828   5.700  0.2839 -0.3883 -0.4212
 6758TIP3    H120213   4.940   2.814   5.627  0.5702 -2.2915  0.1422
 6758TIP3    H220214   4.797   2.853   5.659  0.4018 -1.5917 -1.4289
 6759TIP3   OH220215   2.005   1.613   4.668  0.4377 -0.5318  0.2894
 6759TIP3    H120216   1.943   1.625   4.740  1.7036 -1.3384  1.5462
 6759TIP3    H220217   2.069   1.550   4.702  1.1305 -0.8199 -1.5008
 6760TIP3   OH220218   6.897   5.006   6.161  0.4277 -0.4980 -0.8104
 6760TIP3    H120219   6.915   4.975   6.249  0.0672 -2.5376 -1.4212
 6760TIP3    H220220   6.949   4.948   6.104 -0.1208  0.1436 -1.9839
 6761TIP3   OH220221   5.382   4.545   4.732 -0.3972  0.8623 -0.5196
 6761TIP3    H120222   5.344   4.476   4.677  0.1394 -0.3665  0.6302
 6761TIP3    H220223   5.472   4.554   4.701 -0.2523  0.5337 -0.2026
 6762TIP3   OH220224   5.607   2.977   6.065  0.5338 -0.5398  0.0918
 6762TIP3    H120225   5.668   3.048   6.085  0.9824 -0.4648 -1.4278
 6762TIP3    H220226   5.650   2.898   6.098 -0.0371 -0.0979  1.9273
 6763TIP3   OH220227   4.123   3.307   5.496 -0.7357  0.2723 -0.9830
 6763TIP3    H120228   4.083   3.310   5.583  0.2168  0.0842 -0.5326
 6763TIP3    H220229   4.084   3.381   5.449 -0.5379  0.9685 -0.0722
 6764TIP3   OH220230   4.923   4.876   4.641  0.2249  0.0617  0.2906
 6764TIP3    H120231   4.847   4.823   4.665  1.5189 -1.6817  0.6905
 6764TIP3    H220232   4.892   4.966   4.644 -1.7489 -0.6130  0.7037
 6765TIP3   OH220233   3.781   3.113   5.664 -0.0503 -0.5125 -0.4310
 6765TIP3    H120234   3.765   3.108   5.570  0.0949  1.2543 -0.5626
 6765TIP3    H220235   3.843   3.185   5.674  0.8582 -1.4567  0.9193
 6766TIP3   OH220236   4.663   4.442   5.814 -0.8491  0.1233 -0.3730
 6766TIP3    H120237   4.666   4.348   5.831 -0.3252  0.1322 -0.4238
 6766TIP3    H220238   4.732   4.479   5.868 -1.6235  0.5874  0.3140
 6767TIP3   OH220239   6.404   4.094   3.548 -0.2436  0.0856 -0.6679
 6767TIP3    H120240   6.352   4.079   3.628  0.1756  2.3496  0.0539
 6767TIP3    H220241   6.357   4.163   3.502  0.4613 -0.0277 -1.5517
 6768TIP3   OH220242   3.499   4.964   5.797 -0.7627 -0.4498 -0.3857
 6768TIP3    H120243   3.426   5.009   5.841  0.2390 -0.6201  1.4949
 6768TIP3    H220244   3.549   4.925   5.868  0.9391 -0.7078 -1.7069
 6769TIP3   OH220245   4.052   3.956   4.969  0.1124 -0.2246  0.1475
 6769TIP3    H120246   4.001   3.993   5.041  0.5444  0.1229  0.2739
 6769TIP3    H220247   4.011   3.871   4.953  0.1322 -0.3876  0.9311
 6770TIP3   OH220248   4.432   3.162   6.471 -0.3496  0.5458  0.3657
 6770TIP3    H120249   4.422   3.145   6.377 -1.7880 -0.9502  0.7714
 6770TIP3    H220250   4.347   3.196   6.499 -0.5781 -0.9617  1.5306
 6771TIP3   OH220251   4.804   2.854   4.801  0.1716 -0.1924 -0.2764
 6771TIP3    H120252   4.870   2.910   4.758  0.4511 -0.4882 -0.2357
 6771TIP3    H220253   4.759   2.811   4.730  0.9133 -0.9995 -0.2687
 6772TIP3   OH220254   4.758   3.770   5.670 -0.4823 -0.6730  0.3680
 6772TIP3    H120255   4.733   3.677   5.672 -1.5179 -0.4084  0.2172
 6772TIP3    H220256   4.839   3.774   5.720 -0.6472 -1.5971  0.7281
 6773TIP3   OH220257   7.413   1.887   6.077  0.4942 -0.0253 -0.0703
 6773TIP3    H120258   7.478   1.956   6.088 -0.4066  0.6993  0.8436
 6773TIP3    H220259   7.389   1.891   5.985  0.4534  0.8928 -0.0250
 6774TIP3   OH220260   6.662   1.243   4.202  0.1701 -0.3951 -0.0332
 6774TIP3    H120261   6.631   1.217   4.289 -1.2024 -0.2156 -0.4693
 6774TIP3    H220262   6.601   1.202   4.141 -0.3087  1.4502 -0.8245
 6775TIP3   OH220263   3.793   1.137   3.306  0.7825 -0.3550  0.0515
 6775TIP3    H120264   3.764   1.227   3.316  0.2521 -0.2403 -2.2156
 6775TIP3    H220265   3.888   1.143   3.296  0.7815 -0.0707  0.2176
 6776TIP3   OH220266   6.179   2.630   4.783  0.0351 -0.5590 -0.7759
 6776TIP3    H120267   6.231   2.673   4.851  0.6004  1.2223 -2.3018
 6776TIP3    H220268   6.114   2.579   4.831  0.6453  0.3878  1.0958
 6777TIP3   OH220269   5.425   2.667   5.345 -0.3043  0.5463  0.2317
 6777TIP3    H120270   5.444   2.656   5.251 -0.4052  0.7344  0.1899
 6777TIP3    H220271   5.469   2.748   5.369  1.5464 -0.6167  0.8536
 6778TIP3   OH220272   4.854   3.707   4.205 -0.0357  0.1842 -0.3859
 6778TIP3    H120273   4.873   3.638   4.268 -0.7544 -1.1726 -1.6157
 6778TIP3    H220274   4.940   3.733   4.170  0.1513 -0.8706 -0.7177
 6779TIP3   OH220275   3.927   2.429   3.616  0.3738 -0.1312 -0.3094
 6779TIP3    H120276   3.947   2.349   3.566 -0.0173  0.6493 -1.7245
 6779TIP3    H220277   3.875   2.398   3.690 -0.0181 -1.1568 -1.0042
 6780TIP3   OH220278   2.970   3.587   3.883 -0.2794 -0.3391 -0.2575
 6780TIP3    H120279   2.908   3.583   3.810 -2.1611  0.8099  1.2016
 6780TIP3    H220280   2.992   3.680   3.891  0.5798 -0.5718  0.0933
 6781TIP3   OH220281   4.638   4.633   3.105  0.2500  0.9434  0.3694
 6781TIP3    H120282   4.547   4.621   3.076  0.7581 -1.2610 -0.3774
 6781TIP3    H220283   4.686   4.654   3.025  0.3799  2.2315  0.7843
 6782TIP3   OH220284   4.420   3.746   6.601 -1.0276  0.1103  0.0827
 6782TIP3    H120285   4.410   3.769   6.508 -0.9096 -2.8220 -0.7114
 6782TIP3    H220286   4.511   3.768   6.622 -2.2950  5.2749  0.9249
 6783TIP3   OH220287   6.447   3.076   5.458 -0.3831 -0.5018  1.0587
 6783TIP3    H120288   6.457   3.025   5.539  2.1958 -1.2283  0.3183
 6783TIP3    H220289   6.475   3.016   5.389 -1.6580  0.4479 -0.2905
 6784TIP3   OH220290   1.435   4.007   3.881 -0.1855  0.3659 -0.1435
 6784TIP3    H120291   1.480   3.977   3.802  1.6086 -0.2096  1.0754
 6784TIP3    H220292   1.505   4.022   3.945 -1.5534  1.4591  1.1400
 6785TIP3   OH220293   6.189   2.150   5.513  0.2908  0.0658 -0.0095
 6785TIP3    H120294   6.227   2.072   5.554 -0.0189 -0.6711 -1.0803
 6785TIP3    H220295   6.251   2.220   5.531 -0.0163 -0.1601  1.9980
 6786TIP3   OH220296   2.501   2.877   5.499 -0.5468 -0.1907 -0.1865
 6786TIP3    H120297   2.434   2.905   5.437 -0.1510 -0.0559 -0.5522
 6786TIP3    H220298   2.568   2.836   5.446 -0.0191  0.2835  0.1105
 6787TIP3   OH220299   6.611   2.158   2.251 -0.0928 -0.4369 -0.6614
 6787TIP3    H120300   6.664   2.176   2.328 -0.4558  0.0486 -0.5207
 6787TIP3    H220301   6.667   2.179   2.177  0.0825 -0.4162 -0.5222
 6788TIP3   OH220302   7.531   1.695   6.844  0.0805 -0.0386 -0.2254
 6788TIP3    H120303   7.542   1.789   6.857  0.9169  0.1732 -2.3403
 6788TIP3    H220304   7.443   1.687   6.806  0.3006 -0.0355 -0.7395
 6789TIP3   OH220305   4.881   1.735   5.012 -0.5363 -0.1308  0.5792
 6789TIP3    H120306   4.831   1.768   5.087  0.3024 -1.5700  1.7945
 6789TIP3    H220307   4.972   1.758   5.031 -0.5131  1.2007 -0.9428
 6790TIP3   OH220308   5.699   2.751   6.254  0.0058  0.4134 -0.0736
 6790TIP3    H120309   5.725   2.661   6.274 -0.5534  0.1026 -0.7284
 6790TIP3    H220310   5.738   2.803   6.325  1.2927 -0.1951 -0.3127
 6791TIP3   OH220311   5.197   3.276   6.085 -0.1533 -0.3159 -0.0933
 6791TIP3    H120312   5.232   3.210   6.025 -0.4408  0.2730 -0.9128
 6791TIP3    H220313   5.191   3.231   6.169 -0.8144 -1.4880 -0.7603
 6792TIP3   OH220314   3.310   7.293   2.734 -0.0430 -0.1022  0.2662
 6792TIP3    H120315   3.299   7.315   2.642 -1.1121  1.1019  0.6679
 6792TIP3    H220316   3.224   7.264   2.762 -0.2787  1.6383  1.4255
 6793TIP3   OH220317   5.474   3.149   3.636 -0.4415 -0.3799 -0.4658
 6793TIP3    H120318   5.449   3.069   3.589 -1.1154 -0.8270  0.6331
 6793TIP3    H220319   5.395   3.174   3.684  0.8416 -1.0908  2.0695
 6794TIP3   OH220320   7.355   4.746   2.909 -0.6621  0.3632 -0.1243
 6794TIP3    H120321   7.293   4.765   2.979 -0.7057 -1.2249  0.2764
 6794TIP3    H220322   7.440   4.740   2.953 -0.5457  0.3695 -0.3478
 6795TIP3   OH220323   3.295   1.563   5.629 -0.3921 -0.1926 -0.3623
 6795TIP3    H120324   3.241   1.488   5.656 -1.0243  0.5149  0.3606
 6795TIP3    H220325   3.296   1.621   5.705 -0.4310  0.8348 -1.1274
 6796TIP3   OH220326   5.447   1.657   4.602  0.6922  0.2198 -0.3362
 6796TIP3    H120327   5.413   1.744   4.583 -1.0124 -0.6232 -1.2644
 6796TIP3    H220328   5.387   1.622   4.669  1.0738 -0.4052 -0.3134
 6797TIP3   OH220329   6.405   2.357   5.010  0.0446  0.6111 -0.1207
 6797TIP3    H120330   6.346   2.299   4.961  1.8037 -2.6924  1.4337
 6797TIP3    H220331   6.478   2.372   4.950  1.0361 -1.4011  0.5305
 6798TIP3   OH220332   5.936   2.703   5.959 -0.0488 -0.3077  0.2741
 6798TIP3    H120333   6.011   2.719   6.016 -0.6441 -0.2526  1.0428
 6798TIP3    H220334   5.911   2.612   5.977 -0.0965 -0.3606 -0.0573
 6799TIP3   OH220335   8.030   2.176   1.230 -0.2605  0.5238 -0.3397
 6799TIP3    H120336   7.952   2.215   1.192  0.4070  0.3456 -1.9565
 6799TIP3    H220337   7.998   2.120   1.300 -1.8499 -1.5912 -2.6563
 6800TIP3   OH220338   7.950   2.166   5.827 -0.3943 -0.2318  0.3738
 6800TIP3    H120339   7.857   2.170   5.850 -0.6366  0.8326 -0.7792
 6800TIP3    H220340   7.995   2.203   5.904 -0.9166 -0.6438  0.8824
 6801TIP3   OH220341   5.854   1.924   3.082  0.0052  0.2906 -0.0823
 6801TIP3    H120342   5.927   1.926   3.020  0.0860 -0.8405 -0.0345
 6801TIP3    H220343   5.788   1.869   3.039  0.0667 -0.5177  0.8414
 6802TIP3   OH220344   7.846   3.226   6.195  0.1157 -0.0335  0.2869
 6802TIP3    H120345   7.814   3.221   6.285  0.6241 -0.8287  0.4245
 6802TIP3    H220346   7.801   3.302   6.158 -1.4762 -0.7667  0.6681
 6803TIP3   OH220347   4.914   2.563   6.473 -0.1093  0.0983 -0.2070
 6803TIP3    H120348   4.966   2.582   6.395 -0.6644  0.1427 -0.5702
 6803TIP3    H220349   4.839   2.622   6.467  0.3395  0.7997  0.8732
 6804TIP3   OH220350   4.569   2.337   5.765 -0.6852  0.1485 -0.1073
 6804TIP3    H120351   4.632   2.408   5.771 -1.7001  1.1273 -0.6287
 6804TIP3    H220352   4.593   2.276   5.834 -0.4908  1.5787  1.1067
 6805TIP3   OH220353   5.414   5.124   5.154  0.1245 -0.5277  0.3839
 6805TIP3    H120354   5.466   5.096   5.079  1.0140 -1.1651  1.2220
 6805TIP3    H220355   5.386   5.213   5.133 -0.7586 -1.1805 -1.2824
 6806TIP3   OH220356   8.321   3.633   4.498  0.3628 -0.1214 -0.4166
 6806TIP3    H120357   8.332   3.554   4.551  0.3563 -0.0159 -0.2573
 6806TIP3    H220358   8.384   3.696   4.535 -1.4208  0.8056  1.1140
 6807TIP3   OH220359   5.617   4.018   5.198 -0.6561  0.1626 -0.0431
 6807TIP3    H120360   5.545   3.970   5.239  1.3468 -1.1178  2.0740
 6807TIP3    H220361   5.576   4.098   5.165 -3.1562 -0.7886  0.6343
 6808TIP3   OH220362   5.634   1.153   6.289  0.0231  0.2202  0.4778
 6808TIP3    H120363   5.664   1.240   6.264  0.8039 -0.1391  0.1461
 6808TIP3    H220364   5.596   1.117   6.209  0.8550 -0.2275  0.2798
 6809TIP3   OH220365   6.219   4.389   4.971  0.2514 -0.4794 -0.1830
 6809TIP3    H120366   6.268   4.308   4.970 -0.9113 -1.1927 -2.2588
 6809TIP3    H220367   6.127   4.362   4.964 -0.0564  1.0249 -2.6720
 6810TIP3   OH220368   7.800   3.888   3.874 -0.4942  0.0633 -0.0513
 6810TIP3    H120369   7.795   3.805   3.828 -1.5459  0.1414 -0.0767
 6810TIP3    H220370   7.745   3.876   3.952 -0.4357  0.6417  0.0818
 6811TIP3   OH220371   0.194   0.314   5.268  0.5043 -0.2339 -0.1538
 6811TIP3    H120372   0.180   0.328   5.362  0.8286 -1.3576  0.0732
 6811TIP3    H220373   0.276   0.360   5.249 -0.0821  0.8365 -0.0977
 6812TIP3   OH220374   7.227   2.200   4.851  0.0778 -0.2403 -0.0654
 6812TIP3    H120375   7.199   2.261   4.783 -3.1669  1.8592  2.9789
 6812TIP3    H220376   7.311   2.235   4.880  0.2995  0.2809 -1.2928
 6813TIP3   OH220377   6.330   5.325   4.283 -0.0202 -0.2633 -0.0193
 6813TIP3    H120378   6.400   5.359   4.228  0.6466 -2.2115 -0.4227
 6813TIP3    H220379   6.364   5.241   4.316 -1.9785 -1.0353  0.1032
 6814TIP3   OH220380   6.799   2.076   4.200  0.1741 -0.4306  0.1909
 6814TIP3    H120381   6.767   2.031   4.122  1.0090 -0.2170 -0.2752
 6814TIP3    H220382   6.737   2.148   4.214  1.1917  0.7889 -1.4767
 6815TIP3   OH220383   4.149   3.633   6.484 -0.4171 -0.1544 -0.0761
 6815TIP3    H120384   4.113   3.715   6.516  1.4007  0.8342 -0.4829
 6815TIP3    H220385   4.243   3.650   6.475 -0.2960 -1.6831 -1.9810
 6816TIP3   OH220386   6.434   3.035   4.512 -0.1279 -0.1420  0.0294
 6816TIP3    H120387   6.401   2.961   4.563 -1.3880 -0.2588 -0.9032
 6816TIP3    H220388   6.467   3.097   4.577 -2.1588 -0.0700  1.0394
 6817TIP3   OH220389   6.918   2.896   2.460  0.1832 -0.4267 -0.2981
 6817TIP3    H120390   6.834   2.925   2.494  0.0416 -0.7955 -0.3367
 6817TIP3    H220391   6.934   2.953   2.384 -0.2498 -0.6698 -0.5747
 6818TIP3   OH220392  -0.010   2.747   2.622  0.5312  0.2173 -0.6827
 6818TIP3    H120393   0.069   2.741   2.568  0.3694  2.1794 -1.1647
 6818TIP3    H220394  -0.021   2.841   2.639 -0.4146 -0.2247  1.2928
 6819TIP3   OH220395   6.139   3.366   3.228  0.2464  0.1041  0.4385
 6819TIP3    H120396   6.059   3.354   3.278  0.7933  0.2035  1.3548
 6819TIP3    H220397   6.171   3.277   3.211  0.0160  0.0687  0.1824
 6820TIP3   OH220398  -0.011   3.900   5.571  0.0162 -0.3862  0.3809
 6820TIP3    H120399   0.067   3.895   5.515 -0.5368 -0.6149 -0.3727
 6820TIP3    H220400  -0.011   3.818   5.620 -0.6379 -1.1245 -0.8126
 6821TIP3   OH220401   5.920   2.162   5.510  0.1592 -0.4832  0.2194
 6821TIP3    H120402   5.885   2.093   5.453  0.5374  1.4247 -2.3706
 6821TIP3    H220403   6.014   2.143   5.515  0.1854 -0.4423 -0.0979
 6822TIP3   OH220404   7.678   4.899   3.134 -0.3847 -0.2074 -0.6728
 6822TIP3    H120405   7.719   4.934   3.212  0.0545 -2.4690  0.1410
 6822TIP3    H220406   7.733   4.930   3.061 -0.0529  0.7990 -0.0047
 6823TIP3   OH220407   7.684   0.605   5.240 -0.3835  0.5097  0.3689
 6823TIP3    H120408   7.745   0.659   5.191 -0.5377  0.6391  0.3163
 6823TIP3    H220409   7.737   0.565   5.309 -0.2890  0.8221  0.4804
 6824TIP3   OH220410   6.079   3.718   2.487 -0.2188  0.1101 -0.5181
 6824TIP3    H120411   6.044   3.639   2.445 -0.4932  0.0239 -0.1327
 6824TIP3    H220412   6.110   3.687   2.573 -0.5073  0.4584 -0.2881
 6825TIP3   OH220413   6.168   1.904   4.212  0.7088  0.1693  0.0879
 6825TIP3    H120414   6.188   1.896   4.305 -0.6964  1.6185  0.5315
 6825TIP3    H220415   6.082   1.863   4.201  0.3988  0.9270 -0.3747
 6826TIP3   OH220416   8.055   0.905   3.722 -0.1633 -0.1312  0.0199
 6826TIP3    H120417   7.973   0.856   3.719 -0.0433 -0.3783  0.7570
 6826TIP3    H220418   8.116   0.847   3.766 -0.0217  0.6852  0.9025
 6827TIP3   OH220419   5.903   6.097   3.869  0.1515  0.1785 -0.7290
 6827TIP3    H120420   5.845   6.124   3.798  0.2983 -0.4767 -1.1023
 6827TIP3    H220421   5.844   6.055   3.932  0.2743 -0.8808 -1.3103
 6828TIP3   OH220422   6.944   3.197   5.241  0.4492  0.0927  0.4482
 6828TIP3    H120423   6.884   3.124   5.230  0.8531 -0.1279 -0.2739
 6828TIP3    H220424   6.887   3.273   5.256  0.0641 -0.6003  2.6239
 6829TIP3   OH220425   7.803   3.369   3.863  0.2198 -0.7279  0.1573
 6829TIP3    H120426   7.888   3.390   3.824 -1.1753  1.8112 -1.6181
 6829TIP3    H220427   7.771   3.294   3.813  0.2519 -0.0317 -0.9249
 6830TIP3   OH220428   7.439   7.361   2.828 -0.0400 -0.0452 -0.1112
 6830TIP3    H120429   7.494   7.433   2.858 -0.4476  1.2517 -2.3776
 6830TIP3    H220430   7.387   7.398   2.757 -1.2314 -2.2124 -0.4094
 6831TIP3   OH220431   4.724   2.324   3.675 -0.1332  0.6133 -0.3688
 6831TIP3    H120432   4.655   2.370   3.628  0.7879  1.5157 -0.8454
 6831TIP3    H220433   4.725   2.365   3.762 -1.0553 -0.2752  0.0759
 6832TIP3   OH220434   5.777   3.321   1.664 -0.2818 -0.0475  0.6404
 6832TIP3    H120435   5.867   3.338   1.693  0.1826  0.3586 -0.9682
 6832TIP3    H220436   5.728   3.305   1.745  1.3357 -0.7733  1.5019
 6833TIP3   OH220437   3.983   3.098   6.798  0.1166  0.2210  0.1771
 6833TIP3    H120438   4.042   3.133   6.866 -1.0131  1.2849  0.6194
 6833TIP3    H220439   3.924   3.170   6.778 -2.0834 -1.3446  0.8914
 6834TIP3   OH220440   6.946   6.871   0.052 -0.3483 -0.3662  0.8254
 6834TIP3    H120441   6.903   6.920   0.122  1.1529  1.4671  0.5132
 6834TIP3    H220442   7.037   6.901   0.054  0.1719 -1.7592 -0.6321
 6835TIP3   OH220443   0.526   3.537   3.907 -0.1143 -0.1208  0.3059
 6835TIP3    H120444   0.456   3.574   3.961 -1.2688  0.6321 -1.6762
 6835TIP3    H220445   0.587   3.610   3.893  0.6733 -0.5644  1.3566
 6836TIP3   OH220446   7.549   3.115   4.828 -0.3472  0.0324 -0.0639
 6836TIP3    H120447   7.634   3.073   4.843 -0.5451 -0.6562 -0.8434
 6836TIP3    H220448   7.531   3.100   4.735 -0.2824  2.1247 -0.4485
 6837TIP3   OH220449   4.715   2.738   3.870 -0.0455  0.4280  0.2682
 6837TIP3    H120450   4.674   2.783   3.944 -0.0346 -0.8897  1.0969
 6837TIP3    H220451   4.809   2.747   3.886 -0.0203  1.4896 -0.4266
 6838TIP3   OH220452   5.681   3.175   4.138  0.6845 -0.7779  0.2960
 6838TIP3    H120453   5.603   3.219   4.172  0.2044 -1.6625  0.3528
 6838TIP3    H220454   5.655   3.144   4.052  1.5259  0.4231 -0.3983
 6839TIP3   OH220455   6.608   3.411   4.407 -0.0514 -0.0522 -0.3307
 6839TIP3    H120456   6.661   3.485   4.435  0.9961  0.0698 -2.5294
 6839TIP3    H220457   6.525   3.451   4.379 -1.0966 -0.1749  2.4514
 6840TIP3   OH220458   4.487   3.474   1.354 -0.0062  0.7767 -0.0616
 6840TIP3    H120459   4.494   3.565   1.382  1.3322  1.2357 -1.8191
 6840TIP3    H220460   4.547   3.467   1.280 -2.4954 -0.7146 -2.0063
 6841TIP3   OH220461   7.902   3.941   5.761 -0.1405 -0.1542 -0.1693
 6841TIP3    H120462   7.930   3.918   5.849  0.8120  1.2193 -0.0956
 6841TIP3    H220463   7.899   4.037   5.761 -0.6641 -0.1594 -1.4690
 6842TIP3   OH220464   5.854   2.265   5.202 -0.1873  0.1315  0.0684
 6842TIP3    H120465   5.948   2.246   5.207 -0.6613 -1.7970  2.7739
 6842TIP3    H220466   5.843   2.349   5.246  0.3995  0.8435 -1.1476
 6843TIP3   OH220467   6.897   1.437   3.530  0.3033 -0.0055  0.5243
 6843TIP3    H120468   6.935   1.349   3.535  1.0293  0.2149 -0.7151
 6843TIP3    H220469   6.958   1.491   3.580  0.6318  0.0384  0.0757
 6844TIP3   OH220470   6.261   0.042   5.262  0.1279 -0.3503 -0.2111
 6844TIP3    H120471   6.302   0.012   5.181 -2.6162  1.2026 -2.2793
 6844TIP3    H220472   6.334   0.071   5.317  2.1002 -2.1192 -1.8133
 6845TIP3   OH220473   6.576   2.710   6.543  0.7510  0.0316 -0.0767
 6845TIP3    H120474   6.636   2.671   6.607  1.8664  0.0177 -1.1192
 6845TIP3    H220475   6.549   2.792   6.584 -0.2631 -0.9837  1.3718
 6846TIP3   OH220476   7.635   3.720   2.095 -0.0830  0.1314  1.0685
 6846TIP3    H120477   7.553   3.678   2.121  0.3077 -0.4380  1.3779
 6846TIP3    H220478   7.697   3.648   2.085  0.1836  0.4917  0.0988
 6847TIP3   OH220479   7.333   1.891   5.359 -0.4967  0.0437 -0.5265
 6847TIP3    H120480   7.238   1.892   5.353 -0.4657  2.0603 -1.0334
 6847TIP3    H220481   7.361   1.825   5.294 -1.4577  0.9431 -1.8691
 6848TIP3   OH220482   5.999   1.551   6.353 -0.3160  0.2038  0.5544
 6848TIP3    H120483   5.938   1.623   6.337  1.5254  1.8701  0.8666
 6848TIP3    H220484   6.026   1.522   6.266 -3.0441 -1.9290  0.3248
 6849TIP3   OH220485   5.575   2.623   2.436  0.8951 -0.4012 -0.1164
 6849TIP3    H120486   5.592   2.540   2.479 -0.4234 -0.3167  0.5987
 6849TIP3    H220487   5.546   2.681   2.506 -1.7722 -0.3974 -1.1618
 6850TIP3   OH220488   6.811   4.160   5.152  0.2998 -0.3263  0.1345
 6850TIP3    H120489   6.817   4.065   5.142 -0.2689 -0.0995 -2.9099
 6850TIP3    H220490   6.889   4.184   5.201  1.2682 -2.2045 -0.4390
 6851TIP3   OH220491   6.703   2.759   5.005  0.5457 -0.0841  0.5521
 6851TIP3    H120492   6.683   2.825   4.939  1.5318  0.1281  0.4651
 6851TIP3    H220493   6.621   2.712   5.017  0.8466 -1.4234 -2.2513
 6852TIP3   OH220494   6.019   2.702   3.302 -0.1282  0.0971  0.1682
 6852TIP3    H120495   6.034   2.797   3.300 -3.4038  0.6766 -0.1086
 6852TIP3    H220496   6.087   2.666   3.245  1.3963  2.2190  0.5800
 6853TIP3   OH220497   6.357   2.204   5.787  0.3591  0.1997  0.2677
 6853TIP3    H120498   6.273   2.176   5.823  0.0345 -0.9896 -1.3386
 6853TIP3    H220499   6.418   2.134   5.810  0.3296 -0.1766 -0.7479
 6854TIP3   OH220500   4.265   3.079   2.055  0.1854  0.2029  0.0218
 6854TIP3    H120501   4.232   3.148   1.996  1.9044  0.8428 -0.2120
 6854TIP3    H220502   4.189   3.022   2.069 -1.3919  2.3475  0.5364
 6855TIP3   OH220503   7.795   1.111   4.076  0.8809 -0.1181 -0.0273
 6855TIP3    H120504   7.859   1.096   4.007 -1.4299 -2.7518 -1.7319
 6855TIP3    H220505   7.713   1.128   4.029 -0.1756  0.7651  2.0805
 6856TIP3   OH220506   7.843   1.027   2.801 -0.3226 -0.1913 -0.8220
 6856TIP3    H120507   7.754   0.993   2.811 -0.9876  1.4568 -1.0567
 6856TIP3    H220508   7.867   1.003   2.712 -0.5243 -0.6338 -0.7635
 6857TIP3   OH220509   7.387   1.770   5.611  0.5744 -0.4351 -0.0591
 6857TIP3    H120510   7.373   1.809   5.524  0.4334 -0.0384  0.1444
 6857TIP3    H220511   7.400   1.677   5.592  0.8616 -0.3028 -0.5357
 6858TIP3   OH220512   6.647   1.827   3.555  0.3596  0.2493  0.1825
 6858TIP3    H120513   6.553   1.838   3.571  0.5319  0.0020  1.4208
 6858TIP3    H220514   6.689   1.857   3.635  1.4288  1.5602 -0.8390
 6859TIP3   OH220515   5.027   3.423   3.019 -0.4959  0.4390  0.3415
 6859TIP3    H120516   4.958   3.488   3.030 -0.5031  0.2310  1.5969
 6859TIP3    H220517   5.095   3.469   2.970 -1.2852  0.8018 -0.4577
 6860TIP3   OH220518   0.046   3.039   4.805 -0.5450 -0.3875 -0.4260
 6860TIP3    H120519   0.054   2.949   4.773 -1.4177 -0.1783 -1.2466
 6860TIP3    H220520  -0.015   3.034   4.879 -0.2554 -0.5350 -0.1972
 6861TIP3   OH220521   7.387   2.616   2.931 -0.3842 -0.0999 -0.0435
 6861TIP3    H120522   7.432   2.575   3.006 -0.3366  0.8181  0.4411
 6861TIP3    H220523   7.371   2.544   2.871  0.0880 -0.7612  0.6036
 6862TIP3   OH220524   5.951   5.807   4.207 -0.6183 -0.2861 -0.2398
 6862TIP3    H120525   6.043   5.829   4.217 -0.9930  1.0757  0.2938
 6862TIP3    H220526   5.940   5.726   4.257  0.2147 -0.2982 -0.0750
 6863TIP3   OH220527   6.454   1.495   4.813  0.5566 -0.3545  0.3059
 6863TIP3    H120528   6.422   1.585   4.813 -0.0769 -0.5746 -0.3405
 6863TIP3    H220529   6.529   1.495   4.754  0.7327 -0.1889  0.5308
 6864TIP3   OH220530   6.435   3.342   5.492 -0.1915  0.7064  0.0341
 6864TIP3    H120531   6.466   3.321   5.581  0.1502  2.2798  0.2952
 6864TIP3    H220532   6.452   3.262   5.442 -1.1516 -0.4880  1.5697
 6865TIP3   OH220533   4.891   0.399   5.138 -0.0996  0.2456  0.1690
 6865TIP3    H120534   4.947   0.334   5.179 -0.0604  0.2098  0.0588
 6865TIP3    H220535   4.876   0.465   5.206  0.9028  0.7677 -0.1093
 6866TIP3   OH220536   6.689   2.565   4.206 -0.6765  0.3326  0.3174
 6866TIP3    H120537   6.596   2.587   4.217 -0.1106  2.9020  0.2374
 6866TIP3    H220538   6.736   2.639   4.244  1.3674 -0.9582  0.3882
 6867TIP3   OH220539   3.904   0.712   2.066 -0.1973 -0.5160 -0.0879
 6867TIP3    H120540   3.815   0.742   2.046  0.4007  1.3291 -0.0718
 6867TIP3    H220541   3.892   0.642   2.130 -1.5603  1.0769  1.4601
 6868TIP3   OH220542   7.739   3.176   3.691 -0.2402 -0.4446  0.4208
 6868TIP3    H120543   7.786   3.093   3.684 -2.1878 -1.6019  0.4645
 6868TIP3    H220544   7.652   3.150   3.723 -0.6479  1.6912  1.0848
 6869TIP3   OH220545   5.218   0.580   4.104  0.1382 -0.3673  0.0289
 6869TIP3    H120546   5.198   0.518   4.174 -2.0753 -0.2886 -0.5070
 6869TIP3    H220547   5.288   0.635   4.140 -1.5010  0.1837  2.5117
 6870TIP3   OH220548   6.812   2.962   5.179  0.1258 -0.1578  0.3618
 6870TIP3    H120549   6.811   2.891   5.243 -0.8969 -1.2868 -0.8603
 6870TIP3    H220550   6.797   2.918   5.095  0.6804  1.3706 -0.5598
 6871TIP3   OH220551   7.964   1.120   3.868 -0.6759 -0.2624 -0.0879
 6871TIP3    H120552   8.054   1.151   3.882 -0.9300 -0.4905  2.1013
 6871TIP3    H220553   7.972   1.059   3.795  1.2173 -1.4414  1.0421
 6872TIP3   OH220554   5.011   3.268   1.452 -0.1549 -0.5112  0.1434
 6872TIP3    H120555   5.065   3.342   1.426 -0.5577 -0.6066 -0.9831
 6872TIP3    H220556   4.931   3.307   1.486  0.6227 -0.3686  1.8583
 6873TIP3   OH220557   7.817   2.721   5.278 -0.1402 -0.0764 -0.3018
 6873TIP3    H120558   7.737   2.670   5.291 -0.1238  0.0913  0.5105
 6873TIP3    H220559   7.829   2.768   5.361  0.6074  0.1694 -0.5431
 6874TIP3   OH220560   3.783   2.068   3.967 -0.3215 -0.4247 -0.5654
 6874TIP3    H120561   3.774   2.076   4.062 -0.1865  0.9092 -0.6555
 6874TIP3    H220562   3.862   2.015   3.954 -0.6457 -1.0683  0.0632
 6875TIP3   OH220563   6.191   2.086   5.990  0.1899 -0.3130  0.1902
 6875TIP3    H120564   6.111   2.130   6.018  1.3992  0.9853  1.6876
 6875TIP3    H220565   6.260   2.121   6.047  1.8053 -1.5278 -0.9448
 6876TIP3   OH220566   7.221   6.325   4.191  0.0541  0.3595 -0.0403
 6876TIP3    H120567   7.200   6.269   4.117  0.5091  2.1304 -1.5592
 6876TIP3    H220568   7.300   6.287   4.229  0.6043  0.2150 -1.3165
 6877TIP3   OH220569   7.150   2.544   5.530  0.2651  0.5260  0.2733
 6877TIP3    H120570   7.174   2.610   5.596  1.0898  1.0919 -0.5696
 6877TIP3    H220571   7.190   2.576   5.449 -1.7268  0.4718 -0.7766
 6878TIP3   OH220572   8.007   6.524   4.699 -0.5942 -0.3974  0.1419
 6878TIP3    H120573   8.079   6.587   4.697 -0.9747  0.0527  0.4176
 6878TIP3    H220574   8.043   6.444   4.660  0.2187 -0.3541  0.8020
 6879TIP3   OH220575   7.695   0.090   3.467 -0.2557  0.1780  0.4185
 6879TIP3    H120576   7.692   0.012   3.523 -1.8990  0.5057  0.8036
 6879TIP3    H220577   7.674   0.057   3.380  0.3053 -0.0004  0.3443
 6880TIP3   OH220578   6.820   0.633   3.110  0.8518  0.6450  0.1389
 6880TIP3    H120579   6.777   0.621   3.195 -1.8493  2.8613 -0.8381
 6880TIP3    H220580   6.786   0.562   3.056 -1.4134  2.1624 -0.5148
 6881TIP3   OH220581   7.336   1.705   3.265  0.6941 -0.2235 -0.2626
 6881TIP3    H120582   7.368   1.793   3.246 -1.2284  0.9828  1.9705
 6881TIP3    H220583   7.252   1.700   3.220  0.0344 -0.3456  0.9946
 6882TIP3   OH220584   4.181   0.149   4.469  0.3074  0.7914 -0.3705
 6882TIP3    H120585   4.230   0.178   4.392  0.6578  0.1785 -0.3773
 6882TIP3    H220586   4.238   0.168   4.543  0.6489 -0.1305 -0.3971
 6883TIP3   OH220587   7.053   4.840   6.008  0.2901  0.1418 -0.0940
 6883TIP3    H120588   7.145   4.817   5.994  0.1863 -0.3834  0.0883
 6883TIP3    H220589   7.008   4.756   6.016  0.0693  0.4051  1.6329
 6884TIP3   OH220590   5.870   2.335   3.912  0.4206 -0.4552  0.0531
 6884TIP3    H120591   5.934   2.265   3.894  1.3553  0.5038 -0.4386
 6884TIP3    H220592   5.919   2.399   3.964 -0.5165 -0.3055  0.7498
 6885TIP3   OH220593   5.486   5.106   4.723 -0.3555  0.1411 -0.1669
 6885TIP3    H120594   5.526   5.193   4.728  0.6307 -0.2698 -0.6069
 6885TIP3    H220595   5.395   5.119   4.750  0.4191  0.8798  2.2591
 6886TIP3   OH220596   7.613   4.168   5.681 -0.0899  0.4814  0.4507
 6886TIP3    H120597   7.692   4.213   5.655 -0.1056  0.5898  0.5918
 6886TIP3    H220598   7.599   4.102   5.613 -0.5260  1.2315 -0.1974
 6887TIP3   OH220599   7.864   3.210   0.154 -0.0760 -0.1238  0.2802
 6887TIP3    H120600   7.903   3.157   0.084  0.6993 -0.9822  1.3450
 6887TIP3    H220601   7.932   3.213   0.222  0.2041  2.8741 -0.0543
 6888TIP3   OH220602   5.995   2.529   4.458  0.5540 -0.2752 -0.4984
 6888TIP3    H120603   6.090   2.517   4.468  0.7742 -0.0745 -2.1210
 6888TIP3    H220604   5.986   2.612   4.412 -0.4495  0.0829  0.3483
 6889TIP3   OH220605   1.011   2.235   2.250 -0.8315 -0.7102  0.2675
 6889TIP3    H120606   1.065   2.156   2.262 -0.3113  0.0633  3.5122
 6889TIP3    H220607   1.056   2.285   2.182  0.8887 -1.4811  0.8128
 6890TIP3   OH220608   5.744   0.770   6.179 -0.3794 -0.2573  0.0390
 6890TIP3    H120609   5.784   0.856   6.179 -2.7111  0.8786  0.8500
 6890TIP3    H220610   5.771   0.730   6.096  2.0506  0.5869  0.4039
 6891TIP3   OH220611   7.105   2.666   3.549  0.0290 -0.0554  0.4349
 6891TIP3    H120612   7.044   2.671   3.623 -0.1770 -0.4875  0.2968
 6891TIP3    H220613   7.124   2.757   3.526 -2.0965  0.0960 -0.8026
 6892TIP3   OH220614   4.808   3.670   6.134  0.1036  0.3201  0.4770
 6892TIP3    H120615   4.768   3.748   6.095  0.7471  0.3145 -0.1893
 6892TIP3    H220616   4.739   3.635   6.191 -1.4508 -0.6013 -1.8914
 6893TIP3   OH220617   5.802   3.289   2.210 -0.4431 -0.8369  0.0798
 6893TIP3    H120618   5.814   3.352   2.140 -1.0997 -0.3452  0.4078
 6893TIP3    H220619   5.786   3.343   2.288 -0.0783 -1.3837  0.5390
 6894TIP3   OH220620   6.066   1.577   3.242  0.2248 -0.2090 -0.8367
 6894TIP3    H120621   5.984   1.623   3.220  0.8071 -0.4088 -3.6207
 6894TIP3    H220622   6.094   1.538   3.159  2.9000 -0.5598  0.2058
 6895TIP3   OH220623   4.669   2.372   4.168  0.3115 -0.1844  0.0118
 6895TIP3    H120624   4.589   2.412   4.134 -0.3492 -0.8557  0.7817
 6895TIP3    H220625   4.696   2.429   4.240 -0.4111 -0.8890  0.8507
 6896TIP3   OH220626   6.264   2.822   3.508 -0.1575  0.0929  0.3018
 6896TIP3    H120627   6.186   2.876   3.495 -1.0374 -1.5239 -1.3821
 6896TIP3    H220628   6.246   2.775   3.590 -1.4439 -1.0310 -0.5979
 6897TIP3   OH220629   6.931   1.846   3.503  0.0365  0.5283  0.0267
 6897TIP3    H120630   6.846   1.840   3.546 -0.6051  1.9990 -0.9874
 6897TIP3    H220631   6.938   1.938   3.477  1.2508  0.0896 -1.2737
 6898TIP3   OH220632   6.278   2.817   3.942 -0.2718 -0.0241 -0.1064
 6898TIP3    H120633   6.310   2.871   3.869 -0.9385  0.8107  0.2262
 6898TIP3    H220634   6.234   2.878   4.000 -1.2882 -0.9768  0.1280
 6899TIP3   OH220635   8.263   0.644   5.528  0.4573 -0.2873  0.0336
 6899TIP3    H120636   8.225   0.565   5.491 -1.5141  0.3283  0.6526
 6899TIP3    H220637   8.357   0.626   5.534  0.2969 -1.7994 -1.7000
 6900TIP3   OH220638   8.018   1.253   5.195  0.1249 -0.5861  0.1578
 6900TIP3    H120639   8.012   1.343   5.164 -0.4846 -0.7031 -0.0730
 6900TIP3    H220640   7.935   1.236   5.239  0.0873 -1.1462 -0.1122
 6901TIP3   OH220641   8.213   1.215   3.869  0.1600 -0.3244 -0.5419
 6901TIP3    H120642   8.272   1.142   3.849  1.0279 -0.3157  1.8501
 6901TIP3    H220643   8.271   1.286   3.896 -0.8998 -0.3739  2.0583
 6902TIP3   OH220644   6.891   3.560   4.084  0.2540  0.0765  0.3316
 6902TIP3    H120645   6.860   3.648   4.106 -0.6160 -0.2077  0.2259
 6902TIP3    H220646   6.914   3.565   3.991  0.0289  0.1373  0.2800
 6903TIP3   OH220647   5.538   2.780   4.076  0.0123  0.4912  0.3039
 6903TIP3    H120648   5.620   2.732   4.061 -0.3152  0.1251 -0.3909
 6903TIP3    H220649   5.555   2.836   4.151  0.5987 -0.2912  0.7545
 6904TIP3   OH220650   7.750   2.315   5.370 -0.1956 -0.3784  0.3585
 6904TIP3    H120651   7.657   2.336   5.378 -0.5119 -1.3477 -0.6979
 6904TIP3    H220652   7.762   2.293   5.278  1.0411 -0.4829  0.5383
 6905TIP3   OH220653   6.261   3.392   4.576  0.1925 -0.0170  0.6230
 6905TIP3    H120654   6.290   3.389   4.667  0.3375  2.0111  0.6706
 6905TIP3    H220655   6.210   3.312   4.564 -0.6177  0.1603  2.7575
 6906TIP3   OH220656   5.431   2.895   2.410 -0.1160 -0.5904  0.2972
 6906TIP3    H120657   5.351   2.946   2.397  0.0420 -0.2893  0.5201
 6906TIP3    H220658   5.451   2.861   2.322 -0.7310 -1.0311  0.3231
 6907TIP3   OH220659   4.988   4.005   3.008 -0.0140  0.1026 -0.1466
 6907TIP3    H120660   4.925   4.063   2.965  0.6534  1.3868  0.5903
 6907TIP3    H220661   4.949   3.985   3.093  0.6062  0.9785  0.3506
 6908TIP3   OH220662   5.476   6.061   3.702  0.4496  0.1489 -0.4925
 6908TIP3    H120663   5.553   6.114   3.681 -1.2215  2.2453 -1.5980
 6908TIP3    H220664   5.420   6.119   3.754 -0.6032 -1.1749 -0.1108
 6909TIP3   OH220665   7.456   2.220   4.985  0.0589  0.3574 -0.1679
 6909TIP3    H120666   7.531   2.279   4.986 -0.2895  0.8999 -2.7684
 6909TIP3    H220667   7.494   2.134   4.965  0.2097  0.2364  0.6109
 6910TIP3   OH220668   5.595   4.080   3.136  0.1435 -0.1844  0.6154
 6910TIP3    H120669   5.580   4.022   3.211 -1.2634  0.2347  0.6813
 6910TIP3    H220670   5.512   4.128   3.126  0.9035  1.0147 -0.1209
 6911TIP3   OH220671   6.190   3.454   5.808 -0.1070  0.2922 -0.1156
 6911TIP3    H120672   6.179   3.415   5.721  0.8367  0.7981 -0.4716
 6911TIP3    H220673   6.163   3.545   5.797  0.9094  0.5968 -0.1083
 6912TIP3   OH220674   7.746   1.916   5.321  0.2421 -0.7877  0.8347
 6912TIP3    H120675   7.694   1.966   5.384  1.8139  0.7358  0.9382
 6912TIP3    H220676   7.732   1.824   5.347 -1.7129 -0.3673  1.3548
 6913TIP3   OH220677   4.571   2.321   4.985  0.8494  0.3791 -0.2289
 6913TIP3    H120678   4.491   2.314   5.036  2.0963 -1.5822  1.5475
 6913TIP3    H220679   4.552   2.276   4.903  0.2243 -0.3681  0.3175
 6914TIP3   OH220680   6.634   3.228   4.600 -0.1613 -0.5765 -0.0524
 6914TIP3    H120681   6.622   3.282   4.521 -0.9389  1.6818  1.5584
 6914TIP3    H220682   6.729   3.230   4.615  0.0236 -1.2239 -1.0491
 6915TIP3   OH220683   8.146   3.080   4.032 -0.3877  0.1167 -0.0980
 6915TIP3    H120684   8.198   3.024   4.090 -1.6493  0.3447  1.2700
 6915TIP3    H220685   8.077   3.115   4.088 -0.4367  1.9465 -1.2757
 6916TIP3   OH220686   3.167   1.408   6.198  0.2364  0.5758 -0.0319
 6916TIP3    H120687   3.130   1.487   6.239  1.2166  0.5697  0.8922
 6916TIP3    H220688   3.170   1.344   6.269 -0.7360 -0.3585 -0.8339
 6917TIP3   OH220689   4.480   1.509   3.677  0.2981 -0.0208  0.2017
 6917TIP3    H120690   4.409   1.446   3.666  0.0593  0.6770 -2.3784
 6917TIP3    H220691   4.437   1.588   3.708 -0.1373  0.5290 -1.7528
 6918TIP3   OH220692   5.623   3.439   2.892  0.1657  0.1436  0.1296
 6918TIP3    H120693   5.588   3.350   2.881 -0.9852  0.6466 -0.4016
 6918TIP3    H220694   5.718   3.428   2.886  0.0373 -1.0635  0.1208
 6919TIP3   OH220695   7.516   4.720   3.742 -0.1337 -0.1656 -0.2973
 6919TIP3    H120696   7.426   4.692   3.726 -0.0789  0.8692 -2.6161
 6919TIP3    H220697   7.570   4.655   3.696  0.1416  1.1512 -1.9081
 6920TIP3   OH220698   0.305   4.027   5.656 -0.2044 -0.4651  0.5457
 6920TIP3    H120699   0.249   4.074   5.717 -0.3535 -0.0109  0.0605
 6920TIP3    H220700   0.384   4.079   5.649 -0.0160 -0.7319  0.6701
 6921TIP3   OH220701   6.347   3.459   4.303 -0.1564 -0.1269  0.0866
 6921TIP3    H120702   6.281   3.409   4.255  0.2383  0.1105 -0.7021
 6921TIP3    H220703   6.318   3.455   4.394 -2.0611  1.2359 -0.4418
 6922TIP3   OH220704   8.050   2.638   4.840 -0.3953  0.2098 -0.2169
 6922TIP3    H120705   8.134   2.604   4.870 -1.3678 -1.4521  0.7242
 6922TIP3    H220706   8.068   2.727   4.812  2.4219 -1.2823 -3.5140
 6923TIP3   OH220707   4.418   2.809   2.008 -0.3188 -0.1303  0.1449
 6923TIP3    H120708   4.488   2.868   1.980  0.1679 -0.8081 -0.0897
 6923TIP3    H220709   4.339   2.864   2.010  0.1605  0.5634  0.1038
 6924TIP3   OH220710   6.797   3.799   5.398 -0.7806  0.1232 -0.4546
 6924TIP3    H120711   6.743   3.869   5.434 -0.5594 -0.2904  0.7011
 6924TIP3    H220712   6.735   3.740   5.354 -1.0293  0.7344 -0.9193
 6925TIP3   OH220713   5.139   3.429   1.197 -0.0466  0.6255  0.6582
 6925TIP3    H120714   5.171   3.340   1.178 -0.9504  0.1402  1.3467
 6925TIP3    H220715   5.218   3.481   1.207  0.4962  0.0064 -0.2632
 6926TIP3   OH220716   1.232   6.459   0.759 -0.4887 -0.1793  0.2921
 6926TIP3    H120717   1.145   6.461   0.720 -1.1529  1.0713  1.7862
 6926TIP3    H220718   1.243   6.367   0.787 -1.7111 -0.1570  0.9022
 6927TIP3   OH220719   6.583   2.372   5.439 -0.1124 -0.2057  0.3629
 6927TIP3    H120720   6.574   2.464   5.464 -0.6311 -0.9465  3.0896
 6927TIP3    H220721   6.521   2.326   5.496  0.9900 -2.3601 -0.1378
 6928TIP3   OH220722   5.521   6.523   4.654  0.5357  0.4314 -0.7150
 6928TIP3    H120723   5.472   6.447   4.685  0.7270  1.6899  2.9147
 6928TIP3    H220724   5.604   6.487   4.622 -0.1365 -1.0585 -0.8107
 6929TIP3   OH220725   7.026   1.866   6.536  0.5936  0.7547 -0.5008
 6929TIP3    H120726   7.025   1.773   6.515 -1.3598  0.3651  1.1378
 6929TIP3    H220727   6.976   1.907   6.465  0.9793  0.5113 -0.9216
 6930TIP3   OH220728   7.326   1.781   4.577  0.0986  0.1553 -0.4883
 6930TIP3    H120729   7.299   1.809   4.489  0.4497  0.9760 -0.3388
 6930TIP3    H220730   7.421   1.775   4.572 -0.0216 -1.7414 -0.7226
 6931TIP3   OH220731   6.241   3.048   5.007 -0.0181  0.6263  0.2096
 6931TIP3    H120732   6.268   3.121   5.063 -3.3495  0.0546  2.6871
 6931TIP3    H220733   6.152   3.028   5.035 -0.4779 -2.0485 -2.9146
 6932TIP3   OH220734   5.543   3.597   4.773 -0.4057 -0.0244 -0.1353
 6932TIP3    H120735   5.535   3.684   4.734  0.1999 -0.4120 -1.1268
 6932TIP3    H220736   5.635   3.574   4.762 -0.9998 -1.7072 -1.8183
 6933TIP3   OH220737   5.652   5.382   6.276  0.3237  0.3183 -0.1428
 6933TIP3    H120738   5.724   5.405   6.218  1.6358 -0.6953  1.0643
 6933TIP3    H220739   5.660   5.288   6.290 -1.0168  0.2482  0.2830
 6934TIP3   OH220740   6.713   0.467   2.332 -0.2696 -0.0313 -0.1745
 6934TIP3    H120741   6.751   0.434   2.413  1.3399 -0.6009 -1.1465
 6934TIP3    H220742   6.750   0.555   2.321  1.9765 -1.1620 -1.8931
 6935TIP3   OH220743   5.834   1.270   4.725  0.4560  0.0757 -0.1714
 6935TIP3    H120744   5.919   1.227   4.727 -0.0492 -0.8890  1.8315
 6935TIP3    H220745   5.776   1.213   4.776 -0.8733  1.7707  0.2980
 6936TIP3   OH220746   7.175   1.750   6.139 -0.2956 -0.0395  0.5634
 6936TIP3    H120747   7.193   1.763   6.232  0.5013 -1.8464  0.6683
 6936TIP3    H220748   7.236   1.809   6.095  1.0842 -1.0066  1.1339
 6937TIP3   OH220749   8.378   1.745   2.715 -0.1789  0.2662  0.4036
 6937TIP3    H120750   8.432   1.666   2.705 -0.7801  0.1215 -2.1884
 6937TIP3    H220751   8.293   1.721   2.680 -1.5154  0.9707  3.0533
 6938TIP3   OH220752   5.870   2.952   4.869  0.2050 -0.0731 -0.5369
 6938TIP3    H120753   5.779   2.979   4.883  0.0172  0.6075 -2.8271
 6938TIP3    H220754   5.912   2.964   4.954 -1.8448 -0.4533  0.5706
 6939TIP3   OH220755   5.209   2.912   3.220 -0.5184 -0.4824 -0.7723
 6939TIP3    H120756   5.261   2.890   3.142  0.8396 -0.3856  0.0943
 6939TIP3    H220757   5.174   2.828   3.249  1.2910 -0.9722  0.1280
 6940TIP3   OH220758   6.250   1.200   4.521  0.3197  0.2831  0.2466
 6940TIP3    H120759   6.298   1.212   4.603 -1.3598 -3.0289  1.8435
 6940TIP3    H220760   6.158   1.208   4.547 -0.1867  0.1491 -1.4916
 6941TIP3   OH220761   6.410   3.690   4.167  0.4630  0.5291  0.2530
 6941TIP3    H120762   6.415   3.599   4.193 -0.4040  0.5881  0.6234
 6941TIP3    H220763   6.324   3.720   4.197 -0.5760  0.6064 -2.5907
 6942TIP3   OH220764   4.408   3.184   4.761  0.3800  0.5474  0.1560
 6942TIP3    H120765   4.387   3.105   4.711 -0.6500  0.7837  0.1977
 6942TIP3    H220766   4.486   3.162   4.810  0.7584 -0.0687 -0.7104
 6943TIP3   OH220767   7.482   3.861   2.437  0.3157 -0.4972 -0.1078
 6943TIP3    H120768   7.483   3.781   2.384  0.0090  0.4333 -1.5476
 6943TIP3    H220769   7.447   3.928   2.379  1.0994  0.8170  0.9062
 6944TIP3   OH220770   5.668   7.629   3.288 -0.1849  0.4399 -0.5582
 6944TIP3    H120771   5.654   7.628   3.382 -1.6857  0.9584 -0.7619
 6944TIP3    H220772   5.690   7.538   3.266 -0.0218  0.2804  0.2678
 6945TIP3   OH220773   7.649   1.524   3.559 -0.0340 -0.1743 -0.1324
 6945TIP3    H120774   7.560   1.551   3.541 -0.3618 -1.0342  0.1567
 6945TIP3    H220775   7.673   1.570   3.640  0.3627  1.3059 -1.0726
 6946TIP3   OH220776   4.880   1.418   2.575  0.2580  0.1406 -0.2513
 6946TIP3    H120777   4.841   1.451   2.494  1.6677 -0.8102 -1.3438
 6946TIP3    H220778   4.848   1.328   2.582 -1.6941  0.9186  1.4853
 6947TIP3   OH220779   6.891   0.302   3.251  0.1959 -0.2452  0.9150
 6947TIP3    H120780   6.955   0.372   3.248  0.8176 -0.7869  1.3030
 6947TIP3    H220781   6.806   0.346   3.243  0.5955  0.5085  0.7979
 6948TIP3   OH220782   7.859   5.153   4.994 -0.2993  0.3867  0.5378
 6948TIP3    H120783   7.797   5.203   4.940  0.6737  0.3424 -0.6461
 6948TIP3    H220784   7.879   5.075   4.941  1.6061  0.9392  0.4277
 6949TIP3   OH220785   6.576   2.561   2.640  0.1719 -0.3952  0.4664
 6949TIP3    H120786   6.586   2.568   2.545 -0.2005 -1.5450  0.3326
 6949TIP3    H220787   6.482   2.548   2.653  0.2545 -0.4925  0.9715
 6950TIP3   OH220788   7.069   1.805   3.252 -0.3041  0.4055  0.0025
 6950TIP3    H120789   7.025   1.804   3.337  0.8035  0.2169  0.5822
 6950TIP3    H220790   7.132   1.877   3.258  0.7806 -0.5148 -0.1334
 6951TIP3   OH220791   0.127   2.837   3.243  0.0006  0.3836  0.6313
 6951TIP3    H120792   0.072   2.774   3.196 -0.3260 -0.1658  1.7384
 6951TIP3    H220793   0.091   2.839   3.332  1.4710  0.3757  1.2361
 6952TIP3   OH220794   5.427   1.885   3.000  0.2758  0.5338 -0.1247
 6952TIP3    H120795   5.338   1.855   3.020 -0.0246  1.7510  0.4169
 6952TIP3    H220796   5.424   1.907   2.907 -0.1921  1.2504  0.0559
 6953TIP3   OH220797   5.408   4.675   5.067 -0.0283  0.5475 -0.2068
 6953TIP3    H120798   5.404   4.769   5.086  1.4202  0.8110 -1.1117
 6953TIP3    H220799   5.494   4.662   5.027 -0.7031 -0.9459 -1.2459
 6954TIP3   OH220800   7.802   0.648   4.928  0.3187  0.0971 -0.0392
 6954TIP3    H120801   7.840   0.696   4.854 -1.0534  0.9877 -0.1756
 6954TIP3    H220802   7.709   0.672   4.927 -0.3206 -2.2239  0.1408
 6955TIP3   OH220803   8.223   3.639   4.233 -0.1524 -0.3460  0.2058
 6955TIP3    H120804   8.249   3.674   4.318  0.6041  1.4452 -0.7420
 6955TIP3    H220805   8.173   3.710   4.193 -0.4447 -1.1564 -0.8832
 6956TIP3   OH220806   0.293   0.695   3.817  0.2925  0.2289 -0.1810
 6956TIP3    H120807   0.230   0.624   3.828 -0.5609  1.2568  1.9336
 6956TIP3    H220808   0.265   0.740   3.737 -0.6047 -0.3652 -0.2057
 6957TIP3   OH220809   8.096   2.196   2.548 -0.4179  0.1411  0.2144
 6957TIP3    H120810   8.087   2.291   2.542  1.7538  0.4243  1.0956
 6957TIP3    H220811   8.116   2.167   2.459  1.6534  0.8460  0.4287
 6958TIP3   OH220812   8.162   0.694   5.113  0.1566 -0.4466 -0.2589
 6958TIP3    H120813   8.247   0.687   5.156  0.1436  1.4204  0.1157
 6958TIP3    H220814   8.173   0.763   5.048 -0.7895 -0.9031 -0.9230
 6959TIP3   OH220815   3.645   7.874   4.201  0.3617 -0.3397 -0.3073
 6959TIP3    H120816   3.701   7.798   4.215  1.2562  0.6464  1.6249
 6959TIP3    H220817   3.705   7.947   4.188 -0.4709  0.4667  0.2751
 6960TIP3   OH220818   5.790   2.624   4.109 -0.0264 -0.1629 -0.5348
 6960TIP3    H120819   5.794   2.714   4.141 -1.9710 -0.1311 -0.2981
 6960TIP3    H220820   5.786   2.570   4.188  3.2530 -0.6411 -0.6224
 6961TIP3   OH220821   7.029   3.592   6.060  0.4898  0.2735  0.0564
 6961TIP3    H120822   7.002   3.561   6.146  1.0213 -0.4862 -0.0438
 6961TIP3    H220823   6.952   3.636   6.024 -0.8319 -2.3605 -0.4689
 6962TIP3   OH220824   0.169   0.873   4.036 -0.0884  0.2806 -0.0530
 6962TIP3    H120825   0.201   0.917   4.115  0.5978 -0.4260  0.0654
 6962TIP3    H220826   0.244   0.874   3.976 -0.1043 -0.6496 -0.0806
 6963TIP3   OH220827   7.838   1.805   3.603  0.1520  0.0725 -0.2292
 6963TIP3    H120828   7.886   1.727   3.575  0.2186  0.2944 -0.7413
 6963TIP3    H220829   7.772   1.772   3.664 -0.0655 -0.4380 -0.7322
 6964TIP3   OH220830   6.075   2.245   3.231 -0.2321  0.0939 -0.1292
 6964TIP3    H120831   6.147   2.279   3.177  0.3710 -0.7516  0.1306
 6964TIP3    H220832   5.996   2.282   3.191  0.3001  0.5175 -0.8094
 6965TIP3   OH220833   6.493   2.874   5.288  0.2749  0.6578  0.5404
 6965TIP3    H120834   6.427   2.805   5.284  1.1234 -0.2051  1.3879
 6965TIP3    H220835   6.577   2.829   5.282  0.8340  1.6180  0.9024
 6966TIP3   OH220836   4.342   7.999   2.063  0.3541  0.1856  0.1862
 6966TIP3    H120837   4.426   7.954   2.073  0.2036  0.3933  2.7393
 6966TIP3    H220838   4.288   7.939   2.012  0.6797 -1.8532  2.1710
 6967TIP3   OH220839   6.340   3.807   5.258 -0.3411 -0.0780  0.0578
 6967TIP3    H120840   6.325   3.738   5.193 -1.6663  0.0998  0.1620
 6967TIP3    H220841   6.333   3.762   5.342 -0.1841 -0.0029  0.1118
 6968TIP3   OH220842   5.912   5.183   5.170 -0.1706  0.7848  0.1955
 6968TIP3    H120843   5.987   5.160   5.224  0.4774  0.1595 -0.9635
 6968TIP3    H220844   5.841   5.195   5.232  0.8477  1.2157  1.2884
 6969TIP3   OH220845   3.461   7.498   4.005 -0.1464 -0.7249  0.0888
 6969TIP3    H120846   3.414   7.574   4.039  1.3122  1.0030 -1.6017
 6969TIP3    H220847   3.393   7.443   3.967 -0.9887  1.0484 -1.0445
 6970TIP3   OH220848   7.002   3.234   6.710 -0.4732 -0.4286 -0.4347
 6970TIP3    H120849   6.954   3.277   6.781 -0.3373 -2.0270  0.6378
 6970TIP3    H220850   6.957   3.151   6.697  2.1153 -2.0621  0.7258
 6971TIP3   OH220851   5.041   4.027   6.360  0.1993  0.2198  0.8740
 6971TIP3    H120852   4.948   4.005   6.363  0.3893 -0.6961  0.1966
 6971TIP3    H220853   5.081   3.955   6.312  1.3275  0.4063  1.5361
 6972TIP3   OH220854   7.289   5.656   3.725 -0.4902  0.7778 -0.3329
 6972TIP3    H120855   7.254   5.729   3.776 -0.2779 -0.1421  1.1861
 6972TIP3    H220856   7.351   5.696   3.665 -0.1497  1.8282  0.6913
 6973TIP3   OH220857   7.921   6.302   4.437  0.1586  0.0260  0.3777
 6973TIP3    H120858   8.013   6.320   4.457  0.0941  2.2941 -1.2610
 6973TIP3    H220859   7.921   6.211   4.407  1.7187 -0.2785  1.2136
 6974TIP3   OH220860   0.134   2.130   2.614 -0.8846 -0.0567 -0.0736
 6974TIP3    H120861   0.065   2.196   2.626 -1.0181 -0.2146  0.0212
 6974TIP3    H220862   0.104   2.078   2.540  0.2834  1.3662 -1.5649
 6975TIP3   OH220863   2.983   2.674   5.203  0.6207 -0.2947  0.2693
 6975TIP3    H120864   3.024   2.637   5.281  1.3559  0.8549  0.4426
 6975TIP3    H220865   2.995   2.607   5.135  1.4556 -0.6112  0.7172
 6976TIP3   OH220866   6.326   3.258   4.817 -0.5373  0.1238  0.7637
 6976TIP3    H120867   6.304   3.181   4.869 -1.8156  0.5242  0.8355
 6976TIP3    H220868   6.391   3.304   4.869 -0.1360 -0.6365  0.9522
 6977TIP3   OH220869   7.014   4.573   3.828 -0.2079 -0.4022 -0.4280
 6977TIP3    H120870   6.919   4.569   3.826 -0.3052  1.4693 -1.1776
 6977TIP3    H220871   7.035   4.626   3.905  0.1508  0.3322 -1.0161
 6978TIP3   OH220872   5.349   3.010   6.916 -0.0128 -0.1502  0.1776
 6978TIP3    H120873   5.386   2.932   6.957 -0.0740 -0.5716 -0.5645
 6978TIP3    H220874   5.369   3.000   6.823  1.7354  1.6901  0.3248
 6979TIP3   OH220875   6.152   4.255   5.529 -0.5868 -0.4780 -0.5316
 6979TIP3    H120876   6.135   4.181   5.470  0.7201 -1.6362  0.5120
 6979TIP3    H220877   6.227   4.300   5.489 -0.7712 -0.2726 -0.6477
 6980TIP3   OH220878   4.825   3.405   5.240 -0.3120  0.4717  0.2940
 6980TIP3    H120879   4.784   3.489   5.263 -1.2333  0.5300 -1.4772
 6980TIP3    H220880   4.888   3.389   5.311  0.0739  2.7897  0.5150
 6981TIP3   OH220881   0.281   3.035   4.620 -0.4848 -0.1376  0.2103
 6981TIP3    H120882   0.236   3.101   4.674  1.2376 -0.1614  1.7315
 6981TIP3    H220883   0.338   3.087   4.562  2.5248 -0.2809  2.9104
 6982TIP3   OH220884   4.470   2.824   6.457  0.5620 -0.5128  0.0623
 6982TIP3    H120885   4.391   2.878   6.458 -0.5411 -2.0831 -0.3231
 6982TIP3    H220886   4.448   2.751   6.398  1.4562 -2.1968  1.7651
 6983TIP3   OH220887   5.617   3.227   3.308  0.2218  0.6824 -0.4563
 6983TIP3    H120888   5.595   3.143   3.266  1.2392 -0.3693  1.0622
 6983TIP3    H220889   5.539   3.250   3.358  0.2056  0.2659 -0.2886
 6984TIP3   OH220890   1.688   1.343   2.632  0.5435 -0.1337 -0.3718
 6984TIP3    H120891   1.690   1.259   2.587 -0.3669  0.3187 -1.2989
 6984TIP3    H220892   1.780   1.364   2.648  0.7652 -1.3762  0.0110
 6985TIP3   OH220893   0.429   3.192   4.476 -0.0947  0.5569 -0.3786
 6985TIP3    H120894   0.419   3.285   4.453  2.3221  1.4864  1.9065
 6985TIP3    H220895   0.517   3.170   4.445  0.0654 -0.4009  0.7139
 6986TIP3   OH220896   4.860   2.237   2.862 -0.1881 -0.0101  0.4559
 6986TIP3    H120897   4.911   2.227   2.782  0.7880  1.9568  0.8157
 6986TIP3    H220898   4.843   2.147   2.890  2.6104 -0.7396  0.0152
 6987TIP3   OH220899   8.216   1.856   4.918  0.6714 -0.4795 -0.1003
 6987TIP3    H120900   8.215   1.857   5.013  0.7071  2.6982 -0.0814
 6987TIP3    H220901   8.306   1.833   4.894  0.9953 -0.0153  0.6597
 6988TIP3   OH220902   6.304   2.685   5.343 -0.0302 -0.0762 -0.0714
 6988TIP3    H120903   6.248   2.609   5.325  2.2719 -1.6555 -0.7939
 6988TIP3    H220904   6.323   2.680   5.436  2.1120 -1.8496 -0.5639
 6989TIP3   OH220905   6.488   2.373   3.538 -0.2333 -0.0305  0.1047
 6989TIP3    H120906   6.415   2.349   3.594 -0.1389 -0.7009 -0.0436
 6989TIP3    H220907   6.455   2.445   3.484 -0.7831 -0.3334  0.0333
 6990TIP3   OH220908   5.519   2.179   4.436 -0.3205 -0.6576 -0.8773
 6990TIP3    H120909   5.552   2.263   4.406  0.1844 -0.2277  0.8099
 6990TIP3    H220910   5.445   2.160   4.379 -1.1239  1.4540 -0.5616
 6991TIP3   OH220911   4.681   1.538   5.016  0.2777  0.1764  0.3885
 6991TIP3    H120912   4.724   1.470   4.965  2.0683  1.3427  0.3164
 6991TIP3    H220913   4.751   1.597   5.043 -1.0172  1.1139  1.8377
 6992TIP3   OH220914   5.754   3.557   3.398 -0.3096  0.1005  0.5729
 6992TIP3    H120915   5.747   3.481   3.456  0.1783 -1.3036 -1.1709
 6992TIP3    H220916   5.801   3.525   3.321 -0.8663  1.9474 -0.5798
 6993TIP3   OH220917   0.112   2.355   4.524  0.1841 -0.3221  0.2331
 6993TIP3    H120918   0.105   2.279   4.466  1.4039 -1.7914  1.9585
 6993TIP3    H220919   0.199   2.349   4.562  0.4974  2.2412  0.0446
 6994TIP3   OH220920   5.397   3.069   4.267 -0.5135  0.2817  0.1879
 6994TIP3    H120921   5.430   3.083   4.356  0.1513 -0.3923  0.0622
 6994TIP3    H220922   5.420   3.149   4.220  2.5007 -0.8148 -0.3246
 6995TIP3   OH220923   6.896   3.094   6.190  0.3843 -0.0520  0.3309
 6995TIP3    H120924   6.881   3.188   6.174  0.2288  0.1500  1.6047
 6995TIP3    H220925   6.808   3.058   6.202  0.4724 -0.2742  0.3022
 6996TIP3   OH220926   6.164   2.936   5.302 -0.1466 -0.0348 -0.7010
 6996TIP3    H120927   6.246   2.980   5.281 -0.1599  0.4641  0.2315
 6996TIP3    H220928   6.191   2.852   5.339 -0.1297 -1.0023 -2.8308
 6997TIP3   OH220929   6.123   1.198   6.557 -0.2611  0.5672  0.1849
 6997TIP3    H120930   6.191   1.239   6.503  1.3334  0.9939  2.4174
 6997TIP3    H220931   6.132   1.240   6.643 -2.6092 -0.1995  0.8497
 6998TIP3   OH220932   8.221   2.042   3.907  0.0663  0.6535  0.2462
 6998TIP3    H120933   8.286   1.995   3.960 -0.1163  0.7088  0.5150
 6998TIP3    H220934   8.177   1.973   3.857 -0.0355  0.5593  0.4622
 6999TIP3   OH220935   6.284   4.449   3.983  0.2334  0.3305 -0.2017
 6999TIP3    H120936   6.275   4.515   3.914 -2.4230  0.0851 -0.1652
 6999TIP3    H220937   6.314   4.370   3.937 -1.7775  0.0955 -1.1610
 7000TIP3   OH220938   1.999   1.665   3.632 -0.1212 -0.6996  0.2085
 7000TIP3    H120939   1.911   1.630   3.620 -0.6257 -0.0809  2.0261
 7000TIP3    H220940   1.991   1.759   3.616  0.0599 -0.5307  1.0973
 7001TIP3   OH220941   0.508   1.665   4.042  0.5827 -0.0537  0.1757
 7001TIP3    H120942   0.508   1.583   3.993 -0.2106  0.2058 -0.2639
 7001TIP3    H220943   0.589   1.708   4.017  0.3362 -0.0700 -0.6688
 7002TIP3   OH220944   7.782   1.433   5.138 -0.1853  0.2445  0.1496
 7002TIP3    H120945   7.715   1.472   5.194 -0.2059  0.0366  0.2721
 7002TIP3    H220946   7.863   1.477   5.163 -0.5416  1.6544 -1.1352
 7003TIP3   OH220947   7.391   4.031   4.645  0.3034 -0.1200  0.2091
 7003TIP3    H120948   7.331   4.094   4.606 -0.3840 -1.5526 -1.1095
 7003TIP3    H220949   7.478   4.064   4.624 -0.0037  1.5343  1.4324
 7004TIP3   OH220950   0.513   3.782   4.135  0.5001 -0.0542 -0.2040
 7004TIP3    H120951   0.480   3.870   4.149 -1.8721 -1.0268  0.4810
 7004TIP3    H220952   0.537   3.780   4.042  1.5061  1.5890 -0.0028
 7005TIP3   OH220953   7.258   3.995   3.277  0.2549 -0.0355 -0.5128
 7005TIP3    H120954   7.244   4.035   3.190 -0.3668 -0.0052 -0.4004
 7005TIP3    H220955   7.282   4.069   3.333 -1.1272  0.2249 -0.2529
 7006TIP3   OH220956   6.480   3.491   2.122  0.1499 -0.0557 -0.5195
 7006TIP3    H120957   6.526   3.420   2.168 -0.2201 -0.4868 -0.8089
 7006TIP3    H220958   6.544   3.522   2.058  0.5762  0.3775  0.1222
 7007TIP3   OH220959   0.257   3.139   3.542 -0.2458  0.0285 -0.1128
 7007TIP3    H120960   0.287   3.072   3.603 -1.7888 -0.5671  0.0127
 7007TIP3    H220961   0.217   3.206   3.598  1.5895  1.2275 -0.2115
 7008TIP3   OH220962   6.433   1.539   3.484 -0.5576 -0.8194 -0.0983
 7008TIP3    H120963   6.381   1.619   3.478  0.1530 -0.3940 -0.5526
 7008TIP3    H220964   6.472   1.529   3.398  0.8134 -0.6621  0.4917
 7009TIP3   OH220965   7.140   2.553   4.197 -0.3519 -0.3983  0.2103
 7009TIP3    H120966   7.169   2.536   4.108  1.4287 -0.9485  0.8736
 7009TIP3    H220967   7.154   2.471   4.244 -1.9253 -0.3279  0.8477
 7010TIP3   OH220968   0.322   2.506   3.988  0.3822 -0.3779  0.1251
 7010TIP3    H120969   0.312   2.482   4.080  0.6963  0.1440  0.2972
 7010TIP3    H220970   0.245   2.469   3.945  0.3103 -0.7490  0.5733
 7011TIP3   OH220971   7.132   3.299   3.356  0.4391 -0.0614 -0.0612
 7011TIP3    H120972   7.079   3.245   3.415  1.1816 -0.9394 -0.1908
 7011TIP3    H220973   7.142   3.382   3.402 -1.6977  0.4048 -0.3662
 7012TIP3   OH220974   7.137   2.256   3.223 -0.4834  0.1305  0.2960
 7012TIP3    H120975   7.143   2.311   3.301 -0.6576  0.2016  0.2590
 7012TIP3    H220976   7.083   2.306   3.163 -0.5876 -0.0534  0.2369
 7013TIP3   OH220977   6.260   7.461   5.118  0.4243  0.2254 -0.7916
 7013TIP3    H120978   6.198   7.534   5.113  1.1252  0.9529  0.9173
 7013TIP3    H220979   6.222   7.393   5.062 -1.6562  0.8499 -0.1712
 7014TIP3   OH220980   5.246   3.913   3.063  0.2389 -0.0372  0.6538
 7014TIP3    H120981   5.297   3.986   3.097  1.2585 -0.4872  0.1176
 7014TIP3    H220982   5.155   3.939   3.077  0.5338  1.9683 -0.7889
 7015TIP3   OH220983   6.519   4.017   3.916  0.8445  0.3587 -0.0795
 7015TIP3    H120984   6.564   4.051   3.838  1.4284 -1.6820 -0.6740
 7015TIP3    H220985   6.509   3.924   3.899  0.2266  0.0272  1.9444
 7016TIP3   OH220986   6.566   3.081   3.604 -0.1068 -0.1933 -0.0017
 7016TIP3    H120987   6.632   3.148   3.616 -0.4965  0.5346 -1.7629
 7016TIP3    H220988   6.485   3.121   3.638 -0.1448 -0.1092 -0.1869
 7017TIP3   OH220989   8.169   5.720   3.673  0.2717 -0.2648  0.2558
 7017TIP3    H120990   8.257   5.682   3.672  0.4676  0.0838  2.0559
 7017TIP3    H220991   8.111   5.646   3.693  0.0954 -0.5624 -1.2712
 7018TIP3   OH220992   0.496   4.395   2.198 -0.2778  0.2407  0.2516
 7018TIP3    H120993   0.470   4.309   2.230 -1.8434  1.0466  1.2374
 7018TIP3    H220994   0.441   4.456   2.247  1.3823  1.8556  0.1665
 7019TIP3   OH220995   7.982   3.147   5.478  0.4110 -0.1320  0.5088
 7019TIP3    H120996   7.978   3.188   5.392 -2.5470 -0.4235  0.4654
 7019TIP3    H220997   8.015   3.216   5.536 -0.4622  1.0161 -0.3297
 7020TIP3   OH220998   8.229   4.099   4.011 -0.3212 -0.6069  0.2389
 7020TIP3    H120999   8.293   4.032   3.988  0.8943  1.1313 -1.7058
 7020TIP3    H221000   8.279   4.164   4.061 -1.0819 -0.3229  0.6385
 7021TIP3   OH221001   6.732   2.520   5.230  0.5806  0.0375  0.1112
 7021TIP3    H121002   6.678   2.511   5.152 -1.4765  0.9180  1.3724
 7021TIP3    H221003   6.682   2.475   5.299  2.9095 -1.7485  0.6768
 7022TIP3   OH221004   6.968   0.694   4.342  0.1877 -0.3122  0.2154
 7022TIP3    H121005   7.001   0.619   4.292 -0.4068 -0.4015 -0.0475
 7022TIP3    H221006   6.912   0.741   4.281  1.2215  0.8235  0.1264
 7023TIP3   OH221007   8.264   4.814   4.781 -0.1062  0.4946 -0.0620
 7023TIP3    H121008   8.322   4.805   4.857 -0.9798  2.0389  0.8179
 7023TIP3    H221009   8.184   4.852   4.817 -1.5569 -1.2956 -1.3061
 7024TIP3   OH221010   0.043   5.012   5.554 -0.2076  0.1054  0.3120
 7024TIP3    H121011  -0.011   5.080   5.595 -1.3304  0.7571 -2.1314
 7024TIP3    H221012   0.044   5.036   5.461  2.2849 -1.2789 -0.0458
 7025TIP3   OH221013   7.311   3.363   3.645 -0.0672  0.4348  0.3810
 7025TIP3    H121014   7.319   3.300   3.717  0.4190  0.2077  0.1298
 7025TIP3    H221015   7.342   3.315   3.568 -2.8801 -0.1360 -0.4378
 7026TIP3   OH221016   0.732   3.083   3.731 -0.1053  0.5843  0.3877
 7026TIP3    H121017   0.666   3.016   3.750  0.5307 -0.3244 -0.5567
 7026TIP3    H221018   0.713   3.153   3.793 -0.4578 -0.6954  1.7658
 7027TIP3   OH221019   0.208   3.544   4.853 -0.1692 -0.6678 -0.2974
 7027TIP3    H121020   0.194   3.456   4.888 -0.6735 -0.5046 -0.0837
 7027TIP3    H221021   0.279   3.580   4.906 -0.9615 -0.4039  0.5899
 7028TIP3   OH221022   0.799   1.533   1.658  0.2079  0.5539 -0.5148
 7028TIP3    H121023   0.757   1.507   1.576  0.1305  0.1935 -0.3580
 7028TIP3    H221024   0.820   1.451   1.702 -0.1416  0.7540  0.0306
 7029TIP3   OH221025   6.816   4.479   2.311 -0.2765  0.0908 -0.3176
 7029TIP3    H121026   6.875   4.553   2.298 -1.3327  1.0872  0.4921
 7029TIP3    H221027   6.748   4.490   2.245 -0.9624  0.3931  0.4249
 7030TIP3   OH221028   7.096   1.801   2.814  0.4193  0.3388 -0.1120
 7030TIP3    H121029   7.168   1.756   2.858 -0.8257 -0.4447  1.1508
 7030TIP3    H221030   7.138   1.845   2.740  2.1768 -0.1982  0.5259
 7031TIP3   OH221031   7.951   1.974   3.314 -0.0826 -0.1004 -0.0869
 7031TIP3    H121032   7.992   2.009   3.393  1.1525  0.1390 -0.8087
 7031TIP3    H221033   7.899   2.047   3.280 -0.7438 -0.2530  0.5753
 7032TIP3   OH221034   8.421   1.683   4.401  0.5836  0.1091  0.1501
 7032TIP3    H121035   8.409   1.721   4.488 -0.5194 -0.4566  0.2459
 7032TIP3    H221036   8.433   1.589   4.417  1.1713  0.1108 -0.2510
 7033TIP3   OH221037   6.281   1.409   5.481  0.3016 -0.4517  0.6567
 7033TIP3    H121038   6.288   1.325   5.527  3.9932 -0.8047 -0.3451
 7033TIP3    H221039   6.309   1.474   5.545  0.6903 -0.3986  0.4392
 7034TIP3   OH221040   7.315   2.562   5.785 -0.4048 -0.3247  0.0525
 7034TIP3    H121041   7.258   2.638   5.778  1.9862  1.4448 -0.8295
 7034TIP3    H221042   7.314   2.540   5.878 -1.6308  0.3578  0.2134
 7035TIP3   OH221043   8.257   2.250   3.732 -0.5500  0.1280  0.2305
 7035TIP3    H121044   8.262   2.190   3.806 -2.4933  0.3421  0.5555
 7035TIP3    H221045   8.280   2.335   3.769 -1.6724  0.2612  0.6328
 7036TIP3   OH221046   8.152   2.355   2.771  0.1090 -0.4178 -1.1666
 7036TIP3    H121047   8.124   2.289   2.708  0.7206 -0.2620 -1.6108
 7036TIP3    H221048   8.232   2.393   2.732 -0.1843  0.5160 -0.8822
 7037TIP3   OH221049   5.638   2.917   2.791 -0.1780  0.0914  0.0487
 7037TIP3    H121050   5.679   2.841   2.832 -1.5764 -0.4208  0.5308
 7037TIP3    H221051   5.564   2.881   2.742  0.6977  0.8425 -1.8957
 7038TIP3   OH221052   7.642   4.045   4.311  0.7854  0.2385 -0.1292
 7038TIP3    H121053   7.552   4.034   4.280  0.6290 -0.2185  0.4829
 7038TIP3    H221054   7.670   4.130   4.276 -0.3506  1.0096  0.8175
 7039TIP3   OH221055   0.525   2.066   4.120  0.6448  0.5445  0.2151
 7039TIP3    H121056   0.552   1.997   4.181  0.6396  0.4342  0.0940
 7039TIP3    H221057   0.438   2.039   4.090  1.1786 -0.0597 -0.8087
 7040TIP3   OH221058   7.774   1.870   4.247 -0.1527  0.3354 -0.5029
 7040TIP3    H121059   7.761   1.902   4.336 -0.7312  0.5077 -0.6464
 7040TIP3    H221060   7.842   1.926   4.210 -0.3585  0.6641 -0.3777
 7041TIP3   OH221061   1.583   1.106   1.775 -0.0907 -0.2004  0.4125
 7041TIP3    H121062   1.608   1.179   1.832  0.8174  0.5679 -0.9312
 7041TIP3    H221063   1.644   1.112   1.701 -1.1555 -1.2663 -0.5664
 7042TIP3   OH221064   0.513   3.487   3.628  0.2048 -0.0432 -0.6081
 7042TIP3    H121065   0.521   3.498   3.722 -0.1427  1.9074 -0.7768
 7042TIP3    H221066   0.553   3.403   3.609 -1.0969 -1.1691  1.4808
 7043TIP3   OH221067   8.212   2.311   1.425 -0.1546 -0.2107  0.2635
 7043TIP3    H121068   8.167   2.264   1.355  1.3691  0.1702 -0.9841
 7043TIP3    H221069   8.215   2.248   1.497 -0.3451 -1.1612 -0.5403
 7044TIP3   OH221070   0.093   2.777   1.665  0.1920 -0.4509  0.0174
 7044TIP3    H121071   0.034   2.731   1.605 -0.7509  0.6357  0.1109
 7044TIP3    H221072   0.176   2.730   1.656 -0.6331 -1.9134 -0.2128
 7045TIP3   OH221073   7.428   2.344   4.174  0.7437 -0.3388  0.6141
 7045TIP3    H121074   7.377   2.299   4.108  0.3740 -0.4642  0.9842
 7045TIP3    H221075   7.513   2.361   4.132 -0.1186  1.2439 -0.5159
 7046TIP3   OH221076   0.650   3.235   2.873  0.1782  0.1091 -0.6789
 7046TIP3    H121077   0.655   3.234   2.969  0.2358  1.1382 -0.6648
 7046TIP3    H221078   0.594   3.161   2.851  2.7240 -2.0499 -0.0253
 7047TIP3   OH221079   1.692   0.759   1.222  0.5679  0.5788  0.2905
 7047TIP3    H121080   1.634   0.687   1.198  1.5184  0.0086 -0.3469
 7047TIP3    H221081   1.774   0.739   1.176  0.7871  2.1413 -0.0118
 7048TIP3   OH221082   6.741   0.537   3.520  0.0817 -0.2038  0.1413
 7048TIP3    H121083   6.674   0.559   3.455 -0.5599  0.9632  1.1843
 7048TIP3    H221084   6.824   0.563   3.478 -0.0462 -1.9986 -1.3049
 7049TIP3   OH221085   6.620   4.619   1.834 -0.4679 -0.2992 -0.9423
 7049TIP3    H121086   6.588   4.646   1.748 -1.6391  1.1431 -0.0776
 7049TIP3    H221087   6.681   4.547   1.815 -0.9660 -0.2383 -2.9393
 7050TIP3   OH221088   6.700   3.376   3.139 -0.1941  0.6006 -0.2555
 7050TIP3    H121089   6.758   3.411   3.071  0.8991 -0.6766 -0.0019
 7050TIP3    H221090   6.739   3.405   3.221 -1.4885  2.0995 -0.1402
 7051TIP3   OH221091   0.701   1.768   5.667 -0.0801 -0.1282  0.0179
 7051TIP3    H121092   0.759   1.792   5.739 -1.9190 -0.8226  1.7696
 7051TIP3    H221093   0.756   1.714   5.610  0.7078 -1.8029  2.2502
 7052TIP3   OH221094   8.175   3.058   4.700  0.1204 -0.1050  0.1452
 7052TIP3    H121095   8.220   3.061   4.784 -0.6396 -0.7252  0.5892
 7052TIP3    H221096   8.082   3.064   4.723 -0.0234  1.2551 -0.7614
 7053TIP3   OH221097   0.660   3.712   1.277 -0.8107  0.4709  0.4380
 7053TIP3    H121098   0.643   3.649   1.348 -1.0920  1.6096  1.3860
 7053TIP3    H221099   0.755   3.705   1.262 -1.0283 -1.1078 -0.3563
 7054TIP3   OH221100   7.163   1.296   3.623  0.2094  0.2606 -0.0939
 7054TIP3    H121101   7.119   1.277   3.540  0.4925  1.4965 -0.5346
 7054TIP3    H221102   7.252   1.262   3.611 -0.5916 -2.2296  0.7954
 7055TIP3   OH221103   7.097   2.442   4.526 -0.5255 -0.5989  0.0944
 7055TIP3    H121104   7.138   2.385   4.460 -0.5643 -0.6526  0.1166
 7055TIP3    H221105   7.008   2.409   4.533 -1.1012  0.6050 -1.2167
 7056TIP3   OH221106   6.635   1.993   3.962 -0.0534  0.5560 -0.7042
 7056TIP3    H121107   6.564   2.043   3.922 -0.2686 -0.9689 -2.3227
 7056TIP3    H221108   6.594   1.949   4.036 -0.2518  1.4840 -0.2590
 7057TIP3   OH221109   6.963   3.432   1.811 -0.4735  0.5027 -0.1890
 7057TIP3    H121110   7.047   3.449   1.769 -1.1574  0.2180 -1.6696
 7057TIP3    H221111   6.933   3.350   1.772 -0.2920 -0.7170  2.1331
 7058TIP3   OH221112   6.242   3.115   3.194 -0.4330 -1.0290  0.2403
 7058TIP3    H121113   6.209   3.074   3.114 -0.6869  0.4170 -0.3996
 7058TIP3    H221114   6.327   3.152   3.168 -0.9449  0.2547  0.4029
 7059TIP3   OH221115   0.954   2.940   2.203  0.3336  0.2930 -0.2162
 7059TIP3    H121116   0.993   2.917   2.119  1.0468 -1.2802  0.5286
 7059TIP3    H221117   1.022   2.919   2.268 -0.4575  0.8393  0.8105
 7060TIP3   OH221118   1.449   1.718   2.985 -0.5649  0.0933  0.4213
 7060TIP3    H121119   1.379   1.759   2.933 -0.6696  1.2767  1.4818
 7060TIP3    H221120   1.487   1.653   2.926 -1.0957  0.9903 -0.9375
 7061TIP3   OH221121   8.064   3.587   3.189 -0.2445  0.4098  0.1879
 7061TIP3    H121122   8.084   3.631   3.106 -1.9578 -0.1007 -0.5129
 7061TIP3    H221123   7.989   3.634   3.224 -0.2239 -0.0776  0.8927
 7062TIP3   OH221124   4.927   2.793   3.009  0.3690 -0.1700 -0.1824
 7062TIP3    H121125   4.861   2.809   3.078  1.7832  0.9613  0.9380
 7062TIP3    H221126   4.986   2.728   3.047  0.6098 -0.2452 -0.6903
 7063TIP3   OH221127   5.326   4.404   2.606 -0.1715  0.4194  0.1660
 7063TIP3    H121128   5.398   4.459   2.637 -0.5081  1.2662 -0.5199
 7063TIP3    H221129   5.248   4.441   2.647 -0.3833  0.3840 -0.2011
 7064TIP3   OH221130   0.591   2.674   4.251  0.1429 -0.2807  0.3517
 7064TIP3    H121131   0.517   2.735   4.248 -1.5585 -2.2721  0.6233
 7064TIP3    H221132   0.554   2.590   4.223  1.9204 -1.6939  2.1121
 7065TIP3   OH221133   0.936   3.232   3.067 -0.3559 -0.2031 -0.3454
 7065TIP3    H121134   0.973   3.171   3.003  0.7964  1.2726 -1.1199
 7065TIP3    H221135   0.894   3.175   3.132 -0.5289 -1.7627 -1.7770
 7066TIP3   OH221136   7.274   2.514   3.943 -0.6520 -0.1664 -0.1801
 7066TIP3    H121137   7.361   2.535   3.975 -1.0715  1.6625 -0.1422
 7066TIP3    H221138   7.285   2.433   3.893  0.7549 -0.8069  1.1362
 7067TIP3   OH221139   6.139   3.487   5.229  0.0837 -0.1435 -0.6337
 7067TIP3    H121140   6.167   3.545   5.158  0.8088 -0.0543 -0.2783
 7067TIP3    H221141   6.209   3.423   5.236 -1.3364 -1.8752 -1.9068
 7068TIP3   OH221142   7.814   1.074   2.308 -0.2486  0.2190 -0.9507
 7068TIP3    H121143   7.868   1.034   2.240  1.3396 -0.0748  0.4371
 7068TIP3    H221144   7.828   1.168   2.298 -0.4963  0.2034 -1.4224
 7069TIP3   OH221145   0.521   0.683   4.275 -0.6164  0.1719 -0.5466
 7069TIP3    H121146   0.536   0.737   4.353 -3.4162 -0.9827  0.8166
 7069TIP3    H221147   0.503   0.747   4.205  0.2944  1.1323  0.0768
 7070TIP3   OH221148   6.188   3.934   2.366  0.3090  0.4504 -0.0434
 7070TIP3    H121149   6.203   3.913   2.273  1.5584 -0.4644  0.3568
 7070TIP3    H221150   6.132   3.863   2.397  1.7980 -0.5247  0.4715
 7071TIP3   OH221151   1.858   3.259   1.797  0.5477  0.4780 -0.2369
 7071TIP3    H121152   1.947   3.293   1.806  0.9927 -0.8069  0.2791
 7071TIP3    H221153   1.803   3.338   1.792  1.4601  1.2809  1.8304
 7072TIP3   OH221154   8.209   2.109   3.271  0.2289  1.0795  0.0083
 7072TIP3    H121155   8.202   2.154   3.187 -0.6752  0.9127 -0.0141
 7072TIP3    H221156   8.199   2.016   3.249 -3.0865  1.2348  0.6273
 7073TIP3   OH221157   8.027   1.948   5.337  0.6435  0.0523 -0.1145
 7073TIP3    H121158   8.037   1.981   5.426  1.1144 -1.2668  0.3370
 7073TIP3    H221159   7.944   1.985   5.306 -0.1874 -0.5657  1.3468
 7074TIP3   OH221160   5.876   3.038   5.471 -0.2167  0.0156 -0.0770
 7074TIP3    H121161   5.855   3.024   5.564  1.4225 -0.7639  0.1987
 7074TIP3    H221162   5.906   2.953   5.440 -0.9037  0.2388 -1.3763
 7075TIP3   OH221163   1.112   1.877   4.374  0.1118  0.4340 -0.5059
 7075TIP3    H121164   1.126   1.790   4.412 -0.5069  1.0060  1.0532
 7075TIP3    H221165   1.051   1.862   4.302 -0.3354 -0.3617  0.0272
 7076TIP3   OH221166   0.799   4.054   2.951 -0.1809  0.0274 -0.0055
 7076TIP3    H121167   0.859   4.020   3.016  0.5053  0.3622 -0.4580
 7076TIP3    H221168   0.790   4.147   2.972 -2.9970 -0.6167  1.9703
 7077TIP3   OH221169   8.340   6.230   4.789  0.0977 -0.1639  0.2261
 7077TIP3    H121170   8.390   6.309   4.811 -0.2503 -0.1642  1.0577
 7077TIP3    H221171   8.277   6.258   4.723 -0.3878  0.3796  0.9205
 7078TIP3   OH221172   2.329   5.697   0.037 -0.0000  0.2215 -0.4427
 7078TIP3    H121173   2.348   5.631   0.104 -2.0549 -0.4391 -0.4595
 7078TIP3    H221174   2.272   5.651  -0.026 -0.7953  1.7726 -0.8868
 7079TIP3   OH221175   1.581   1.114   4.122 -0.2125 -0.3306 -0.5087
 7079TIP3    H121176   1.657   1.075   4.081  2.5184  1.9838  2.1210
 7079TIP3    H221177   1.574   1.201   4.082 -0.8309 -0.1393  0.0056
 7080TIP3   OH221178   7.412   5.675   4.561  0.4897  0.1473 -0.1041
 7080TIP3    H121179   7.477   5.728   4.514 -0.6967  0.3249 -1.5932
 7080TIP3    H221180   7.390   5.604   4.500 -0.1674 -0.3208  0.6676
 7081TIP3   OH221181   0.783   0.326   4.679 -0.0152 -0.1589  0.4280
 7081TIP3    H121182   0.840   0.271   4.625  0.3039 -0.2840  0.8868
 7081TIP3    H221183   0.712   0.353   4.621  0.2905 -0.3519 -0.0311
 7082TIP3   OH221184   5.891   3.675   4.212  0.2011  0.5275 -0.0021
 7082TIP3    H121185   5.852   3.760   4.191 -0.4665  0.2676  0.1546
 7082TIP3    H221186   5.843   3.645   4.290 -0.7027 -0.7234 -0.9968
 7083TIP3   OH221187   5.207   3.052   2.469 -0.5223 -0.1858 -0.2151
 7083TIP3    H121188   5.279   3.085   2.523  0.0228 -2.2704  0.3894
 7083TIP3    H221189   5.133   3.047   2.529 -0.9370  1.0507 -0.6045
 7084TIP3   OH221190   8.004   1.323   3.423 -0.1274  0.1093  0.0643
 7084TIP3    H121191   8.039   1.245   3.465  0.1298  0.1563 -0.0609
 7084TIP3    H221192   7.966   1.374   3.495 -0.4915 -0.2314  0.1154
 7085TIP3   OH221193   8.310   2.515   3.325 -0.9462  0.1507 -0.2582
 7085TIP3    H121194   8.349   2.457   3.390  0.8140  1.2014 -0.3445
 7085TIP3    H221195   8.234   2.467   3.292 -1.0213 -0.9968  1.5251
 7086TIP3   OH221196   0.180   1.568   3.801  0.2208 -0.2209 -0.1139
 7086TIP3    H121197   0.247   1.633   3.779  0.2637 -0.1502  0.2267
 7086TIP3    H221198   0.134   1.553   3.719  0.8001 -0.4360 -0.4037
 7087TIP3   OH221199   8.218   2.869   4.228  0.1877 -0.3176  0.5109
 7087TIP3    H121200   8.263   2.871   4.313 -0.6510  0.6726  0.9372
 7087TIP3    H221201   8.126   2.880   4.249  0.0849  1.1097 -0.6193
 7088TIP3   OH221202   7.061   1.517   2.437 -0.4542  0.5848 -0.1400
 7088TIP3    H121203   7.140   1.570   2.452 -0.9988  1.2891  0.3038
 7088TIP3    H221204   7.090   1.446   2.380  0.6857  0.3858  0.6700
 7089TIP3   OH221205   0.754   4.300   3.127  0.0004  0.0962 -0.1758
 7089TIP3    H121206   0.677   4.323   3.075 -0.8429  1.1866  1.5032
 7089TIP3    H221207   0.718   4.262   3.207  1.2574 -0.6590  0.0477
 7090TIP3   OH221208   8.111   1.975   4.252  0.1966 -0.3480  0.1279
 7090TIP3    H121209   8.078   2.029   4.323  0.6376  2.0779 -1.4546
 7090TIP3    H221210   8.194   2.015   4.227 -0.5862 -0.3247 -2.6200
 7091TIP3   OH221211   6.271   6.549   4.524 -0.0791  0.5446 -0.3265
 7091TIP3    H121212   6.183   6.536   4.558 -0.4518  1.8712 -0.7812
 7091TIP3    H221213   6.329   6.534   4.599 -0.6246 -1.2700 -0.2496
 7092TIP3   OH221214   7.016   2.348   3.830  0.4467 -0.3863  0.2897
 7092TIP3    H121215   6.945   2.346   3.766  0.2711  1.2375  0.4184
 7092TIP3    H221216   6.986   2.409   3.897  1.3132 -0.8597  1.1221
 7093TIP3   OH221217   0.532   3.501   2.753  0.2013  1.4476  0.2712
 7093TIP3    H121218   0.451   3.529   2.795 -2.0169 -0.9308 -2.2138
 7093TIP3    H221219   0.558   3.422   2.802 -0.6465  0.5034 -0.7739
 7094TIP3   OH221220   0.405   6.016   3.864 -0.1133 -0.2200 -0.2274
 7094TIP3    H121221   0.434   6.016   3.955 -0.5551 -1.9978 -0.0716
 7094TIP3    H221222   0.485   6.002   3.813  0.7033  4.1577 -0.3741
 7095TIP3   OH221223   7.512   3.097   3.869 -0.0866  0.1555 -1.1704
 7095TIP3    H121224   7.583   3.127   3.926 -0.2937 -1.1648 -0.1774
 7095TIP3    H221225   7.432   3.120   3.917 -0.2536 -1.4000 -0.6849
 7096TIP3   OH221226   0.194   5.565   3.839 -0.0682 -0.1517  0.2005
 7096TIP3    H121227   0.283   5.561   3.873  0.4605 -0.6067 -1.2053
 7096TIP3    H221228   0.172   5.659   3.841  0.8858  0.0919 -0.5796
 7097TIP3   OH221229   3.397   1.890   3.320  0.1002  0.5170 -0.1243
 7097TIP3    H121230   3.415   1.959   3.384  2.6711  0.4727 -0.7695
 7097TIP3    H221231   3.483   1.861   3.290 -0.9043 -2.9418  0.0642
 7098TIP3   OH221232   6.099   3.199   4.411  0.3547 -0.6766  0.1965
 7098TIP3    H121233   6.137   3.145   4.342 -3.3987 -0.8173 -1.9294
 7098TIP3    H221234   6.067   3.136   4.476  0.0378 -0.7866 -0.0652
 7099TIP3   OH221235   1.766   1.507   3.151  0.3891  0.2668  0.4515
 7099TIP3    H121236   1.728   1.447   3.215  0.7396 -0.3537  0.0815
 7099TIP3    H221237   1.692   1.535   3.097  0.0492  0.9674  1.2499
 7100TIP3   OH221238   0.465   3.614   1.873  0.0867  0.0240  0.1722
 7100TIP3    H121239   0.556   3.631   1.898 -0.2460 -0.6279  1.8999
 7100TIP3    H221240   0.421   3.698   1.888  0.7689  0.8972 -2.5271
 7101TIP3   OH221241   1.894   1.644   2.104  0.1241  0.0110  0.2542
 7101TIP3    H121242   1.937   1.576   2.156 -0.6490 -1.0275 -0.4476
 7101TIP3    H221243   1.966   1.693   2.064  0.7363  0.8747  2.3423
 7102TIP3   OH221244   8.252   1.279   5.898 -0.7612 -0.0313  0.1112
 7102TIP3    H121245   8.168   1.325   5.891 -0.6816  0.2693  1.0284
 7102TIP3    H221246   8.318   1.348   5.882 -0.6680 -0.0479  0.4217
 7103TIP3   OH221247   1.683   1.995   2.342 -0.5553  0.0198 -0.1368
 7103TIP3    H121248   1.691   2.010   2.436  1.4227 -0.7935 -0.1497
 7103TIP3    H221249   1.693   1.900   2.332 -0.6274  0.1141 -1.1851
 7104TIP3   OH221250   6.503   7.872   2.205  0.3675 -0.0677 -0.4508
 7104TIP3    H121251   6.482   7.783   2.235  1.6739  0.7887  3.2698
 7104TIP3    H221252   6.443   7.928   2.254  2.8435  1.4314  0.9675
 7105TIP3   OH221253   6.638   1.792   0.543 -0.4096 -0.1614  0.0473
 7105TIP3    H121254   6.629   1.794   0.448  3.2720 -1.2040 -0.4233
 7105TIP3    H221255   6.631   1.700   0.566  1.2199 -0.2220  0.4182
 7106TIP3   OH221256   6.564   2.000   5.781 -0.2479  0.1615 -0.5129
 7106TIP3    H121257   6.646   2.041   5.754 -0.6813  0.7796 -0.9152
 7106TIP3    H221258   6.580   1.906   5.774  0.3080  0.2873 -0.9377
 7107TIP3   OH221259   5.775   2.405   5.438  0.1664  0.4671  0.6219
 7107TIP3    H121260   5.830   2.338   5.478  0.9281  0.9397  0.3786
 7107TIP3    H221261   5.748   2.461   5.512  0.2640  0.4116  0.6997
 7108TIP3   OH221262   6.341   2.378   2.850 -0.1142 -0.1518  0.4164
 7108TIP3    H121263   6.388   2.305   2.808 -1.0182 -1.1241  1.0700
 7108TIP3    H221264   6.343   2.358   2.943  0.6558  1.2816  0.7174
 7109TIP3   OH221265   0.313   5.536   5.781 -0.0182  0.0912 -0.6691
 7109TIP3    H121266   0.269   5.523   5.697  2.0811  1.1341 -1.9694
 7109TIP3    H221267   0.323   5.447   5.816  0.7160 -0.5324 -2.3866
 7110TIP3   OH221268   3.712   7.515   0.080  0.1807 -0.1918  0.5250
 7110TIP3    H121269   3.616   7.519   0.088  0.0477 -0.8345 -0.7084
 7110TIP3    H221270   3.728   7.472  -0.003  1.5601 -0.0624  0.7056
 7111TIP3   OH221271   7.634   5.237   4.851  0.0803 -0.0480  0.3135
 7111TIP3    H121272   7.584   5.277   4.922 -0.9675 -0.9914  0.1283
 7111TIP3    H221273   7.635   5.303   4.781 -1.6068 -0.3294  0.0167
 7112TIP3   OH221274   0.065   3.593   3.799 -0.1661 -0.3553  0.4870
 7112TIP3    H121275  -0.017   3.579   3.846 -1.3920  2.2361 -0.7918
 7112TIP3    H221276   0.133   3.584   3.866 -1.4563 -2.4743  1.5659
 7113TIP3   OH221277   7.551   5.777   5.390 -0.5151  0.0459 -0.2890
 7113TIP3    H121278   7.619   5.714   5.366 -0.6182 -0.1984  0.0532
 7113TIP3    H221279   7.589   5.863   5.370  0.0361 -0.0686  0.2493
 7114TIP3   OH221280   6.622   5.525   2.823 -0.4121 -0.0488 -0.0949
 7114TIP3    H121281   6.643   5.447   2.874 -0.1724  0.5849  0.7763
 7114TIP3    H221282   6.699   5.581   2.832 -0.7187  0.4313 -0.4469
 7115TIP3   OH221283   2.120   2.074   4.187 -0.5388  0.8103 -0.3482
 7115TIP3    H121284   2.053   2.078   4.119 -1.5286 -4.0562  0.1812
 7115TIP3    H221285   2.202   2.060   4.139 -0.6312  1.5651 -0.7308
 7116TIP3   OH221286   1.261   3.314   4.636 -0.7046  0.6282  0.3431
 7116TIP3    H121287   1.321   3.242   4.618  1.3740  2.6067 -0.9217
 7116TIP3    H221288   1.293   3.386   4.582 -1.8230  2.9635  2.6708
 7117TIP3   OH221289   0.695   1.233   6.125  0.0095 -0.2018 -0.1950
 7117TIP3    H121290   0.693   1.149   6.171  0.8740 -0.0437  0.1346
 7117TIP3    H221291   0.772   1.229   6.069  0.6812  0.7790  0.6270
 7118TIP3   OH221292   1.601   1.778   6.324 -0.7075 -0.0160  0.5121
 7118TIP3    H121293   1.537   1.815   6.383  0.3683  2.2918  0.2871
 7118TIP3    H221294   1.678   1.761   6.379 -0.5408 -0.1227  0.2482
 7119TIP3   OH221295   7.704   4.043   6.121  0.0950 -0.5004 -0.2795
 7119TIP3    H121296   7.671   3.954   6.128 -1.7704  0.1451 -0.6616
 7119TIP3    H221297   7.797   4.036   6.142 -0.4488 -2.2205  1.6238
 7120TIP3   OH221298   1.303   3.985   4.755  0.4798  0.3828  0.0460
 7120TIP3    H121299   1.278   3.939   4.835 -0.5251 -0.0970 -0.5263
 7120TIP3    H221300   1.228   4.041   4.734  0.4548  0.0209 -0.8996
 7121TIP3   OH221301   7.472   2.447   4.416 -0.1612 -0.1724 -0.6433
 7121TIP3    H121302   7.405   2.500   4.460  0.6845  1.2719 -1.0757
 7121TIP3    H221303   7.444   2.444   4.325 -0.2237 -0.5301 -0.6159
 7122TIP3   OH221304   7.381   3.725   6.746  0.0136  0.0626  0.3806
 7122TIP3    H121305   7.375   3.751   6.654  0.5937  1.2034  0.6520
 7122TIP3    H221306   7.292   3.734   6.780  0.2696  2.1005  0.5626
 7123TIP3   OH221307   0.441   2.038   5.206 -0.0487 -0.5888 -0.2810
 7123TIP3    H121308   0.386   2.115   5.192 -1.4345 -0.8742  3.0281
 7123TIP3    H221309   0.529   2.074   5.222 -0.3433  0.1848 -0.3888
 7124TIP3   OH221310   6.827   0.305   1.007 -0.6238 -0.2020 -0.4125
 7124TIP3    H121311   6.789   0.391   0.989 -1.9244 -1.2554 -2.9508
 7124TIP3    H221312   6.907   0.303   0.955 -0.4400 -0.4090 -0.1193
 7125TIP3   OH221313   8.264   2.268   5.465 -0.2296 -0.3468 -0.1686
 7125TIP3    H121314   8.348   2.222   5.476 -0.4210 -0.7949 -0.5484
 7125TIP3    H221315   8.221   2.220   5.394 -0.5513  0.2569 -0.3759
 7126TIP3   OH221316   1.879   5.552   6.146 -0.0115 -0.3958 -0.4684
 7126TIP3    H121317   1.942   5.551   6.074  0.5344 -0.9515  0.0043
 7126TIP3    H221318   1.872   5.644   6.171  0.0387 -0.2398 -1.0171
 7127TIP3   OH221319   2.028   4.462   2.586 -0.1189 -0.7496  0.1789
 7127TIP3    H121320   2.072   4.482   2.503 -1.7282  2.1782 -0.0345
 7127TIP3    H221321   1.945   4.423   2.559 -0.6295  0.1767  0.4113
 7128TIP3   OH221322   5.085   6.752   0.399  0.6222  0.1753  0.3283
 7128TIP3    H121323   5.175   6.726   0.418  0.4746  0.1586  0.9992
 7128TIP3    H221324   5.075   6.839   0.438 -0.0660 -0.3960  1.4323
 7129TIP3   OH221325   7.958   2.876   5.482  0.0708  0.0449  0.5001
 7129TIP3    H121326   7.964   2.972   5.476 -0.4456  0.0188 -0.5908
 7129TIP3    H221327   8.037   2.845   5.438  0.0400 -0.0401  0.5060
 7130TIP3   OH221328   7.242   4.313   6.248 -0.2033 -0.1491  0.5156
 7130TIP3    H121329   7.277   4.285   6.333  1.5294  0.8619  0.1494
 7130TIP3    H221330   7.285   4.257   6.184 -0.7634 -0.2445  0.2177
 7131TIP3   OH221331   4.085   5.323   3.227 -0.0970 -0.1380 -0.5569
 7131TIP3    H121332   4.078   5.229   3.211  1.4731 -0.2118 -0.8924
 7131TIP3    H221333   4.143   5.330   3.303 -2.0610  0.4833  0.9171
 7132TIP3   OH221334   0.452   3.674   6.436  0.4010  0.0380  0.1083
 7132TIP3    H121335   0.517   3.637   6.496 -0.4616 -1.7763 -0.0401
 7132TIP3    H221336   0.390   3.602   6.420 -0.8020  1.2745 -0.9380
 7133TIP3   OH221337   0.452   4.916   4.371  0.2893 -0.3698  0.2107
 7133TIP3    H121338   0.357   4.918   4.365  0.2359  2.6342  1.0056
 7133TIP3    H221339   0.471   4.937   4.463  1.7030 -0.8685  0.0487
 7134TIP3   OH221340   1.026   2.540   4.389 -0.3716 -0.0672  0.4106
 7134TIP3    H121341   1.068   2.602   4.331  1.3516 -0.9324  0.6939
 7134TIP3    H221342   0.997   2.592   4.464  0.4349  0.4898  0.3301
 7135TIP3   OH221343   7.586   2.818   6.697 -0.7208 -0.1696 -0.7423
 7135TIP3    H121344   7.655   2.814   6.631  0.8341 -1.8878  0.9406
 7135TIP3    H221345   7.558   2.910   6.696  1.3383  0.4891 -1.6846
 7136TIP3   OH221346   6.870   0.173   0.248  0.1235 -0.5062  0.0277
 7136TIP3    H121347   6.832   0.260   0.236  1.5086  0.2916  1.3031
 7136TIP3    H221348   6.908   0.151   0.162 -1.1865 -0.3440 -0.6069
 7137TIP3   OH221349   0.190   4.188   4.533  0.4836  0.1654  0.0553
 7137TIP3    H121350   0.224   4.122   4.594  0.0668  0.2633  0.3977
 7137TIP3    H221351   0.176   4.265   4.588 -1.1041 -0.1347  0.0969
 7138TIP3   OH221352   2.862   4.833   5.064  0.1298  1.0487  0.8061
 7138TIP3    H121353   2.921   4.788   5.003 -1.1412 -0.0882  0.3865
 7138TIP3    H221354   2.842   4.768   5.131 -2.0359  0.8244 -0.0093
 7139TIP3   OH221355   7.248   4.399   5.092  0.1534  0.5385  0.0598
 7139TIP3    H121356   7.332   4.402   5.138 -0.4378  0.1929  1.1873
 7139TIP3    H221357   7.184   4.427   5.158 -0.7772 -0.4423 -0.4097
 7140TIP3   OH221358   8.091   4.942   5.242  0.0092  0.3937 -0.2251
 7140TIP3    H121359   8.107   4.862   5.293  1.0398  1.9427  2.0006
 7140TIP3    H221360   8.114   5.013   5.302 -3.3125  2.4623 -1.2619
 7141TIP3   OH221361   5.801   1.118   0.254  0.2585  0.1737 -0.0489
 7141TIP3    H121362   5.838   1.205   0.238  0.6903  0.4413  2.2701
 7141TIP3    H221363   5.774   1.088   0.168  1.2115  2.1084 -1.0616
 7142TIP3   OH221364   4.803   7.670   0.576  0.4854 -0.4292  0.7338
 7142TIP3    H121365   4.723   7.717   0.598  0.7760  0.1461  0.5705
 7142TIP3    H221366   4.781   7.623   0.495  1.0141  1.5997 -0.6537
 7143TIP3   OH221367   7.910   3.640   5.387  0.4834  0.0857 -0.0174
 7143TIP3    H121368   7.856   3.686   5.451  1.6764  1.1811  0.2263
 7143TIP3    H221369   7.851   3.576   5.347 -0.4030 -0.2784  1.8227
 7144TIP3   OH221370   1.439   3.713   5.115  0.1927 -0.0516  0.5223
 7144TIP3    H121371   1.534   3.700   5.111  0.2648  0.6824 -0.2847
 7144TIP3    H221372   1.426   3.807   5.100 -0.6726 -0.1818  0.3954
 7145TIP3   OH221373   0.717   4.223   5.432  0.4990 -0.7050 -0.2681
 7145TIP3    H121374   0.792   4.182   5.390  2.7142  2.8206  0.0565
 7145TIP3    H221375   0.657   4.243   5.360  2.0983  0.8744 -1.1958
 7146TIP3   OH221376   0.607   4.753   6.819  0.4196 -0.5167 -0.1182
 7146TIP3    H121377   0.675   4.745   6.751  0.0516 -0.9568 -0.4408
 7146TIP3    H221378   0.654   4.785   6.896  0.9102 -0.3596 -0.4768
 7147TIP3   OH221379   1.408   0.172   4.757 -0.1945 -0.2847 -0.9277
 7147TIP3    H121380   1.381   0.115   4.686 -0.3910  1.2052 -2.0730
 7147TIP3    H221381   1.390   0.261   4.725  0.1069  0.4284  0.8040
 7148TIP3   OH221382   0.972   1.293   3.864 -0.2027 -0.0113 -0.0226
 7148TIP3    H121383   1.021   1.292   3.781 -0.1704 -0.4228 -0.0014
 7148TIP3    H221384   0.981   1.383   3.896  2.5370 -0.6525  1.1549
 7149TIP3   OH221385   0.153   4.507   3.841 -0.2046  0.9252 -0.2405
 7149TIP3    H121386   0.179   4.559   3.917 -0.3561  1.0670 -0.2841
 7149TIP3    H221387   0.080   4.556   3.803 -2.0726 -0.6398  1.2242
 7150TIP3   OH221388   0.716   3.007   5.017 -0.5283  0.2723 -0.0492
 7150TIP3    H121389   0.793   2.974   5.063 -0.3517 -0.7247 -1.0654
 7150TIP3    H221390   0.750   3.076   4.960 -0.6521  1.0559  0.8158
 7151TIP3   OH221391   0.303   5.802   5.435  0.0334 -0.1242 -0.0142
 7151TIP3    H121392   0.378   5.832   5.384 -0.8327  1.2803 -0.4778
 7151TIP3    H221393   0.275   5.722   5.390 -0.4809  0.8811 -1.5427
 7152TIP3   OH221394   7.128   6.028   4.807  0.2014  0.1962  0.3509
 7152TIP3    H121395   7.155   5.938   4.826 -0.3378 -0.2895 -1.1363
 7152TIP3    H221396   7.205   6.081   4.828  1.2264 -0.8352 -0.7176
 7153TIP3   OH221397   1.730   3.589   4.780  0.0934  0.2362 -0.0954
 7153TIP3    H121398   1.659   3.578   4.717  1.0706 -2.3970 -0.8141
 7153TIP3    H221399   1.784   3.659   4.743  0.2846 -0.8032 -1.8608
 7154TIP3   OH221400   7.468   2.648   6.317  0.2053 -0.3513  0.3423
 7154TIP3    H121401   7.436   2.632   6.406  0.9028  1.8871  1.0090
 7154TIP3    H221402   7.561   2.666   6.328 -0.0793  1.8027 -0.6293
 7155TIP3   OH221403   2.926   3.411   5.118 -0.6196 -0.4044 -0.2800
 7155TIP3    H121404   2.837   3.442   5.134 -0.9330 -2.3421  2.0402
 7155TIP3    H221405   2.917   3.316   5.108  1.1100 -0.5357 -0.8102
 7156TIP3   OH221406   2.060   3.179   4.038  0.5034 -0.9252  0.7726
 7156TIP3    H121407   1.976   3.136   4.022  0.5221 -0.8094  0.3351
 7156TIP3    H221408   2.124   3.121   3.997  0.5516 -0.6037  0.3848
 7157TIP3   OH221409   6.015   6.428   1.202  0.0806 -0.2454 -0.0443
 7157TIP3    H121410   6.057   6.375   1.134  0.5986  0.6085 -0.4090
 7157TIP3    H221411   6.082   6.491   1.228 -1.3028  1.9019 -1.4639
 7158TIP3   OH221412   0.318   2.062   4.615  0.1421 -0.6712 -0.2069
 7158TIP3    H121413   0.387   2.093   4.557  0.8899  1.9073  1.9330
 7158TIP3    H221414   0.364   2.020   4.688 -0.6063 -0.4405  0.4105
 7159TIP3   OH221415   7.042  -0.016   0.402  0.3225  0.1766  0.0852
 7159TIP3    H121416   7.050   0.079   0.409 -2.3053  0.4906 -0.4426
 7159TIP3    H221417   7.000  -0.031   0.317 -0.0284 -1.3897  0.5013
 7160TIP3   OH221418   1.154   1.679   5.246  0.0810  0.8098 -0.2465
 7160TIP3    H121419   1.102   1.759   5.238  0.6217  1.3133  1.0083
 7160TIP3    H221420   1.242   1.704   5.218 -0.1190  0.2130 -1.4366
 7161TIP3   OH221421   8.335   3.264   5.677  0.0043 -0.2684 -0.2841
 7161TIP3    H121422   8.416   3.220   5.649  0.0981 -1.0213  1.1116
 7161TIP3    H221423   8.273   3.193   5.690 -0.2095  0.1125  0.8047
 7162TIP3   OH221424   7.623   3.777   6.184  0.5487 -0.7010  0.0495
 7162TIP3    H121425   7.661   3.794   6.270  0.5167 -0.6209  0.0470
 7162TIP3    H221426   7.626   3.681   6.175  0.2427 -0.7313  0.2788
 7163TIP3   OH221427   7.995   2.034   5.594 -0.0448 -0.0021  0.1002
 7163TIP3    H121428   7.999   2.088   5.673 -0.1146  0.4333 -0.1948
 7163TIP3    H221429   7.905   2.040   5.564 -0.2856 -1.0299  0.5813
 7164TIP3   OH221430   3.559   7.236   0.132  0.1186  0.4784  0.1635
 7164TIP3    H121431   3.504   7.211   0.206 -0.9729  0.7298 -0.5383
 7164TIP3    H221432   3.521   7.319   0.101  0.3601  0.2190 -0.8587
 7165TIP3   OH221433   0.997   4.396   5.235  0.7267 -0.6324 -0.3011
 7165TIP3    H121434   1.050   4.387   5.314 -0.3137 -0.4216  0.4257
 7165TIP3    H221435   0.917   4.441   5.264  0.7501  0.3200 -1.6458
 7166TIP3   OH221436   0.206   2.397   6.887 -0.1747  0.3073  0.0571
 7166TIP3    H121437   0.170   2.338   6.953 -0.2380 -0.4151 -0.6253
 7166TIP3    H221438   0.220   2.343   6.810  1.1941  0.8450 -0.1020
 7167TIP3   OH221439   8.481   2.864   5.261  0.6914 -0.6174 -0.1444
 7167TIP3    H121440   8.395   2.906   5.262  0.3833 -1.2079 -1.0743
 7167TIP3    H221441   8.477   2.798   5.330  1.0281  0.5870  1.0291
 7168TIP3   OH221442   0.561   2.582   4.532 -0.1436  0.7987  0.2714
 7168TIP3    H121443   0.496   2.652   4.541 -0.2957  0.6000  0.7488
 7168TIP3    H221444   0.640   2.628   4.503 -1.2995  0.6329 -3.4221
 7169TIP3   OH221445   8.106   2.820   6.324 -0.2794  0.0092 -0.2767
 7169TIP3    H121446   8.202   2.815   6.324 -0.2415  0.5555 -1.2144
 7169TIP3    H221447   8.081   2.799   6.234 -0.9581  1.0425 -0.3409
 7170TIP3   OH221448   7.831   3.030   4.508  0.5586 -0.1707  0.2210
 7170TIP3    H121449   7.765   3.029   4.438 -1.4279 -0.2525  2.0370
 7170TIP3    H221450   7.836   2.939   4.537  0.8049 -0.0074  0.6901
 7171TIP3   OH221451   1.500   2.706   4.102  0.1525  0.2568  0.4310
 7171TIP3    H121452   1.447   2.718   4.181  0.0666 -0.4922  0.4886
 7171TIP3    H221453   1.590   2.698   4.134 -0.1928 -2.9423  0.7002
 7172TIP3   OH221454   8.158   4.256   5.137 -0.0059  0.3204  0.3323
 7172TIP3    H121455   8.114   4.189   5.085  0.2624 -0.8397  1.5604
 7172TIP3    H221456   8.199   4.208   5.208  1.7495  1.5971  0.2155
 7173TIP3   OH221457   5.939   1.340   0.171 -0.3180 -0.1635 -0.2789
 7173TIP3    H121458   6.021   1.298   0.198 -0.1601  0.2707 -0.0877
 7173TIP3    H221459   5.957   1.434   0.176 -1.1903 -0.0428  0.9435
 7174TIP3   OH221460   6.503   4.708   4.478 -0.2319  0.2331 -0.1204
 7174TIP3    H121461   6.480   4.751   4.396 -0.7334 -0.0278 -0.1192
 7174TIP3    H221462   6.544   4.626   4.451 -2.1212 -0.7352 -0.1037
 7175TIP3   OH221463   6.917   4.188   3.966 -0.7047  0.0323  0.3293
 7175TIP3    H121464   6.927   4.156   3.876  0.9436 -0.8404  0.8149
 7175TIP3    H221465   6.860   4.123   4.008  3.8260 -3.3463  1.7474
 7176TIP3   OH221466   2.178   5.900   4.715 -0.0347  0.4553  0.5778
 7176TIP3    H121467   2.211   5.876   4.802  0.9406  0.5406  0.2414
 7176TIP3    H221468   2.251   5.879   4.656 -0.6289  0.5632 -0.1953
 7177TIP3   OH221469   1.313   3.798   3.623 -0.0677 -0.3886  0.0375
 7177TIP3    H121470   1.220   3.813   3.637 -0.3018 -1.6098 -0.2328
 7177TIP3    H221471   1.348   3.779   3.710 -0.5607 -2.6406 -0.2489
 7178TIP3   OH221472   0.158   5.131   5.310  0.2388  0.0781 -0.1473
 7178TIP3    H121473   0.228   5.165   5.255 -0.3908  1.0023 -0.3855
 7178TIP3    H221474   0.077   5.157   5.266 -0.2845  1.5559  1.6348
 7179TIP3   OH221475   1.067   1.649   4.518  0.2941  0.2132  0.0555
 7179TIP3    H121476   1.138   1.585   4.515  0.3030  0.2021  0.5819
 7179TIP3    H221477   0.992   1.604   4.478  0.9551  0.7015 -1.7957
 7180TIP3   OH221478   6.569   3.932   5.554  0.5352  0.3297 -0.2970
 7180TIP3    H121479   6.546   3.843   5.579 -1.4426  0.9997  0.4020
 7180TIP3    H221480   6.485   3.979   5.552  1.6817  2.4972  0.7059
 7181TIP3   OH221481   0.714   3.957   5.979  0.3436  0.3221  0.7117
 7181TIP3    H121482   0.772   3.927   6.049  2.3874 -0.9871 -1.5053
 7181TIP3    H221483   0.745   4.044   5.957 -0.2487  0.7016  1.3664
 7182TIP3   OH221484   1.157   3.895   4.974 -0.5297  0.1209  0.2115
 7182TIP3    H121485   1.209   3.914   5.052  2.0200 -0.8808 -1.2196
 7182TIP3    H221486   1.125   3.806   4.987  0.2967 -0.2223 -0.1077
 7183TIP3   OH221487   0.416   2.691   6.856  0.4231 -0.3482  0.2819
 7183TIP3    H121488   0.472   2.725   6.926  0.4454 -0.1910  0.1885
 7183TIP3    H221489   0.327   2.699   6.891  0.1268  2.9552 -1.0182
 7184TIP3   OH221490   8.465   4.296   6.170 -0.1508  0.1444 -0.2230
 7184TIP3    H121491   8.429   4.215   6.204  2.0778 -0.2100  1.4396
 7184TIP3    H221492   8.423   4.365   6.222 -1.1492 -0.0244 -0.8118
 7185TIP3   OH221493   1.265   4.749   3.220  0.2509 -0.0386 -0.2066
 7185TIP3    H121494   1.354   4.753   3.185  0.1605  0.8748 -0.3371
 7185TIP3    H221495   1.217   4.697   3.156  0.6198 -0.2862 -0.2840
 7186TIP3   OH221496   6.943   7.650   0.459  0.5112 -0.0698  0.3543
 7186TIP3    H121497   6.930   7.744   0.473  0.5637 -0.1128  0.7029
 7186TIP3    H221498   6.870   7.624   0.403  1.6623  0.5836 -1.4686
 7187TIP3   OH221499   1.469   2.358   3.703  0.3308 -0.0040  0.1599
 7187TIP3    H121500   1.409   2.322   3.768 -2.0771  2.4317 -0.6439
 7187TIP3    H221501   1.536   2.404   3.755  0.6693 -1.4229  1.0064
 7188TIP3   OH221502   7.930   3.955   5.333  0.0781 -0.4364  0.3270
 7188TIP3    H121503   7.964   3.938   5.245  0.5282  0.4611  0.3165
 7188TIP3    H221504   7.958   3.880   5.385  1.4679 -0.0551  0.1422
 7189TIP3   OH221505   7.928   3.615   6.441 -0.6424  0.0349 -0.1302
 7189TIP3    H121506   7.859   3.670   6.404  1.0711  1.7368 -0.8427
 7189TIP3    H221507   7.965   3.569   6.366  0.3683  0.7009 -0.0588
 7190TIP3   OH221508   1.258   5.706   4.329  0.4504  0.9036 -0.4546
 7190TIP3    H121509   1.247   5.660   4.412  0.4720  0.1026 -0.8898
 7190TIP3    H221510   1.254   5.637   4.263 -0.7483  1.6709 -1.1959
 7191TIP3   OH221511   0.801   3.898   5.104 -0.0146 -0.4862 -0.2149
 7191TIP3    H121512   0.835   3.952   5.032 -1.1366  0.0214 -0.3766
 7191TIP3    H221513   0.855   3.922   5.179 -0.5130  0.8929 -0.2824
 7192TIP3   OH221514   7.672   3.191   5.479 -0.0886  0.3859 -0.0041
 7192TIP3    H121515   7.664   3.101   5.511 -1.7225  0.1336 -1.0864
 7192TIP3    H221516   7.766   3.203   5.464  0.1138 -1.1972 -0.0202
 7193TIP3   OH221517   7.157   3.270   2.771 -0.0208 -0.8381 -0.5567
 7193TIP3    H121518   7.141   3.245   2.863  2.9615 -1.1184 -0.0576
 7193TIP3    H221519   7.150   3.365   2.770  0.6852 -0.7732  0.1405
 7194TIP3   OH221520   0.491   4.217   5.266 -0.2537 -0.2258  0.1064
 7194TIP3    H121521   0.498   4.137   5.213 -0.4290 -0.2902  0.1837
 7194TIP3    H221522   0.450   4.281   5.207 -0.6894 -0.3737  0.2518
 7195TIP3   OH221523   7.012   2.654   6.075 -0.5355 -0.0599  0.1431
 7195TIP3    H121524   6.969   2.661   5.990  0.2945  2.9614 -0.0985
 7195TIP3    H221525   6.989   2.735   6.120 -2.5782 -2.4703  3.6373
 7196TIP3   OH221526   8.175   3.683   6.576  0.1919 -0.0098 -0.5545
 7196TIP3    H121527   8.086   3.672   6.543  0.4165 -0.6321 -0.9683
 7196TIP3    H221528   8.191   3.777   6.574 -0.7816  0.1806  0.3800
 7197TIP3   OH221529   7.640   0.806   0.743 -0.2340 -0.7215 -0.2340
 7197TIP3    H121530   7.618   0.732   0.686  1.0726 -2.0245  0.8927
 7197TIP3    H221531   7.671   0.765   0.824  2.4288  1.0312 -0.2942
 7198TIP3   OH221532   8.455   3.623   5.754 -0.3420 -0.0350  0.5510
 7198TIP3    H121533   8.392   3.645   5.823 -0.3399 -0.1374  0.5857
 7198TIP3    H221534   8.537   3.663   5.783 -0.4159  0.1883  0.4540
 7199TIP3   OH221535   0.819   2.717   6.946 -0.1321  0.1743  0.4145
 7199TIP3    H121536   0.800   2.810   6.961 -2.9700 -0.3073  0.1021
 7199TIP3    H221537   0.826   2.709   6.851  1.3682  0.2775  0.5085
 7200TIP3   OH221538   1.373   3.831   3.081 -0.0834  0.2505 -0.1555
 7200TIP3    H121539   1.433   3.762   3.052 -0.3131  0.1594 -0.4192
 7200TIP3    H221540   1.430   3.902   3.108  0.1429  0.4580 -1.1325
 7201TIP3   OH221541   1.257   3.058   6.260  0.4170  0.2511 -0.4492
 7201TIP3    H121542   1.273   3.104   6.342  0.7729  0.5893 -0.7042
 7201TIP3    H221543   1.212   3.122   6.205 -1.4383 -0.5506  0.1009
 7202TIP3   OH221544   0.429   5.785   4.613  0.1113  0.3118 -0.0966
 7202TIP3    H121545   0.478   5.850   4.664 -0.0536  1.2371 -1.1141
 7202TIP3    H221546   0.356   5.760   4.670  0.9270  0.0085  0.8404
 7203TIP3   OH221547   1.478   3.826   2.569 -0.5986 -0.3699  0.0688
 7203TIP3    H121548   1.550   3.804   2.510 -1.0974  1.5483 -1.3295
 7203TIP3    H221549   1.516   3.817   2.656  0.8481 -1.0185 -0.5950
 7204TIP3   OH221550   1.084   3.666   5.159 -0.1689  0.4128  0.3869
 7204TIP3    H121551   1.165   3.620   5.183  0.2291  0.8830 -0.0437
 7204TIP3    H221552   1.022   3.596   5.139  0.8440  0.0318 -1.6101
 7205TIP3   OH221553   6.730   3.308   3.643 -0.0736  0.1229 -0.6256
 7205TIP3    H121554   6.771   3.389   3.613  2.2980 -0.7944 -0.0195
 7205TIP3    H221555   6.712   3.322   3.736 -0.0089  0.0911 -0.6081
 7206TIP3   OH221556   3.386   7.635   0.229 -0.2147 -0.0524  0.0680
 7206TIP3    H121557   3.425   7.575   0.293 -0.9563  2.2289  2.7487
 7206TIP3    H221558   3.439   7.714   0.234 -1.9011  1.1117 -0.2010
 7207TIP3   OH221559   1.165   2.067   4.853 -0.0975 -0.2297 -0.3648
 7207TIP3    H121560   1.233   2.014   4.895 -0.0073  1.0811  1.2113
 7207TIP3    H221561   1.123   2.008   4.791  1.4746 -1.4933 -0.2655
 7208TIP3   OH221562   8.120   3.293   4.947  0.0524 -0.0674  0.0397
 7208TIP3    H121563   8.052   3.241   4.903  0.5103  0.4545 -1.2822
 7208TIP3    H221564   8.103   3.279   5.041 -1.0886 -0.9653 -0.2873
 7209TIP3   OH221565   0.897   2.118   4.988 -0.2924  0.3014 -0.5410
 7209TIP3    H121566   0.990   2.101   5.003 -0.3504 -0.4820 -0.9966
 7209TIP3    H221567   0.894   2.160   4.902 -0.4157 -0.4790 -0.9324
 7210TIP3   OH221568   1.617   3.729   6.856 -0.2939  0.2462 -0.2898
 7210TIP3    H121569   1.569   3.685   6.786  0.5125 -2.4404  0.7786
 7210TIP3    H221570   1.708   3.704   6.843  0.2894  2.2186 -0.0769
 7211TIP3   OH221571   7.066   2.087   3.709  0.1619  0.1357 -0.1901
 7211TIP3    H121572   6.980   2.047   3.694 -0.3184  1.5146 -1.2121
 7211TIP3    H221573   7.048   2.158   3.771  0.7374 -0.1722  0.3360
 7212TIP3   OH221574   1.737   2.542   3.566  0.1497  0.2816  0.1235
 7212TIP3    H121575   1.679   2.544   3.490  1.5039  0.1541 -0.9525
 7212TIP3    H221576   1.743   2.450   3.590  2.0404 -0.0722 -1.5071
 7213TIP3   OH221577   7.353   4.291   4.281 -0.0248  0.0730 -0.4411
 7213TIP3    H121578   7.403   4.357   4.233 -0.4149  0.5191 -0.2384
 7213TIP3    H221579   7.380   4.208   4.242  1.2994  0.2560  0.0463
 7214TIP3   OH221580   2.986   6.250   1.484 -0.2862  0.1961  0.2656
 7214TIP3    H121581   2.901   6.231   1.447  0.6247 -0.3759 -1.5617
 7214TIP3    H221582   3.018   6.166   1.516  0.0596  0.2145 -0.0326
 7215TIP3   OH221583   7.933   4.810   6.430  0.0876 -0.1825  0.0693
 7215TIP3    H121584   7.925   4.820   6.525 -0.2267 -0.7150  0.1018
 7215TIP3    H221585   7.843   4.802   6.399  0.1652  0.5235 -0.3356
 7216TIP3   OH221586   7.928   3.442   5.705  0.1564 -0.4621 -0.1649
 7216TIP3    H121587   7.898   3.517   5.653 -0.1203  0.1144  0.8158
 7216TIP3    H221588   8.020   3.462   5.723  0.5968 -1.2578 -1.4618
 7217TIP3   OH221589   0.669   2.590   5.306  0.6085  0.0174 -0.2317
 7217TIP3    H121590   0.753   2.635   5.298  0.9163 -0.9162 -2.4636
 7217TIP3    H221591   0.630   2.628   5.385  2.0394  2.2410 -0.5244
 7218TIP3   OH221592   1.249   5.277   4.742 -0.4855 -0.0604 -0.3767
 7218TIP3    H121593   1.259   5.321   4.658  0.2177  0.4804 -0.0178
 7218TIP3    H221594   1.290   5.192   4.730 -0.3595  0.0284 -0.5750
 7219TIP3   OH221595   7.150   3.492   5.830  0.3628  0.4472  0.1808
 7219TIP3    H121596   7.132   3.545   5.908 -1.1402  0.4805 -0.1871
 7219TIP3    H221597   7.165   3.556   5.760  0.0276  0.4007  0.0663
 7220TIP3   OH221598   0.236   4.609   6.072  0.9854 -0.0946  0.4419
 7220TIP3    H121599   0.269   4.592   6.161 -1.5010 -3.6454  0.7805
 7220TIP3    H221600   0.237   4.523   6.030 -1.9937  0.7634 -1.5043
 7221TIP3   OH221601   7.216   5.138   5.625  0.0875  0.4183  0.3737
 7221TIP3    H121602   7.277   5.070   5.600 -1.9981 -0.9254 -1.2179
 7221TIP3    H221603   7.158   5.097   5.689 -1.4191  0.5456 -0.8740
 7222TIP3   OH221604   0.406   2.785   5.692  0.0946  0.7743 -0.1568
 7222TIP3    H121605   0.445   2.720   5.750 -0.2368  0.3541 -0.4075
 7222TIP3    H221606   0.394   2.862   5.748  2.2043  1.2447 -0.3299
 7223TIP3   OH221607   0.235   3.321   2.632  0.5727 -0.1178  0.0293
 7223TIP3    H121608   0.319   3.327   2.586  0.7217  0.0319  0.3216
 7223TIP3    H221609   0.173   3.292   2.565  0.9877 -0.8775 -0.0294
 7224TIP3   OH221610   1.349   7.863   0.009 -0.4250 -0.1434 -0.3081
 7224TIP3    H121611   1.293   7.912   0.069 -0.6236 -1.2535  0.4194
 7224TIP3    H221612   1.383   7.791   0.061  1.6345  0.4582 -0.7737
 7225TIP3   OH221613   8.333   5.011   6.654 -0.1604 -0.5616  0.3877
 7225TIP3    H121614   8.334   5.101   6.623  0.0679 -0.6368  0.1732
 7225TIP3    H221615   8.242   4.996   6.682 -0.3488 -0.4699 -0.1737
 7226TIP3   OH221616   7.307   3.788   5.636  0.1964 -0.1150 -0.1325
 7226TIP3    H121617   7.373   3.779   5.567 -0.2587 -0.6726 -0.4998
 7226TIP3    H221618   7.298   3.883   5.648  0.1861 -0.0149 -0.9291
 7227TIP3   OH221619   2.122   3.103   4.765  0.0466 -0.2573 -0.1829
 7227TIP3    H121620   2.186   3.056   4.820 -0.0625 -1.5146 -1.1050
 7227TIP3    H221621   2.107   3.185   4.811  1.1200 -0.6374  0.8832
 7228TIP3   OH221622   4.671   6.737   0.208 -0.5516  0.3455  0.5158
 7228TIP3    H121623   4.702   6.828   0.209 -0.9991  0.4977  0.9144
 7228TIP3    H221624   4.734   6.689   0.262  0.4671  0.1535 -0.8259
 7229TIP3   OH221625   4.527   5.355   0.378  0.0226 -0.3043  0.2382
 7229TIP3    H121626   4.466   5.319   0.443  0.3246 -4.1483 -1.4718
 7229TIP3    H221627   4.472   5.377   0.303  0.5691 -3.0506 -1.0162
 7230TIP3   OH221628   8.337   4.092   5.695 -0.1268  1.0218 -0.8402
 7230TIP3    H121629   8.244   4.071   5.683 -0.2170  0.8455  0.0609
 7230TIP3    H221630   8.383   4.027   5.643 -0.5099  1.0014 -1.1586
 7231TIP3   OH221631   4.569   3.694   4.111  0.1781 -0.2856 -0.1496
 7231TIP3    H121632   4.528   3.758   4.168 -0.6751 -2.0904  1.3038
 7231TIP3    H221633   4.663   3.702   4.129 -0.0928 -0.9706  1.6743
 7232TIP3   OH221634   0.924   3.091   6.466 -0.1057 -0.1437  0.0713
 7232TIP3    H121635   0.984   3.069   6.395 -0.4776 -0.4328 -0.1556
 7232TIP3    H221636   0.837   3.084   6.428 -0.2446  1.8787 -0.0460
 7233TIP3   OH221637   0.056   4.532   4.912  0.6414 -0.1235  0.0516
 7233TIP3    H121638   0.032   4.487   4.993  1.1120  2.1116  1.4616
 7233TIP3    H221639   0.130   4.483   4.878  0.3087 -1.2025  0.8548
 7234TIP3   OH221640   8.118   2.759   5.766 -0.0073  0.3601  0.6004
 7234TIP3    H121641   8.212   2.771   5.753  0.2818  0.2819  2.5391
 7234TIP3    H221642   8.078   2.798   5.688  1.6571 -0.3536 -0.6278
 7235TIP3   OH221643   3.011   6.658   0.046  0.1571 -0.4494 -0.2543
 7235TIP3    H121644   3.019   6.647   0.140  0.9477  0.8154 -0.1564
 7235TIP3    H221645   3.002   6.569   0.012 -0.8331 -0.8662  1.0657
 7236TIP3   OH221646   0.928   6.111   4.315 -0.2291 -0.0006 -0.0726
 7236TIP3    H121647   0.982   6.173   4.265 -0.1352  0.5420  0.6966
 7236TIP3    H221648   0.986   6.036   4.329  0.5935  0.8789  1.3847
 7237TIP3   OH221649   7.585   4.499   6.135 -0.4323 -0.3794  0.1136
 7237TIP3    H121650   7.523   4.485   6.063  0.2355  1.1034 -0.7627
 7237TIP3    H221651   7.664   4.453   6.109 -0.0982  0.3819 -0.2375
 7238TIP3   OH221652   2.166   2.283   6.022  0.3054 -0.1158  0.3423
 7238TIP3    H121653   2.173   2.279   5.927  2.1122 -1.2354  0.5054
 7238TIP3    H221654   2.093   2.224   6.043 -0.1038  0.1401 -0.3340
 7239TIP3   OH221655   0.792   2.999   4.531  0.2114  0.3453  0.4468
 7239TIP3    H121656   0.735   2.994   4.608 -0.4925 -1.1387 -0.1581
 7239TIP3    H221657   0.881   2.998   4.567 -0.1106  0.9382  1.2959
 7240TIP3   OH221658   1.664   2.093   5.655  0.9047 -0.5781  0.1586
 7240TIP3    H121659   1.601   2.140   5.710  0.6116 -0.4887 -0.2570
 7240TIP3    H221660   1.671   2.007   5.696 -0.1393 -0.8834 -0.2889
 7241TIP3   OH221661   2.523   3.857   5.475  0.1865  0.3741  0.1752
 7241TIP3    H121662   2.505   3.883   5.384 -1.4699 -0.7184  0.1565
 7241TIP3    H221663   2.611   3.890   5.493 -0.1693  2.1777 -1.2340
 7242TIP3   OH221664   7.621   1.758   6.435  0.4520 -0.0626  0.0748
 7242TIP3    H121665   7.660   1.701   6.501  1.5590 -0.2356 -0.7227
 7242TIP3    H221666   7.690   1.819   6.412 -0.5343  1.2448  0.4731
 7243TIP3   OH221667   1.956   4.718   5.123  0.2360  0.3388  0.1932
 7243TIP3    H121668   1.973   4.642   5.180  1.4346  0.7918  0.4529
 7243TIP3    H221669   2.042   4.758   5.110 -0.1519  0.7062 -1.2921
 7244TIP3   OH221670   4.498   7.808   0.958 -0.4664 -0.0042 -0.0403
 7244TIP3    H121671   4.555   7.766   1.023  0.0664 -0.3231 -0.7052
 7244TIP3    H221672   4.554   7.818   0.881 -1.2386 -0.0905 -0.6146
 7245TIP3   OH221673   4.135   6.997   0.696  0.3560 -0.3411 -0.2651
 7245TIP3    H121674   4.212   7.047   0.724  0.6381 -1.1724  0.4850
 7245TIP3    H221675   4.110   6.946   0.773 -0.6281 -0.4808 -0.6673
 7246TIP3   OH221676   1.985   3.591   5.046  0.4672  0.6188 -0.0683
 7246TIP3    H121677   2.009   3.518   4.989 -0.2027  1.4241 -1.4009
 7246TIP3    H221678   2.066   3.641   5.057  1.3513 -1.2195  2.2346
 7247TIP3   OH221679   0.420   3.905   6.086  0.0206  0.0515 -0.0728
 7247TIP3    H121680   0.490   3.857   6.129 -0.1356  0.1018  0.2430
 7247TIP3    H221681   0.459   3.939   6.005  0.8653  1.5502  0.9396
 7248TIP3   OH221682   0.619   4.555   5.556  0.1920  0.2469 -0.1103
 7248TIP3    H121683   0.602   4.468   5.594 -1.9019  0.2002 -1.0256
 7248TIP3    H221684   0.597   4.616   5.626  1.4062  0.0602  0.4484
 7249TIP3   OH221685   8.151   2.316   6.611  0.5275 -0.0788  0.2762
 7249TIP3    H121686   8.227   2.365   6.579 -0.1757  1.1215  0.4428
 7249TIP3    H221687   8.142   2.243   6.549  2.3689 -0.7643  0.7796
 7250TIP3   OH221688   1.361   4.660   4.673  0.2827  0.4498 -0.0733
 7250TIP3    H121689   1.297   4.728   4.654 -0.2528 -0.0563 -0.0856
 7250TIP3    H221690   1.314   4.578   4.662  0.7573  0.0836  0.5481
 7251TIP3   OH221691   8.368   5.277   6.536  0.5634  0.3391  0.7485
 7251TIP3    H121692   8.440   5.329   6.501  0.3896  0.3910  0.4631
 7251TIP3    H221693   8.289   5.315   6.496  0.3060  0.8071  1.6971
 7252TIP3   OH221694   1.667   2.733   5.003  0.2228  0.6403  0.0939
 7252TIP3    H121695   1.716   2.765   4.927  0.0359 -0.4332 -0.4938
 7252TIP3    H221696   1.734   2.708   5.067  0.4887 -1.1614 -0.8430
 7253TIP3   OH221697   0.934   3.345   4.945  0.3325 -0.2447  0.5926
 7253TIP3    H121698   1.021   3.358   4.908 -0.1601  0.6404 -0.2749
 7253TIP3    H221699   0.949   3.338   5.039  1.3328 -0.0408  0.4539
 7254TIP3   OH221700   1.434   3.098   4.628  0.1166  0.1321 -0.1628
 7254TIP3    H121701   1.499   3.130   4.691 -0.3537  0.0432  0.3735
 7254TIP3    H221702   1.411   3.011   4.661 -0.1937  0.1192 -0.4170
 7255TIP3   OH221703   8.382   2.876   6.350 -0.5517  0.0437  0.1065
 7255TIP3    H121704   8.456   2.816   6.356  0.7109  1.6105  0.6940
 7255TIP3    H221705   8.421   2.963   6.356 -2.4640  0.9098  0.5479
 7256TIP3   OH221706   0.585   2.679   5.896 -0.1559 -0.2319  0.1525
 7256TIP3    H121707   0.526   2.649   5.965 -1.5233  2.0837  0.0464
 7256TIP3    H221708   0.663   2.710   5.943 -1.7512  2.9036  0.8725
 7257TIP3   OH221709   6.070   7.041   0.413  0.1961  0.3037 -0.4167
 7257TIP3    H121710   6.049   7.113   0.353  1.4522  0.6847 -0.4278
 7257TIP3    H221711   6.029   6.964   0.373 -1.1263  1.0049 -0.4251
 7258TIP3   OH221712   4.743   2.447   3.909  0.3285  0.3132  0.0267
 7258TIP3    H121713   4.716   2.425   3.998  1.0330 -1.7733 -0.2467
 7258TIP3    H221714   4.709   2.535   3.895  0.8132  0.9602  2.6153
 7259TIP3   OH221715   2.201   4.058   5.405  0.0589  0.0534  0.4393
 7259TIP3    H121716   2.276   4.107   5.371 -1.0961  0.7450 -1.1642
 7259TIP3    H221717   2.226   4.036   5.495  1.4664  1.7478  0.4962
 7260TIP3   OH221718   8.058   4.184   5.466 -0.5636 -0.4633  0.4397
 7260TIP3    H121719   8.138   4.221   5.427 -1.7744  0.2704 -1.3849
 7260TIP3    H221720   8.073   4.089   5.466  1.0904 -0.2360  1.9070
 7261TIP3   OH221721   6.602   4.344   6.648  0.4443  0.5538  0.4042
 7261TIP3    H121722   6.533   4.397   6.609 -0.7547 -1.0153  0.3754
 7261TIP3    H221723   6.654   4.313   6.573 -1.5037 -1.9625  0.0215
 7262TIP3   OH221724   2.792   4.039   4.940 -0.0410  0.0987 -0.4147
 7262TIP3    H121725   2.767   4.016   4.851  0.0689 -0.7625 -0.2334
 7262TIP3    H221726   2.872   3.988   4.956  0.4931  0.9961 -0.1657
 7263TIP3   OH221727   7.875   3.430   4.742  0.1722 -0.1443 -0.4744
 7263TIP3    H121728   7.890   3.522   4.718 -0.8686  0.7743  2.1862
 7263TIP3    H221729   7.828   3.435   4.825 -2.8682 -3.0812 -1.9413
 7264TIP3   OH221730   6.513   2.710   4.384  0.8878 -0.6351  0.4835
 7264TIP3    H121731   6.468   2.737   4.464  0.9556  0.8552  0.0379
 7264TIP3    H221732   6.588   2.769   4.378  1.5231 -1.4953 -0.0769
 7265TIP3   OH221733   1.014   3.126   6.709  0.4426  0.3357 -0.2066
 7265TIP3    H121734   1.043   3.040   6.741 -1.3074 -0.3278 -0.3666
 7265TIP3    H221735   0.992   3.111   6.617  1.0587  1.1945 -0.5033
 7266TIP3   OH221736   2.696   1.006   4.947  0.2928 -0.2911  0.3303
 7266TIP3    H121737   2.647   1.052   4.879  0.1015 -1.2155 -0.1566
 7266TIP3    H221738   2.788   1.023   4.926  0.2121  1.3498  1.1817
 7267TIP3   OH221739   6.805   3.458   5.228 -0.8813  0.0427 -0.6931
 7267TIP3    H121740   6.875   3.518   5.252 -0.5207  0.4242 -2.6229
 7267TIP3    H221741   6.745   3.459   5.303 -0.1224  1.6471 -0.0967
 7268TIP3   OH221742   1.248   5.782   4.767 -0.4299 -0.1822 -0.0917
 7268TIP3    H121743   1.186   5.854   4.756 -0.1109  0.0128 -0.6746
 7268TIP3    H221744   1.304   5.809   4.840 -0.9428 -0.2946  0.3408
 7269TIP3   OH221745   2.202   6.357   0.448  0.6593  0.0552 -0.1024
 7269TIP3    H121746   2.254   6.333   0.372 -0.0890 -1.1140 -0.2463
 7269TIP3    H221747   2.135   6.415   0.414  1.3172  0.8588 -0.0564
 7270TIP3   OH221748   7.795   3.418   5.239 -0.2318 -0.0424 -0.9407
 7270TIP3    H121749   7.723   3.383   5.293  0.2955  0.9110  0.4093
 7270TIP3    H221750   7.760   3.417   5.150 -1.8110  0.1001 -0.3493
 7271TIP3   OH221751   2.763   5.590   0.880  0.2866  0.4443  0.5393
 7271TIP3    H121752   2.747   5.684   0.883  0.1741  0.4411  0.0527
 7271TIP3    H221753   2.838   5.576   0.937  0.8031  0.9323 -0.0152
 7272TIP3   OH221754   7.901   4.941   5.662  0.0254  0.3138 -0.4687
 7272TIP3    H121755   7.919   4.863   5.715  1.5025 -0.5148 -2.1368
 7272TIP3    H221756   7.874   5.007   5.726 -1.3574 -1.5690  0.9600
 7273TIP3   OH221757   7.067   5.272   5.186  0.2194 -0.1772  0.1174
 7273TIP3    H121758   7.134   5.337   5.210  0.4451 -0.4729  0.2955
 7273TIP3    H221759   7.034   5.240   5.270  0.1120 -0.2940  0.0315
 7274TIP3   OH221760   8.445   3.568   4.742 -0.1260 -0.7983  0.5185
 7274TIP3    H121761   8.435   3.484   4.786 -1.9367  0.2850  2.2014
 7274TIP3    H221762   8.536   3.594   4.760  0.6385 -2.6385 -0.5219
 7275TIP3   OH221763   0.779   4.556   6.268  0.3063  0.6615 -0.3108
 7275TIP3    H121764   0.830   4.637   6.260  0.9859  0.2736  0.0444
 7275TIP3    H221765   0.834   4.489   6.228 -0.0320  0.2835 -0.1472
 7276TIP3   OH221766   7.679   3.286   4.527  0.3898  0.4546  0.3155
 7276TIP3    H121767   7.645   3.338   4.600  0.2727  0.5338  0.2064
 7276TIP3    H221768   7.618   3.304   4.455  0.3029  0.1041  0.3008
 7277TIP3   OH221769   4.661   1.007   0.112 -0.3417  0.6160  0.1454
 7277TIP3    H121770   4.693   1.095   0.130 -1.2087  0.8414  0.5974
 7277TIP3    H221771   4.589   0.994   0.173 -0.4009 -0.3050 -0.1046
 7278TIP3   OH221772   1.044   3.356   4.410 -0.3361  0.1212 -0.4902
 7278TIP3    H121773   1.011   3.416   4.477 -0.4859  0.1628 -0.5994
 7278TIP3    H221774   1.042   3.270   4.452 -0.8624  0.0824 -0.5890
 7279TIP3   OH221775   1.062   3.080   5.242 -0.4619  0.1934  0.5055
 7279TIP3    H121776   1.114   3.080   5.323 -0.7950  0.1897  0.7222
 7279TIP3    H221777   1.025   3.168   5.237  0.5885  0.5965 -0.3178
 7280TIP3   OH221778   8.459   1.410   4.781  0.1059  0.0799 -0.1140
 7280TIP3    H121779   8.408   1.335   4.750 -2.5989  1.1920  1.5265
 7280TIP3    H221780   8.500   1.445   4.702 -0.4018 -1.7605 -1.2305
 7281TIP3   OH221781   2.208   2.414   3.625  0.6906 -0.4144  0.2801
 7281TIP3    H121782   2.188   2.364   3.705  0.9255  0.4702  0.9039
 7281TIP3    H221783   2.269   2.359   3.577  2.0273 -0.1360  1.6173
 7282TIP3   OH221784   0.051   1.754   5.251 -0.1861 -0.5598 -0.0161
 7282TIP3    H121785  -0.030   1.707   5.267  0.4172 -1.4817  0.3872
 7282TIP3    H221786   0.067   1.745   5.157 -0.8623  0.1434 -0.2004
 7283TIP3   OH221787   0.754   4.080   4.123  0.0539  0.2451  0.0624
 7283TIP3    H121788   0.758   4.169   4.086 -1.0006  0.3605  0.2194
 7283TIP3    H221789   0.683   4.037   4.075  1.0986 -0.7871 -0.5788
 7284TIP3   OH221790   8.161   1.956   6.209 -0.9031 -0.0377  0.3427
 7284TIP3    H121791   8.208   1.978   6.128 -2.2289  0.6343 -0.2580
 7284TIP3    H221792   8.091   1.897   6.181 -1.0299 -0.2413  1.0812
 7285TIP3   OH221793   1.319   2.701   5.999  0.1830 -0.0230  0.1731
 7285TIP3    H121794   1.236   2.659   6.023 -0.2003  0.6342 -0.0019
 7285TIP3    H221795   1.373   2.694   6.077  0.4801 -1.7323 -0.1613
 7286TIP3   OH221796   1.220   1.675   4.925 -0.1094 -0.1118 -0.5368
 7286TIP3    H121797   1.166   1.739   4.880 -1.2287 -0.6701 -0.0010
 7286TIP3    H221798   1.274   1.727   4.985 -2.8281  0.1644  1.7619
 7287TIP3   OH221799   1.120   2.439   3.151  0.1823  0.1789  0.2172
 7287TIP3    H121800   1.142   2.395   3.069 -0.3880  2.1682 -1.0543
 7287TIP3    H221801   1.025   2.429   3.158 -0.1958  2.5972 -0.9673
 7288TIP3   OH221802   0.421   4.125   4.822 -0.5613 -0.1606 -0.3635
 7288TIP3    H121803   0.354   4.057   4.816 -0.7705 -0.2358  2.2301
 7288TIP3    H221804   0.497   4.088   4.778 -1.4058 -1.1305 -1.0173
 7289TIP3   OH221805   1.099   4.828   4.427 -0.0003  0.9156 -0.0675
 7289TIP3    H121806   1.098   4.761   4.359  0.0670  1.0802 -0.2327
 7289TIP3    H221807   1.179   4.878   4.410  0.7820  0.0487  1.0321
 7290TIP3   OH221808   2.412   3.356   5.558 -0.1632 -0.2367 -0.5293
 7290TIP3    H121809   2.473   3.428   5.568 -0.7807  0.4047 -1.2957
 7290TIP3    H221810   2.367   3.374   5.475 -0.5478 -1.3208 -0.5616
 7291TIP3   OH221811   8.315   2.946   4.486  0.1078 -0.3195  0.8712
 7291TIP3    H121812   8.362   2.882   4.539 -2.2728 -2.0116  1.0308
 7291TIP3    H221813   8.262   2.996   4.548 -0.2178 -0.1275  0.4493
 7292TIP3   OH221814   2.531   0.424   6.047  0.4892  0.1376  0.0569
 7292TIP3    H121815   2.485   0.388   5.972  1.0220 -1.6733  0.5715
 7292TIP3    H221816   2.623   0.428   6.020  0.7223 -0.7646  0.6789
 7293TIP3   OH221817   0.057   4.580   5.568  0.1185 -0.3783  0.1345
 7293TIP3    H121818   0.119   4.648   5.594 -0.1850  0.1014 -0.3914
 7293TIP3    H221819  -0.029   4.623   5.570 -0.1685 -0.9596  0.5678
 7294TIP3   OH221820   2.311   4.608   5.537 -0.2935  0.2536  0.7546
 7294TIP3    H121821   2.236   4.617   5.478  0.5376  1.8552 -0.0842
 7294TIP3    H221822   2.318   4.514   5.553 -0.2560 -0.2525 -2.0753
 7295TIP3   OH221823   2.814   4.298   4.723 -0.2083 -0.2734  0.4705
 7295TIP3    H121824   2.876   4.242   4.676  0.5640  0.1259  0.9995
 7295TIP3    H221825   2.733   4.247   4.726  0.5867 -1.5193  1.2614
 7296TIP3   OH221826   0.570   3.747   4.782 -0.0190  0.2491 -0.0707
 7296TIP3    H121827   0.566   3.710   4.870  1.2004  0.5483  0.1235
 7296TIP3    H221828   0.522   3.685   4.727 -0.0236 -0.3926  0.6546
 7297TIP3   OH221829   8.075   5.352   3.293 -0.2475  0.3264 -0.3093
 7297TIP3    H121830   8.076   5.411   3.369 -2.3923 -2.1547  1.7209
 7297TIP3    H221831   8.151   5.379   3.241  1.2410  2.1107  2.6658
 7298TIP3   OH221832   3.124   2.542   1.730  0.4689  0.2038  0.3123
 7298TIP3    H121833   3.082   2.627   1.742  0.8793  0.5222 -0.4903
 7298TIP3    H221834   3.126   2.504   1.818 -0.4859  0.6584  0.5443
 7299TIP3   OH221835   3.032   2.832   4.962 -0.2650 -0.4091  0.6646
 7299TIP3    H121836   3.082   2.913   4.972 -0.8030 -0.0835  0.6861
 7299TIP3    H221837   2.991   2.818   5.047 -0.7128 -0.3477  0.4604
 7300TIP3   OH221838   2.729   2.788   3.968 -0.2061  0.4356 -0.0592
 7300TIP3    H121839   2.651   2.809   3.916 -0.3994 -3.2080 -1.4603
 7300TIP3    H221840   2.695   2.772   4.056 -1.4846 -3.0185 -1.0627
 7301TIP3   OH221841   0.420   3.392   4.215  0.2962  0.0521 -0.2150
 7301TIP3    H121842   0.379   3.462   4.266  0.2274  0.6305 -1.0360
 7301TIP3    H221843   0.347   3.334   4.191  0.4004 -0.4650  0.7219
 7302TIP3   OH221844   1.957   4.013   4.020  0.4368 -0.0382 -0.6643
 7302TIP3    H121845   1.986   3.924   4.039 -0.7270  0.2733  2.9498
 7302TIP3    H221846   1.888   4.003   3.954  0.5526 -1.7524 -0.5285
 7303TIP3   OH221847   3.185   2.231   5.595 -0.3171 -0.0521 -0.2111
 7303TIP3    H121848   3.250   2.284   5.642 -0.7852  1.5717 -1.3461
 7303TIP3    H221849   3.218   2.228   5.505 -1.5085  0.2822 -0.6596
 7304TIP3   OH221850   0.439   0.320   0.087  0.3199  0.2125  0.2989
 7304TIP3    H121851   0.482   0.235   0.097 -0.6457 -0.3242  0.0117
 7304TIP3    H221852   0.509   0.384   0.095  1.0787 -0.6221  0.3869
 7305TIP3   OH221853   0.968   4.709   3.353 -0.6092 -0.2701  0.0960
 7305TIP3    H121854   0.968   4.722   3.258 -2.5961  0.8147  0.2223
 7305TIP3    H221855   1.019   4.629   3.366  1.2742  0.6094 -1.7225
 7306TIP3   OH221856   1.024   5.481   3.902  0.3573  0.0564 -0.3693
 7306TIP3    H121857   1.046   5.528   3.821  1.3755 -0.7408 -0.5687
 7306TIP3    H221858   1.078   5.402   3.899 -0.3915 -0.5022  0.5802
 7307TIP3   OH221859   2.853   4.425   5.698  0.3867 -0.7726  1.0655
 7307TIP3    H121860   2.834   4.343   5.744 -1.8902 -1.2953 -0.7625
 7307TIP3    H221861   2.948   4.425   5.689  0.5058 -2.7074  1.9793
 7308TIP3   OH221862   8.190   4.462   2.777  0.1525  0.3721  0.6993
 7308TIP3    H121863   8.193   4.493   2.686  0.7093 -0.3477  0.4657
 7308TIP3    H221864   8.102   4.483   2.807  0.4831  2.0990  0.5225
 7309TIP3   OH221865   2.758   4.688   5.742  0.2627  0.2932  0.4195
 7309TIP3    H121866   2.802   4.616   5.699 -0.5655 -0.0827  0.2005
 7309TIP3    H221867   2.699   4.647   5.805  0.6246  0.8042  1.1049
 7310TIP3   OH221868   2.305   2.139   4.492  0.4098 -0.0587  0.3796
 7310TIP3    H121869   2.388   2.120   4.449  0.5102  1.5006 -0.1638
 7310TIP3    H221870   2.326   2.145   4.585  0.5869 -1.3522  0.4253
 7311TIP3   OH221871   4.107   6.456   2.657 -0.8205 -0.0174  0.4244
 7311TIP3    H121872   4.105   6.403   2.736  2.8682 -0.0691  0.5458
 7311TIP3    H221873   4.114   6.546   2.687 -0.4092  0.0417  0.1561
 7312TIP3   OH221874   3.282   3.517   4.575  0.0585  0.2796 -0.0377
 7312TIP3    H121875   3.308   3.425   4.572 -0.4747  0.1254 -0.0847
 7312TIP3    H221876   3.347   3.563   4.521  2.4524  0.4649  2.9206
 7313TIP3   OH221877   1.867   1.334   3.830 -0.0457 -0.1220  0.2037
 7313TIP3    H121878   1.839   1.248   3.859  0.5578 -0.0026  1.1693
 7313TIP3    H221879   1.871   1.328   3.735  1.0391 -1.4794  0.3319
 7314TIP3   OH221880   0.264   5.370   4.741  0.1389 -0.1316 -0.8579
 7314TIP3    H121881   0.302   5.378   4.828  0.2145  1.1069 -0.9970
 7314TIP3    H221882   0.213   5.290   4.744 -2.0706  1.3019  1.1861
 7315TIP3   OH221883   3.764   3.177   4.308  0.1011 -0.2907  0.2043
 7315TIP3    H121884   3.843   3.127   4.288  0.4021  0.5699 -0.7781
 7315TIP3    H221885   3.727   3.133   4.385  0.9723 -1.3219  0.0476
 7316TIP3   OH221886   1.606   4.464   5.136 -0.0807 -0.1650  0.2915
 7316TIP3    H121887   1.511   4.458   5.127 -0.1133 -1.8217  1.3859
 7316TIP3    H221888   1.634   4.525   5.068 -2.0442  1.2289  0.7024
 7317TIP3   OH221889   2.360   3.312   4.545 -0.1145 -0.0897  0.4586
 7317TIP3    H121890   2.455   3.304   4.534 -0.3215 -1.3682 -0.6583
 7317TIP3    H221891   2.325   3.294   4.457 -1.3317  1.5716  0.5967
 7318TIP3   OH221892   2.300   4.314   2.214 -0.1965  0.0189 -0.5667
 7318TIP3    H121893   2.208   4.292   2.227 -0.3846 -0.0913 -1.9561
 7318TIP3    H221894   2.347   4.264   2.280 -1.1942  0.7380  0.7173
 7319TIP3   OH221895   3.166   5.648   3.930  0.4158 -0.2013  0.2072
 7319TIP3    H121896   3.114   5.584   3.880 -1.5548  0.3119  1.5530
 7319TIP3    H221897   3.223   5.594   3.984  0.9295 -0.7888 -0.9044
 7320TIP3   OH221898   1.838   4.419   3.783 -0.7981 -0.2967  0.2711
 7320TIP3    H121899   1.812   4.327   3.774  2.3214 -1.2971  0.8802
 7320TIP3    H221900   1.834   4.435   3.877  0.8847 -0.5286  0.3967
 7321TIP3   OH221901   4.167   6.891   3.656  0.3840  0.7626  0.1423
 7321TIP3    H121902   4.193   6.848   3.574 -0.5596 -0.3007  0.3977
 7321TIP3    H221903   4.159   6.984   3.632 -0.2207  0.4166 -1.0607
 7322TIP3   OH221904   2.017   4.433   4.483 -0.7870  0.1977 -0.2914
 7322TIP3    H121905   2.015   4.520   4.523 -0.1301  0.0981 -0.0436
 7322TIP3    H221906   1.996   4.373   4.555 -2.7604  0.2524 -0.7818
 7323TIP3   OH221907   1.161   2.862   2.379  0.1206 -0.6607 -0.2635
 7323TIP3    H121908   1.145   2.786   2.433 -1.0333 -0.4254 -0.2547
 7323TIP3    H221909   1.194   2.827   2.296  0.7281 -1.0887  0.1612
 7324TIP3   OH221910   3.562   2.843   3.835  0.1573  0.0660  0.5141
 7324TIP3    H121911   3.507   2.918   3.856 -1.4983 -1.5243  2.0020
 7324TIP3    H221912   3.554   2.785   3.911  2.2886 -1.1180 -0.1186
 7325TIP3   OH221913   3.155   5.955   4.831 -0.5665  0.0494  0.0663
 7325TIP3    H121914   3.067   5.925   4.854 -1.0419  0.5616 -1.0576
 7325TIP3    H221915   3.213   5.886   4.864 -1.2632  0.4379  2.2076
 7326TIP3   OH221916   1.870   4.711   6.782 -0.2083 -0.4311  0.5943
 7326TIP3    H121917   1.878   4.676   6.693 -0.8640  0.2028  0.2860
 7326TIP3    H221918   1.879   4.806   6.772 -1.9783 -0.2158  0.9883
 7327TIP3   OH221919   2.594   3.566   5.546  0.4294 -0.7113 -0.8800
 7327TIP3    H121920   2.686   3.591   5.538  0.2968 -0.3132 -1.2006
 7327TIP3    H221921   2.546   3.640   5.509 -0.1971  0.7799  2.6807
 7328TIP3   OH221922   2.992   3.527   4.862  0.0726 -0.1558  0.3000
 7328TIP3    H121923   2.991   3.444   4.909  1.4546 -0.1793  0.3052
 7328TIP3    H221924   3.041   3.586   4.919 -0.5603  0.5507  0.1095
 7329TIP3   OH221925   2.987   2.808   3.417  0.1147 -0.4217  0.2331
 7329TIP3    H121926   3.057   2.757   3.458 -0.2083  0.4353  1.9143
 7329TIP3    H221927   2.951   2.861   3.488 -2.6278 -1.2575 -0.4432
 7330TIP3   OH221928   2.745   2.771   5.402 -0.1512  0.2869  0.2974
 7330TIP3    H121929   2.826   2.720   5.395 -1.0339 -0.9933 -1.2070
 7330TIP3    H221930   2.757   2.843   5.340 -0.7613 -0.8218 -1.1675
 7331TIP3   OH221931   0.954   3.789   5.758  0.2321 -0.0934 -0.2319
 7331TIP3    H121932   0.860   3.791   5.776  0.6152  0.8141  1.7839
 7331TIP3    H221933   0.995   3.782   5.845  1.9764 -2.7483 -1.2088
 7332TIP3   OH221934   4.133   4.632   3.616 -0.1466  0.6677  0.6001
 7332TIP3    H121935   4.126   4.639   3.711  1.0591 -0.0922  0.7566
 7332TIP3    H221936   4.070   4.565   3.592 -0.5485  0.9561  0.8477
 7333TIP3   OH221937   2.644   2.698   6.150 -0.1666  0.1762  0.1286
 7333TIP3    H121938   2.673   2.660   6.233  1.2257 -0.8681 -0.7994
 7333TIP3    H221939   2.719   2.749   6.119 -0.4289  0.0214 -0.7916
 7334TIP3   OH221940   3.525   4.791   2.909  0.2147 -0.1375  0.1317
 7334TIP3    H121941   3.521   4.745   2.993  1.9474  0.2459  0.4382
 7334TIP3    H221942   3.476   4.872   2.923 -2.5522 -1.6671 -0.3035
 7335TIP3   OH221943   0.075   4.392   5.325 -0.5891  0.0050 -0.0829
 7335TIP3    H121944   0.154   4.341   5.345 -1.8324 -1.9710 -0.0258
 7335TIP3    H221945   0.082   4.470   5.380  1.7358  0.2957 -0.7173
 7336TIP3   OH221946   3.482   2.735   4.895 -0.0058  0.7734 -0.1097
 7336TIP3    H121947   3.503   2.702   4.807  0.8960  0.9206  0.0488
 7336TIP3    H221948   3.402   2.689   4.919  1.1180 -1.1671  0.0255
 7337TIP3   OH221949   0.110   3.423   3.142  0.4681 -0.2598 -0.4164
 7337TIP3    H121950   0.195   3.402   3.180 -0.4011 -2.9612  0.0987
 7337TIP3    H221951   0.126   3.428   3.048  1.5991  1.4474 -0.1719
 7338TIP3   OH221952   3.527   4.827   6.124  0.1370  0.3414 -0.7274
 7338TIP3    H121953   3.520   4.899   6.186 -0.7250 -0.6780  0.3911
 7338TIP3    H221954   3.620   4.802   6.126 -0.2977 -1.2989  2.0757
 7339TIP3   OH221955   7.818   4.882   5.349 -0.2034  0.0869 -0.1432
 7339TIP3    H121956   7.847   4.889   5.440 -1.6172  0.2348  0.3066
 7339TIP3    H221957   7.807   4.973   5.322  2.8411  0.1689 -1.3605
 7340TIP3   OH221958   3.080   2.549   5.440  0.2043 -0.2940 -0.0660
 7340TIP3    H121959   3.144   2.487   5.405  1.6790  1.8387 -1.2544
 7340TIP3    H221960   3.019   2.495   5.489  0.2904 -2.9581 -2.7339
 7341TIP3   OH221961   2.536   3.482   6.382  0.1019  0.5419  0.4668
 7341TIP3    H121962   2.596   3.525   6.442 -1.0813  0.8084  1.4881
 7341TIP3    H221963   2.515   3.398   6.423  1.4184 -0.4860 -0.9129
 7342TIP3   OH221964   3.462   2.353   3.230 -0.3563 -0.0224  0.5675
 7342TIP3    H121965   3.541   2.323   3.274 -0.9176 -1.8176  0.4062
 7342TIP3    H221966   3.474   2.326   3.139 -2.6678 -3.5906  1.1999
 7343TIP3   OH221967   8.111   3.653   2.918  0.8861 -0.1155 -0.0345
 7343TIP3    H121968   8.165   3.731   2.904 -1.4592  1.3379 -1.4233
 7343TIP3    H221969   8.040   3.663   2.855 -0.2626 -2.6588  0.8213
 7344TIP3   OH221970   2.173   4.811   4.841  0.6434  0.1388  0.3444
 7344TIP3    H121971   2.201   4.779   4.926 -3.0069 -1.2234  1.1576
 7344TIP3    H221972   2.134   4.897   4.859  1.0310  0.4267 -0.1691
 7345TIP3   OH221973   8.117   3.826   2.441 -0.5800 -0.7555  0.8196
 7345TIP3    H121974   8.188   3.783   2.392  1.7448  1.6551  1.9836
 7345TIP3    H221975   8.070   3.876   2.375  0.7938  0.2068  0.5499
 7346TIP3   OH221976   2.754   1.088   3.957 -0.0298  0.5617 -0.7073
 7346TIP3    H121977   2.676   1.139   3.935  0.2824  1.6161  0.6060
 7346TIP3    H221978   2.804   1.144   4.015  0.0331 -1.4656  1.2710
 7347TIP3   OH221979   3.063   3.439   6.115  0.6473  0.1527 -0.3378
 7347TIP3    H121980   2.992   3.466   6.173  1.4082 -0.3669  0.8481
 7347TIP3    H221981   3.128   3.510   6.122  1.2092 -0.4127  0.2812
 7348TIP3   OH221982   2.610   3.520   4.600  0.2991 -0.2386 -0.3031
 7348TIP3    H121983   2.622   3.428   4.579 -0.5925 -0.1046 -1.4421
 7348TIP3    H221984   2.614   3.565   4.516 -0.9836  0.5742  0.0502
 7349TIP3   OH221985   0.378   3.486   6.134  0.3147  0.3462 -0.0505
 7349TIP3    H121986   0.395   3.494   6.040 -0.2182  1.7673 -0.0253
 7349TIP3    H221987   0.462   3.507   6.175  1.3147 -2.8646 -0.2540
 7350TIP3   OH221988   1.614   4.031   5.161 -0.5670  0.7624 -0.6003
 7350TIP3    H121989   1.649   3.943   5.149 -0.7094  0.4880  0.8978
 7350TIP3    H221990   1.655   4.062   5.242 -1.6443  1.5093 -0.3358
 7351TIP3   OH221991   2.509   4.770   5.133 -0.6038 -0.3470 -0.3185
 7351TIP3    H121992   2.590   4.818   5.153 -0.5759 -0.0383 -1.1525
 7351TIP3    H221993   2.537   4.680   5.119 -0.5246 -0.4178  0.2537
 7352TIP3   OH221994   3.486   1.498   4.239  0.4512  0.1015  0.2297
 7352TIP3    H121995   3.458   1.537   4.156 -0.2533  0.5158  0.6571
 7352TIP3    H221996   3.526   1.570   4.287 -1.3966  0.4883  1.2733
 7353TIP3   OH221997   1.837   2.714   5.703 -0.0840  0.6722 -0.2648
 7353TIP3    H121998   1.787   2.645   5.748  0.3031  0.5009 -0.0937
 7353TIP3    H221999   1.880   2.762   5.773  0.7828  0.1993 -0.4715
 7354TIP3   OH222000   3.234   3.488   3.512 -0.1538 -0.6796 -0.7857
 7354TIP3    H122001   3.292   3.516   3.441  1.4703 -1.0157  0.3764
 7354TIP3    H222002   3.293   3.448   3.576 -1.6383 -0.6781  0.5985
 7355TIP3   OH222003   2.768   2.405   6.255 -0.0003  0.2840  0.1516
 7355TIP3    H122004   2.863   2.396   6.245  0.3203  1.8651  1.5144
 7355TIP3    H222005   2.734   2.317   6.245  1.8609 -0.7005  2.1617
 7356TIP3   OH222006   4.868   4.128   3.575  0.2861 -0.1239 -0.2483
 7356TIP3    H122007   4.837   4.045   3.539  0.5120 -0.6306  0.6913
 7356TIP3    H222008   4.797   4.158   3.632 -0.4526  1.1307 -1.7982
 7357TIP3   OH222009   4.975   3.080   4.335  0.0987  0.1901  0.5649
 7357TIP3    H122010   4.902   3.139   4.314  0.1009 -0.4203 -1.2533
 7357TIP3    H222011   5.050   3.138   4.345 -0.0818  0.5990 -0.3511
 7358TIP3   OH222012   2.754   3.945   5.601 -0.1247 -0.3671  0.1606
 7358TIP3    H122013   2.781   4.026   5.645 -2.0052 -0.2095  1.0311
 7358TIP3    H222014   2.812   3.940   5.524 -0.0147  1.8289  0.0614
 7359TIP3   OH222015   0.709   3.040   5.616 -0.3714  0.4126 -0.0782
 7359TIP3    H122016   0.759   2.987   5.554 -0.2587 -0.4138  0.7163
 7359TIP3    H222017   0.630   3.064   5.567 -0.6610 -0.9086 -0.2862
 7360TIP3   OH222018   0.218   3.333   5.656  0.0519  0.1928  0.0626
 7360TIP3    H122019   0.232   3.409   5.599  1.2982 -1.0733 -1.3366
 7360TIP3    H222020   0.153   3.280   5.610  1.3639 -1.0348 -0.4176
 7361TIP3   OH222021   4.326   3.521   3.244 -0.1579 -0.0602 -0.5418
 7361TIP3    H122022   4.314   3.452   3.178 -0.2124 -1.6598  1.0934
 7361TIP3    H222023   4.260   3.587   3.221 -1.5080 -1.5045 -0.9374
 7362TIP3   OH222024   1.905   3.355   2.326 -0.0609 -0.0644 -0.7581
 7362TIP3    H122025   1.924   3.287   2.261  0.8495  0.0544 -0.6238
 7362TIP3    H222026   1.843   3.313   2.386  0.6707 -0.8632 -0.5452
 7363TIP3   OH222027   3.087   7.697   5.886  0.0259  0.1407 -0.0300
 7363TIP3    H122028   3.177   7.697   5.919  0.3728  0.4968 -0.9586
 7363TIP3    H222029   3.051   7.782   5.914  0.4249  0.5820 -0.8333
 7364TIP3   OH222030   3.141   4.464   4.144  0.4672 -0.1881  0.5639
 7364TIP3    H122031   3.060   4.420   4.168  0.6859 -0.9560 -0.0570
 7364TIP3    H222032   3.209   4.398   4.159  0.8396  0.0565 -0.0094
 7365TIP3   OH222033   2.510   3.370   2.355  0.1230 -0.1456 -0.1188
 7365TIP3    H122034   2.551   3.442   2.308 -2.0190  2.1574  1.4014
 7365TIP3    H222035   2.450   3.413   2.417 -0.8312 -3.2134  1.1790
 7366TIP3   OH222036   0.438   5.078   4.623 -0.3556  0.5814 -0.7722
 7366TIP3    H122037   0.380   5.132   4.569 -1.7116  0.7442  0.7944
 7366TIP3    H222038   0.490   5.140   4.674  0.3998  0.4284 -1.3528
 7367TIP3   OH222039   1.531   4.828   5.253  0.2410  0.1713  0.1620
 7367TIP3    H122040   1.576   4.749   5.223  0.4185  0.7475 -1.1240
 7367TIP3    H222041   1.545   4.892   5.183 -0.5368  1.1116  0.8478
 7368TIP3   OH222042   2.143   5.450   3.299  0.4977  0.6889  0.4318
 7368TIP3    H122043   2.236   5.430   3.284  0.3218 -0.1255  0.4400
 7368TIP3    H222044   2.123   5.408   3.382 -0.1259  0.0871 -0.0244
 7369TIP3   OH222045   5.154   3.143   3.622  0.4509  0.2626  0.0341
 7369TIP3    H122046   5.158   3.162   3.528  0.3225  0.4666  0.0694
 7369TIP3    H222047   5.072   3.095   3.634 -0.0368  1.1193  0.1957
 7370TIP3   OH222048   1.804   4.503   4.042  0.2777  0.8345 -0.3191
 7370TIP3    H122049   1.822   4.434   4.107  0.4171 -1.0121 -2.2512
 7370TIP3    H222050   1.728   4.549   4.077 -0.8104 -1.3203  0.2669
 7371TIP3   OH222051   3.687   3.485   2.553 -0.5908 -0.2348 -0.3173
 7371TIP3    H122052   3.713   3.574   2.577 -0.1818 -0.5504  0.4241
 7371TIP3    H222053   3.758   3.430   2.585 -1.8344 -1.0475  1.1062
 7372TIP3   OH222054   3.401   3.620   4.128 -0.3640 -0.4242 -0.4833
 7372TIP3    H122055   3.356   3.677   4.190 -0.2682 -0.6236 -0.2323
 7372TIP3    H222056   3.430   3.545   4.180  0.1587 -0.3495 -0.6645
 7373TIP3   OH222057   8.299   4.471   3.243  0.5093 -0.1742 -0.4375
 7373TIP3    H122058   8.324   4.542   3.184 -1.1948  1.3270  0.5993
 7373TIP3    H222059   8.358   4.480   3.318  0.0231  0.4597 -0.1152
 7374TIP3   OH222060   2.109   5.360   4.797 -0.3947  0.3648 -0.3271
 7374TIP3    H122061   2.158   5.425   4.848 -0.2509  0.3826 -0.4914
 7374TIP3    H222062   2.175   5.311   4.749 -0.3055 -1.3549  1.4595
 7375TIP3   OH222063   1.290   4.700   5.352 -0.0572 -0.4285  0.6665
 7375TIP3    H122064   1.346   4.765   5.310 -0.8881 -0.1139  0.0221
 7375TIP3    H222065   1.213   4.696   5.295 -1.4554  0.4031  2.4663
 7376TIP3   OH222066   2.845   3.059   4.340  0.2970 -0.3719 -0.2365
 7376TIP3    H122067   2.931   3.100   4.333  0.4860 -0.9355 -1.3297
 7376TIP3    H222068   2.787   3.129   4.369  1.3553 -0.2894  1.8161
 7377TIP3   OH222069   3.011   1.419   3.900 -0.1375  0.1206 -0.5831
 7377TIP3    H122070   2.977   1.381   3.981  0.7654  0.5419 -0.0002
 7377TIP3    H222071   3.057   1.347   3.857 -0.4026 -0.0391 -0.5948
 7378TIP3   OH222072   0.851   5.826   4.455 -0.3398 -0.0452 -0.1513
 7378TIP3    H122073   0.843   5.828   4.550 -1.2742  0.3963 -0.2371
 7378TIP3    H222074   0.942   5.851   4.438  0.3480 -1.8636  0.6900
 7379TIP3   OH222075   2.295   4.597   4.274 -0.3341  0.2563  0.2427
 7379TIP3    H122076   2.385   4.628   4.261 -0.7094  1.2004 -0.1369
 7379TIP3    H222077   2.289   4.519   4.220  0.3592 -0.0141  0.5354
 7380TIP3   OH222078   1.393   2.483   4.545 -0.0432 -0.1127  0.0812
 7380TIP3    H122079   1.377   2.399   4.589 -1.4172 -1.1481 -2.2782
 7380TIP3    H222080   1.486   2.481   4.523 -0.1328 -1.1551 -0.2399
 7381TIP3   OH222081   3.306   4.671   4.239 -0.3429 -0.1973  0.0204
 7381TIP3    H122082   3.232   4.616   4.211 -0.1315 -1.0477  1.0893
 7381TIP3    H222083   3.383   4.627   4.205 -0.1753 -0.5528  0.8395
 7382TIP3   OH222084   7.337   3.955   5.295  0.1248 -0.1225  0.2288
 7382TIP3    H122085   7.314   4.001   5.215  0.4052 -0.2183  0.0912
 7382TIP3    H222086   7.269   3.889   5.305 -1.6119  1.8328  1.7067
 7383TIP3   OH222087   0.969   4.156   4.367 -0.1384  0.1348 -0.3160
 7383TIP3    H122088   0.896   4.218   4.378  2.4581  3.1696  0.6371
 7383TIP3    H222089   1.032   4.203   4.311  1.7251 -1.8411  0.0644
 7384TIP3   OH222090   2.525   1.352   4.684 -0.1522  0.5319  0.5751
 7384TIP3    H122091   2.463   1.361   4.611  0.0299  1.8686  0.5826
 7384TIP3    H222092   2.552   1.260   4.681  0.4860  0.7575 -1.5870
 7385TIP3   OH222093   1.950   3.182   5.542 -0.1832  0.2020 -0.9040
 7385TIP3    H122094   1.898   3.174   5.461 -0.5221 -2.3661 -0.4804
 7385TIP3    H222095   1.886   3.204   5.609 -0.3403 -0.3361 -0.8692
 7386TIP3   OH222096   1.529   3.904   5.495  0.2534  0.6448 -0.3701
 7386TIP3    H122097   1.549   3.819   5.456 -0.7752  1.0727 -1.8809
 7386TIP3    H222098   1.595   3.963   5.460  1.5255  0.3202  1.3869
 7387TIP3   OH222099   1.921   3.287   5.144 -0.5552  0.8855 -0.3543
 7387TIP3    H122100   1.895   3.208   5.189  0.1361  1.2676  0.7284
 7387TIP3    H222101   1.878   3.358   5.192  2.6912  1.5620  1.7134
 7388TIP3   OH222102   2.177   2.326   4.680  0.1630  0.4475  0.1286
 7388TIP3    H122103   2.163   2.361   4.592  0.7182 -1.1917 -0.6250
 7388TIP3    H222104   2.173   2.403   4.737 -0.1423  1.5329 -1.3264
 7389TIP3   OH222105   8.408   4.364   3.862 -0.1960 -0.6684 -0.1448
 7389TIP3    H122106   8.405   4.459   3.851  1.6135 -0.4110  1.3315
 7389TIP3    H222107   8.350   4.347   3.936 -0.8850 -0.7804 -0.7023
 7390TIP3   OH222108   3.230   4.703   3.636  0.0992  0.1487 -0.2507
 7390TIP3    H122109   3.242   4.609   3.626  0.5195 -0.0131  1.6828
 7390TIP3    H222110   3.250   4.739   3.549  0.3396 -1.4923 -0.8901
 7391TIP3   OH222111   8.298   2.161   5.777  0.1206  0.3382 -0.3942
 7391TIP3    H122112   8.281   2.196   5.690  0.2149 -1.3177 -1.0827
 7391TIP3    H222113   8.355   2.085   5.763  1.9179  1.3195  1.2756
 7392TIP3   OH222114   3.654   6.673   1.064 -0.2844 -0.1228 -0.2884
 7392TIP3    H122115   3.675   6.685   1.157  0.9871 -0.9566 -0.4585
 7392TIP3    H222116   3.733   6.698   1.018  0.0347 -2.3556 -1.0014
 7393TIP3   OH222117   1.260   1.703   2.286  0.1467 -0.2667 -0.4627
 7393TIP3    H122118   1.346   1.676   2.254  0.3002 -0.3570  0.0183
 7393TIP3    H222119   1.240   1.640   2.355 -0.3783 -0.3403 -0.6816
 7394TIP3   OH222120   7.853   6.771   3.672 -0.0461 -0.4098 -0.0411
 7394TIP3    H122121   7.891   6.711   3.736  2.6936  0.2751 -0.9180
 7394TIP3    H222122   7.866   6.727   3.588  0.0229  0.4382 -0.4840
 7395TIP3   OH222123   2.348   3.432   4.000  0.2817  0.6692 -0.1818
 7395TIP3    H122124   2.403   3.486   3.943  0.5798  1.2793  0.6769
 7395TIP3    H222125   2.276   3.405   3.944  0.8542  0.8108 -1.0062
 7396TIP3   OH222126   3.563   3.784   3.156  0.4977 -0.0689 -0.2086
 7396TIP3    H122127   3.591   3.712   3.099  0.5752 -1.4186  1.4703
 7396TIP3    H222128   3.471   3.799   3.133  0.4504 -0.7843 -0.4997
 7397TIP3   OH222129   3.553   2.211   4.168 -0.5048 -0.4538  0.7268
 7397TIP3    H122130   3.504   2.202   4.087 -0.7956 -0.3633  0.8923
 7397TIP3    H222131   3.486   2.216   4.236 -0.3557  3.0093  0.6606
 7398TIP3   OH222132   7.525   4.382   3.537 -0.0751  0.1910 -0.5191
 7398TIP3    H122133   7.511   4.287   3.542  0.8011 -0.0610 -2.4842
 7398TIP3    H222134   7.619   4.392   3.546 -0.1050  0.8293 -0.9182
 7399TIP3   OH222135   0.991   3.731   4.629  0.1413  0.2497 -0.2122
 7399TIP3    H122136   0.918   3.789   4.608  0.4524  0.9981  0.7151
 7399TIP3    H222137   0.952   3.644   4.637 -0.8628  0.8289  1.4818
 7400TIP3   OH222138   6.317   0.402   5.451  0.4781 -0.4569 -0.3482
 7400TIP3    H122139   6.374   0.469   5.412  1.4405 -0.7463  0.5635
 7400TIP3    H222140   6.238   0.403   5.396  0.0149  2.1986  0.3071
 7401TIP3   OH222141   1.142   5.019   3.784  0.0160 -0.2203 -0.7647
 7401TIP3    H122142   1.178   5.076   3.716 -2.4613  0.7851 -1.2908
 7401TIP3    H222143   1.065   5.066   3.817 -0.5134 -2.0300  0.7040
 7402TIP3   OH222144   2.559   5.699   5.613 -0.2676  0.6796 -0.5853
 7402TIP3    H122145   2.600   5.777   5.652  0.3714  0.7855 -1.4540
 7402TIP3    H222146   2.586   5.627   5.671 -0.4964  1.0361 -0.0295
 7403TIP3   OH222147   3.068   3.855   3.957  0.0474  0.2329 -0.0022
 7403TIP3    H122148   3.164   3.858   3.959  0.0857 -0.8251  0.0165
 7403TIP3    H222149   3.041   3.888   4.042  0.3895  0.7304 -0.0856
 7404TIP3   OH222150   2.478   3.006   4.468  0.3447 -0.2453 -0.4634
 7404TIP3    H122151   2.563   3.045   4.448  0.0276  0.1395 -1.0717
 7404TIP3    H222152   2.415   3.065   4.428 -0.3066  0.4396  1.5503
 7405TIP3   OH222153   7.486   4.088   3.490 -0.5261  0.1450  0.4817
 7405TIP3    H122154   7.547   4.030   3.536 -1.2279 -0.1555  1.0436
 7405TIP3    H222155   7.412   4.098   3.550 -1.8164 -0.8767 -0.8830
 7406TIP3   OH222156   2.572   4.608   5.929  0.4253  0.1624  0.3137
 7406TIP3    H122157   2.522   4.530   5.953 -0.1329 -0.3206 -2.3246
 7406TIP3    H222158   2.510   4.664   5.882  1.9645  0.1773 -1.7659
 7407TIP3   OH222159   3.679   3.529   1.811  0.1170  0.3472  0.3201
 7407TIP3    H122160   3.630   3.487   1.739  0.0591  1.7827 -0.4965
 7407TIP3    H222161   3.612   3.570   1.865  0.2727  0.4990  0.3970
 7408TIP3   OH222162   2.136   2.944   5.187 -0.2700  0.1478 -0.3431
 7408TIP3    H122163   2.124   2.894   5.107  0.4212 -0.2294 -0.2191
 7408TIP3    H222164   2.061   2.922   5.241 -0.1087 -0.5475 -0.3971
 7409TIP3   OH222165   1.570   5.375   4.758 -0.8159  0.4365 -0.0467
 7409TIP3    H122166   1.665   5.374   4.769 -0.3533  3.2971 -2.9925
 7409TIP3    H222167   1.536   5.356   4.846  2.4223 -1.3573  0.9185
 7410TIP3   OH222168   3.932   1.953   5.517 -0.2072  0.0645  0.5771
 7410TIP3    H122169   3.892   2.001   5.589 -0.3672 -1.2752  1.3928
 7410TIP3    H222170   4.017   1.995   5.505 -1.0874  1.7414  0.0420
 7411TIP3   OH222171   1.562   2.525   4.830  0.6078 -0.0240 -0.7548
 7411TIP3    H122172   1.488   2.579   4.801 -0.1890 -0.0765  1.0589
 7411TIP3    H222173   1.534   2.435   4.812 -0.1500 -0.0947  0.6802
 7412TIP3   OH222174   7.113   2.511   2.769  0.0492  0.9287  0.3183
 7412TIP3    H122175   7.203   2.479   2.766 -0.6691 -1.0731 -0.4557
 7412TIP3    H222176   7.095   2.523   2.862  1.0691  1.2888  0.4856
 7413TIP3   OH222177   2.378   4.356   5.626  0.2244  0.0982  0.5141
 7413TIP3    H122178   2.293   4.316   5.644  0.8427 -1.7797 -0.5349
 7413TIP3    H222179   2.428   4.287   5.582  1.9753  1.4668  0.2843
 7414TIP3   OH222180   5.237   2.318   3.160 -0.0407  0.8560 -0.4099
 7414TIP3    H122181   5.220   2.412   3.161 -1.5232  0.5961  0.6077
 7414TIP3    H222182   5.161   2.279   3.203  0.6876 -0.7913 -0.5589
 7415TIP3   OH222183   7.234   1.155   0.404  0.9554  0.5068  0.2086
 7415TIP3    H122184   7.254   1.237   0.448  1.4086  0.0319  0.8842
 7415TIP3    H222185   7.211   1.181   0.315 -1.2611  1.5948  1.0598
 7416TIP3   OH222186   0.926   3.991   4.891  0.2924  0.3561  0.1522
 7416TIP3    H122187   0.890   3.955   4.810 -0.1180  2.7309 -0.7891
 7416TIP3    H222188   1.015   3.956   4.895 -0.3482 -1.3671 -0.2635
 7417TIP3   OH222189   3.271   1.998   4.147  0.0895  0.0275 -0.6606
 7417TIP3    H122190   3.209   1.950   4.202  1.8435 -0.2610  1.1435
 7417TIP3    H222191   3.304   1.933   4.085  0.3318 -0.4102 -0.0776
 7418TIP3   OH222192   4.769   7.126   4.064  0.4033 -0.2643 -0.4619
 7418TIP3    H122193   4.700   7.167   4.012 -0.3431 -0.7380  0.1427
 7418TIP3    H222194   4.728   7.048   4.101  1.3724 -0.7480 -0.3820
 7419TIP3   OH222195   3.468   4.254   6.823 -0.5865 -0.4676  0.2900
 7419TIP3    H122196   3.535   4.305   6.867 -0.5308 -0.4868  0.2284
 7419TIP3    H222197   3.417   4.214   6.893 -1.4054  0.6788  0.3643
 7420TIP3   OH222198   3.168   5.425   6.219 -0.3535 -0.1918  0.2034
 7420TIP3    H122199   3.245   5.441   6.273 -0.8337 -1.3855  1.2635
 7420TIP3    H222200   3.168   5.331   6.203 -2.1609 -0.3681  1.0930
 7421TIP3   OH222201   1.535   3.988   4.328 -0.2773 -0.4388  0.4505
 7421TIP3    H122202   1.528   4.010   4.421  1.1763  2.2691 -0.0282
 7421TIP3    H222203   1.503   4.066   4.283 -2.3293 -2.2503 -1.3706
 7422TIP3   OH222204   2.114   2.538   5.602  0.1118  0.3036 -0.1647
 7422TIP3    H122205   2.067   2.498   5.675  0.6761 -0.5096 -0.2505
 7422TIP3    H222206   2.155   2.616   5.641 -1.3131  1.0289 -0.0983
 7423TIP3   OH222207   2.710   4.253   6.019 -0.7278  0.5415 -0.1437
 7423TIP3    H122208   2.652   4.325   5.996 -1.4695 -0.4088 -1.3244
 7423TIP3    H222209   2.657   4.196   6.074  0.4304  1.8042  2.3301
 7424TIP3   OH222210   2.466   2.245   5.876  0.6205 -0.3978 -0.5830
 7424TIP3    H122211   2.470   2.156   5.909 -1.9296 -0.5547 -0.6148
 7424TIP3    H222212   2.385   2.248   5.825  0.3599  2.0974 -0.0696
 7425TIP3   OH222213   1.800   2.488   4.737 -0.0352 -0.4294  0.6024
 7425TIP3    H122214   1.722   2.520   4.784 -0.8971 -0.3085 -0.8817
 7425TIP3    H222215   1.794   2.392   4.744  0.5929 -0.3937  1.9063
 7426TIP3   OH222216   2.069   2.941   4.555  0.3922 -0.6251  0.0465
 7426TIP3    H122217   2.097   2.997   4.483 -0.2176 -0.6072 -0.1832
 7426TIP3    H222218   2.066   2.999   4.631  1.9257 -0.8490  0.2857
 7427TIP3   OH222219   3.006   1.640   6.236 -0.4164 -0.6060  0.2949
 7427TIP3    H122220   3.042   1.712   6.287 -0.4983 -0.6461  0.4099
 7427TIP3    H222221   2.911   1.646   6.251 -0.6230  0.4890 -1.2890
 7428TIP3   OH222222   0.418   3.027   5.825  0.0141 -0.4174 -0.2543
 7428TIP3    H122223   0.446   3.074   5.746 -0.9539  2.0290  0.8093
 7428TIP3    H222224   0.489   3.041   5.888 -0.4874  0.0020  0.2188
 7429TIP3   OH222225   2.074   2.549   4.802 -0.0138 -0.0336  0.5436
 7429TIP3    H122226   1.980   2.531   4.810  0.0810 -0.3449  0.9771
 7429TIP3    H222227   2.082   2.600   4.721 -0.5559 -0.0086  0.5040
 7430TIP3   OH222228   5.274   6.103   3.183  0.1198  0.0012  0.1420
 7430TIP3    H122229   5.352   6.124   3.235 -0.3998  1.9356  0.1886
 7430TIP3    H222230   5.237   6.025   3.225  0.9013  0.2644  1.3484
 7431TIP3   OH222231   0.692   5.778   4.223 -0.3744  0.5426 -0.3536
 7431TIP3    H122232   0.756   5.720   4.183 -0.0066  0.9006 -0.2874
 7431TIP3    H222233   0.740   5.821   4.294 -0.6640  0.8730 -0.3588
 7432TIP3   OH222234   3.663   6.323   5.154 -0.5489  0.3209 -0.4946
 7432TIP3    H122235   3.616   6.240   5.147 -0.3184  0.1560 -0.0939
 7432TIP3    H222236   3.627   6.364   5.233  0.2031  0.0505 -0.0083
 7433TIP3   OH222237   1.101   4.344   3.892  0.5948 -0.2370  0.4367
 7433TIP3    H122238   1.188   4.310   3.870  1.3819  0.3279  2.5494
 7433TIP3    H222239   1.101   4.433   3.857  0.5214 -0.5572 -0.3821
 7434TIP3   OH222240   4.279   3.895   1.764  0.2283  0.2719 -0.4481
 7434TIP3    H122241   4.236   3.910   1.848  0.8958  0.3159 -0.1069
 7434TIP3    H222242   4.225   3.829   1.720 -0.6587  0.9504 -0.3941
 7435TIP3   OH222243   3.828   4.952   3.430 -0.1560  0.1553  0.6109
 7435TIP3    H122244   3.889   4.974   3.360 -0.5357  0.7109  0.4602
 7435TIP3    H222245   3.881   4.958   3.510  0.5725 -1.6069  0.2817
 7436TIP3   OH222246   2.401   4.456   3.325 -0.4344  0.1529 -0.3759
 7436TIP3    H122247   2.396   4.466   3.420  0.8587 -1.0738 -0.1652
 7436TIP3    H222248   2.444   4.372   3.312  0.6737  0.9597 -2.0552
 7437TIP3   OH222249   0.257   4.112   3.301 -0.0265  0.9166  0.1973
 7437TIP3    H122250   0.316   4.103   3.226 -0.0439  1.0330  0.1695
 7437TIP3    H222251   0.170   4.094   3.266  0.3011 -2.0631  0.8157
 7438TIP3   OH222252   1.516   1.243   4.574  0.3733 -0.8269 -0.2214
 7438TIP3    H122253   1.606   1.273   4.581  0.4107 -0.6486 -1.3514
 7438TIP3    H222254   1.495   1.252   4.481  0.0089 -3.1557 -0.4056
 7439TIP3   OH222255   4.703   4.723   3.954 -0.4239  0.3929 -0.1482
 7439TIP3    H122256   4.769   4.784   3.920 -1.1899  0.0330 -2.4008
 7439TIP3    H222257   4.619   4.761   3.927 -0.9252 -1.3659 -1.1424
 7440TIP3   OH222258   3.573   6.389   5.738 -0.5556 -0.3949  0.7380
 7440TIP3    H122259   3.571   6.472   5.785  0.0330  0.5611 -0.8880
 7440TIP3    H222260   3.484   6.354   5.748 -0.5652  0.0010  2.1445
 7441TIP3   OH222261   2.776   3.732   4.904 -0.0974 -0.2566 -0.4948
 7441TIP3    H122262   2.850   3.791   4.915 -0.6181  0.6004 -1.5235
 7441TIP3    H222263   2.814   3.653   4.864  0.4294 -0.2370 -0.0347
 7442TIP3   OH222264   2.866   3.131   3.394  0.1225 -0.0570  0.0256
 7442TIP3    H122265   2.948   3.170   3.425  0.7514  0.1873 -1.9031
 7442TIP3    H222266   2.849   3.059   3.455  1.8752 -0.2444  0.3087
 7443TIP3   OH222267   3.851   1.447   4.138 -0.2123  0.0158  0.1306
 7443TIP3    H122268   3.839   1.444   4.233 -1.1936 -0.2931 -0.0051
 7443TIP3    H222269   3.886   1.534   4.121  0.6108 -0.1638  0.8456
 7444TIP3   OH222270   2.161   3.240   6.040  0.1437 -0.0920  0.1638
 7444TIP3    H122271   2.207   3.203   6.115 -0.3773 -1.4418 -0.1722
 7444TIP3    H222272   2.230   3.258   5.976  0.3121 -1.2876  0.0015
 7445TIP3   OH222273   5.079   5.529   4.272  0.0828  0.4053 -0.0616
 7445TIP3    H122274   5.124   5.484   4.344 -1.1842  0.4513  0.7806
 7445TIP3    H222275   5.078   5.621   4.299  3.1228  1.0887 -2.0153
 7446TIP3   OH222276   0.670   3.329   6.216  0.2187 -0.2366  0.1339
 7446TIP3    H122277   0.648   3.263   6.281  0.5939 -2.0495 -1.5317
 7446TIP3    H222278   0.716   3.397   6.265 -0.6047 -0.9740  1.9572
 7447TIP3   OH222279   4.672   6.980   0.525 -0.3422 -0.0978  0.1683
 7447TIP3    H122280   4.595   7.033   0.506 -1.0114 -1.2890 -0.4571
 7447TIP3    H222281   4.723   6.982   0.444 -0.0520  0.1037  0.3527
 7448TIP3   OH222282   2.814   4.614   6.645  0.3474 -0.2615 -0.0762
 7448TIP3    H122283   2.800   4.613   6.550  1.3292  1.8478 -0.2778
 7448TIP3    H222284   2.728   4.595   6.682 -0.1417 -0.6830 -1.3880
 7449TIP3   OH222285   2.867   2.477   4.182 -0.0158  0.6995  0.0416
 7449TIP3    H122286   2.839   2.445   4.097  0.3475  2.0363 -0.6059
 7449TIP3    H222287   2.936   2.541   4.162  0.3519  0.7350  1.3535
 7450TIP3   OH222288   0.823   0.333   6.260  0.0180 -0.1403 -0.0719
 7450TIP3    H122289   0.738   0.292   6.241  0.5665 -0.8796 -0.9733
 7450TIP3    H222290   0.877   0.312   6.184  0.9750  0.4365  0.4412
 7451TIP3   OH222291   0.875   3.461   4.103 -0.0510  1.2304  0.3328
 7451TIP3    H122292   0.941   3.423   4.162 -0.7905  1.9213  1.6241
 7451TIP3    H222293   0.887   3.555   4.111 -1.0021  1.3535  0.3434
 7452TIP3   OH222294   1.141   4.077   6.272  0.4813  0.0795 -0.3624
 7452TIP3    H122295   1.110   4.123   6.194  1.3287  1.1475 -0.0844
 7452TIP3    H222296   1.212   4.132   6.305  2.1035 -1.8999 -0.5174
 7453TIP3   OH222297   2.693   5.025   5.212  0.1279 -0.2736 -0.1356
 7453TIP3    H122298   2.669   5.105   5.166 -0.7797 -0.3611  0.1741
 7453TIP3    H222299   2.785   5.012   5.192 -0.2999 -0.4133 -2.1113
 7454TIP3   OH222300   1.461   6.239   3.984 -0.1441 -0.1456 -0.1749
 7454TIP3    H122301   1.531   6.235   4.048  2.3499  0.4784 -2.7603
 7454TIP3    H222302   1.487   6.177   3.916 -1.6765  0.7406 -1.6119
 7455TIP3   OH222303   2.115   4.277   5.669 -0.1818 -0.1246 -0.1007
 7455TIP3    H122304   2.049   4.332   5.626  0.8956  1.3273  0.0628
 7455TIP3    H222305   2.103   4.294   5.762  0.3881  0.1210 -0.0670
 7456TIP3   OH222306   1.080   4.248   4.986  0.0138 -0.5842 -0.2085
 7456TIP3    H122307   1.038   4.277   5.067 -0.0844 -0.5256 -0.2805
 7456TIP3    H222308   1.035   4.166   4.965  0.3157 -0.8087  0.0146
 7457TIP3   OH222309   1.996   3.982   4.348  0.0093 -0.1261 -0.0091
 7457TIP3    H122310   1.920   3.947   4.393 -0.6698  1.7615  0.3830
 7457TIP3    H222311   2.017   3.918   4.280 -0.2697 -1.9660  1.5893
 7458TIP3   OH222312   1.673   3.125   3.633  0.4762 -0.3124 -0.3704
 7458TIP3    H122313   1.626   3.176   3.699  0.3103 -0.6613 -0.2164
 7458TIP3    H222314   1.754   3.174   3.618 -0.0042  0.3697 -0.7531
 7459TIP3   OH222315   1.036   5.048   3.250 -0.1560  0.2763  0.4190
 7459TIP3    H122316   1.055   4.980   3.315 -0.9451  1.8640  2.3915
 7459TIP3    H222317   0.978   5.109   3.296  0.5188  2.2737 -1.2980
 7460TIP3   OH222318   2.776   6.124   6.835  0.1059  0.1289 -0.2570
 7460TIP3    H122319   2.709   6.191   6.844  0.5213  0.3937  0.9869
 7460TIP3    H222320   2.730   6.041   6.847 -0.2407  0.2432 -0.8178
 7461TIP3   OH222321   2.966   3.341   4.539  0.2785 -0.3658  0.0110
 7461TIP3    H122322   2.874   3.315   4.534 -0.0790  1.0915 -1.8212
 7461TIP3    H222323   2.963   3.432   4.570  1.1002 -0.4086  0.2046
 7462TIP3   OH222324   3.938   3.324   3.451  0.4938  0.6426 -0.0706
 7462TIP3    H122325   3.932   3.235   3.417  0.8217  0.2446  0.8877
 7462TIP3    H222326   3.983   3.315   3.535  0.0660  1.6424  0.2846
 7463TIP3   OH222327   2.127   4.212   4.320 -0.6537 -0.0377 -0.1257
 7463TIP3    H122328   2.086   4.138   4.364 -1.7240  0.6726  0.0861
 7463TIP3    H222329   2.119   4.284   4.383  0.1499  0.3262 -0.4318
 7464TIP3   OH222330   2.459   4.171   5.263  0.0864  0.1947 -0.0596
 7464TIP3    H122331   2.513   4.101   5.225  0.6047  0.2217  0.6310
 7464TIP3    H222332   2.491   4.181   5.352 -1.2044  0.0703  0.4227
 7465TIP3   OH222333   3.956   5.551   3.995 -0.0939  0.4579  0.0123
 7465TIP3    H122334   4.048   5.545   4.020 -0.1074 -0.2443 -0.1181
 7465TIP3    H222335   3.946   5.489   3.923 -1.5179 -2.2714  2.4716
 7466TIP3   OH222336   1.321   3.701   5.473 -0.2366  0.0850 -0.2868
 7466TIP3    H122337   1.233   3.739   5.465 -0.8101 -1.2856 -0.8116
 7466TIP3    H222338   1.374   3.770   5.513 -1.1042  1.5859 -1.6896
 7467TIP3   OH222339   3.873   5.722   4.678  0.6075 -0.1438  0.5040
 7467TIP3    H122340   3.811   5.672   4.626 -0.6831  0.5638  1.3272
 7467TIP3    H222341   3.915   5.656   4.735  1.2157 -0.7400 -0.6086
 7468TIP3   OH222342   2.672   3.474   5.201  0.0995  0.5380 -0.2812
 7468TIP3    H122343   2.637   3.557   5.169 -0.0086 -0.2707 -2.3653
 7468TIP3    H222344   2.616   3.408   5.161  0.5792 -0.5527  0.8360
 7469TIP3   OH222345   0.512   2.389   5.447  0.0309  0.0110 -0.2999
 7469TIP3    H122346   0.598   2.387   5.406 -0.6825 -0.8741 -1.7612
 7469TIP3    H222347   0.475   2.474   5.422  1.0273  1.0101  1.5098
 7470TIP3   OH222348   7.319   3.772   2.965 -0.3198 -0.5743  0.0445
 7470TIP3    H122349   7.362   3.857   2.975 -1.8831  0.2173  0.1083
 7470TIP3    H222350   7.344   3.742   2.877  0.5847 -0.2567  0.1928
 7471TIP3   OH222351   1.319   3.415   3.839  0.0877  0.1192  0.1367
 7471TIP3    H122352   1.293   3.465   3.917  0.7633 -1.1401  1.1722
 7471TIP3    H222353   1.285   3.467   3.766 -2.1984  0.3711  1.3280
 7472TIP3   OH222354   4.352   3.020   5.167  0.4807 -0.2160 -0.2139
 7472TIP3    H122355   4.378   3.064   5.086  0.1141 -2.6395 -1.6970
 7472TIP3    H222356   4.278   2.965   5.142  0.1637 -0.7600  1.8354
 7473TIP3   OH222357   0.803   4.725   3.677 -0.6005 -0.3469  0.0775
 7473TIP3    H122358   0.763   4.671   3.745 -0.2886 -0.8059 -0.1022
 7473TIP3    H222359   0.757   4.700   3.597 -1.9382  1.1932  0.3378
 7474TIP3   OH222360   4.825   3.943   5.375  0.0292  0.0602 -0.0665
 7474TIP3    H122361   4.846   3.980   5.461 -0.0013  0.5844 -0.2864
 7474TIP3    H222362   4.848   4.012   5.312 -0.0455 -0.2810 -0.4736
 7475TIP3   OH222363   2.387   2.847   4.658  0.3013  0.1779  0.1444
 7475TIP3    H122364   2.372   2.911   4.728 -0.5428  1.3942 -1.1369
 7475TIP3    H222365   2.413   2.899   4.583  0.2792 -1.0478 -0.7242
 7476TIP3   OH222366   0.171   5.363   1.377  0.0843 -0.2096 -0.7285
 7476TIP3    H122367   0.113   5.344   1.303  1.2148 -0.7615 -1.4771
 7476TIP3    H222368   0.235   5.292   1.377  1.0272  0.6216 -0.1588
 7477TIP3   OH222369   1.346   3.775   4.287  0.5050  0.2244  0.2916
 7477TIP3    H122370   1.319   3.780   4.378 -0.0132 -0.0544  0.1581
 7477TIP3    H222371   1.411   3.845   4.277  0.4053  0.3938  0.8152
 7478TIP3   OH222372   5.516   6.756   0.840  0.6069 -0.0352 -0.2160
 7478TIP3    H122373   5.436   6.804   0.862  0.6095 -0.0309 -0.2145
 7478TIP3    H222374   5.542   6.714   0.922  1.7698  1.6685  0.3155
 7479TIP3   OH222375   1.353   2.812   5.752 -0.7228 -0.5317 -0.6078
 7479TIP3    H122376   1.435   2.861   5.755 -0.0568 -1.5762 -1.8298
 7479TIP3    H222377   1.351   2.763   5.834 -0.9727  0.8380  0.2228
 7480TIP3   OH222378   0.254   4.878   5.028  0.1455 -0.6042  0.5229
 7480TIP3    H122379   0.299   4.858   4.946  1.5570 -1.0445  1.3700
 7480TIP3    H222380   0.163   4.853   5.013 -0.0802  1.4116 -1.6347
 7481TIP3   OH222381   2.405   1.637   6.554 -0.2765 -0.0164  0.2281
 7481TIP3    H122382   2.478   1.697   6.538 -1.0737  0.6507 -0.9426
 7481TIP3    H222383   2.327   1.692   6.553 -0.7914 -0.6827  1.7545
 7482TIP3   OH222384   1.739   5.891   1.664 -0.1237  0.2966 -0.1286
 7482TIP3    H122385   1.755   5.884   1.570 -1.7588 -2.7787 -0.2467
 7482TIP3    H222386   1.826   5.887   1.704  0.5411  1.0264 -1.4760
 7483TIP3   OH222387   4.667   5.004   3.101 -0.2599  0.2409  0.0391
 7483TIP3    H122388   4.629   5.085   3.067 -2.5224 -0.0367  1.7488
 7483TIP3    H222389   4.624   4.935   3.051 -0.8811 -0.0118  0.9049
 7484TIP3   OH222390   4.798   3.597   3.913  0.1116 -0.3510  0.0413
 7484TIP3    H122391   4.733   3.667   3.922 -0.3232 -0.6791 -0.5273
 7484TIP3    H222392   4.837   3.590   4.000  1.2475  1.6519 -0.2791
 7485TIP3   OH222393   2.062   4.228   4.973 -0.4919 -0.1803  0.0667
 7485TIP3    H122394   2.137   4.267   5.016 -0.3772 -0.3678  0.0357
 7485TIP3    H222395   1.995   4.223   5.041 -0.4275 -0.1491  0.1320
 7486TIP3   OH222396   4.409   4.278   0.563  0.1657  1.0276 -0.5423
 7486TIP3    H122397   4.373   4.325   0.488  0.8007  1.7314 -0.4122
 7486TIP3    H222398   4.334   4.231   0.601 -0.2564  1.0872 -1.2976
 7487TIP3   OH222399   4.541   2.156   4.761 -0.2888  0.0015  0.1989
 7487TIP3    H122400   4.453   2.124   4.742  0.0251 -0.6835 -0.1144
 7487TIP3    H222401   4.592   2.136   4.682  0.0578  0.7342  0.2310
 7488TIP3   OH222402   3.746   5.115   5.109 -0.5547  0.9898 -0.5087
 7488TIP3    H122403   3.784   5.125   5.196 -1.3315 -1.1342  0.1127
 7488TIP3    H222404   3.653   5.137   5.121 -0.9456 -0.6310 -0.4850
 7489TIP3   OH222405   4.551   4.174   4.993  0.3895 -0.3566  0.1086
 7489TIP3    H122406   4.625   4.217   4.951  0.1228 -0.2319 -0.2307
 7489TIP3    H222407   4.475   4.229   4.971  0.1863 -0.5182  0.4001
 7490TIP3   OH222408   4.162   5.530   4.585  0.0135 -0.2235 -0.1235
 7490TIP3    H122409   4.143   5.475   4.510 -1.3779  0.6595 -0.4405
 7490TIP3    H222410   4.106   5.496   4.655 -0.3042  0.3036 -0.1126
 7491TIP3   OH222411   3.321   4.029   3.122  0.1462  0.0158 -0.0560
 7491TIP3    H122412   3.324   4.036   3.026  2.0409  0.5882  0.0197
 7491TIP3    H222413   3.275   3.947   3.139  1.7706 -1.2396 -1.5058
 7492TIP3   OH222414   5.196   3.236   4.356 -0.3477  0.0111 -0.0297
 7492TIP3    H122415   5.226   3.303   4.419  0.2606  0.6792 -1.0144
 7492TIP3    H222416   5.276   3.206   4.313 -0.5325 -1.8840  0.8913
 7493TIP3   OH222417   4.864   5.041   4.941 -0.5648  0.1883  0.5186
 7493TIP3    H122418   4.876   5.127   4.901  1.6502 -0.6427 -0.6945
 7493TIP3    H222419   4.789   5.003   4.895 -0.4390  0.7508 -0.1534
 7494TIP3   OH222420   4.397   4.696   3.595  0.7317 -0.2678 -0.2189
 7494TIP3    H122421   4.303   4.677   3.588  0.5987 -0.4011  1.6407
 7494TIP3    H222422   4.432   4.622   3.645  1.3500  1.1544  1.4797
 7495TIP3   OH222423   7.180   3.634   4.719  0.0942 -0.9280 -0.2035
 7495TIP3    H122424   7.211   3.621   4.630  0.6336  1.1279 -0.3421
 7495TIP3    H222425   7.238   3.702   4.755  0.0813 -1.9216  1.8061
 7496TIP3   OH222426   5.496   6.370   3.475  0.3523  0.6295 -0.4009
 7496TIP3    H122427   5.450   6.452   3.459 -0.3437  0.1693 -0.8012
 7496TIP3    H222428   5.429   6.313   3.513  1.1188  0.6140  0.9349
 7497TIP3   OH222429   3.636   4.901   3.213  0.1905  0.0052 -0.6949
 7497TIP3    H122430   3.689   4.922   3.289  0.2147  0.3705 -0.8118
 7497TIP3    H222431   3.672   4.955   3.143  1.0168 -1.2974 -1.2960
 7498TIP3   OH222432   5.216   6.638   4.288 -0.5963 -0.6144  0.4001
 7498TIP3    H122433   5.173   6.710   4.335 -0.5723 -0.9234  0.8950
 7498TIP3    H222434   5.240   6.576   4.356  0.2849 -0.6297  0.0746
 7499TIP3   OH222435   3.817   5.128   4.372  0.7026  0.5015  0.7872
 7499TIP3    H122436   3.837   5.188   4.300  0.3504  1.7239  1.6790
 7499TIP3    H222437   3.834   5.041   4.337 -2.2534  0.8599 -1.7183
 7500TIP3   OH222438   5.154   4.493   4.399 -0.2967  0.1731  0.0470
 7500TIP3    H122439   5.228   4.443   4.364 -0.4733  0.3237 -0.5617
 7500TIP3    H222440   5.187   4.583   4.406 -0.0878  0.0384  0.8077
 7501TIP3   OH222441   5.210   2.756   5.928 -0.5692 -0.0398 -0.0034
 7501TIP3    H122442   5.256   2.697   5.988 -1.5027  0.7252  1.4948
 7501TIP3    H222443   5.121   2.722   5.924 -0.2706 -0.6409 -1.7186
 7502TIP3   OH222444   5.113   4.089   3.717  0.0191  0.1337  0.5605
 7502TIP3    H122445   5.023   4.084   3.684  1.2440 -0.0050 -2.9181
 7502TIP3    H222446   5.121   4.179   3.750 -2.3879 -0.8539  4.1484
 7503TIP3   OH222447   5.504   5.555   6.121  0.2022 -0.1514  0.1562
 7503TIP3    H122448   5.546   5.483   6.169 -0.3607  0.3639  1.4439
 7503TIP3    H222449   5.509   5.630   6.181  0.7848  0.8879 -1.1786
 7504TIP3   OH222450   4.817   5.435   3.543  0.8883  0.1480 -0.3155
 7504TIP3    H122451   4.749   5.489   3.584  0.5671 -0.6241  0.1770
 7504TIP3    H222452   4.772   5.390   3.472  1.2446  0.8110 -0.9673
 7505TIP3   OH222453   3.417   6.124   5.209  0.3081 -0.0981  0.2097
 7505TIP3    H122454   3.326   6.095   5.215  0.6321 -2.0921 -3.2797
 7505TIP3    H222455   3.468   6.042   5.211  1.9381  0.9055  0.6520
 7506TIP3   OH222456   5.567   4.961   3.793  0.0034 -0.2589  0.7603
 7506TIP3    H122457   5.633   4.904   3.834  0.2269  0.3205  1.2049
 7506TIP3    H222458   5.507   4.983   3.865 -0.4067 -0.3986  0.4614
 7507TIP3   OH222459   2.359   3.951   5.103  0.3231  0.2388  0.1451
 7507TIP3    H122460   2.310   3.995   5.172  0.4013  0.5443  0.0034
 7507TIP3    H222461   2.431   4.010   5.083  1.0114 -0.4138  0.6743
 7508TIP3   OH222462   6.616   6.461   3.671  0.2334  0.3763 -0.3378
 7508TIP3    H122463   6.548   6.418   3.618 -1.2293  1.6030  0.5018
 7508TIP3    H222464   6.636   6.541   3.622  0.8323  0.1906 -0.3994
 7509TIP3   OH222465   8.185   0.262   0.309 -0.2237 -0.0210 -0.0386
 7509TIP3    H122466   8.155   0.295   0.224  0.1506 -0.9808 -0.5592
 7509TIP3    H222467   8.208   0.341   0.359 -1.0827  0.5810 -0.5837
 7510TIP3   OH222468   6.787   3.523   4.710  0.3802  0.2626 -0.3643
 7510TIP3    H122469   6.818   3.449   4.659  1.2077  1.4015 -1.5454
 7510TIP3    H222470   6.794   3.495   4.802  1.3878 -0.8215 -0.7740
 7511TIP3   OH222471   2.057   5.773   4.270 -0.3828 -0.4819  0.0895
 7511TIP3    H122472   2.070   5.821   4.188 -1.4279 -2.0231 -0.9988
 7511TIP3    H222473   2.022   5.838   4.331  1.3710  0.9233 -0.3576
 7512TIP3   OH222474   4.171   4.734   2.809 -0.0283 -0.7866 -0.3988
 7512TIP3    H122475   4.081   4.751   2.836  0.0831 -1.5459  0.4678
 7512TIP3    H222476   4.163   4.682   2.729 -0.3562  1.0460 -1.5995
 7513TIP3   OH222477   4.314   3.406   2.724 -0.1521  0.1654  0.6731
 7513TIP3    H122478   4.266   3.323   2.728  0.0887  0.0577  1.3661
 7513TIP3    H222479   4.259   3.467   2.773 -0.6295  0.5733 -0.3446
 7514TIP3   OH222480   4.882   3.800   3.174  0.7104  0.0775 -0.0053
 7514TIP3    H122481   4.873   3.737   3.103 -0.7187  1.0586 -0.7130
 7514TIP3    H222482   4.826   3.767   3.244  0.6916  0.0773 -0.0203
 7515TIP3   OH222483   2.990   5.414   4.169  0.0391 -0.3800 -0.2719
 7515TIP3    H122484   3.081   5.440   4.155 -0.3157  1.3530  0.5722
 7515TIP3    H222485   2.939   5.470   4.110 -0.6864  0.5099  1.1732
 7516TIP3   OH222486   4.232   5.475   4.024 -0.0719  0.7096  0.1743
 7516TIP3    H122487   4.319   5.485   3.985  0.5166  1.3977  1.6126
 7516TIP3    H222488   4.244   5.410   4.092 -1.2278 -0.9303 -1.1549
 7517TIP3   OH222489   4.553   4.067   5.304 -0.2880  0.1976 -0.4592
 7517TIP3    H122490   4.543   4.024   5.220 -0.1754  2.6755 -1.7818
 7517TIP3    H222491   4.463   4.077   5.337 -0.2137 -2.7576  0.8108
 7518TIP3   OH222492   5.202   5.399   4.500 -0.1220 -0.6359 -0.1565
 7518TIP3    H122493   5.182   5.313   4.538  1.8797  0.3875  3.4346
 7518TIP3    H222494   5.154   5.461   4.555  1.0921  0.7805 -0.6739
 7519TIP3   OH222495   2.863   5.639   4.346 -0.8437 -0.5820 -0.2344
 7519TIP3    H122496   2.940   5.590   4.318 -0.9941 -0.5844 -0.6488
 7519TIP3    H222497   2.789   5.588   4.312 -1.0352 -0.7618  0.4538
 7520TIP3   OH222498   3.436   5.260   1.371  0.0670  0.0748 -0.0398
 7520TIP3    H122499   3.507   5.237   1.311 -0.3894  1.8556 -1.3084
 7520TIP3    H222500   3.363   5.205   1.345  0.9349 -1.7124  1.2220
 7521TIP3   OH222501   4.507   6.666   5.793  0.1074  0.5786  0.8346
 7521TIP3    H122502   4.491   6.642   5.702  0.2925  0.3266  0.8672
 7521TIP3    H222503   4.421   6.695   5.825  0.1990  1.3503  0.3810
 7522TIP3   OH222504   4.271   5.140   3.973  0.4917 -0.4620 -0.4594
 7522TIP3    H122505   4.314   5.184   3.900  0.4124 -0.4604 -0.5060
 7522TIP3    H222506   4.303   5.186   4.051  0.9580 -0.7901 -0.4617
 7523TIP3   OH222507   4.771   3.108   1.555  0.0491  0.1929 -0.0575
 7523TIP3    H122508   4.782   3.020   1.520 -1.2563  0.9890 -2.6174
 7523TIP3    H222509   4.851   3.154   1.527 -0.5910  0.5846 -1.3019
 7524TIP3   OH222510   3.232   5.131   4.766  0.1422  1.0181 -0.1242
 7524TIP3    H122511   3.189   5.065   4.821  0.5104 -0.6568 -1.7897
 7524TIP3    H222512   3.160   5.180   4.727 -0.2652 -0.7326 -1.6414
 7525TIP3   OH222513   4.088   3.884   5.848  0.2843 -0.1420 -0.2563
 7525TIP3    H122514   4.111   3.799   5.811  2.6589  0.2767  0.1484
 7525TIP3    H222515   4.062   3.866   5.938  0.1586 -0.5162 -0.3692
 7526TIP3   OH222516   4.109   4.701   4.463 -0.1988  0.6214  0.6331
 7526TIP3    H122517   4.084   4.630   4.521  0.0400  1.1826  1.4398
 7526TIP3    H222518   4.205   4.705   4.470 -0.0396 -0.1643 -0.8224
 7527TIP3   OH222519   6.650   6.474   0.012  0.3550  0.0694 -0.3605
 7527TIP3    H122520   6.581   6.481   0.079  0.6048  0.1417 -0.1130
 7527TIP3    H222521   6.731   6.493   0.059  0.5303  0.1132 -0.6838
 7528TIP3   OH222522   4.777   3.590   3.018 -0.4186  0.0300  0.5681
 7528TIP3    H122523   4.765   3.623   2.930  1.0225 -1.3629 -0.1896
 7528TIP3    H222524   4.693   3.552   3.042 -1.1355  1.3863  0.2362
 7529TIP3   OH222525   4.873   6.170   3.439 -0.2535  0.0322  0.3613
 7529TIP3    H122526   4.923   6.089   3.444 -0.0971  0.1041 -0.0022
 7529TIP3    H222527   4.898   6.219   3.518 -0.1851 -0.1804  0.4705
 7530TIP3   OH222528   3.257   5.947   5.533 -0.0429  0.4501  0.3615
 7530TIP3    H122529   3.182   5.995   5.568  1.8412  2.0861  2.2699
 7530TIP3    H222530   3.333   5.996   5.562  1.7669 -0.0150 -3.3243
 7531TIP3   OH222531   1.310   5.320   5.264 -0.4718  0.1639  0.3576
 7531TIP3    H122532   1.278   5.230   5.255 -1.2940  0.5500 -0.5725
 7531TIP3    H222533   1.256   5.371   5.205  0.8388  1.0805 -0.0669
 7532TIP3   OH222534   3.455   2.864   3.308  0.0338 -0.2447 -0.8791
 7532TIP3    H122535   3.418   2.777   3.293 -0.5430  0.2824 -2.5791
 7532TIP3    H222536   3.546   2.848   3.332  0.1492 -1.2852 -1.9602
 7533TIP3   OH222537   3.309   1.924   5.522 -0.2417  0.6672 -0.5053
 7533TIP3    H122538   3.392   1.970   5.507 -0.2608  0.6059 -0.8208
 7533TIP3    H222539   3.300   1.920   5.617  0.9211 -0.7716 -0.4389
 7534TIP3   OH222540   4.418   3.525   3.907  0.4233 -0.3413 -0.1829
 7534TIP3    H122541   4.487   3.521   3.973  0.4963 -0.0468 -0.2408
 7534TIP3    H222542   4.363   3.599   3.934  0.9591  0.3446 -0.9446
 7535TIP3   OH222543   3.800   5.359   4.607 -0.2654  0.4582 -0.5116
 7535TIP3    H122544   3.801   5.292   4.539  0.0050 -0.3898  0.3124
 7535TIP3    H222545   3.761   5.315   4.683  1.1061  0.8374  0.4307
 7536TIP3   OH222546   4.598   3.436   4.972  0.2544 -0.7916 -0.2081
 7536TIP3    H122547   4.644   3.518   4.954  2.8935 -2.5605 -1.9614
 7536TIP3    H222548   4.528   3.433   4.907 -0.6514  0.6112  0.6643
 7537TIP3   OH222549   3.706   4.238   2.887 -0.1376  0.2357 -0.0878
 7537TIP3    H122550   3.712   4.331   2.906  1.5747  0.2231 -0.4950
 7537TIP3    H222551   3.688   4.197   2.971  0.2437  0.8368  0.2921
 7538TIP3   OH222552   4.906   5.553   6.676  0.7482  0.1301  0.0351
 7538TIP3    H122553   4.811   5.555   6.666  0.9172 -1.3332 -2.0367
 7538TIP3    H222554   4.931   5.646   6.681 -0.8061  0.5170  0.9935
 7539TIP3   OH222555   4.740   5.260   2.006  0.0641 -0.0025 -0.0727
 7539TIP3    H122556   4.692   5.335   1.970  0.5713  2.3337  3.7858
 7539TIP3    H222557   4.689   5.234   2.083  0.1111 -3.4678 -1.1091
 7540TIP3   OH222558   5.037   6.203   5.372  0.0621  0.3041 -0.2103
 7540TIP3    H122559   4.953   6.162   5.391 -0.0667  0.3525 -0.6754
 7540TIP3    H222560   5.031   6.229   5.280  0.6164  0.2249 -0.2724
 7541TIP3   OH222561   3.563   5.316   4.329 -0.1238 -0.6657  0.4839
 7541TIP3    H122562   3.616   5.243   4.360  0.7901 -0.4966 -0.6489
 7541TIP3    H222563   3.602   5.340   4.245  0.5388  2.1207  1.5348
 7542TIP3   OH222564   4.488   3.998   3.860 -0.4482 -0.6704 -0.4929
 7542TIP3    H122565   4.422   4.013   3.929  1.8831  2.5977  1.1911
 7542TIP3    H222566   4.437   3.994   3.779 -2.7918  1.3263  0.7974
 7543TIP3   OH222567   4.467   5.025   4.500 -0.0583  0.3356  0.1037
 7543TIP3    H122568   4.426   4.939   4.506  1.1527 -0.3276 -0.9425
 7543TIP3    H222569   4.394   5.087   4.500 -0.9771 -0.7318 -0.0826
 7544TIP3   OH222570   5.187   4.055   4.821  0.0917 -0.1081  0.4404
 7544TIP3    H122571   5.252   4.081   4.755 -0.7897 -0.1230 -0.4531
 7544TIP3    H222572   5.184   4.128   4.882  2.4058 -0.9643  1.6314
 7545TIP3   OH222573   4.494   3.776   5.388  0.2123 -0.8525  0.6591
 7545TIP3    H122574   4.553   3.832   5.337 -1.6725  1.5414  1.0043
 7545TIP3    H222575   4.461   3.712   5.325  0.2420  0.1891 -0.4310
 7546TIP3   OH222576   4.995   3.389   4.037 -0.2301 -0.4091 -0.0596
 7546TIP3    H122577   4.991   3.299   4.005  1.0230 -0.7039  0.5928
 7546TIP3    H222578   4.926   3.394   4.104 -1.9076 -0.1842 -1.7742
 7547TIP3   OH222579   4.497   5.095   3.379  0.1708 -0.1151 -0.3703
 7547TIP3    H122580   4.542   5.046   3.310  0.3222  0.4434 -0.6722
 7547TIP3    H222581   4.462   5.172   3.334  1.5277  1.0133  0.4597
 7548TIP3   OH222582   3.408   4.330   4.174  0.2515  0.0069 -0.0840
 7548TIP3    H122583   3.477   4.396   4.165 -0.4363  0.8964  1.1439
 7548TIP3    H222584   3.418   4.275   4.095  3.3377 -0.8162  0.7833
 7549TIP3   OH222585   3.790   6.070   5.969  0.7835  0.2089 -0.2955
 7549TIP3    H122586   3.877   6.035   5.952  0.8016 -0.2024  0.6351
 7549TIP3    H222587   3.731   5.994   5.961  0.5740  0.3824 -0.4090
 7550TIP3   OH222588   0.176   2.495   0.772  0.1806 -0.0045  0.5145
 7550TIP3    H122589   0.211   2.576   0.808  0.7346  0.2156 -0.5114
 7550TIP3    H222590   0.091   2.485   0.815  0.8938  0.1551  2.0084
 7551TIP3   OH222591   3.300   3.644   5.186  0.3275 -0.1038  0.3851
 7551TIP3    H122592   3.232   3.669   5.124  0.0974 -1.6218 -0.0149
 7551TIP3    H222593   3.381   3.643   5.134  0.7114  1.9424  0.9170
 7552TIP3   OH222594   5.369   2.054   4.003 -0.2822 -0.1165 -0.3836
 7552TIP3    H122595   5.345   1.978   4.055  1.0390  0.4739  1.1133
 7552TIP3    H222596   5.430   2.019   3.938  0.0895 -0.3901  0.1090
 7553TIP3   OH222597   4.215   4.452   6.266 -0.5144  0.0077 -0.1248
 7553TIP3    H122598   4.208   4.483   6.356 -1.1670  0.2249 -0.2496
 7553TIP3    H222599   4.205   4.530   6.212 -1.3962 -0.2967 -0.4176
 7554TIP3   OH222600   5.475   4.824   1.757 -0.4337  0.1536 -0.0829
 7554TIP3    H122601   5.481   4.776   1.839 -3.2055  0.0457  0.1194
 7554TIP3    H222602   5.546   4.789   1.703  1.8929  0.7517  2.4961
 7555TIP3   OH222603   4.190   5.885   3.390 -0.0694 -0.8272 -0.4900
 7555TIP3    H122604   4.284   5.900   3.391 -0.5683  2.6079  1.5066
 7555TIP3    H222605   4.155   5.955   3.335 -1.6873 -0.3953  1.0322
 7556TIP3   OH222606   2.916   3.985   4.130 -0.6993  0.0949 -0.5586
 7556TIP3    H122607   2.832   4.029   4.119 -0.7882  0.6442  1.9542
 7556TIP3    H222608   2.960   4.034   4.200  1.2943 -0.7876 -1.1466
 7557TIP3   OH222609   3.258   5.479   4.117 -0.3808  0.3025 -0.3230
 7557TIP3    H122610   3.328   5.417   4.099 -0.7152  0.1886 -1.2522
 7557TIP3    H222611   3.262   5.494   4.212  0.5290 -0.1353 -0.2945
 7558TIP3   OH222612   0.643   6.159   5.143  0.6197 -0.1660 -0.0172
 7558TIP3    H122613   0.704   6.233   5.147 -0.0339  0.4729 -1.4205
 7558TIP3    H222614   0.684   6.097   5.084  0.5151 -0.3109  0.0619
 7559TIP3   OH222615   4.075   6.418   4.826 -0.0854 -0.1051 -0.4843
 7559TIP3    H122616   4.049   6.330   4.852  2.2189 -0.2002  1.6320
 7559TIP3    H222617   4.141   6.405   4.757  2.5246 -0.1854  1.9371
 7560TIP3   OH222618   5.438   4.209   4.087  0.2128  0.6988 -0.3129
 7560TIP3    H122619   5.521   4.175   4.054 -0.2199  0.6051 -1.3008
 7560TIP3    H222620   5.418   4.283   4.029 -0.3617  0.7690 -0.0244
 7561TIP3   OH222621   4.477   4.528   4.872 -0.0715  0.4188 -0.5339
 7561TIP3    H122622   4.415   4.496   4.807  0.2974 -2.5082  0.4845
 7561TIP3    H222623   4.560   4.486   4.849 -0.0430 -1.0672  2.0332
 7562TIP3   OH222624   4.774   6.355   4.664 -0.4232 -0.3104  0.1126
 7562TIP3    H122625   4.752   6.369   4.756 -1.1084  0.2785 -0.1356
 7562TIP3    H222626   4.690   6.364   4.619  0.1799  0.9644 -0.7533
 7563TIP3   OH222627   6.017   6.722   3.384  0.7953 -0.0900  0.8055
 7563TIP3    H122628   6.024   6.816   3.402  2.0506 -0.4482  2.2974
 7563TIP3    H222629   6.079   6.681   3.444  1.6579 -1.7478 -1.1698
 7564TIP3   OH222630   3.567   3.334   5.549  0.8149 -0.2131 -0.0700
 7564TIP3    H122631   3.547   3.278   5.474  1.7232  1.4373 -1.5899
 7564TIP3    H222632   3.538   3.422   5.522  1.0609  0.3838  1.5471
 7565TIP3   OH222633   3.880   6.495   4.237 -0.3585  0.2801  0.0554
 7565TIP3    H122634   3.913   6.444   4.162 -3.1473  0.8315 -1.6125
 7565TIP3    H222635   3.946   6.563   4.249  1.2181 -1.1016 -0.4982
 7566TIP3   OH222636   1.286   4.826   3.600  0.0644 -0.1511 -0.1078
 7566TIP3    H122637   1.272   4.850   3.508  0.2481 -1.5751 -0.5203
 7566TIP3    H222638   1.241   4.894   3.650 -0.6318  0.2524 -1.2690
 7567TIP3   OH222639   3.347   2.996   3.885 -0.0993 -0.4084  0.1556
 7567TIP3    H122640   3.330   2.906   3.912 -3.3370  0.1418  0.1803
 7567TIP3    H222641   3.292   3.008   3.807 -1.9937  2.3590  1.8042
 7568TIP3   OH222642   4.504   3.139   3.855 -0.1926  0.7202 -0.1635
 7568TIP3    H122643   4.465   3.066   3.902 -0.0081  1.0937  0.5668
 7568TIP3    H222644   4.433   3.171   3.799 -0.4383  0.3352 -0.0732
 7569TIP3   OH222645   3.155   6.649   4.626 -0.3084 -0.3491  0.4399
 7569TIP3    H122646   3.215   6.720   4.649 -0.2297 -0.6075  1.0449
 7569TIP3    H222647   3.111   6.627   4.708 -1.0951 -0.2942  0.0424
 7570TIP3   OH222648   3.527   4.590   4.116 -0.0565 -0.1467 -0.6496
 7570TIP3    H122649   3.499   4.639   4.038 -0.5466  0.3908 -0.1424
 7570TIP3    H222650   3.617   4.618   4.131 -0.2237  0.3481 -0.5606
 7571TIP3   OH222651   5.081   2.970   6.609 -0.8251 -0.2737  0.7344
 7571TIP3    H122652   5.091   2.950   6.516  1.6157 -1.6413  1.2395
 7571TIP3    H222653   5.128   3.053   6.621  1.1249 -1.4202  1.2003
 7572TIP3   OH222654   1.815   5.588   4.277 -0.0546  0.2445  0.0153
 7572TIP3    H122655   1.903   5.625   4.269 -0.7525  1.7511 -0.8085
 7572TIP3    H222656   1.775   5.636   4.349 -1.1288  1.4477 -1.3632
 7573TIP3   OH222657   4.383   3.854   4.204  0.1994  0.1268 -0.5525
 7573TIP3    H122658   4.395   3.934   4.255 -0.5174 -0.8484  1.2022
 7573TIP3    H222659   4.333   3.882   4.127 -1.0449  1.1896  0.6129
 7574TIP3   OH222660   4.909   4.577   5.881  0.1578 -0.3026 -0.6167
 7574TIP3    H122661   4.987   4.588   5.827  0.6825 -0.6173  0.0682
 7574TIP3    H222662   4.898   4.661   5.926  0.5613 -0.5256 -0.1071
 7575TIP3   OH222663   4.055   1.662   6.180  0.5693  0.2238 -0.3908
 7575TIP3    H122664   4.109   1.723   6.129  1.9305  0.3536  1.1649
 7575TIP3    H222665   4.000   1.719   6.234 -0.1120  0.0795 -0.9257
 7576TIP3   OH222666   5.160   5.502   2.534 -0.1768 -0.0097 -0.2816
 7576TIP3    H122667   5.154   5.516   2.629  2.2661  2.4162 -0.4204
 7576TIP3    H222668   5.121   5.582   2.496  0.8889  0.0454 -1.2905
 7577TIP3   OH222669   5.250   1.999   5.048  0.5910  0.1054 -0.6432
 7577TIP3    H122670   5.316   1.981   4.980  2.2816  2.7775  0.1862
 7577TIP3    H222671   5.197   2.070   5.012 -0.1107 -0.1853 -0.1909
 7578TIP3   OH222672   6.665   4.329   3.969  0.0337  0.6742  0.3372
 7578TIP3    H122673   6.598   4.278   4.015 -0.5459  1.1054 -0.0107
 7578TIP3    H222674   6.744   4.276   3.973 -0.1305  0.5045  1.4399
 7579TIP3   OH222675   3.764   2.955   2.048  0.1560 -0.0443 -0.1288
 7579TIP3    H122676   3.793   3.046   2.042 -0.1911 -0.0272 -1.7798
 7579TIP3    H222677   3.780   2.918   1.961 -1.1896 -1.1107  0.0473
 7580TIP3   OH222678   3.370   3.258   4.586 -0.2277 -0.0048  0.0389
 7580TIP3    H122679   3.397   3.269   4.677 -1.3827 -0.2078  0.4224
 7580TIP3    H222680   3.440   3.206   4.546  0.9390  1.2182  0.4553
 7581TIP3   OH222681   4.163   5.657   6.731  0.4279 -0.1861 -0.1753
 7581TIP3    H122682   4.140   5.565   6.736 -1.9725  0.2686 -1.9854
 7581TIP3    H222683   4.255   5.658   6.706  0.3113 -2.0673 -0.7018
 7582TIP3   OH222684   4.092   3.085   5.345  0.1146 -0.3941 -0.2958
 7582TIP3    H122685   4.110   3.172   5.379  1.2450 -0.8808  0.3770
 7582TIP3    H222686   4.178   3.043   5.338 -0.3817 -1.3178 -0.9779
 7583TIP3   OH222687   3.596   5.419   4.046  0.4585 -0.7607 -0.0130
 7583TIP3    H122688   3.551   5.334   4.048 -1.0913  0.0667  0.5839
 7583TIP3    H222689   3.572   5.457   3.962  0.3336 -0.4661  0.1577
 7584TIP3   OH222690   5.258   5.856   3.626 -0.5156 -0.1870  0.1311
 7584TIP3    H122691   5.328   5.913   3.658  0.7063 -1.7549  0.3150
 7584TIP3    H222692   5.262   5.862   3.531  0.1783 -0.6116  0.1301
 7585TIP3   OH222693   4.747   7.393   5.727 -0.7971 -0.3116  0.0910
 7585TIP3    H122694   4.714   7.424   5.644  3.3029 -2.0378 -2.3593
 7585TIP3    H222695   4.842   7.406   5.721 -0.5569  1.8707  5.5435
 7586TIP3   OH222696   5.371   4.656   3.476 -0.3866 -0.4916 -1.0614
 7586TIP3    H122697   5.420   4.735   3.499  0.9651 -1.6873  0.3538
 7586TIP3    H222698   5.283   4.671   3.509 -0.3269  0.7113 -1.4423
 7587TIP3   OH222699   3.588   3.337   5.827  0.1646 -0.0843 -0.1997
 7587TIP3    H122700   3.596   3.323   5.732 -0.1719 -2.5812  0.1271
 7587TIP3    H222701   3.563   3.430   5.835  1.3323  0.4693 -2.4884
 7588TIP3   OH222702   4.542   4.193   3.222 -0.4176  0.2499 -0.0699
 7588TIP3    H122703   4.544   4.106   3.183 -1.1656  0.2981 -0.2193
 7588TIP3    H222704   4.631   4.226   3.212 -0.0322 -0.6511  0.3430
 7589TIP3   OH222705   5.912   1.701   1.560  0.3978 -0.2406 -0.1012
 7589TIP3    H122706   5.951   1.669   1.479  1.9861  0.6236  0.3028
 7589TIP3    H222707   5.970   1.669   1.630 -0.0080  0.4334  0.5589
 7590TIP3   OH222708   4.972   5.475   4.628 -0.3084 -0.2722  0.7847
 7590TIP3    H122709   4.994   5.558   4.669 -0.5556 -0.4023  1.1854
 7590TIP3    H222710   4.893   5.493   4.577  0.5039  0.1074 -0.3672
 7591TIP3   OH222711   4.385   5.504   4.377  0.2637  0.3571  0.2830
 7591TIP3    H122712   4.477   5.530   4.382  0.6560 -0.9647  0.0635
 7591TIP3    H222713   4.354   5.506   4.467  1.8520 -3.8814  1.0290
 7592TIP3   OH222714   3.429   3.391   6.109 -0.9720 -0.4712  0.2079
 7592TIP3    H122715   3.443   3.312   6.057  1.4300 -0.2450  0.4506
 7592TIP3    H222716   3.438   3.463   6.047  0.8893 -0.2452  0.7057
 7593TIP3   OH222717   4.024   5.126   6.005 -0.4184  0.1082  0.3658
 7593TIP3    H122718   4.070   5.190   6.059  0.9745 -2.1798  1.9775
 7593TIP3    H222719   4.051   5.145   5.915  0.1093  1.6323  0.8380
 7594TIP3   OH222720   4.144   4.778   5.277  0.5264 -0.4531 -0.1801
 7594TIP3    H122721   4.211   4.839   5.245  1.6978 -0.7691  1.5378
 7594TIP3    H222722   4.151   4.783   5.372 -0.0236 -2.5385  0.0087
 7595TIP3   OH222723   5.748   2.421   2.251 -0.3039 -0.5403 -0.1464
 7595TIP3    H122724   5.755   2.390   2.161  1.0527  2.1906 -1.0459
 7595TIP3    H222725   5.659   2.454   2.258  0.1290  0.8697 -1.0732
 7596TIP3   OH222726   3.592   1.652   3.946 -0.1670  0.4759 -0.0531
 7596TIP3    H122727   3.686   1.651   3.929 -0.1322 -0.3968  0.2117
 7596TIP3    H222728   3.559   1.574   3.903 -0.9899  1.5107 -1.3557
 7597TIP3   OH222729   4.246   4.265   3.786 -0.2573  0.2657  0.3387
 7597TIP3    H122730   4.194   4.268   3.867  0.3417 -0.5748  0.7652
 7597TIP3    H222731   4.220   4.183   3.744 -0.7986  0.8559 -0.4846
 7598TIP3   OH222732   4.180   4.029   5.630  0.5495  0.5044 -0.0061
 7598TIP3    H122733   4.155   3.990   5.714 -1.7892  1.1678 -0.3471
 7598TIP3    H222734   4.203   4.120   5.651 -0.8579  0.9139 -0.1708
 7599TIP3   OH222735   6.461   6.697   2.909  0.0097  0.3342 -0.1733
 7599TIP3    H122736   6.446   6.604   2.893 -1.9186  0.5669  0.1022
 7599TIP3    H222737   6.463   6.737   2.822 -1.0456  0.2741 -0.2375
 7600TIP3   OH222738   4.777   4.834   4.271  0.1419  0.1475 -0.5389
 7600TIP3    H122739   4.697   4.883   4.252 -0.4198 -0.7626 -0.5893
 7600TIP3    H222740   4.760   4.747   4.234  1.3669  0.1087 -1.0107
 7601TIP3   OH222741   7.832   0.408   0.182 -0.2464  0.0133  0.1934
 7601TIP3    H122742   7.813   0.405   0.276  0.4706 -0.1580  0.3349
 7601TIP3    H222743   7.746   0.400   0.140 -0.4602 -1.1117  0.8207
 7602TIP3   OH222744   7.594   6.797   3.194  0.0777  0.0337  0.7393
 7602TIP3    H122745   7.569   6.859   3.263  0.0064  0.5797  0.2281
 7602TIP3    H222746   7.527   6.729   3.199  0.4919 -0.3174  1.6954
 7603TIP3   OH222747   4.927   4.105   4.758  0.4684  0.2530  0.1478
 7603TIP3    H122748   4.927   4.175   4.823  1.7676 -2.2370  2.9018
 7603TIP3    H222749   5.005   4.053   4.778 -0.3580 -1.8927 -1.9409
 7604TIP3   OH222750   4.462   5.467   6.202 -0.6259 -0.0664  0.5423
 7604TIP3    H122751   4.499   5.387   6.166  1.6121 -0.2274  3.0260
 7604TIP3    H222752   4.418   5.439   6.282 -2.3182  0.8043 -0.0556
 7605TIP3   OH222753   2.862   3.350   2.567  0.6335 -0.7188 -0.3497
 7605TIP3    H122754   2.953   3.379   2.575  0.6055 -0.6673 -0.2061
 7605TIP3    H222755   2.810   3.428   2.584  0.5511 -0.9818  0.6710
 7606TIP3   OH222756   3.786   5.921   6.528 -0.1932 -0.0706  0.4439
 7606TIP3    H122757   3.767   5.903   6.436 -0.7890 -0.4151  0.6329
 7606TIP3    H222758   3.875   5.888   6.541  0.1040  0.4981 -0.1544
 7607TIP3   OH222759   4.401   6.528   4.099 -0.2184  0.0405 -0.2121
 7607TIP3    H122760   4.333   6.595   4.092  0.5123  0.7229 -0.8021
 7607TIP3    H222761   4.474   6.561   4.047  0.4031 -0.9032  0.0342
 7608TIP3   OH222762   3.535   5.119   6.272  0.2070  0.1352 -0.0911
 7608TIP3    H122763   3.614   5.124   6.219  1.1699  1.0195  1.3814
 7608TIP3    H222764   3.568   5.114   6.362 -1.4283  1.3847  0.5899
 7609TIP3   OH222765   7.133   0.469   5.381 -0.0543 -0.4357 -0.2732
 7609TIP3    H122766   7.193   0.504   5.316  0.7887 -0.7006  0.3515
 7609TIP3    H222767   7.114   0.380   5.352 -1.7401  0.3200 -1.5492
 7610TIP3   OH222768   3.342   5.771   5.014 -0.7039 -0.0825  0.4803
 7610TIP3    H122769   3.366   5.787   5.105  1.4481  0.3238 -0.1469
 7610TIP3    H222770   3.351   5.676   5.003 -0.8812 -0.1207  0.6554
 7611TIP3   OH222771   5.887   5.908   6.278  0.1617  0.0330  0.0149
 7611TIP3    H122772   5.840   5.827   6.261  1.8145 -0.7880 -0.7829
 7611TIP3    H222773   5.922   5.897   6.366  0.1242  0.0067  0.0268
 7612TIP3   OH222774   3.388   4.755   4.496  0.0526  0.2455 -0.1950
 7612TIP3    H122775   3.353   4.843   4.503  0.5054  0.3954  0.2572
 7612TIP3    H222776   3.391   4.737   4.402 -2.0239 -0.1002 -0.2076
 7613TIP3   OH222777   4.398   3.983   3.610  0.1412 -0.4528  0.0807
 7613TIP3    H122778   4.305   3.989   3.588  0.5057  0.0349 -1.3942
 7613TIP3    H222779   4.432   3.918   3.548  0.4177 -2.0423  1.8698
 7614TIP3   OH222780   4.123   5.972   3.765  0.5735  0.1096  0.2558
 7614TIP3    H122781   4.138   5.885   3.728  0.3804  1.1364 -2.3527
 7614TIP3    H222782   4.034   5.994   3.738  0.2157  0.6760  1.8660
 7615TIP3   OH222783   1.631   5.452   4.054  0.0536  0.0411  0.5472
 7615TIP3    H122784   1.663   5.525   4.106 -1.2099  1.2855 -0.3592
 7615TIP3    H222785   1.710   5.407   4.023  0.8315  0.8308  1.3686
 7616TIP3   OH222786   4.414   4.009   6.194  0.7039 -0.5225 -0.1189
 7616TIP3    H122787   4.383   4.094   6.224  0.9042 -0.4100 -0.2321
 7616TIP3    H222788   4.436   4.023   6.102 -1.4097 -1.2391 -0.7730
 7617TIP3   OH222789   1.711   5.313   6.215 -0.1331  0.3409  0.2576
 7617TIP3    H122790   1.785   5.372   6.205 -0.0241  0.4940  1.8872
 7617TIP3    H222791   1.666   5.344   6.293 -1.4716 -0.2345 -0.2659
 7618TIP3   OH222792   3.666   5.891   5.221 -0.0399  0.2759  0.1821
 7618TIP3    H122793   3.661   5.820   5.285  1.3471 -0.0569 -0.0630
 7618TIP3    H222794   3.734   5.863   5.159  0.2824  1.6556 -0.1071
 7619TIP3   OH222795   5.105   3.810   2.829  0.5182  0.1499 -0.0129
 7619TIP3    H122796   5.188   3.780   2.864  1.0386 -0.0691 -1.3905
 7619TIP3    H222797   5.069   3.866   2.897  1.0062 -1.0793  1.2820
 7620TIP3   OH222798   3.673   5.303   6.108 -0.1531 -0.3704  0.0213
 7620TIP3    H122799   3.632   5.338   6.029  1.9905  1.4517 -0.3466
 7620TIP3    H222800   3.696   5.213   6.086 -1.5114 -0.5489 -0.6861
 7621TIP3   OH222801   4.493   4.902   3.769  0.4856  0.8556  0.5371
 7621TIP3    H122802   4.480   4.893   3.864  1.0436 -0.0371  0.5365
 7621TIP3    H222803   4.445   4.828   3.731 -2.3027  2.9273 -0.1065
 7622TIP3   OH222804   5.672   2.154   3.127  0.1009  0.2822  0.4410
 7622TIP3    H122805   5.746   2.097   3.108  1.5703  2.5925 -1.0002
 7622TIP3    H222806   5.608   2.135   3.058 -1.0426 -2.3021  2.1576
 7623TIP3   OH222807   5.750   4.025   6.441 -0.2847  0.2211  0.1380
 7623TIP3    H122808   5.771   3.997   6.530 -0.0797  0.7121  0.2491
 7623TIP3    H222809   5.738   4.120   6.448 -1.1334  0.1445 -0.1978
 7624TIP3   OH222810   6.427   6.962   3.203  0.1176  0.5060  0.1178
 7624TIP3    H122811   6.488   6.931   3.136 -0.6503 -2.1465  0.6007
 7624TIP3    H222812   6.369   7.023   3.157 -1.1987 -2.2296 -1.9821
 7625TIP3   OH222813   5.006   3.187   4.763  0.3791  0.0784 -0.2625
 7625TIP3    H122814   5.004   3.232   4.848 -2.2959 -1.8439  0.7832
 7625TIP3    H222815   4.974   3.251   4.701  0.9637  1.0478  0.4257
 7626TIP3   OH222816   5.671   4.398   4.040 -1.0612 -0.4005  0.2716
 7626TIP3    H122817   5.642   4.444   3.961 -1.3886 -0.6159  0.2684
 7626TIP3    H222818   5.743   4.343   4.010  0.0622  0.9226  0.4819
 7627TIP3   OH222819   3.182   3.196   5.551  0.2391  0.0391 -0.2167
 7627TIP3    H122820   3.120   3.259   5.586 -0.6923 -0.7906 -0.3725
 7627TIP3    H222821   3.266   3.241   5.554  0.0378  0.3130  2.2212
 7628TIP3   OH222822   5.585   3.072   4.498  0.3087  0.0952  0.0101
 7628TIP3    H122823   5.538   3.040   4.575  1.0047 -0.5831  0.1557
 7628TIP3    H222824   5.656   3.124   4.533 -0.6366  1.5825 -0.2216
 7629TIP3   OH222825   4.906   4.060   5.637 -0.5385  0.3663  0.0766
 7629TIP3    H122826   4.933   3.983   5.688  0.0496  2.3902  2.9675
 7629TIP3    H222827   4.986   4.110   5.626 -1.0314  0.8562 -1.2872
 7630TIP3   OH222828   2.501   2.720   3.534  0.3404  0.1416  0.0536
 7630TIP3    H122829   2.520   2.729   3.628  0.2784  0.0646  0.0739
 7630TIP3    H222830   2.467   2.631   3.526 -1.2816  0.7349  0.2219
 7631TIP3   OH222831   6.219   3.657   3.933  0.3401 -0.3509  0.0174
 7631TIP3    H122832   6.314   3.644   3.925  0.2621 -1.8328  1.3816
 7631TIP3    H222833   6.207   3.693   4.021 -0.4104 -0.6893  0.0531
 7632TIP3   OH222834   5.241   3.529   4.095  0.7647  0.0641 -0.3695
 7632TIP3    H122835   5.208   3.570   4.175  1.1574  0.3943 -0.3768
 7632TIP3    H222836   5.182   3.455   4.080 -0.2486  0.9252 -0.6444
 7633TIP3   OH222837   3.521   2.666   4.262  0.0470 -0.2239 -0.0501
 7633TIP3    H122838   3.479   2.740   4.305 -0.8027  0.0228 -1.2565
 7633TIP3    H222839   3.609   2.697   4.240 -0.0968  0.2226 -0.0003
 7634TIP3   OH222840   5.171   4.286   4.975 -0.8044 -0.0314  0.0990
 7634TIP3    H122841   5.184   4.271   5.068 -0.4617  1.1647  0.2483
 7634TIP3    H222842   5.182   4.380   4.963  2.0225 -0.5204 -1.6094
 7635TIP3   OH222843   4.179   1.732   6.486 -0.3001  0.0729  0.5005
 7635TIP3    H122844   4.158   1.645   6.452  0.1084  0.5474 -1.0420
 7635TIP3    H222845   4.263   1.721   6.531 -0.6025 -0.4821  0.9225
 7636TIP3   OH222846   3.929   5.470   6.134 -0.0394 -0.8274  0.3770
 7636TIP3    H122847   4.004   5.413   6.118  0.2071 -0.2238 -0.6829
 7636TIP3    H222848   3.852   5.414   6.121  0.2121 -1.1445  0.2630
 7637TIP3   OH222849   4.035   6.022   4.654 -1.0758 -0.2777 -0.1165
 7637TIP3    H122850   3.946   6.008   4.687 -0.5111 -0.6861  1.2545
 7637TIP3    H222851   4.026   6.095   4.593 -1.9719  1.2349  1.7555
 7638TIP3   OH222852   3.315   5.484   5.361 -0.1886  0.7703  0.1282
 7638TIP3    H122853   3.353   5.464   5.276 -1.9203 -0.3840 -0.4054
 7638TIP3    H222854   3.374   5.443   5.424 -0.9894 -1.7741 -0.7247
 7639TIP3   OH222855   1.988   6.330   3.492  0.1810  0.0841  0.4041
 7639TIP3    H122856   2.015   6.391   3.424 -1.7026 -0.0441 -0.5055
 7639TIP3    H222857   2.069   6.305   3.537  1.2946  1.0641 -1.0418
 7640TIP3   OH222858   5.084   5.055   5.132 -0.3303 -0.1260  0.3702
 7640TIP3    H122859   5.081   5.147   5.159  0.6786 -0.0913  0.3863
 7640TIP3    H222860   5.005   5.043   5.079  0.7666  1.4470 -1.7276
 7641TIP3   OH222861   2.510   6.072   3.810  0.0376  0.1827  0.2420
 7641TIP3    H122862   2.588   6.092   3.758 -0.0776 -0.4240 -0.1696
 7641TIP3    H222863   2.437   6.087   3.750 -0.1770  0.9525  0.6926
 7642TIP3   OH222864   4.657   6.725   5.288 -0.4588 -0.0903 -0.3770
 7642TIP3    H122865   4.744   6.687   5.287 -0.9173 -1.2640  1.6830
 7642TIP3    H222866   4.665   6.806   5.238  1.5522 -0.7080 -1.0792
 7643TIP3   OH222867   4.296   6.988   4.027  0.6181 -0.6686 -0.3861
 7643TIP3    H122868   4.340   6.990   4.112  2.4166 -0.3225 -1.3114
 7643TIP3    H222869   4.244   7.069   4.026  1.4003 -0.1592 -0.0481
 7644TIP3   OH222870   3.248   6.684   5.679 -0.1270  0.2285 -0.4620
 7644TIP3    H122871   3.258   6.727   5.764  3.1190 -0.1188 -0.5910
 7644TIP3    H222872   3.211   6.598   5.700  2.0065 -0.4351  0.8264
 7645TIP3   OH222873   4.397   6.039   4.095  0.1472 -0.8182  0.2694
 7645TIP3    H122874   4.438   6.125   4.107  1.3890 -1.3705  0.1227
 7645TIP3    H222875   4.403   6.023   4.001  0.8216 -1.4873  0.4187
 7646TIP3   OH222876   3.345   5.484   4.374 -0.2232 -0.1359  0.5308
 7646TIP3    H122877   3.423   5.430   4.366 -1.0861 -1.2731 -0.4343
 7646TIP3    H222878   3.377   5.570   4.402  1.6508  0.1028 -2.1789
 7647TIP3   OH222879   3.519   5.143   6.838  0.3530 -0.3809  0.1703
 7647TIP3    H122880   3.579   5.072   6.815  0.2205  0.0507 -1.5984
 7647TIP3    H222881   3.492   5.124   6.927  1.7518 -1.5483  0.3623
 7648TIP3   OH222882   2.932   5.100   5.015  0.1427 -0.0603 -0.5743
 7648TIP3    H122883   2.930   5.004   5.015  0.1443 -0.0795 -2.0340
 7648TIP3    H222884   2.845   5.126   4.984  0.5203  0.3826 -1.2739
 7649TIP3   OH222885   3.416   3.421   4.299 -0.8923  0.4537  0.7663
 7649TIP3    H122886   3.450   3.338   4.264 -0.1800  0.1933  2.0805
 7649TIP3    H222887   3.328   3.400   4.329 -1.4016  0.6096 -0.5897
 7650TIP3   OH222888   5.410   6.142   5.273  0.4374  0.5997 -0.2070
 7650TIP3    H122889   5.436   6.155   5.182  0.8907  0.7683 -0.0566
 7650TIP3    H222890   5.478   6.084   5.309  0.3438  0.6565  0.0630
 7651TIP3   OH222891   2.646   3.147   4.838  0.1549  0.4066 -0.1458
 7651TIP3    H122892   2.615   3.068   4.882  0.9586 -0.4057 -1.0070
 7651TIP3    H222893   2.608   3.142   4.750  0.5504  0.7618 -0.3409
 7652TIP3   OH222894   1.042   2.571   4.002 -0.0866  0.6654  0.0598
 7652TIP3    H122895   0.948   2.560   4.017 -0.3456 -0.0055 -1.8615
 7652TIP3    H222896   1.071   2.485   3.971  0.7395  1.4325 -1.3303
 7653TIP3   OH222897   4.067   1.609   4.315  0.2349  0.7415  0.1755
 7653TIP3    H122898   4.111   1.525   4.327  0.6022  0.9326  0.1780
 7653TIP3    H222899   4.004   1.614   4.387  0.1852  0.4542  0.1525
 7654TIP3   OH222900   5.368   3.392   2.625 -0.4226  0.2468  0.5588
 7654TIP3    H122901   5.401   3.481   2.612  1.2644 -0.1933  1.6659
 7654TIP3    H222902   5.291   3.402   2.680  0.3913  0.9460  1.5922
 7655TIP3   OH222903   4.033   2.721   6.001  0.3384  0.5771  0.4067
 7655TIP3    H122904   3.957   2.702   6.056  0.7348  2.5793  1.6940
 7655TIP3    H222905   4.006   2.795   5.947  0.8022  0.2117 -0.3362
 7656TIP3   OH222906   4.179   1.921   5.769 -0.4397 -0.0714 -0.2520
 7656TIP3    H122907   4.169   1.835   5.729  0.0353 -0.3356  0.1941
 7656TIP3    H222908   4.229   1.972   5.705 -0.3646 -0.2515 -0.3357
 7657TIP3   OH222909   3.285   3.528   3.875 -0.3966 -0.2852 -0.2613
 7657TIP3    H122910   3.190   3.533   3.889 -0.5481 -0.6003 -1.1384
 7657TIP3    H222911   3.323   3.546   3.961 -1.2504 -0.0616  0.0750
 7658TIP3   OH222912   5.144   1.258   5.368  0.2878 -0.3121  0.0184
 7658TIP3    H122913   5.166   1.341   5.326  0.6895  0.0736  0.9548
 7658TIP3    H222914   5.137   1.280   5.461  2.2933 -1.6858  0.5222
 7659TIP3   OH222915   3.094   3.192   3.481  0.3334 -0.9970 -0.0081
 7659TIP3    H122916   3.066   3.236   3.561 -0.1035 -0.0489 -0.6646
 7659TIP3    H222917   3.187   3.215   3.473  0.3437 -0.9815  0.1592
 7660TIP3   OH222918   3.986   6.689   4.740  0.2816  0.4222  0.0461
 7660TIP3    H122919   3.994   6.597   4.764 -1.0606 -0.0196 -1.0841
 7660TIP3    H222920   3.944   6.687   4.653  1.1280  2.0622 -0.4166
 7661TIP3   OH222921   4.630   4.413   2.854 -0.2723  0.0618 -0.2425
 7661TIP3    H122922   4.703   4.440   2.797 -0.8449 -0.4365 -1.2369
 7661TIP3    H222923   4.566   4.484   2.846 -0.8599 -0.5541 -1.1724
 7662TIP3   OH222924   3.459   5.113   5.074  0.1158  0.1898 -0.3429
 7662TIP3    H122925   3.477   5.069   4.991 -0.6080  0.9934 -0.9368
 7662TIP3    H222926   3.365   5.131   5.071 -0.2929 -1.4634  1.4795
 7663TIP3   OH222927   3.956   4.317   4.778 -0.0471  0.0269  0.2453
 7663TIP3    H122928   3.986   4.354   4.695 -0.5172 -1.5390 -0.6501
 7663TIP3    H222929   4.000   4.232   4.783 -1.6158 -0.7758  0.6038
 7664TIP3   OH222930   1.681   4.860   2.894 -0.3175 -0.3440 -0.2981
 7664TIP3    H122931   1.643   4.833   2.978  0.7559  1.2652  0.7545
 7664TIP3    H222932   1.614   4.841   2.829 -2.3464  1.0541  1.3093
 7665TIP3   OH222933   4.295   4.664   5.518 -0.1284 -0.2164  0.0740
 7665TIP3    H122934   4.308   4.642   5.426  1.8566 -0.0710  0.3001
 7665TIP3    H222935   4.371   4.627   5.563 -0.6064  0.5063  1.5214
 7666TIP3   OH222936   4.634   5.257   5.497 -0.0577 -0.1746 -0.6178
 7666TIP3    H122937   4.666   5.292   5.414  0.0562  3.4667  0.8893
 7666TIP3    H222938   4.544   5.232   5.479  0.2080 -0.1614 -2.0318
 7667TIP3   OH222939   6.603   5.267   4.944  0.0081 -0.1480  0.3433
 7667TIP3    H122940   6.686   5.254   4.990  0.4636 -1.2154 -0.7545
 7667TIP3    H222941   6.626   5.324   4.870 -0.0519 -1.1832 -0.4773
 7668TIP3   OH222942   7.281   4.487   3.109  0.1901 -0.1883  0.0843
 7668TIP3    H122943   7.254   4.404   3.069 -0.0680 -0.8216  1.5413
 7668TIP3    H222944   7.339   4.527   3.045 -2.0280 -0.0793 -1.9494
 7669TIP3   OH222945   5.385   5.106   4.382 -0.1263 -0.2516 -0.1164
 7669TIP3    H122946   5.310   5.094   4.440 -0.3998  0.6672 -0.2805
 7669TIP3    H222947   5.347   5.133   4.299  0.4021  0.5110 -0.1165
 7670TIP3   OH222948   5.713   4.275   4.289  0.3543 -0.9403  0.3571
 7670TIP3    H122949   5.683   4.316   4.207  0.2732 -1.1298  0.2922
 7670TIP3    H222950   5.808   4.276   4.283  0.3413 -1.3506  0.0649
 7671TIP3   OH222951   7.564   4.498   2.318 -0.5667 -0.4514  0.2472
 7671TIP3    H122952   7.520   4.571   2.275  0.3735  0.3539  0.6447
 7671TIP3    H222953   7.493   4.439   2.344 -1.1669 -0.7182 -1.9800
 7672TIP3   OH222954   5.597   4.061   4.451  0.4016 -0.3281 -0.0460
 7672TIP3    H122955   5.663   4.123   4.420 -1.6444  2.6157  1.2103
 7672TIP3    H222956   5.537   4.052   4.377  0.9861 -1.2479 -0.4126
 7673TIP3   OH222957   4.999   3.873   5.802 -0.2851  0.1311  0.3479
 7673TIP3    H122958   5.047   3.926   5.866  0.7577 -0.8911  0.4331
 7673TIP3    H222959   5.049   3.792   5.796 -2.3873 -1.2620  0.9617
 7674TIP3   OH222960   4.968   5.617   5.495  0.1668 -0.8000  0.8393
 7674TIP3    H122961   4.885   5.665   5.493 -0.2093 -1.4337 -4.0403
 7674TIP3    H222962   4.945   5.532   5.534 -1.2668 -0.5970  0.4566
 7675TIP3   OH222963   7.813   4.599   2.436 -0.0444 -0.3757  0.4646
 7675TIP3    H122964   7.734   4.548   2.418  0.2261 -0.2165 -1.2653
 7675TIP3    H222965   7.790   4.689   2.415  0.7013 -0.3858 -0.4491
 7676TIP3   OH222966   0.095   7.870   0.689  0.6618  0.3718 -0.4900
 7676TIP3    H122967   0.055   7.917   0.617  0.4252  0.6752 -0.1609
 7676TIP3    H222968   0.142   7.797   0.647  1.4530  1.1844 -1.0433
 7677TIP3   OH222969   8.357   4.948   3.609 -0.0455 -0.1642 -0.4948
 7677TIP3    H122970   8.443   4.927   3.646 -0.2297 -1.0900 -0.5727
 7677TIP3    H222971   8.368   4.934   3.515 -0.4682 -0.9582 -0.4298
 7678TIP3   OH222972   1.318   4.373   5.219 -0.4552 -0.8319 -0.3164
 7678TIP3    H122973   1.326   4.292   5.270 -0.1325 -1.2656 -1.0518
 7678TIP3    H222974   1.242   4.418   5.256  0.4495 -0.5935  1.3175
 7679TIP3   OH222975   5.336   4.709   4.403 -0.3860  0.0507  0.5698
 7679TIP3    H122976   5.390   4.762   4.344 -0.9984 -0.9034 -0.8621
 7679TIP3    H222977   5.386   4.629   4.416  0.7075  1.0761  3.0322
 7680TIP3   OH222978   6.846   5.110   4.102 -0.8690  0.3660 -0.7631
 7680TIP3    H122979   6.820   5.020   4.083  1.3204 -0.2515 -1.0141
 7680TIP3    H222980   6.832   5.119   4.196 -1.6128 -0.0622 -0.8300
 7681TIP3   OH222981   5.487   3.175   2.468 -0.0220 -0.3643  0.5793
 7681TIP3    H122982   5.444   3.243   2.520 -0.9620 -0.9129  0.5295
 7681TIP3    H222983   5.580   3.183   2.489 -0.1094  1.0268  0.4652
 7682TIP3   OH222984   6.305   5.987   5.032  0.0146  0.0545 -0.5382
 7682TIP3    H122985   6.307   5.925   5.104  0.0233  1.2512  0.5204
 7682TIP3    H222986   6.260   6.064   5.068 -0.3685  0.5035 -1.9426
 7683TIP3   OH222987   7.271   4.276   4.553  0.2766 -0.1451  0.2724
 7683TIP3    H122988   7.295   4.316   4.469  0.9630 -0.3647  0.3664
 7683TIP3    H222989   7.178   4.255   4.543  1.3017 -4.1171 -2.0185
 7684TIP3   OH222990   6.509   3.923   4.264 -0.1824 -0.1705 -0.0600
 7684TIP3    H122991   6.494   3.836   4.227  2.0593 -0.5920 -0.0940
 7684TIP3    H222992   6.443   3.931   4.333  0.2233 -2.3532  0.6426
 7685TIP3   OH222993   0.045   6.219   2.357 -0.1922 -0.2306 -0.3144
 7685TIP3    H122994   0.005   6.133   2.373 -0.1005 -0.0309  1.0282
 7685TIP3    H222995   0.132   6.212   2.394 -0.1633  0.4296 -0.2486
 7686TIP3   OH222996   6.173   5.901   1.097 -0.3408  0.4269 -0.5243
 7686TIP3    H122997   6.254   5.934   1.134 -0.6364  0.7359 -0.1516
 7686TIP3    H222998   6.104   5.941   1.150 -0.6847 -1.4190  0.4636
 7687TIP3   OH222999   7.393   5.306   5.007  0.2823  0.0159  0.8910
 7687TIP3    H123000   7.348   5.226   4.979  0.7687  0.5111 -1.4773
 7687TIP3    H223001   7.366   5.319   5.097 -0.9211 -2.0541  0.8602
 7688TIP3   OH223002   4.753   3.421   1.521 -0.7948  0.1341  1.0196
 7688TIP3    H123003   4.719   3.472   1.594 -1.2518  1.0927  0.1536
 7688TIP3    H223004   4.770   3.486   1.452 -1.7078 -0.9136 -0.2265
 7689TIP3   OH223005   6.398   4.531   3.255  0.2810 -0.2828  0.1923
 7689TIP3    H123006   6.398   4.561   3.346  0.3418 -0.2378  0.1779
 7689TIP3    H223007   6.453   4.453   3.256 -0.6969 -0.9699  0.4146
 7690TIP3   OH223008   6.618   5.982   4.123 -0.5044 -0.0811  0.3379
 7690TIP3    H123009   6.690   5.944   4.174 -0.7258 -1.9157 -0.6551
 7690TIP3    H223010   6.602   6.068   4.163  1.1809 -0.3137  1.5581
 7691TIP3   OH223011   5.941   4.620   4.851  0.1304 -0.4246  0.5250
 7691TIP3    H123012   5.906   4.708   4.833 -1.6985 -1.2922 -0.3386
 7691TIP3    H223013   5.986   4.596   4.770  2.1129  0.3971  1.3769
 7692TIP3   OH223014   6.706   1.535   4.387 -0.3574  0.8785  0.0849
 7692TIP3    H123015   6.775   1.480   4.423 -1.9486 -0.9048  0.4989
 7692TIP3    H223016   6.702   1.510   4.294  1.5122  3.1040 -0.6343
 7693TIP3   OH223017   5.898   4.863   4.730 -0.0211 -0.1431 -0.5176
 7693TIP3    H123018   5.990   4.855   4.708  0.1002 -0.3499  0.0559
 7693TIP3    H223019   5.893   4.940   4.788 -0.3424  0.4297 -1.2888
 7694TIP3   OH223020   7.671   5.402   5.689  0.0348 -0.0420 -0.0455
 7694TIP3    H123021   7.606   5.373   5.753 -0.5070 -0.0353 -0.5920
 7694TIP3    H223022   7.718   5.323   5.665  0.1075 -0.0779  0.2122
 7695TIP3   OH223023   6.687   5.338   4.497  0.1294 -0.4837  0.4864
 7695TIP3    H123024   6.751   5.372   4.560  1.1687 -1.1290 -0.2259
 7695TIP3    H223025   6.726   5.258   4.463 -0.4355 -0.1314 -0.9955
 7696TIP3   OH223026   5.474   1.691   3.846  0.0019 -0.2127 -0.2474
 7696TIP3    H123027   5.550   1.652   3.803 -0.5325 -0.2892 -1.1259
 7696TIP3    H223028   5.416   1.717   3.774 -0.8885 -0.3286  0.4162
 7697TIP3   OH223029   3.989   4.358   2.771  0.3360 -0.4273  0.0447
 7697TIP3    H123030   4.069   4.375   2.822  0.6344  2.2026 -1.2607
 7697TIP3    H223031   3.919   4.360   2.836  1.0188  0.0750  0.7861
 7698TIP3   OH223032   5.750   4.838   3.591  0.1740 -0.1043 -0.1090
 7698TIP3    H123033   5.776   4.746   3.598  0.1948 -0.0238  1.0032
 7698TIP3    H223034   5.714   4.859   3.677 -0.4097  0.7539 -0.5584
 7699TIP3   OH223035   5.330   5.561   4.769 -0.2417 -0.4420  0.3540
 7699TIP3    H123036   5.235   5.552   4.767 -0.4482  1.7966 -0.8411
 7699TIP3    H223037   5.358   5.509   4.844 -2.3621 -1.4617  0.4585
 7700TIP3   OH223038   6.672   4.146   3.623  0.6341  0.6234  0.4017
 7700TIP3    H123039   6.588   4.133   3.578  0.9007 -0.6456  0.2645
 7700TIP3    H223040   6.678   4.241   3.634  0.0594  0.8764 -1.2693
 7701TIP3   OH223041   5.578   5.216   3.009 -0.3050 -0.0291 -0.4984
 7701TIP3    H123042   5.539   5.255   3.086 -0.0189  0.6049 -0.6719
 7701TIP3    H223043   5.664   5.185   3.039 -1.3680 -2.4416  0.1671
 7702TIP3   OH223044   7.794   6.092   4.994  0.3539 -0.4241 -0.6564
 7702TIP3    H123045   7.837   6.060   4.915 -0.9899 -0.6991 -1.3015
 7702TIP3    H223046   7.789   6.187   4.981  0.0694 -0.4759 -0.9436
 7703TIP3   OH223047   3.569   6.926   5.242  0.2131 -0.2496 -0.1573
 7703TIP3    H123048   3.531   6.931   5.330  0.2721 -0.6781 -0.1075
 7703TIP3    H223049   3.569   7.016   5.211  1.4104  0.1026  0.8081
 7704TIP3   OH223050   7.057   5.194   4.889  0.0974 -0.0590 -0.1727
 7704TIP3    H123051   6.983   5.241   4.849  1.3243  1.3712 -0.7937
 7704TIP3    H223052   7.068   5.235   4.975  0.5146  0.1101 -0.3052
 7705TIP3   OH223053   6.403   5.037   4.400  0.2580 -0.1228  0.0839
 7705TIP3    H123054   6.308   5.025   4.404  0.3017 -0.3856  0.3715
 7705TIP3    H223055   6.432   4.974   4.333  0.3923 -1.0779  1.0127
 7706TIP3   OH223056   5.848   2.389   3.138 -0.4401 -0.4067  0.2274
 7706TIP3    H123057   5.779   2.324   3.123 -0.2754 -0.2189 -1.4375
 7706TIP3    H223058   5.803   2.463   3.180 -1.2006 -0.4100 -0.5755
 7707TIP3   OH223059   3.324   4.675   3.909 -0.2493 -0.5323  0.3199
 7707TIP3    H123060   3.287   4.674   3.820  1.6980 -0.2080 -0.5361
 7707TIP3    H223061   3.248   4.677   3.967 -1.5610 -0.5929 -1.3464
 7708TIP3   OH223062   6.200   3.620   4.990  0.6639  0.0855 -0.3536
 7708TIP3    H123063   6.173   3.685   4.925 -0.2711 -1.4464 -1.5277
 7708TIP3    H223064   6.291   3.641   5.009  0.0822  2.3595  0.0476
 7709TIP3   OH223065   6.231   4.981   1.870  0.2386 -0.3101 -0.1761
 7709TIP3    H123066   6.262   4.947   1.954  1.0783 -0.1532 -0.4095
 7709TIP3    H223067   6.283   5.061   1.857  0.4168 -0.5690 -1.0403
 7710TIP3   OH223068   7.055   2.982   3.192 -0.0695  0.0681  0.6965
 7710TIP3    H123069   7.031   2.907   3.246 -1.6058 -0.7808 -1.0974
 7710TIP3    H223070   7.125   2.950   3.136 -0.2233  0.1842  0.4356
 7711TIP3   OH223071   3.551   5.021   3.796  0.2040  0.4002  0.0784
 7711TIP3    H123072   3.528   4.932   3.769  0.6189  0.2739  0.1333
 7711TIP3    H223073   3.555   5.070   3.714  1.8904 -0.0825 -0.1454
 7712TIP3   OH223074   6.236   4.020   3.789 -0.4245 -0.3285 -0.1294
 7712TIP3    H123075   6.285   4.092   3.826 -0.8271 -0.5230  0.7940
 7712TIP3    H223076   6.154   4.019   3.838  0.2021 -2.3777  0.9398
 7713TIP3   OH223077   8.114   5.902   4.328  0.3185  0.1560 -0.5053
 7713TIP3    H123078   8.124   5.980   4.384  1.3647 -0.3380  0.0055
 7713TIP3    H223079   8.197   5.855   4.337 -0.8453 -1.7930  0.3462
 7714TIP3   OH223080   6.270   6.180   4.156  0.0930  0.1884  0.7169
 7714TIP3    H123081   6.243   6.145   4.071 -0.0972 -1.4421  1.4335
 7714TIP3    H223082   6.284   6.273   4.140  1.2896 -0.3246 -1.4035
 7715TIP3   OH223083   4.700   4.830   3.315  0.2778  0.0862 -0.4102
 7715TIP3    H123084   4.680   4.757   3.256 -2.1560  0.6975 -0.3713
 7715TIP3    H223085   4.695   4.908   3.260 -1.8753  0.6485  0.5460
 7716TIP3   OH223086   4.327   2.552   3.264  0.0361 -0.1706 -0.0905
 7716TIP3    H123087   4.402   2.556   3.323  0.4583 -1.9273 -0.4612
 7716TIP3    H223088   4.259   2.603   3.307  1.2026  0.8057  0.6116
 7717TIP3   OH223089   6.530   2.830   3.148 -0.3444  0.0738  0.3472
 7717TIP3    H123090   6.565   2.884   3.078  0.8838  0.8839  1.5630
 7717TIP3    H223091   6.540   2.883   3.227  1.0606 -1.9922  1.6021
 7718TIP3   OH223092   7.068   4.339   3.664 -0.4525  0.2098 -0.3238
 7718TIP3    H123093   7.061   4.415   3.722  0.2537  0.0808 -0.0674
 7718TIP3    H223094   7.162   4.327   3.652 -0.5667 -0.5428 -0.4733
 7719TIP3   OH223095   5.492   3.383   5.301 -0.2344  0.2161  0.0124
 7719TIP3    H123096   5.533   3.434   5.231  0.3327 -1.5290 -0.9622
 7719TIP3    H223097   5.524   3.423   5.382 -0.6621  2.0716 -0.7106
 7720TIP3   OH223098   5.657   3.791   4.482 -0.7011  0.6263  0.7421
 7720TIP3    H123099   5.635   3.881   4.458 -2.3299  0.1602  0.4340
 7720TIP3    H223100   5.679   3.796   4.575 -0.6929  1.3672  0.7040
 7721TIP3   OH223101   8.087   2.595   4.197  0.4557  0.4231  0.0376
 7721TIP3    H123102   8.138   2.666   4.237  2.6580 -0.8321 -0.4330
 7721TIP3    H223103   8.068   2.627   4.109  2.7128 -0.1025 -0.6883
 7722TIP3   OH223104   5.415   1.655   3.279 -0.3788  0.4769 -0.0907
 7722TIP3    H123105   5.375   1.587   3.225 -1.8448 -0.3957  2.0235
 7722TIP3    H223106   5.360   1.659   3.357  1.7781  1.5883  1.4196
 7723TIP3   OH223107   7.189   4.867   3.945 -0.1086 -0.1655 -0.2492
 7723TIP3    H123108   7.103   4.895   3.915 -1.4225 -3.0635  0.7340
 7723TIP3    H223109   7.220   4.941   3.998 -1.3575  1.4741 -1.7343
 7724TIP3   OH223110   7.200   2.874   5.145  0.1496 -0.3540 -0.6773
 7724TIP3    H123111   7.272   2.929   5.115 -0.7172  1.9535  1.3255
 7724TIP3    H223112   7.161   2.839   5.065  1.7716  0.5639 -1.8976
 7725TIP3   OH223113   4.557   3.043   4.973 -0.1532  0.3086  0.2525
 7725TIP3    H123114   4.559   2.949   4.988  0.4591 -0.0462 -1.7967
 7725TIP3    H223115   4.613   3.080   5.041 -0.6989 -0.7817  1.2930
 7726TIP3   OH223116   7.234   4.086   5.068 -0.7610 -0.2092 -0.0578
 7726TIP3    H123117   7.168   4.103   5.001 -0.2416  1.1176 -0.2299
 7726TIP3    H223118   7.317   4.111   5.028 -0.4542  0.6979  1.1112
 7727TIP3   OH223119   6.773   5.105   4.362  0.5251  0.2903 -0.2690
 7727TIP3    H123120   6.860   5.082   4.393  0.3141  0.9894  0.9051
 7727TIP3    H223121   6.715   5.042   4.406  0.5960 -1.3892 -2.5157
 7728TIP3   OH223122   4.736   3.241   3.176  0.3229 -0.0134  0.0609
 7728TIP3    H123123   4.671   3.185   3.218  1.9665 -1.7204  0.4214
 7728TIP3    H223124   4.696   3.268   3.093 -0.9397 -0.7848  0.4145
 7729TIP3   OH223125   7.626   6.165   3.085 -0.6655 -0.1061 -0.2800
 7729TIP3    H123126   7.580   6.213   3.016 -0.2873 -0.8440 -1.0616
 7729TIP3    H223127   7.719   6.179   3.066 -0.5527  1.0961  1.0911
 7730TIP3   OH223128   6.045   5.371   3.870  0.1349  0.1413 -0.3871
 7730TIP3    H123129   6.105   5.381   3.796 -2.4665  1.0242 -2.4548
 7730TIP3    H223130   5.992   5.294   3.848  0.4706 -0.6307  1.4075
 7731TIP3   OH223131   5.727   3.240   2.598 -0.0627 -0.2769  0.0148
 7731TIP3    H123132   5.654   3.238   2.659 -0.6565 -0.3607 -0.6859
 7731TIP3    H223133   5.792   3.180   2.636  0.0929  0.6169  1.1808
 7732TIP3   OH223134   5.507   1.317   4.605 -0.1990  0.0207 -0.3689
 7732TIP3    H123135   5.434   1.258   4.587  1.4173 -2.7173  1.7250
 7732TIP3    H223136   5.525   1.306   4.698  2.1462  1.5180 -0.5850
 7733TIP3   OH223137   0.037   7.039   1.738 -0.2249 -0.1338  0.2357
 7733TIP3    H123138   0.120   7.041   1.785  0.6190 -0.6567 -1.2053
 7733TIP3    H223139   0.017   6.946   1.729 -1.6990  0.0059  1.8244
 7734TIP3   OH223140   6.245   2.375   3.680  0.1313  0.0803  0.3053
 7734TIP3    H123141   6.203   2.311   3.737 -0.9887  0.5128 -0.0059
 7734TIP3    H223142   6.188   2.380   3.604  0.7951  0.6386 -0.1620
 7735TIP3   OH223143   6.021   6.338   3.895  0.6681 -0.4880 -0.2855
 7735TIP3    H123144   5.965   6.260   3.904  0.8548 -0.7026 -0.9684
 7735TIP3    H223145   6.098   6.307   3.846  1.7630 -0.3791  1.3413
 7736TIP3   OH223146   7.762   4.796   5.098 -0.0976 -0.7107 -0.5047
 7736TIP3    H123147   7.676   4.757   5.111  1.1482 -3.6893 -0.7105
 7736TIP3    H223148   7.785   4.833   5.183 -2.1529  1.4868 -0.8334
 7737TIP3   OH223149   5.728   4.264   3.367 -0.3892 -0.1261  0.0543
 7737TIP3    H123150   5.790   4.272   3.295  2.3469  0.5585  2.3875
 7737TIP3    H223151   5.716   4.170   3.378  0.0393 -0.2592 -0.5710
 7738TIP3   OH223152   6.008   5.495   3.133  0.9199  0.2600 -0.4111
 7738TIP3    H123153   5.963   5.420   3.095  2.0646 -1.1215  0.9019
 7738TIP3    H223154   6.022   5.471   3.225  2.3963  1.5618 -0.2639
 7739TIP3   OH223155   6.731   4.071   4.423 -0.0192 -0.6782  0.2145
 7739TIP3    H123156   6.733   4.065   4.518 -0.5565 -0.9182  0.2087
 7739TIP3    H223157   6.646   4.036   4.398 -0.2127  0.1351 -0.2948
 7740TIP3   OH223158   0.220   6.110   2.923  0.1716  0.1667  0.2152
 7740TIP3    H123159   0.149   6.054   2.953  1.1405 -1.3999 -0.3681
 7740TIP3    H223160   0.295   6.085   2.977  0.6261  0.8428 -0.0964
 7741TIP3   OH223161   7.287   4.963   3.360 -0.5796  0.2559 -0.1686
 7741TIP3    H123162   7.193   4.948   3.350 -0.6078  0.1344  0.2626
 7741TIP3    H223163   7.301   4.964   3.454 -0.2539  0.9616 -0.2199
 7742TIP3   OH223164   6.854   3.346   4.221 -0.7972 -0.0581 -0.1609
 7742TIP3    H123165   6.774   3.362   4.272 -0.1043  0.7476  0.6881
 7742TIP3    H223166   6.869   3.428   4.175 -0.8177 -0.4304 -0.8278
 7743TIP3   OH223167   5.632   5.987   4.276 -0.0553  0.6346 -0.0535
 7743TIP3    H123168   5.575   5.931   4.329 -0.0631  1.2777  0.6258
 7743TIP3    H223169   5.721   5.966   4.305 -0.1009  1.5203  0.7466
 7744TIP3   OH223170   6.294   4.229   2.961 -0.5522 -0.0687  0.5452
 7744TIP3    H123171   6.222   4.235   3.023 -0.6822  0.3089  0.3579
 7744TIP3    H223172   6.295   4.137   2.934 -0.4067 -0.2659  1.2038
 7745TIP3   OH223173   6.199   5.828   4.579 -0.1597  0.7925 -0.4993
 7745TIP3    H123174   6.262   5.868   4.519  1.3144 -1.7116 -0.6832
 7745TIP3    H223175   6.149   5.767   4.524 -0.1761 -0.0028  0.3763
 7746TIP3   OH223176   7.758   3.733   1.279  0.4863 -0.2563 -0.3264
 7746TIP3    H123177   7.757   3.714   1.185  0.3141  0.0350 -0.3848
 7746TIP3    H223178   7.702   3.811   1.288  0.7836 -0.0764 -0.0281
 7747TIP3   OH223179   6.160   3.694   4.551 -0.7152 -0.4196 -0.1836
 7747TIP3    H123180   6.157   3.756   4.625 -1.3598 -0.3476 -0.2690
 7747TIP3    H223181   6.253   3.689   4.529 -0.7126  1.0586 -0.6171
 7748TIP3   OH223182   5.037   5.385   3.018 -0.0562  0.1380  0.2896
 7748TIP3    H123183   5.126   5.352   3.011 -0.8568 -1.4190 -3.1852
 7748TIP3    H223184   4.986   5.312   3.053 -0.3503  0.3868  0.3886
 7749TIP3   OH223185   6.388   6.394   3.516  0.0104  0.0141  0.2647
 7749TIP3    H123186   6.309   6.417   3.564 -0.3180 -1.3198  0.3762
 7749TIP3    H223187   6.385   6.447   3.437 -0.2397  1.0600  0.9652
 7750TIP3   OH223188   5.980   6.358   3.022 -0.0001 -0.0544  0.0515
 7750TIP3    H123189   5.997   6.392   2.934 -0.9633  1.5150  0.4626
 7750TIP3    H223190   5.904   6.300   3.012  2.1434 -2.8559 -0.8004
 7751TIP3   OH223191   6.248   5.669   3.790 -0.0623  0.0543  0.0504
 7751TIP3    H123192   6.242   5.586   3.743  2.7125 -1.0618  1.5578
 7751TIP3    H223193   6.340   5.677   3.815 -0.8651  2.0292  2.7092
 7752TIP3   OH223194   3.341   6.367   5.332  0.6860  0.4478  0.5028
 7752TIP3    H123195   3.356   6.287   5.281  2.7617  1.6412 -0.8347
 7752TIP3    H223196   3.394   6.356   5.411  1.6367  0.8187 -0.0667
 7753TIP3   OH223197   8.154   1.848   2.855 -0.2249  0.1244 -0.5739
 7753TIP3    H123198   8.240   1.826   2.820 -0.5973  0.3361 -1.6469
 7753TIP3    H223199   8.117   1.764   2.882  0.6483  0.1314  0.6868
 7754TIP3   OH223200   7.414   4.224   6.435 -0.0540  0.3196 -0.2059
 7754TIP3    H123201   7.429   4.225   6.530 -0.1367  1.8584 -0.2046
 7754TIP3    H223202   7.496   4.256   6.397  0.2004 -0.8727 -0.7039
 7755TIP3   OH223203   6.985   3.438   2.483 -0.2724 -0.3189  0.4471
 7755TIP3    H123204   6.915   3.502   2.467  1.7444  1.8665  0.1769
 7755TIP3    H223205   6.980   3.377   2.409 -0.4975  1.1014 -0.7241
 7756TIP3   OH223206   8.280   0.312   3.129 -0.0986  0.2343 -0.7765
 7756TIP3    H123207   8.247   0.222   3.137 -2.0386  1.0249  0.6566
 7756TIP3    H223208   8.372   0.307   3.156 -0.3090 -1.2488 -0.3253
 7757TIP3   OH223209   3.672   2.578   3.009  0.4570 -0.0552 -0.4690
 7757TIP3    H123210   3.581   2.599   3.032  0.6200  0.4985 -0.3400
 7757TIP3    H223211   3.686   2.619   2.923 -0.2990 -2.5130 -1.8180
 7758TIP3   OH223212   5.061   5.936   2.831  0.2828 -0.0127  0.0232
 7758TIP3    H123213   5.011   5.988   2.768 -1.8980 -0.7524  1.1145
 7758TIP3    H223214   4.998   5.911   2.898  1.5983 -2.9218  0.2520
 7759TIP3   OH223215   5.470   2.757   2.641 -0.9373  0.7414  0.4307
 7759TIP3    H123216   5.394   2.721   2.687 -0.9431  0.9149  0.5591
 7759TIP3    H223217   5.432   2.813   2.573 -0.9951 -2.4669 -2.2469
 7760TIP3   OH223218   7.003   2.791   4.959 -0.8399 -0.3127  0.1027
 7760TIP3    H123219   6.912   2.764   4.971 -1.6374  1.2552 -1.9955
 7760TIP3    H223220   7.003   2.839   4.876  1.3961  2.0317  1.3759
 7761TIP3   OH223221   6.271   3.386   3.518  0.3500 -0.1109 -0.1767
 7761TIP3    H123222   6.183   3.349   3.516  0.5546 -0.6273  0.0640
 7761TIP3    H223223   6.320   3.326   3.573  1.1283 -0.4518 -1.2132
 7762TIP3   OH223224   4.816   6.119   4.787  0.3682 -0.2639  0.3782
 7762TIP3    H123225   4.752   6.119   4.859 -0.2260  1.8295 -0.1116
 7762TIP3    H223226   4.770   6.163   4.715  1.9694  0.2226 -0.3576
 7763TIP3   OH223227   5.818   4.089   4.895 -0.0516 -0.3474 -0.5327
 7763TIP3    H123228   5.884   4.139   4.942 -1.5542  0.7811  0.4148
 7763TIP3    H223229   5.737   4.138   4.907 -1.2214 -2.0716 -1.0778
 7764TIP3   OH223230   6.996   4.311   3.075 -0.9946 -0.6632 -0.4223
 7764TIP3    H123231   6.939   4.342   3.004  0.0298 -2.2972 -2.0048
 7764TIP3    H223232   6.940   4.257   3.130 -1.3946 -0.7739 -0.9430
 7765TIP3   OH223233   7.695   3.314   4.961  0.6273  0.6436  0.1658
 7765TIP3    H123234   7.610   3.272   4.969 -0.4377  2.8606  0.7784
 7765TIP3    H223235   7.756   3.241   4.949 -1.3067 -0.9824 -0.1088
 7766TIP3   OH223236   5.424   6.616   3.478 -0.0251 -0.2671 -0.3103
 7766TIP3    H123237   5.342   6.612   3.528  0.5693 -0.6073  0.6529
 7766TIP3    H223238   5.460   6.703   3.497  0.6834 -0.7634  0.6302
 7767TIP3   OH223239   7.741   2.361   4.081  0.6945  0.1578  0.0409
 7767TIP3    H123240   7.801   2.386   4.150  1.3678  0.2732 -0.5789
 7767TIP3    H223241   7.727   2.268   4.093  2.6928 -0.3249 -1.0928
 7768TIP3   OH223242   5.642   4.091   3.954  0.3121  0.0574  0.3084
 7768TIP3    H123243   5.668   4.026   3.889 -0.1618  0.4877 -0.3240
 7768TIP3    H223244   5.719   4.146   3.966  0.5875 -0.3773  0.5504
 7769TIP3   OH223245   5.525   5.471   1.790 -0.5395  0.0164  0.4671
 7769TIP3    H123246   5.547   5.505   1.877  1.8807 -0.9807  0.2982
 7769TIP3    H223247   5.480   5.388   1.808  2.0965 -1.4094  0.8115
 7770TIP3   OH223248   4.996   5.907   3.457  0.6547 -0.1886  0.1622
 7770TIP3    H123249   5.070   5.870   3.409 -0.0078 -1.6068  0.1946
 7770TIP3    H223250   4.983   5.847   3.531 -1.2735 -0.6530 -0.5164
 7771TIP3   OH223251   4.887   3.854   2.701  0.2526  0.2723 -0.4343
 7771TIP3    H123252   4.820   3.788   2.715 -1.8149  2.4334  0.2392
 7771TIP3    H223253   4.967   3.814   2.735 -0.7148 -2.2459 -0.9803
 7772TIP3   OH223254   7.146   5.242   2.617  0.1643  0.3826  0.4256
 7772TIP3    H123255   7.089   5.170   2.642 -0.6716  0.3621 -1.4314
 7772TIP3    H223256   7.134   5.250   2.522  2.8135  0.7631  0.0954
 7773TIP3   OH223257   5.614   4.300   2.864  0.1231  0.3036 -0.3958
 7773TIP3    H123258   5.612   4.387   2.824 -0.1796  2.3101  3.6801
 7773TIP3    H223259   5.704   4.291   2.896  0.2159 -0.9956 -0.9910
 7774TIP3   OH223260   5.599   7.189   4.367  0.2472  0.1888  0.1130
 7774TIP3    H123261   5.539   7.225   4.302  0.0561 -2.1340 -1.0535
 7774TIP3    H223262   5.601   7.095   4.349  0.4866 -0.4719  3.2195
 7775TIP3   OH223263   4.435   5.063   4.970 -0.6347  0.3039  0.5554
 7775TIP3    H123264   4.405   5.141   4.923  0.9893  0.1355 -0.8109
 7775TIP3    H223265   4.423   4.991   4.908 -0.2336 -0.2146  1.0716
 7776TIP3   OH223266   5.496   5.726   4.633  0.1345 -0.0043  0.5982
 7776TIP3    H123267   5.579   5.680   4.645  0.0387 -0.3241  0.0469
 7776TIP3    H223268   5.430   5.669   4.674  0.0532 -0.2356  0.1534
 7777TIP3   OH223269   5.248   4.651   2.154  0.4649  0.6232 -0.0973
 7777TIP3    H123270   5.252   4.673   2.247 -0.9550  0.6829 -0.0363
 7777TIP3    H223271   5.156   4.631   2.138  1.0252 -1.3054 -1.0592
 7778TIP3   OH223272   5.129   4.076   6.001 -0.2609 -0.2167  0.7170
 7778TIP3    H123273   5.164   4.025   6.074  0.5897  1.2203  1.3473
 7778TIP3    H223274   5.203   4.130   5.972 -1.3659  1.3424  0.7089
 7779TIP3   OH223275   4.398   5.520   3.128  0.0058 -0.1292  0.1582
 7779TIP3    H123276   4.397   5.553   3.038  0.0677  0.6110  0.4316
 7779TIP3    H223277   4.400   5.598   3.183 -1.8521 -0.5189  0.8333
 7780TIP3   OH223278   4.351   3.424   5.894  0.9453  0.8700  0.3705
 7780TIP3    H123279   4.370   3.440   5.801  1.8494 -0.6779  0.2890
 7780TIP3    H223280   4.365   3.331   5.906  1.0949  1.1150  2.1484
 7781TIP3   OH223281   4.266   2.585   6.154  0.6877  1.0099 -0.3084
 7781TIP3    H123282   4.275   2.491   6.166 -1.1506  0.8795  0.2438
 7781TIP3    H223283   4.216   2.594   6.072  1.4409  1.5248 -0.7187
 7782TIP3   OH223284   7.010   4.201   4.471 -0.3612  0.5621 -0.1906
 7782TIP3    H123285   7.060   4.132   4.426 -0.7123  1.4539 -1.9478
 7782TIP3    H223286   6.919   4.187   4.444 -0.5648  1.1657  0.1686
 7783TIP3   OH223287   5.063   4.347   3.501 -0.5043 -0.1730  0.3446
 7783TIP3    H123288   5.017   4.430   3.512 -1.3512 -0.4040 -1.2672
 7783TIP3    H223289   5.000   4.281   3.531 -0.3672 -0.3179  0.3143
 7784TIP3   OH223290   6.616   4.883   5.223 -0.6932  0.0810 -0.5412
 7784TIP3    H123291   6.538   4.836   5.191 -0.2990 -0.5231 -0.6199
 7784TIP3    H223292   6.584   4.933   5.298 -1.2023 -0.0192 -0.6865
 7785TIP3   OH223293   4.844   5.143   6.920 -0.4593 -0.6834 -0.5571
 7785TIP3    H123294   4.886   5.060   6.897  1.7088  0.0566  0.6427
 7785TIP3    H223295   4.876   5.205   6.855  0.6920 -0.0229  0.6184
 7786TIP3   OH223296   4.128   4.087   2.916 -0.3576 -0.3820 -0.0170
 7786TIP3    H123297   4.098   4.164   2.964 -0.7284 -0.7873  0.4053
 7786TIP3    H223298   4.204   4.118   2.867 -1.9544  0.8970 -1.7909
 7787TIP3   OH223299   5.173   5.102   6.850 -0.2693  0.0137  0.1435
 7787TIP3    H123300   5.118   5.024   6.857 -0.7697  0.3700  0.1544
 7787TIP3    H223301   5.135   5.164   6.912  1.3549 -0.4646  1.6480
 7788TIP3   OH223302   6.495   3.185   3.137 -0.1196 -0.5075 -0.1374
 7788TIP3    H123303   6.569   3.246   3.135 -0.1846 -0.3558  1.3084
 7788TIP3    H223304   6.516   3.125   3.209 -1.1402 -0.7916 -0.0779
 7789TIP3   OH223305   6.332   6.449   4.273  0.1402  0.1060  0.4755
 7789TIP3    H123306   6.302   6.486   4.356  0.8630 -1.3014  1.3774
 7789TIP3    H223307   6.426   6.465   4.272  0.1099  0.2586 -0.1493
 7790TIP3   OH223308   6.964   3.041   2.236 -0.0394 -0.3054 -0.5321
 7790TIP3    H123309   7.023   3.044   2.161  0.4081  0.7592 -0.1433
 7790TIP3    H223310   6.880   3.015   2.199 -0.1899  1.6840 -1.6484
 7791TIP3   OH223311   6.551   4.744   3.837  0.9131 -0.3722 -0.3202
 7791TIP3    H123312   6.528   4.832   3.808  1.0128 -0.7629 -1.6223
 7791TIP3    H223313   6.479   4.689   3.805  1.5861 -0.9761 -0.8382
 7792TIP3   OH223314   5.578   4.260   4.889 -0.3764 -0.0820 -0.5770
 7792TIP3    H123315   5.522   4.226   4.818 -0.1611 -2.0699  0.1635
 7792TIP3    H223316   5.520   4.266   4.964 -0.4535  1.4254 -0.7516
 7793TIP3   OH223317   6.667   6.288   2.924 -0.2368  0.2940  0.0860
 7793TIP3    H123318   6.723   6.217   2.955 -0.9370 -1.3910 -2.3710
 7793TIP3    H223319   6.586   6.277   2.973  0.0045  0.0075  0.4246
 7794TIP3   OH223320   6.619   6.484   4.231  0.1503 -0.2855 -0.2206
 7794TIP3    H123321   6.706   6.496   4.269  0.6195 -2.2700 -0.6261
 7794TIP3    H223322   6.627   6.514   4.141  0.2436  0.0618 -0.1007
 7795TIP3   OH223323   6.914   5.060   2.666 -0.0531  1.5828  0.0004
 7795TIP3    H123324   6.987   5.015   2.625 -1.8278  1.9698 -3.8131
 7795TIP3    H223325   6.892   5.006   2.742  2.5766  0.1439 -0.1940
 7796TIP3   OH223326   6.546   2.852   3.788  0.0898 -0.3287  0.1192
 7796TIP3    H123327   6.505   2.894   3.863  1.1631  0.2383  0.3811
 7796TIP3    H223328   6.523   2.908   3.713  0.7440  0.2195  0.3293
 7797TIP3   OH223329   5.831   4.061   2.897  0.1481 -0.5976  0.3207
 7797TIP3    H123330   5.783   4.121   2.954 -1.1381 -0.3939 -0.9224
 7797TIP3    H223331   5.811   4.092   2.809  3.1053 -0.1461 -0.2404
 7798TIP3   OH223332   8.248   1.587   4.068 -0.0836 -0.0179  0.3111
 7798TIP3    H123333   8.190   1.606   4.142  2.0716  1.2707  1.7093
 7798TIP3    H223334   8.298   1.510   4.096  0.3209  0.1086 -0.0634
 7799TIP3   OH223335   6.609   6.587   4.580  0.1632  0.5798  0.3144
 7799TIP3    H123336   6.634   6.497   4.557  0.4360  0.4512  1.0656
 7799TIP3    H223337   6.691   6.636   4.577 -0.4548  1.4944 -3.0830
 7800TIP3   OH223338   7.714   5.060   4.566 -0.6224 -0.0408 -0.7020
 7800TIP3    H123339   7.723   5.093   4.476  0.6046 -0.4511 -0.7399
 7800TIP3    H223340   7.783   4.994   4.574 -1.5730 -0.9521  0.1144
 7801TIP3   OH223341   5.149   4.841   6.413  0.7812  0.3368 -0.2114
 7801TIP3    H123342   5.206   4.773   6.377  1.2692  0.7734 -0.2705
 7801TIP3    H223343   5.061   4.812   6.391  0.9646 -0.4712  0.0993
 7802TIP3   OH223344   6.584   4.799   3.515  0.0775 -0.0280 -0.4842
 7802TIP3    H123345   6.524   4.865   3.550 -0.5554 -1.1296  0.5254
 7802TIP3    H223346   6.540   4.716   3.529  1.4420 -0.7824 -0.5634
 7803TIP3   OH223347   4.870   4.478   4.403  0.1670 -0.2707  0.2257
 7803TIP3    H123348   4.966   4.479   4.400  0.2074  0.5434  1.3951
 7803TIP3    H223349   4.843   4.513   4.318  0.9109 -0.3984 -0.0668
 7804TIP3   OH223350   4.866   4.542   3.276  0.2302  0.5822  0.5281
 7804TIP3    H123351   4.821   4.533   3.360 -0.1478 -0.8230  0.2036
 7804TIP3    H223352   4.798   4.569   3.215 -0.1319 -1.1327  0.1241
 7805TIP3   OH223353   7.615   5.833   1.704  0.2039  0.1783  0.7607
 7805TIP3    H123354   7.579   5.784   1.778  0.4869 -1.7401 -0.3339
 7805TIP3    H223355   7.579   5.789   1.626  0.6231  1.5962 -0.2603
 7806TIP3   OH223356   6.078   5.062   4.127  0.0072  0.8249  0.2866
 7806TIP3    H123357   6.045   5.137   4.176  0.6689  0.0653  1.9638
 7806TIP3    H223358   6.075   4.990   4.190 -0.0799 -0.4172 -1.1216
 7807TIP3   OH223359   6.111   7.159   2.845  0.5276 -0.6292 -0.6114
 7807TIP3    H123360   6.139   7.223   2.779  1.2753 -1.2279 -0.8794
 7807TIP3    H223361   6.086   7.082   2.794  1.1885 -1.1236 -0.1922
 7808TIP3   OH223362   7.423   6.783   2.344 -0.7240 -0.0379 -0.4676
 7808TIP3    H123363   7.472   6.799   2.263 -0.0895 -0.2554 -0.1296
 7808TIP3    H223364   7.490   6.762   2.409 -1.2690 -0.3600 -0.0040
 7809TIP3   OH223365   8.191   6.299   4.564  0.3126 -0.1377 -0.3392
 7809TIP3    H123366   8.204   6.218   4.514  0.7947 -0.7598  0.7926
 7809TIP3    H223367   8.239   6.365   4.515 -1.7928 -0.0736 -2.4408
 7810TIP3   OH223368   7.146   3.617   6.814  0.3120  0.0343  0.8372
 7810TIP3    H123369   7.123   3.615   6.907  1.5686  0.9828  1.1884
 7810TIP3    H223370   7.197   3.538   6.800  1.4469  0.6599  1.3369
 7811TIP3   OH223371   6.750   4.554   3.868  0.0692  0.0554  0.6859
 7811TIP3    H123372   6.704   4.477   3.901  0.3924 -1.9746 -3.3638
 7811TIP3    H223373   6.681   4.618   3.848 -0.6606 -1.2376 -1.0100
 7812TIP3   OH223374   6.447   3.221   2.386 -0.0985 -0.2776 -0.2763
 7812TIP3    H123375   6.451   3.215   2.482  2.0613  0.2205 -0.2937
 7812TIP3    H223376   6.379   3.286   2.369 -2.2311 -2.1474  0.8186
 7813TIP3   OH223377   6.117   3.382   4.111 -0.0840  0.5068 -0.5092
 7813TIP3    H123378   6.064   3.438   4.054 -2.6114  1.0534  2.2288
 7813TIP3    H223379   6.091   3.293   4.087 -0.1565  0.6827 -1.0966
 7814TIP3   OH223380   7.434   5.439   2.411  0.8858 -0.0373 -0.4195
 7814TIP3    H123381   7.364   5.502   2.428  1.2283  0.7466 -1.7765
 7814TIP3    H223382   7.437   5.383   2.488 -0.6489  0.4819  0.0208
 7815TIP3   OH223383   6.752   4.806   1.974  0.5642  0.0457 -0.1887
 7815TIP3    H123384   6.697   4.745   1.926  1.2398 -0.3477 -0.4691
 7815TIP3    H223385   6.821   4.752   2.013 -0.0827  0.3344  1.3862
 7816TIP3   OH223386   6.518   3.629   2.742 -0.3202  0.0581 -0.2323
 7816TIP3    H123387   6.458   3.582   2.683 -1.3253  2.0713 -0.8597
 7816TIP3    H223388   6.588   3.661   2.685 -0.3372  0.4412 -0.0412
 7817TIP3   OH223389   7.203   3.614   4.189  0.3030  0.5030 -0.2179
 7817TIP3    H123390   7.224   3.562   4.111  1.4332 -0.0517  0.4597
 7817TIP3    H223391   7.132   3.672   4.159  0.8208  0.4024 -1.7043
 7818TIP3   OH223392   6.498   5.534   4.547 -0.7423  0.7162  0.1358
 7818TIP3    H123393   6.554   5.474   4.497 -0.8273  1.8268 -1.3317
 7818TIP3    H223394   6.445   5.477   4.602  1.8463 -0.3452  1.5724
 7819TIP3   OH223395   6.790   7.531   3.515 -0.8151 -0.1136  0.4348
 7819TIP3    H123396   6.754   7.450   3.479 -1.5396  0.6011 -0.4767
 7819TIP3    H223397   6.714   7.577   3.551 -0.3892  0.1037  1.0547
 7820TIP3   OH223398   8.339   5.542   4.774  0.3359  0.3616 -0.4665
 7820TIP3    H123399   8.256   5.545   4.728 -0.5519 -0.0135  1.0722
 7820TIP3    H223400   8.364   5.634   4.784  0.8900  0.4304 -2.2718
 7821TIP3   OH223401   7.088   2.420   2.391 -0.6434 -0.4382 -0.2708
 7821TIP3    H123402   7.129   2.465   2.317  0.7398 -1.2333 -0.0047
 7821TIP3    H223403   7.085   2.485   2.461 -0.2140 -0.2480 -0.4306
 7822TIP3   OH223404   6.017   4.366   1.552 -0.1632 -0.6957  0.0082
 7822TIP3    H123405   6.008   4.448   1.503 -2.4604 -0.1430  1.2213
 7822TIP3    H223406   5.992   4.298   1.490  2.7551 -0.5931 -1.3099
 7823TIP3   OH223407   6.317   3.957   2.869  0.1187 -0.3294  0.0768
 7823TIP3    H123408   6.245   3.920   2.921  0.6409 -1.8847 -0.2691
 7823TIP3    H223409   6.279   3.968   2.782 -0.6512  1.9444  0.6559
 7824TIP3   OH223410   4.801   3.916   6.309  0.1519 -0.4285  0.1047
 7824TIP3    H123411   4.781   3.853   6.378 -0.6738  0.9683  1.1686
 7824TIP3    H223412   4.760   3.880   6.230 -2.2669 -0.1481  1.1772
 7825TIP3   OH223413   7.630   3.893   3.630  0.1240 -0.2540 -0.3455
 7825TIP3    H123414   7.589   3.901   3.716 -0.9479 -0.2071 -0.8496
 7825TIP3    H223415   7.585   3.819   3.589  0.6985 -0.3389 -0.8269
 7826TIP3   OH223416   6.868   2.639   4.549 -0.7369 -0.1697  0.1811
 7826TIP3    H123417   6.955   2.622   4.512 -0.7844  2.9221 -1.4720
 7826TIP3    H223418   6.832   2.552   4.565  2.5885 -1.5322  0.8114
 7827TIP3   OH223419   6.695   3.877   4.958 -0.1977 -0.4595 -0.3889
 7827TIP3    H123420   6.670   3.969   4.968 -1.3606 -0.6658 -1.3255
 7827TIP3    H223421   6.661   3.851   4.873  1.5558 -1.3192 -0.8590
 7828TIP3   OH223422   5.183   3.635   4.347 -0.5353 -0.2856 -0.2203
 7828TIP3    H123423   5.228   3.675   4.422  0.4241  0.6650 -1.2936
 7828TIP3    H223424   5.174   3.706   4.284 -0.7210 -1.2546 -1.2899
 7829TIP3   OH223425   7.340   6.009   5.155  0.2248 -0.6130 -0.8074
 7829TIP3    H123426   7.272   5.950   5.187  0.2748 -1.0176 -1.4247
 7829TIP3    H223427   7.422   5.971   5.188  0.1265  0.1648  0.3776
 7830TIP3   OH223428   7.173   5.219   3.617  0.3552 -0.1355 -0.2422
 7830TIP3    H123429   7.267   5.216   3.637 -0.0289 -0.2804  1.5409
 7830TIP3    H223430   7.146   5.128   3.612  0.5461 -0.1238 -2.0289
 7831TIP3   OH223431   4.382   4.792   1.708 -0.3647  0.2631 -0.0613
 7831TIP3    H123432   4.453   4.730   1.693 -0.1945  0.3030  0.5691
 7831TIP3    H223433   4.413   4.847   1.780 -1.2569 -0.0661  0.5851
 7832TIP3   OH223434   2.158   0.807   2.773  0.4839 -0.1149 -0.1810
 7832TIP3    H123435   2.186   0.771   2.689 -1.0260  1.1328 -1.2578
 7832TIP3    H223436   2.157   0.902   2.758  0.2644  0.1135  1.2746
 7833TIP3   OH223437   5.815   2.142   6.055  0.1768  0.0217 -0.1245
 7833TIP3    H123438   5.863   2.063   6.082 -0.7425 -0.4183  0.2925
 7833TIP3    H223439   5.763   2.113   5.980 -0.5407  0.0931  0.3407
 7834TIP3   OH223440   4.258   5.194   4.575 -0.0816  0.0715  0.0110
 7834TIP3    H123441   4.211   5.130   4.628  1.5805 -0.1072  1.3103
 7834TIP3    H223442   4.304   5.249   4.639  2.4604 -0.5331 -1.2221
 7835TIP3   OH223443   6.436   4.604   5.186  0.2903 -0.1179  0.5811
 7835TIP3    H123444   6.390   4.648   5.114  0.3975  0.4138  0.8277
 7835TIP3    H223445   6.368   4.553   5.231 -0.1710  1.0212  1.2197
 7836TIP3   OH223446   4.021   3.282   5.749  0.6065 -0.2633 -0.2786
 7836TIP3    H123447   3.997   3.362   5.796  1.7212  0.4919 -0.9659
 7836TIP3    H223448   4.055   3.224   5.816 -0.6067 -0.3390  0.2917
 7837TIP3   OH223449   6.035   5.290   4.290  0.0999  0.3301 -0.6021
 7837TIP3    H123450   6.124   5.301   4.257 -0.1745  1.8174 -0.9020
 7837TIP3    H223451   6.042   5.304   4.385  0.4185 -1.0439 -0.4151
 7838TIP3   OH223452   6.520   3.016   4.049 -0.1219 -0.6125 -0.3464
 7838TIP3    H123453   6.550   3.041   4.136  0.3026  0.1157 -0.6933
 7838TIP3    H223454   6.588   3.048   3.990 -0.4831 -0.9545 -0.9618
 7839TIP3   OH223455   5.895   5.115   3.888 -0.0586  0.5453  0.3905
 7839TIP3    H123456   5.864   5.168   3.961  0.4154 -0.7209  1.5404
 7839TIP3    H223457   5.958   5.055   3.928 -0.7999 -1.0705 -0.8028
 7840TIP3   OH223458   5.481   5.763   3.412  0.0541  0.3825 -0.7425
 7840TIP3    H123459   5.478   5.668   3.422 -1.0723  0.5327  0.5137
 7840TIP3    H223460   5.570   5.782   3.385  0.6107 -0.9303  0.1342
 7841TIP3   OH223461   5.493   5.463   4.308 -0.3759 -0.3085 -0.0860
 7841TIP3    H123462   5.435   5.433   4.238  0.0452 -0.7919 -0.2338
 7841TIP3    H223463   5.568   5.404   4.303 -0.2829 -0.2540  0.6868
 7842TIP3   OH223464   5.894   5.495   3.633 -0.0193  0.4242  0.6841
 7842TIP3    H123465   5.928   5.483   3.722 -0.6148  1.1016  1.0018
 7842TIP3    H223466   5.878   5.589   3.626  1.4870  0.6103 -0.6740
 7843TIP3   OH223467   6.027   6.448   4.300 -0.0412 -0.0210 -0.5903
 7843TIP3    H123468   6.101   6.388   4.293  0.3602 -0.0337  2.8825
 7843TIP3    H223469   5.950   6.391   4.298  0.1184 -0.1868 -2.2434
 7844TIP3   OH223470   5.716   5.281   4.353 -0.3454 -0.3792 -0.1625
 7844TIP3    H123471   5.787   5.321   4.403 -0.3467 -0.5518 -0.0237
 7844TIP3    H223472   5.681   5.214   4.411  1.2730 -2.2918 -1.3493
 7845TIP3   OH223473   3.038   4.441   5.399  0.1867 -0.0441  0.1315
 7845TIP3    H123474   3.033   4.515   5.459  4.4176  0.0600  0.5124
 7845TIP3    H223475   3.058   4.366   5.455  1.8278 -0.3681 -0.8614
 7846TIP3   OH223476   5.908   6.047   2.436  0.3144  0.1838  0.3334
 7846TIP3    H123477   5.907   6.139   2.463 -0.2524  0.1636  0.3954
 7846TIP3    H223478   5.869   6.000   2.509 -1.0350  0.1066 -0.4188
 7847TIP3   OH223479   6.653   2.315   4.181  0.6785  0.2443  0.2147
 7847TIP3    H123480   6.642   2.322   4.086  0.1276 -0.6584  0.2091
 7847TIP3    H223481   6.692   2.399   4.207  0.3352  0.7004 -0.7356
 7848TIP3   OH223482   6.069   2.470   4.058 -0.0572 -0.3469 -0.6396
 7848TIP3    H123483   6.161   2.449   4.041  0.1995  0.8614 -0.8021
 7848TIP3    H223484   6.063   2.564   4.041 -1.3323 -0.4295 -0.6510
 7849TIP3   OH223485   0.038   3.720   2.376  0.5363  0.1664  0.4864
 7849TIP3    H123486   0.032   3.758   2.288 -0.6388  0.5409  0.7085
 7849TIP3    H223487  -0.001   3.787   2.433 -2.4157 -1.7066  0.7672
 7850TIP3   OH223488   5.101   4.584   5.005 -0.2255  0.4456 -0.2794
 7850TIP3    H123489   5.179   4.602   5.058 -1.0739  2.3114  0.3697
 7850TIP3    H223490   5.120   4.623   4.920  0.0283 -0.1447 -0.4943
 7851TIP3   OH223491   5.377   3.879   5.526  0.3666 -0.0849  0.2614
 7851TIP3    H123492   5.390   3.916   5.439  0.7037 -2.0052 -0.5278
 7851TIP3    H223493   5.332   3.796   5.511  0.9218 -0.7027  1.8627
 7852TIP3   OH223494   6.089   3.933   3.347 -0.1409 -0.2413  0.1850
 7852TIP3    H123495   6.121   3.847   3.322  0.4214 -0.4935  1.7232
 7852TIP3    H223496   6.156   3.994   3.316 -0.4959 -0.3630 -0.8208
 7853TIP3   OH223497   6.273   1.739   1.553  0.2309 -0.1734 -0.1639
 7853TIP3    H123498   6.231   1.821   1.579  1.9667  0.5730  0.3539
 7853TIP3    H223499   6.237   1.674   1.614 -2.1376 -0.0898 -1.4099
 7854TIP3   OH223500   4.410   3.309   5.160 -0.3261  0.3503  0.4526
 7854TIP3    H123501   4.369   3.244   5.102 -1.6110  0.0444  1.6565
 7854TIP3    H223502   4.499   3.318   5.127 -0.8546 -0.2417 -1.2076
 7855TIP3   OH223503   4.439   4.447   3.711  0.1641  0.3847  0.7642
 7855TIP3    H123504   4.454   4.386   3.639 -0.7482  0.8432  0.1797
 7855TIP3    H223505   4.361   4.413   3.756 -1.0173  1.7107 -0.2292
 7856TIP3   OH223506   5.704   5.562   3.109  0.1004  0.5611  0.2176
 7856TIP3    H123507   5.791   5.592   3.134  0.1144  0.6965  0.0035
 7856TIP3    H223508   5.713   5.532   3.019 -0.6830  3.1170 -0.7453
 7857TIP3   OH223509   5.779   5.270   1.271  0.2683 -0.0821 -0.3661
 7857TIP3    H123510   5.699   5.230   1.303  1.5078 -1.4264  1.1420
 7857TIP3    H223511   5.750   5.343   1.217 -1.9809 -1.4084 -0.9930
 7858TIP3   OH223512   5.506   2.282   5.362 -0.2175  0.2456 -0.3281
 7858TIP3    H123513   5.591   2.325   5.347 -1.0581  2.0378 -0.1433
 7858TIP3    H223514   5.505   2.263   5.455 -0.2816  0.8525 -0.1997
 7859TIP3   OH223515   5.730   4.738   3.882  0.2254 -0.3272 -0.2166
 7859TIP3    H123516   5.711   4.658   3.832  2.1440 -0.0716 -1.3905
 7859TIP3    H223517   5.710   4.714   3.973 -2.0571 -1.2059 -0.9121
 7860TIP3   OH223518   4.797   3.625   3.369 -0.0531  0.1787 -0.3523
 7860TIP3    H123519   4.709   3.600   3.343 -0.5977  0.0246  1.5958
 7860TIP3    H223520   4.838   3.544   3.400  0.1700  0.5959  0.4471
 7861TIP3   OH223521   6.977   4.883   1.795  0.5371  0.1493 -0.0621
 7861TIP3    H123522   6.889   4.860   1.827  0.3750  0.3989 -0.3294
 7861TIP3    H223523   7.008   4.802   1.754 -0.1019  0.4472 -1.1487
 7862TIP3   OH223524   6.114   4.692   4.340 -0.3504 -0.1090 -0.0380
 7862TIP3    H123525   6.201   4.655   4.354  0.1082  0.7503 -0.5623
 7862TIP3    H223526   6.073   4.634   4.277 -0.1305 -0.4881  0.1701
 7863TIP3   OH223527   6.745   2.584   3.312 -0.2992 -0.5864 -0.1306
 7863TIP3    H123528   6.674   2.637   3.349  0.2710  1.3710 -1.7677
 7863TIP3    H223529   6.726   2.581   3.218  2.0300  0.3945 -0.6755
 7864TIP3   OH223530   8.338   4.899   3.027  0.1585  0.0200  0.6770
 7864TIP3    H123531   8.408   4.962   3.010  1.0386 -1.3274 -0.7983
 7864TIP3    H223532   8.274   4.914   2.957  0.2542 -0.5644  0.4666
 7865TIP3   OH223533   7.693   3.696   1.699  0.5195 -0.6206 -0.1451
 7865TIP3    H123534   7.767   3.742   1.738  0.0969 -0.3243  0.3272
 7865TIP3    H223535   7.698   3.717   1.606  0.6019  0.0106 -0.0040
 7866TIP3   OH223536   7.878   6.737   4.877  0.5279 -0.0493 -0.1253
 7866TIP3    H123537   7.947   6.733   4.811 -0.8391 -0.8741 -1.5433
 7866TIP3    H223538   7.838   6.823   4.865  0.8671  0.1595  0.2387
 7867TIP3   OH223539   6.785   2.801   4.341  0.0734 -0.5907  0.1461
 7867TIP3    H123540   6.831   2.882   4.362 -1.9482  0.6300  0.0126
 7867TIP3    H223541   6.812   2.739   4.409  1.6999  0.1497  0.1973
 7868TIP3   OH223542   7.717   6.837   1.630  0.1556 -0.4953 -0.0104
 7868TIP3    H123543   7.783   6.769   1.619  1.7094  0.8647  0.6607
 7868TIP3    H223544   7.762   6.918   1.608 -1.5715  0.3720 -0.4661
 7869TIP3   OH223545   8.294   5.452   2.159 -0.1238  0.1517 -0.4033
 7869TIP3    H123546   8.251   5.371   2.188 -1.5766  1.3663  0.9464
 7869TIP3    H223547   8.369   5.462   2.218  0.1281 -0.2713 -0.6507
 7870TIP3   OH223548   8.363   3.847   5.216  0.5363 -0.3641  0.7154
 7870TIP3    H123549   8.293   3.790   5.248 -0.9940  1.2499  0.3107
 7870TIP3    H223550   8.331   3.880   5.132  2.8537 -1.5131 -0.6834
 7871TIP3   OH223551   7.079   6.495   3.334 -0.2204  0.0222  0.4544
 7871TIP3    H123552   7.129   6.572   3.361 -0.2868 -0.3522  1.6582
 7871TIP3    H223553   7.080   6.499   3.238 -0.6775  1.8127  0.4996
 7872TIP3   OH223554   0.009   5.298   3.518  0.0013  0.1516 -0.1869
 7872TIP3    H123555   0.026   5.277   3.426  1.8885 -1.9608  0.6038
 7872TIP3    H223556   0.038   5.388   3.528 -2.0500  1.0768 -2.1043
 7873TIP3   OH223557   6.678   4.361   3.364  0.6309  0.1863 -0.2585
 7873TIP3    H123558   6.767   4.327   3.363 -0.4812 -3.1237  1.6224
 7873TIP3    H223559   6.665   4.392   3.454 -1.4672 -3.6240  0.8839
 7874TIP3   OH223560   8.050   4.375   3.230 -0.1736 -0.1903  0.5504
 7874TIP3    H123561   8.125   4.433   3.217 -0.1920  0.3356  2.5201
 7874TIP3    H223562   7.984   4.430   3.273 -1.6695 -0.6687 -1.0879
 7875TIP3   OH223563   8.111   2.937   3.796 -0.1045 -0.0108  0.4608
 7875TIP3    H123564   8.185   2.934   3.736 -0.3831 -1.1467  0.1625
 7875TIP3    H223565   8.139   2.997   3.866  0.6701  0.3965 -0.1871
 7876TIP3   OH223566   0.708   1.749   3.849  0.1780 -0.4718 -0.0121
 7876TIP3    H123567   0.684   1.831   3.806 -2.6322 -1.8707 -1.2664
 7876TIP3    H223568   0.768   1.706   3.789 -0.8157 -0.7215 -0.8532
 7877TIP3   OH223569   5.797   4.820   5.665 -0.3810  0.4935 -0.7325
 7877TIP3    H123570   5.870   4.864   5.622 -0.6663  1.7704  0.0488
 7877TIP3    H223571   5.762   4.761   5.599  0.7981  0.5392 -1.4003
 7878TIP3   OH223572   7.481   6.635   4.381 -0.0457  0.4523  0.2262
 7878TIP3    H123573   7.548   6.567   4.385 -0.4099  0.1083  0.5244
 7878TIP3    H223574   7.472   6.654   4.288  1.4773  1.5148  0.2715
 7879TIP3   OH223575   6.343   6.372   5.101 -0.1636  0.1683  0.3049
 7879TIP3    H123576   6.320   6.460   5.130  0.2113  0.3109  0.1753
 7879TIP3    H223577   6.325   6.316   5.176  0.3990  0.4751  0.6714
 7880TIP3   OH223578   6.829   5.832   4.287 -0.1830  0.0820 -0.3338
 7880TIP3    H123579   6.867   5.770   4.350 -1.6027 -0.1660  0.3002
 7880TIP3    H223580   6.872   5.915   4.306  1.0890 -0.5170 -0.5888
 7881TIP3   OH223581   5.387   6.639   1.565  0.4419 -0.7663  0.7127
 7881TIP3    H123582   5.388   6.680   1.479 -1.5199 -1.0048  0.5565
 7881TIP3    H223583   5.476   6.606   1.577  1.5053  1.6919 -0.0409
 7882TIP3   OH223584   6.824   5.508   1.285 -0.1289 -0.0606  0.3496
 7882TIP3    H123585   6.733   5.532   1.303  0.6830  1.1122  3.0872
 7882TIP3    H223586   6.843   5.439   1.348  0.2521 -1.8459 -1.6634
 7883TIP3   OH223587   8.262   3.803   1.725 -0.0983 -0.3632 -0.5016
 7883TIP3    H123588   8.280   3.790   1.632 -0.1441 -0.3616 -0.5107
 7883TIP3    H223589   8.170   3.779   1.736 -0.5536  1.2032 -0.7693
 7884TIP3   OH223590   6.497   4.841   4.213 -0.5122  0.1984  0.0387
 7884TIP3    H123591   6.580   4.833   4.167  0.0618 -1.9543  1.3694
 7884TIP3    H223592   6.433   4.860   4.144  0.9494  1.1115 -1.0933
 7885TIP3   OH223593   8.090   4.172   2.937 -0.2149 -0.2755 -0.1514
 7885TIP3    H123594   8.178   4.209   2.932 -0.1021 -0.6043 -0.6159
 7885TIP3    H223595   8.063   4.161   2.846 -0.2782 -1.2585 -0.0254
 7886TIP3   OH223596   6.728   5.562   3.296 -0.1105 -0.0019 -0.5650
 7886TIP3    H123597   6.788   5.622   3.341 -1.4584 -0.0391  1.3321
 7886TIP3    H223598   6.653   5.616   3.272 -0.4624 -0.5119 -0.6098
 7887TIP3   OH223599   0.232   4.709   3.532  0.5221  0.2971  0.2988
 7887TIP3    H123600   0.307   4.682   3.585  0.8792  0.6795 -0.0103
 7887TIP3    H223601   0.271   4.761   3.461  0.2129 -1.3786 -1.1341
 7888TIP3   OH223602   6.383   4.809   2.831 -0.0809 -0.4373  0.7436
 7888TIP3    H123603   6.471   4.839   2.809 -0.5440 -0.1651 -0.8159
 7888TIP3    H223604   6.393   4.762   2.914  1.7401 -1.4768 -0.0578
 7889TIP3   OH223605   7.420   2.993   4.413  0.2068 -0.0171  0.1420
 7889TIP3    H123606   7.512   2.977   4.392  0.6151  0.4657  1.5305
 7889TIP3    H223607   7.398   2.927   4.479 -0.1930  0.4141  0.4427
 7890TIP3   OH223608   7.734   5.449   4.076 -0.2702 -0.3609 -0.1348
 7890TIP3    H123609   7.734   5.540   4.104 -0.9628 -0.4793  0.2423
 7890TIP3    H223610   7.742   5.399   4.157  1.5793 -0.6099 -0.4375
 7891TIP3   OH223611   8.297   5.235   3.118  0.3366 -0.0292 -0.4423
 7891TIP3    H123612   8.211   5.222   3.077  0.0634 -1.2059  0.4720
 7891TIP3    H223613   8.360   5.214   3.048 -0.1288 -0.3248 -0.7760
 7892TIP3   OH223614   7.107   3.536   3.530 -0.6379 -0.3596 -0.0748
 7892TIP3    H123615   7.163   3.599   3.486  0.4447 -2.9481 -2.6242
 7892TIP3    H223616   7.166   3.485   3.585 -1.0490 -0.8465 -0.0770
 7893TIP3   OH223617   7.300   5.127   4.077 -0.0186 -0.6495  0.3866
 7893TIP3    H123618   7.380   5.178   4.063  0.2717 -0.8873  1.1624
 7893TIP3    H223619   7.235   5.191   4.107  0.4469 -0.7882  1.7156
 7894TIP3   OH223620   7.079   6.744   4.679 -0.7938  0.7840  0.4895
 7894TIP3    H123621   7.140   6.741   4.753  1.9274  4.0262 -1.5115
 7894TIP3    H223622   7.135   6.741   4.601 -3.3539  1.1174 -1.4312
 7895TIP3   OH223623   7.815   5.087   3.826 -0.2579  0.2598  0.3043
 7895TIP3    H123624   7.732   5.053   3.795 -0.0919  0.8450 -0.8033
 7895TIP3    H223625   7.873   5.010   3.828 -0.2590  0.2274 -0.8677
 7896TIP3   OH223626   6.591   5.449   4.236 -0.0387  0.6727 -0.4687
 7896TIP3    H123627   6.565   5.541   4.241 -1.4508  0.2267  0.6405
 7896TIP3    H223628   6.660   5.440   4.302 -1.0391  0.5775  0.5818
 7897TIP3   OH223629   7.171   4.003   2.653  0.2912 -0.4347  0.0450
 7897TIP3    H123630   7.163   4.060   2.577 -1.0548  0.4716  0.8390
 7897TIP3    H223631   7.193   4.062   2.725  0.0786 -1.0768  0.6446
 7898TIP3   OH223632   6.365   4.396   4.684 -0.2566  0.1095 -0.2513
 7898TIP3    H123633   6.388   4.353   4.766  0.2553 -0.6032 -0.7611
 7898TIP3    H223634   6.325   4.478   4.711 -0.7484 -0.4392  0.7253
 7899TIP3   OH223635   0.526   6.723   2.759 -0.2333 -0.0383  0.8211
 7899TIP3    H123636   0.441   6.685   2.784 -0.9078  0.2143 -0.9997
 7899TIP3    H223637   0.532   6.707   2.664  1.0046  1.4088  0.6402
 7900TIP3   OH223638   8.022   6.483   2.924 -0.3278 -0.2108  0.5610
 7900TIP3    H123639   7.958   6.550   2.900 -1.2368 -1.1672  0.3018
 7900TIP3    H223640   8.050   6.507   3.012 -1.2364  0.0618  0.7761
 7901TIP3   OH223641   6.942   4.302   3.430 -0.3711  0.4730 -0.1697
 7901TIP3    H123642   6.930   4.207   3.422  1.1027  0.2736 -0.0178
 7901TIP3    H223643   6.988   4.314   3.513  0.0929  1.2699 -0.5401
 7902TIP3   OH223644   8.518   6.591   2.702  0.8154  0.5633 -0.3913
 7902TIP3    H123645   8.502   6.628   2.615 -0.3273 -3.4922 -2.0327
 7902TIP3    H223646   8.444   6.532   2.717  1.2971  0.7442  3.0930
 7903TIP3   OH223647   5.523   3.917   4.183  0.3946  0.3205  0.5601
 7903TIP3    H123648   5.538   3.974   4.108 -2.8291  0.4097 -0.0986
 7903TIP3    H223649   5.498   3.833   4.145 -0.1718  0.0402  1.5186
 7904TIP3   OH223650   5.760   5.837   3.337  0.1933  0.5135  0.4409
 7904TIP3    H123651   5.795   5.799   3.418 -0.8331  0.4354  0.8506
 7904TIP3    H223652   5.836   5.843   3.280  1.1473  1.6041  1.7929
 7905TIP3   OH223653   7.675   4.470   5.443  0.1179  0.0302 -0.0081
 7905TIP3    H123654   7.750   4.507   5.396  0.9408  0.1630  1.3617
 7905TIP3    H223655   7.630   4.545   5.480  0.9200 -0.2006  1.4999
 7906TIP3   OH223656   7.268   5.692   1.628 -0.5338  0.0476 -0.0136
 7906TIP3    H123657   7.319   5.757   1.580 -0.6359 -0.0465 -0.2546
 7906TIP3    H223658   7.332   5.642   1.678 -0.2732 -0.7325 -1.0987
 7907TIP3   OH223659   6.022   5.633   0.969 -0.5921 -0.2197  0.1648
 7907TIP3    H123660   5.940   5.683   0.968 -0.7429 -0.4668  0.0326
 7907TIP3    H223661   6.061   5.650   0.883 -1.4132 -1.5756 -0.5040
 7908TIP3   OH223662   7.801   7.365   1.260  0.2061 -1.3379 -0.5297
 7908TIP3    H123663   7.893   7.389   1.248  0.0386 -0.9212 -1.0623
 7908TIP3    H223664   7.757   7.401   1.182 -0.5680 -0.6432  0.2101
 7909TIP3   OH223665   7.828   5.466   1.645 -0.0121 -0.2894  0.2987
 7909TIP3    H123666   7.799   5.376   1.631  0.0151 -0.1985 -0.4001
 7909TIP3    H223667   7.919   5.458   1.672 -0.3077 -0.5176  1.2483
 7910TIP3   OH223668   6.154   5.264   2.516 -0.2442 -0.1306 -0.1542
 7910TIP3    H123669   6.102   5.205   2.462 -0.4452  0.3384 -0.4785
 7910TIP3    H223670   6.161   5.220   2.601  1.3956 -1.6031 -1.0302
 7911TIP3   OH223671   0.852   2.371   3.205  0.6927 -0.3558  0.5283
 7911TIP3    H123672   0.812   2.351   3.120  0.7814  0.9706  0.1706
 7911TIP3    H223673   0.801   2.444   3.239  0.9172 -0.6206  1.4414
 7912TIP3   OH223674   0.334   6.183   4.898 -0.3725 -0.1222 -0.0877
 7912TIP3    H123675   0.343   6.264   4.847 -0.5156  1.1307  1.8380
 7912TIP3    H223676   0.344   6.211   4.989  0.4924 -2.4185  0.5466
 7913TIP3   OH223677   6.819   4.734   3.078 -0.1756  0.0850  0.6959
 7913TIP3    H123678   6.866   4.663   3.121 -1.9194 -0.3495  1.9287
 7913TIP3    H223679   6.796   4.794   3.149 -3.2182 -0.7026  0.4579
 7914TIP3   OH223680   6.937   2.327   2.664  0.1436 -0.3256  0.4357
 7914TIP3    H123681   6.985   2.402   2.700 -0.6121  0.8645 -0.9867
 7914TIP3    H223682   6.871   2.307   2.730  2.0295 -1.4232  2.0166
 7915TIP3   OH223683   6.537   6.061   2.472  0.5023 -0.2727 -0.1339
 7915TIP3    H123684   6.541   6.062   2.376 -1.5646 -1.5085 -0.2732
 7915TIP3    H223685   6.523   5.969   2.494  0.6178  0.0569  1.3315
 7916TIP3   OH223686   6.982   6.167   3.189  0.0743  0.3302  0.7456
 7916TIP3    H123687   7.055   6.127   3.237 -0.3608 -0.3869  0.8128
 7916TIP3    H223688   6.947   6.232   3.249  0.8464  0.8908  0.6001
 7917TIP3   OH223689   5.667   3.781   3.260  0.6250  0.0570  0.0923
 7917TIP3    H123690   5.686   3.759   3.169 -0.5560 -0.0122 -0.1389
 7917TIP3    H223691   5.668   3.697   3.306  3.0926  0.2700  0.5152
 7918TIP3   OH223692   7.571   5.055   1.576 -0.4333  0.4055  0.6458
 7918TIP3    H123693   7.644   5.114   1.595 -0.4241  0.2870  0.9867
 7918TIP3    H223694   7.499   5.114   1.552 -0.5415  0.5824  1.3772
 7919TIP3   OH223695   7.596   5.172   4.066  0.5487  0.2207 -0.9378
 7919TIP3    H123696   7.658   5.100   4.053  0.8129  0.3743 -0.5419
 7919TIP3    H223697   7.637   5.227   4.133 -0.4652 -0.1953  0.0428
 7920TIP3   OH223698   8.021   3.415   1.877 -0.0724 -0.3352 -0.1922
 7920TIP3    H123699   8.007   3.330   1.919 -1.0417 -1.0908 -1.9685
 7920TIP3    H223700   8.082   3.396   1.805  1.8333  0.9925  1.0128
 7921TIP3   OH223701   7.107   4.656   2.490 -0.2139 -0.0806 -0.2398
 7921TIP3    H123702   7.019   4.648   2.529  0.1662 -1.5270  0.3509
 7921TIP3    H223703   7.093   4.644   2.396 -0.9957  2.3750 -0.4837
 7922TIP3   OH223704   5.549   3.208   1.524  0.2060  0.0694  0.4550
 7922TIP3    H123705   5.633   3.247   1.545  0.0310  0.3673  0.6001
 7922TIP3    H223706   5.487   3.251   1.582  0.4822 -2.6051  2.8521
 7923TIP3   OH223707   6.105   0.916   2.467  0.0508 -0.2035 -0.0556
 7923TIP3    H123708   6.141   0.987   2.414  0.2404  0.0045  0.3511
 7923TIP3    H223709   6.017   0.946   2.491 -0.1018 -0.3746 -0.3985
 7924TIP3   OH223710   5.875   3.063   2.752  0.5242  0.1583  0.7622
 7924TIP3    H123711   5.949   3.024   2.705  0.0828  2.7267 -2.2192
 7924TIP3    H223712   5.801   3.006   2.730  0.7960 -0.0522  0.3814
 7925TIP3   OH223713   8.239   5.184   4.780 -0.5542  0.5364 -0.2603
 7925TIP3    H123714   8.165   5.213   4.727 -1.0885  1.1943  0.8225
 7925TIP3    H223715   8.204   5.175   4.868  0.5701  0.5032  0.2011
 7926TIP3   OH223716   8.096   4.318   4.776 -0.6838 -0.1324  0.0343
 7926TIP3    H123717   8.098   4.322   4.680  0.0836 -0.6680  0.0269
 7926TIP3    H223718   8.136   4.400   4.805  1.6922 -1.1938 -0.1145
 7927TIP3   OH223719   7.033   2.144   2.044 -0.0421  0.3404  0.2143
 7927TIP3    H123720   7.054   2.058   2.007 -1.0686  0.2904 -0.2867
 7927TIP3    H223721   6.944   2.162   2.013  0.0528  1.4555  0.5613
 7928TIP3   OH223722   6.472   5.280   3.957  0.3528  0.6322 -0.2661
 7928TIP3    H123723   6.492   5.332   3.879 -1.2349  0.0803 -1.0795
 7928TIP3    H223724   6.526   5.317   4.026  0.4395  2.3081 -1.2207
 7929TIP3   OH223725   7.333   4.168   2.832 -0.3139  0.1065 -0.3783
 7929TIP3    H123726   7.406   4.205   2.881  0.7553 -0.7466 -1.3065
 7929TIP3    H223727   7.283   4.244   2.802 -0.2221  0.6730  0.8746
 7930TIP3   OH223728   5.389   4.358   5.551  0.3662 -0.1956 -0.1907
 7930TIP3    H123729   5.381   4.389   5.461  2.0515  2.7603  0.6238
 7930TIP3    H223730   5.480   4.376   5.574 -0.1053 -0.7323  2.1641
 7931TIP3   OH223731   0.816   6.003   1.847  0.3157  0.4358  0.5065
 7931TIP3    H123732   0.904   6.003   1.811 -0.0858 -0.3291 -0.4985
 7931TIP3    H223733   0.774   6.080   1.809  0.6713  1.0341  1.3098
 7932TIP3   OH223734   2.969   0.850   0.090  0.2608  0.1809  0.3960
 7932TIP3    H123735   2.979   0.788   0.018 -1.7668  1.3073 -0.9106
 7932TIP3    H223736   2.943   0.797   0.165  1.1397 -0.8583 -0.0277
 7933TIP3   OH223737   7.625   6.804   2.513 -0.9585 -0.0352 -0.2181
 7933TIP3    H123738   7.632   6.897   2.535 -1.4932  0.1288 -0.7317
 7933TIP3    H223739   7.715   6.777   2.497 -0.9916  0.9100 -2.1090
 7934TIP3   OH223740   7.129   5.274   4.362 -0.5785  0.2170 -0.1025
 7934TIP3    H123741   7.085   5.284   4.278 -1.6761  0.8772  0.5412
 7934TIP3    H223742   7.090   5.196   4.401 -1.5139  1.0619  0.6654
 7935TIP3   OH223743   5.829   4.945   4.307 -0.3759 -0.1174  0.1633
 7935TIP3    H123744   5.759   4.970   4.368 -0.8407 -0.6316 -0.1554
 7935TIP3    H223745   5.785   4.891   4.241  0.4203 -0.8411  0.2276
 7936TIP3   OH223746   7.865   3.138   2.311 -0.3501  0.4177 -0.0005
 7936TIP3    H123747   7.836   3.222   2.275  0.7246  1.2751  1.0908
 7936TIP3    H223748   7.930   3.161   2.377  1.5694 -1.3858 -1.1990
 7937TIP3   OH223749   0.899   3.399   3.546 -0.2643  0.3383 -0.0387
 7937TIP3    H123750   0.904   3.318   3.496  0.5807  0.6079 -0.4019
 7937TIP3    H223751   0.836   3.453   3.499  0.4691  0.5586 -0.7634
 7938TIP3   OH223752   7.927   2.881   2.371  0.3777 -0.2858 -0.3637
 7938TIP3    H123753   7.909   2.919   2.457  0.3478 -2.0015  0.4119
 7938TIP3    H223754   7.906   2.951   2.309  0.2619  0.9226  1.0080
 7939TIP3   OH223755   7.931   4.128   2.690  0.3409 -0.6469  0.0108
 7939TIP3    H123756   7.881   4.087   2.619  1.7476 -1.5446 -0.4870
 7939TIP3    H223757   7.866   4.147   2.757 -0.9235 -0.3239 -1.2778
 7940TIP3   OH223758   7.749   3.092   5.209  0.2499  0.4105  0.2128
 7940TIP3    H123759   7.792   3.157   5.155 -0.0229  1.4225  1.1999
 7940TIP3    H223760   7.777   3.008   5.172  1.1575  1.0742 -0.6297
 7941TIP3   OH223761   6.070   5.093   2.301 -0.4082 -0.3684 -0.0084
 7941TIP3    H123762   6.040   5.060   2.216 -0.0067  0.2757 -0.4003
 7941TIP3    H223763   6.117   5.019   2.339  0.7747 -0.1763 -1.0321
 7942TIP3   OH223764   6.432   5.586   3.446  0.3223  0.7412 -0.3063
 7942TIP3    H123765   6.434   5.663   3.503 -0.8312  1.1167 -0.7465
 7942TIP3    H223766   6.339   5.575   3.425  0.8597  1.3428 -3.1117
 7943TIP3   OH223767   6.863   6.661   4.527  0.2365 -0.2753  0.6954
 7943TIP3    H123768   6.911   6.615   4.458 -1.1952 -0.5991 -0.1227
 7943TIP3    H223769   6.930   6.692   4.587  1.4258 -1.0540 -0.2057
 7944TIP3   OH223770   0.791   4.312   3.599 -0.1505 -0.2441 -0.0965
 7944TIP3    H123771   0.753   4.331   3.685 -1.9356 -0.3019 -0.8499
 7944TIP3    H223772   0.876   4.273   3.618 -1.0489 -1.4026  1.6750
 7945TIP3   OH223773   7.625   7.716   2.438  0.1535  0.3240  0.2982
 7945TIP3    H123774   7.573   7.794   2.418 -0.6099 -0.3085 -0.1930
 7945TIP3    H223775   7.702   7.750   2.484 -0.7709  1.2365  1.1703
 7946TIP3   OH223776   7.801   4.876   2.412  0.3367  0.2596  0.6232
 7946TIP3    H123777   7.793   4.939   2.484  2.0977  1.0264  0.1694
 7946TIP3    H223778   7.884   4.898   2.370 -0.3436 -0.6289 -1.2292
 7947TIP3   OH223779   7.676   5.968   5.207 -0.2134  0.5386 -0.7480
 7947TIP3    H123780   7.690   5.996   5.117 -0.6313  2.5853 -0.1861
 7947TIP3    H223781   7.741   6.015   5.259  1.4468 -2.2101 -0.1870
 7948TIP3   OH223782   8.385   5.465   3.245 -0.5718 -0.2933  0.1721
 7948TIP3    H123783   8.360   5.373   3.233  1.4483 -1.0030  1.2279
 7948TIP3    H223784   8.461   5.477   3.188 -0.0825  0.3864  0.9667
 7949TIP3   OH223785   7.227   3.561   2.495  0.0993 -0.4310  0.6575
 7949TIP3    H123786   7.161   3.492   2.508  0.6650 -0.8928  1.0848
 7949TIP3    H223787   7.177   3.635   2.460 -0.5512 -0.9823  0.3976
 7950TIP3   OH223788   7.814   4.973   1.787  0.3152 -0.2953 -0.0456
 7950TIP3    H123789   7.785   5.039   1.850  0.5403 -0.5077  0.2784
 7950TIP3    H223790   7.903   4.951   1.814  1.1915  1.1509 -1.6847
 7951TIP3   OH223791   7.295   7.056   3.223  0.3352  0.3723 -0.0614
 7951TIP3    H123792   7.318   7.057   3.130  0.0094 -0.5723 -0.1535
 7951TIP3    H223793   7.268   6.966   3.240 -1.1965  0.9367  0.5666
 7952TIP3   OH223794   0.379   7.268   1.086  0.0369 -0.1502 -0.3856
 7952TIP3    H123795   0.388   7.351   1.038  2.6570 -0.8963 -1.3104
 7952TIP3    H223796   0.327   7.212   1.029 -1.2203  0.6428 -0.0336
 7953TIP3   OH223797   2.148   3.708   3.445 -0.3708 -0.2607  0.2507
 7953TIP3    H123798   2.125   3.745   3.360 -1.5874 -0.9338  0.2583
 7953TIP3    H223799   2.149   3.782   3.505 -0.3503  0.1011 -0.2003
 7954TIP3   OH223800   6.635   4.429   3.615 -0.4924  0.4227  0.3372
 7954TIP3    H123801   6.551   4.469   3.592 -0.5946  0.1676  0.2520
 7954TIP3    H223802   6.660   4.471   3.697 -1.6136 -0.7767  1.3383
 7955TIP3   OH223803   1.649   6.457   1.796 -0.2432  0.4692 -0.1173
 7955TIP3    H123804   1.560   6.434   1.769  0.7805 -1.8533 -1.6363
 7955TIP3    H223805   1.694   6.374   1.807  1.8817  1.6049  0.2086
 7956TIP3   OH223806   1.780   5.229   2.315 -0.0671 -0.0076 -0.4839
 7956TIP3    H123807   1.786   5.260   2.406 -0.2697  0.3110 -0.5786
 7956TIP3    H223808   1.869   5.235   2.281 -0.1959  0.9296 -0.6543
 7957TIP3   OH223809   6.004   3.144   2.337 -0.2245  0.1402 -0.1894
 7957TIP3    H123810   5.952   3.223   2.323 -0.7171 -0.5385 -2.2729
 7957TIP3    H223811   6.077   3.152   2.276 -0.9844 -1.6326 -1.3633
 7958TIP3   OH223812   6.374   6.551   3.282  0.2859  0.4651 -0.4907
 7958TIP3    H123813   6.352   6.642   3.304 -0.3423 -0.0211  0.9296
 7958TIP3    H223814   6.321   6.532   3.205 -0.5072  0.9153 -0.0599
 7959TIP3   OH223815   0.477   4.156   2.337  0.0039 -0.1476 -0.1044
 7959TIP3    H123816   0.563   4.115   2.346 -0.4342 -0.9572  0.5319
 7959TIP3    H223817   0.439   4.151   2.425 -0.5934  0.4148 -0.3290
 7960TIP3   OH223818   6.667   5.602   2.533 -0.3092 -0.3113 -0.0289
 7960TIP3    H123819   6.702   5.525   2.488 -1.3625 -0.6760 -0.2497
 7960TIP3    H223820   6.663   5.577   2.625  0.9194  0.0841  0.1436
 7961TIP3   OH223821   6.897   4.080   3.719 -0.2346  0.0320 -0.3104
 7961TIP3    H123822   6.972   4.128   3.685 -0.2766  0.2358 -0.1142
 7961TIP3    H223823   6.822   4.113   3.670  0.3277 -3.0683 -3.4335
 7962TIP3   OH223824   8.216   4.749   5.382 -0.0855  0.5577  0.0442
 7962TIP3    H123825   8.283   4.718   5.442 -0.0852  0.5235  0.0258
 7962TIP3    H223826   8.189   4.671   5.333 -1.5804  0.1668  1.4602
 7963TIP3   OH223827   7.247   4.165   2.423 -0.7327  0.1309 -0.2104
 7963TIP3    H123828   7.239   4.253   2.459  1.2443  0.4668 -0.5259
 7963TIP3    H223829   7.319   4.171   2.361 -0.6749 -1.6710 -0.3480
 7964TIP3   OH223830   0.648   5.402   5.119  0.2620 -0.2475 -0.1615
 7964TIP3    H123831   0.705   5.456   5.174 -1.6183  1.1810  0.4120
 7964TIP3    H223832   0.664   5.313   5.150  1.8472  0.1679  0.2839
 7965TIP3   OH223833   7.280   5.488   2.177  0.2061 -0.3787 -0.5120
 7965TIP3    H123834   7.319   5.518   2.094 -0.1537  1.3536 -0.0764
 7965TIP3    H223835   7.353   5.484   2.238  0.6057 -2.3865 -1.0754
 7966TIP3   OH223836   7.135   6.347   2.065 -0.3553  0.1657  0.2582
 7966TIP3    H123837   7.061   6.399   2.096  0.0540  0.8183  0.1411
 7966TIP3    H223838   7.110   6.322   1.976  0.4640  2.1597 -0.5721
 7967TIP3   OH223839   7.762   3.256   3.357  0.5346  0.7442  0.6208
 7967TIP3    H123840   7.815   3.299   3.290 -0.1343 -0.3254 -0.6105
 7967TIP3    H223841   7.826   3.215   3.415  1.0613 -0.5145 -0.8385
 7968TIP3   OH223842   4.524   4.851   2.131 -0.1288 -0.0574 -1.2179
 7968TIP3    H123843   4.510   4.915   2.062 -1.9107  0.0722 -0.7665
 7968TIP3    H223844   4.578   4.783   2.091 -1.0368  0.0834 -2.6769
 7969TIP3   OH223845   7.550   2.789   2.656  0.5153  0.6838  0.4830
 7969TIP3    H123846   7.527   2.705   2.697  1.3338  0.8599  1.3182
 7969TIP3    H223847   7.478   2.806   2.595  0.7703 -1.0736 -0.3632
 7970TIP3   OH223848   7.896   5.447   4.456  0.0267  0.6351  0.1356
 7970TIP3    H123849   7.876   5.524   4.510 -0.1986  0.7876 -0.1666
 7970TIP3    H223850   7.980   5.469   4.415  0.0889  0.6109  0.2491
 7971TIP3   OH223851   4.626   1.321   3.510  0.0787 -0.1112  0.7204
 7971TIP3    H123852   4.612   1.383   3.581 -0.6903 -0.5141  0.9212
 7971TIP3    H223853   4.539   1.290   3.487  0.5673 -2.2692  1.6536
 7972TIP3   OH223854   7.438   5.466   1.970 -0.1312  0.2989 -0.0283
 7972TIP3    H123855   7.410   5.375   1.963 -0.6652  0.5486 -1.3377
 7972TIP3    H223856   7.467   5.489   1.881  1.6896  0.8625  0.6960
 7973TIP3   OH223857   7.424   5.193   3.273 -0.0402 -0.2689 -0.5006
 7973TIP3    H123858   7.366   5.121   3.297  1.4897 -1.7378 -1.1008
 7973TIP3    H223859   7.444   5.178   3.180  1.2367  0.2530 -0.3182
 7974TIP3   OH223860   5.502   5.078   5.650  0.5353 -0.4779 -0.0342
 7974TIP3    H123861   5.539   5.035   5.572  1.6983 -0.0458  0.2670
 7974TIP3    H223862   5.551   5.160   5.656  0.7122 -0.6842  1.3759
 7975TIP3   OH223863   7.706   6.280   2.169  0.1926 -0.0634 -0.1193
 7975TIP3    H123864   7.801   6.289   2.179  0.2572 -2.4722  1.8034
 7975TIP3    H223865   7.672   6.368   2.184  1.9714  0.4008  1.2833
 7976TIP3   OH223866   5.792   6.610   4.393  0.8502 -0.5929 -0.1980
 7976TIP3    H123867   5.835   6.663   4.459 -0.0202 -1.0827  0.7693
 7976TIP3    H223868   5.847   6.620   4.315  1.5944  0.3936  0.4421
 7977TIP3   OH223869   7.470   4.174   4.984 -0.0745  0.0968  0.0380
 7977TIP3    H123870   7.470   4.243   4.917  1.8236  0.2965  0.2250
 7977TIP3    H223871   7.554   4.131   4.973  0.1417 -0.0272  2.1568
 7978TIP3   OH223872   7.180   3.394   6.336 -0.2811  0.1752 -0.1418
 7978TIP3    H123873   7.209   3.407   6.427  1.6878 -0.4913 -0.6509
 7978TIP3    H223874   7.218   3.467   6.288  0.2603 -0.4975 -0.7511
 7979TIP3   OH223875   7.311   5.431   5.240  0.2325  0.2739  0.1669
 7979TIP3    H123876   7.337   5.439   5.332 -0.5194  0.3063  0.3734
 7979TIP3    H223877   7.315   5.520   5.206  2.2093  0.0396 -0.2956
 7980TIP3   OH223878   6.967   4.837   3.580 -0.5322  0.1654 -0.2916
 7980TIP3    H123879   6.912   4.914   3.591  0.1957  0.8591 -1.4013
 7980TIP3    H223880   6.910   4.772   3.539 -0.8970  0.4106 -0.1756
 7981TIP3   OH223881   6.761   3.981   4.679  0.0284  0.3175 -0.3301
 7981TIP3    H123882   6.837   3.923   4.690 -0.6440 -0.3202  1.2078
 7981TIP3    H223883   6.785   4.062   4.724 -0.3267 -0.0276  0.5054
 7982TIP3   OH223884   6.076   5.211   1.976  0.1760 -1.1667 -0.0337
 7982TIP3    H123885   6.123   5.161   1.909  1.6425 -0.1996  0.2441
 7982TIP3    H223886   6.024   5.145   2.023 -0.0495 -2.0096 -1.4129
 7983TIP3   OH223887   7.593   4.892   2.093  0.7906 -0.0838  0.3207
 7983TIP3    H123888   7.622   4.967   2.042  0.5798 -0.6904 -0.7034
 7983TIP3    H223889   7.643   4.818   2.059  0.8991 -0.4431  1.2314
 7984TIP3   OH223890   6.731   4.255   2.966 -0.0494  0.2734 -0.2618
 7984TIP3    H123891   6.759   4.208   2.887  2.6621 -0.2203  0.9244
 7984TIP3    H223892   6.663   4.315   2.935 -0.1076 -0.9787 -2.6965
 7985TIP3   OH223893   8.406   6.695   1.508 -0.1528  0.0320  0.2034
 7985TIP3    H123894   8.328   6.641   1.492  1.4462 -3.0320  2.1921
 7985TIP3    H223895   8.403   6.712   1.602  0.8316  1.1282  0.0400
 7986TIP3   OH223896   6.593   3.026   3.331  0.3933  0.1647 -0.2601
 7986TIP3    H123897   6.559   3.055   3.416 -0.8726 -1.3320 -0.2252
 7986TIP3    H223898   6.688   3.026   3.342  0.3115  1.4849  0.6411
 7987TIP3   OH223899   5.887   3.666   3.078  0.7120 -0.0578 -0.4739
 7987TIP3    H123900   5.869   3.577   3.109  0.8170 -0.2643 -1.0050
 7987TIP3    H223901   5.865   3.664   2.985  0.5458  0.5218 -0.4498
 7988TIP3   OH223902   7.649   6.500   5.047  0.2733  0.0458  0.3559
 7988TIP3    H123903   7.668   6.561   5.119 -1.2029 -0.4589  1.2015
 7988TIP3    H223904   7.576   6.448   5.079 -0.0694 -0.5392 -1.3320
 7989TIP3   OH223905   0.129   4.991   2.277 -0.0085 -0.4481 -0.8205
 7989TIP3    H123906   0.077   4.983   2.197  0.8564 -1.3928 -1.2991
 7989TIP3    H223907   0.158   4.902   2.296  1.7757  0.1235 -0.7895
 7990TIP3   OH223908   0.811   6.475   2.702 -0.2035  0.4449 -0.0714
 7990TIP3    H123909   0.763   6.431   2.772 -0.6825  0.0163 -0.6666
 7990TIP3    H223910   0.763   6.454   2.622  1.3150 -0.5114 -0.7570
 7991TIP3   OH223911   0.735   4.910   4.318 -0.1374  0.6846  0.6248
 7991TIP3    H123912   0.776   4.978   4.372  0.4633  0.4656  0.4494
 7991TIP3    H223913   0.641   4.925   4.328 -0.0227  0.9876  1.2975
 7992TIP3   OH223914   7.202   4.188   3.920 -0.2940  0.4813  0.0256
 7992TIP3    H123915   7.113   4.199   3.955 -1.1360  0.8103 -2.1457
 7992TIP3    H223916   7.250   4.264   3.953 -0.4199 -0.3629  2.2908
 7993TIP3   OH223917   6.318   6.452   2.804 -0.1493  0.4492  0.5172
 7993TIP3    H123918   6.316   6.377   2.864 -0.4006  0.8644  1.0268
 7993TIP3    H223919   6.338   6.413   2.718 -1.9184 -0.4170  0.4742
 7994TIP3   OH223920   7.476   5.372   5.881 -0.1543  0.3046  0.1285
 7994TIP3    H123921   7.468   5.436   5.951  0.9583  0.5084  0.0876
 7994TIP3    H223922   7.399   5.316   5.890  0.6310 -0.4714  2.3233
 7995TIP3   OH223923   1.021   4.449   3.437 -0.4265 -0.0594 -0.1349
 7995TIP3    H123924   0.974   4.371   3.465 -0.4642  0.9525  2.7534
 7995TIP3    H223925   1.081   4.468   3.509  2.4717  0.2769 -2.5496
 7996TIP3   OH223926   6.857   3.612   3.811  0.1270  0.2640 -0.4945
 7996TIP3    H123927   6.837   3.598   3.719  2.2526 -0.4750 -0.8588
 7996TIP3    H223928   6.915   3.688   3.812  0.6007 -0.1029  0.1755
 7997TIP3   OH223929   7.786   4.398   3.584  0.4000  0.5098  0.3280
 7997TIP3    H123930   7.800   4.455   3.509 -0.4179  0.5570  0.2049
 7997TIP3    H223931   7.861   4.338   3.582  0.9536  1.1940  0.1176
 7998TIP3   OH223932   6.849   3.403   2.750  0.4138  0.2459  0.0935
 7998TIP3    H123933   6.836   3.446   2.834  0.1292  0.9639 -0.3097
 7998TIP3    H223934   6.941   3.421   2.729  0.1541  1.1205 -0.3217
 7999TIP3   OH223935   0.168   5.115   3.652  0.4128  0.7837 -1.0272
 7999TIP3    H123936   0.128   5.176   3.590  0.7182  0.1902 -1.8069
 7999TIP3    H223937   0.195   5.040   3.599  0.3509  0.1105 -0.1308
 8000TIP3   OH223938   2.763   5.228   3.036 -0.3656  0.7852  0.3441
 8000TIP3    H123939   2.717   5.288   2.979 -0.5425 -0.5616 -0.9626
 8000TIP3    H223940   2.849   5.267   3.048 -0.2696  1.0045 -0.9975
 8001TIP3   OH223941   5.821   4.859   5.168 -0.1778 -0.0427  0.2559
 8001TIP3    H123942   5.816   4.897   5.256 -0.1547  1.9571 -0.5800
 8001TIP3    H223943   5.765   4.915   5.115  1.7282  0.2463 -1.5102
 8002TIP3   OH223944   7.419   4.406   4.762 -0.1718  0.2283 -0.8826
 8002TIP3    H123945   7.474   4.425   4.686 -1.8528  0.8409 -1.9875
 8002TIP3    H223946   7.343   4.359   4.726 -1.3285  1.1411  0.2897
 8003TIP3   OH223947   8.252   3.857   3.442  0.1512  0.6277  0.0085
 8003TIP3    H123948   8.250   3.766   3.411 -0.0979 -0.3222  2.6154
 8003TIP3    H223949   8.160   3.881   3.451  0.2098  1.4397 -1.4300
 8004TIP3   OH223950   7.270   4.098   3.656  0.1117  0.0251  0.3393
 8004TIP3    H123951   7.282   4.003   3.653 -0.8457 -0.0758 -0.9498
 8004TIP3    H223952   7.262   4.119   3.749 -0.3971 -1.2583  0.5976
 8005TIP3   OH223953   7.990   4.040   3.199  0.7434 -0.2854 -0.5657
 8005TIP3    H123954   8.023   4.049   3.109  3.0960 -0.4507  0.2593
 8005TIP3    H223955   8.060   4.076   3.254 -0.0600 -1.4965  1.2936
 8006TIP3   OH223956   8.104   5.613   2.466 -0.3320 -0.5327 -1.1915
 8006TIP3    H123957   8.066   5.645   2.384  1.0004 -1.5107 -2.2077
 8006TIP3    H223958   8.199   5.621   2.453 -0.1440  1.1713  1.0165
 8007TIP3   OH223959   6.740   5.661   4.672 -0.1262  0.2900  0.8890
 8007TIP3    H123960   6.712   5.691   4.759  0.6263  0.9504  0.9010
 8007TIP3    H223961   6.659   5.660   4.621 -0.1921  2.1437  0.9471
 8008TIP3   OH223962   7.565   4.997   3.719  0.1056  0.1723  0.4655
 8008TIP3    H123963   7.478   5.030   3.695  0.7442  1.9854  0.5392
 8008TIP3    H223964   7.552   4.903   3.732 -1.7926  0.3730  0.2382
 8009TIP3   OH223965   0.028   3.431   5.278  0.4050  0.2164  0.2661
 8009TIP3    H123966   0.025   3.447   5.372 -1.0288 -0.9452  0.4389
 8009TIP3    H223967  -0.047   3.374   5.261  2.1119 -1.7032 -1.1747
 8010TIP3   OH223968   0.313   4.368   4.170 -0.5126  0.1362  0.6283
 8010TIP3    H123969   0.356   4.451   4.194 -0.2177 -0.6096  2.6943
 8010TIP3    H223970   0.354   4.345   4.086  0.5619  1.2629  0.8144
 8011TIP3   OH223971   0.792   2.738   4.464 -0.2471  0.1909 -0.3100
 8011TIP3    H123972   0.784   2.832   4.480  2.7942  0.4361  0.0564
 8011TIP3    H223973   0.784   2.729   4.369 -0.2297  0.8559 -0.3764
 8012TIP3   OH223974   7.954   2.011   4.017  0.3263 -0.3586 -0.1777
 8012TIP3    H123975   8.015   2.069   3.971  0.4519  0.2560  0.7369
 8012TIP3    H223976   8.004   1.980   4.093  0.4783 -2.1883 -1.0036
 8013TIP3   OH223977   8.391   5.590   3.538 -0.6321 -0.0230  0.4873
 8013TIP3    H123978   8.355   5.566   3.453  0.0840  0.8995 -0.0838
 8013TIP3    H223979   8.486   5.581   3.528 -0.6921 -3.4796  2.2910
 8014TIP3   OH223980   6.895   2.533   1.827  0.2918 -0.1518  0.2403
 8014TIP3    H123981   6.867   2.500   1.912 -0.4131 -1.2234 -0.3965
 8014TIP3    H223982   6.882   2.627   1.833  0.1917 -0.2231  1.2983
 8015TIP3   OH223983   7.501   2.059   4.259  0.5978  0.1743  0.7825
 8015TIP3    H123984   7.564   2.108   4.312  0.5218  1.8872 -0.6983
 8015TIP3    H223985   7.530   2.071   4.169 -0.9885 -0.2696  0.1994
 8016TIP3   OH223986   6.775   2.482   1.572  0.5502 -0.1613 -0.3004
 8016TIP3    H123987   6.828   2.483   1.652 -0.1730  0.6040  0.1848
 8016TIP3    H223988   6.816   2.416   1.516  0.3085 -1.6578  1.2252
 8017TIP3   OH223989   7.258   5.587   0.563  0.6902  0.3439  0.7220
 8017TIP3    H123990   7.280   5.620   0.476  0.6846 -1.4274  0.0268
 8017TIP3    H223991   7.316   5.635   0.622  1.1233  1.1209 -0.3144
 8018TIP3   OH223992   7.798   2.912   2.613  0.7326  0.7730  0.0533
 8018TIP3    H123993   7.794   2.991   2.667 -2.9404  1.0895 -0.5891
 8018TIP3    H223994   7.730   2.855   2.649  2.2393 -1.4466 -0.5351
 8019TIP3   OH223995   8.193   7.089   4.048 -0.3606  0.2445  0.3579
 8019TIP3    H123996   8.247   7.015   4.077  1.2895  0.9043 -0.9762
 8019TIP3    H223997   8.245   7.132   3.980 -2.4939  0.9906 -0.8636
 8020TIP3   OH223998   7.473   3.448   2.635  0.4196  0.1919  0.2285
 8020TIP3    H123999   7.412   3.386   2.593 -0.5016  1.5357 -0.4682
 8020TIP3    H224000   7.546   3.454   2.574  1.3864 -1.6003  1.1729
 8021TIP3   OH224001   7.832   4.175   3.373  0.3754  0.1320 -0.4463
 8021TIP3    H124002   7.850   4.132   3.290 -1.1776 -0.1157 -0.6776
 8021TIP3    H224003   7.761   4.237   3.354  1.2382  1.3856  0.3090
 8022TIP3   OH224004   0.262   7.132   2.965 -0.4683  0.1992  0.1324
 8022TIP3    H124005   0.191   7.192   2.944 -0.8434  0.1360  1.2070
 8022TIP3    H224006   0.222   7.045   2.957 -0.1570  0.1145 -0.5572
 8023TIP3   OH224007   5.691   6.104   2.271 -0.4662 -0.4686 -0.0406
 8023TIP3    H124008   5.615   6.125   2.325 -0.4948  1.4358 -0.8020
 8023TIP3    H224009   5.763   6.095   2.333 -0.7012  0.6978  0.4044
 8024TIP3   OH224010   7.091   5.497   3.614 -0.5604  0.0955 -0.2406
 8024TIP3    H124011   7.126   5.410   3.596 -0.8419  0.1078 -0.8747
 8024TIP3    H224012   7.165   5.546   3.649 -0.2991 -0.2792 -0.2604
 8025TIP3   OH224013   8.142   6.864   2.288  0.2741  0.0216 -0.0506
 8025TIP3    H124014   8.141   6.769   2.291 -0.4182  0.0588  1.5076
 8025TIP3    H224015   8.234   6.887   2.304  0.1165 -0.3613  1.5126
 8026TIP3   OH224016   5.621   4.238   0.892  0.5620 -0.2315  0.6084
 8026TIP3    H124017   5.565   4.279   0.826 -0.7227 -0.4338  1.5558
 8026TIP3    H224018   5.639   4.308   0.955  1.0205 -0.2843  0.5388
 8027TIP3   OH224019   0.749   5.214   1.832 -0.8092 -0.3144  0.0668
 8027TIP3    H124020   0.805   5.240   1.905 -1.2386  1.0621 -0.0978
 8027TIP3    H224021   0.666   5.188   1.872 -0.2844 -1.7700  0.2554
 8028TIP3   OH224022   7.943   5.716   4.208 -0.4811  0.1686 -0.1091
 8028TIP3    H124023   7.976   5.635   4.247 -1.2264  0.9273  2.1451
 8028TIP3    H224024   8.010   5.781   4.227 -0.4645  0.3627 -0.8296
 8029TIP3   OH224025   7.603   6.537   2.130 -0.4830 -0.0974 -0.0732
 8029TIP3    H124026   7.606   6.587   2.048  0.3858 -0.8116 -0.4870
 8029TIP3    H224027   7.510   6.521   2.145 -0.7156  1.0434 -0.3085
 8030TIP3   OH224028   6.339   4.998   4.038 -0.3918 -0.2386 -0.2811
 8030TIP3    H124029   6.251   5.035   4.047  0.3820  1.8918 -1.3305
 8030TIP3    H224030   6.394   5.071   4.013  1.7970 -1.4652  0.7822
 8031TIP3   OH224031   0.558   4.710   5.093 -0.4170  0.2847  0.6746
 8031TIP3    H124032   0.489   4.764   5.131  0.5701  2.7972 -0.9467
 8031TIP3    H224033   0.512   4.644   5.042 -1.6946  2.6789 -1.4098
 8032TIP3   OH224034   3.915   2.215   4.991  0.4494  0.3736 -0.3659
 8032TIP3    H124035   3.902   2.306   5.019  0.1574  0.1996  0.0728
 8032TIP3    H224036   3.849   2.165   5.041  1.5636 -0.2723  0.4891
 8033TIP3   OH224037   7.182   5.772   2.166  0.3098  0.0148 -0.3981
 8033TIP3    H124038   7.278   5.776   2.160  0.3402 -1.4151 -1.1368
 8033TIP3    H224039   7.153   5.777   2.075 -0.1833 -2.1327 -0.3991
 8034TIP3   OH224040   8.065   4.642   3.080  0.1380  0.8437 -0.3787
 8034TIP3    H124041   8.137   4.582   3.062  0.7727  1.8130 -1.0862
 8034TIP3    H224042   8.015   4.645   2.999  1.0776  2.5811 -0.9253
 8035TIP3   OH224043   8.438   4.006   3.576 -0.6422  0.1635  0.0102
 8035TIP3    H124044   8.483   3.925   3.601 -0.0406  0.8735  1.2678
 8035TIP3    H224045   8.366   3.977   3.520  0.6678 -1.0850 -1.0541
 8036TIP3   OH224046   7.561   3.963   2.989  0.2890  0.4956 -0.0416
 8036TIP3    H124047   7.601   3.877   3.003 -1.1408 -0.2027 -0.1435
 8036TIP3    H224048   7.560   3.973   2.894 -2.2943 -0.7207 -0.1639
 8037TIP3   OH224049   7.452   3.240   1.306  0.4279  0.1252  0.0548
 8037TIP3    H124050   7.509   3.315   1.292  0.8723 -0.0849  0.7456
 8037TIP3    H224051   7.450   3.196   1.221  1.7962 -0.2259  0.1968
 8038TIP3   OH224052   7.284   2.061   1.711 -0.3860  0.0809  0.4050
 8038TIP3    H124053   7.292   2.147   1.753 -3.0624  0.1937  0.7731
 8038TIP3    H224054   7.247   2.080   1.625  2.0587 -0.4525 -0.8295
 8039TIP3   OH224055   1.168   6.735   1.204 -0.0708  0.6260  0.2843
 8039TIP3    H124056   1.181   6.764   1.295 -2.1519 -1.3802  1.2742
 8039TIP3    H224057   1.088   6.683   1.207 -0.1585  0.5241 -2.7334
 8040TIP3   OH224058   8.214   5.212   1.160 -0.5216  0.1109 -0.1802
 8040TIP3    H124059   8.208   5.295   1.209 -0.7332 -0.3970  0.6725
 8040TIP3    H224060   8.152   5.222   1.088 -2.4041 -0.2473  1.3467
 8041TIP3   OH224061   3.018   3.739   5.629  0.3479 -0.1563  0.2305
 8041TIP3    H124062   2.927   3.746   5.599  0.7598  1.0775 -0.8120
 8041TIP3    H224063   3.017   3.669   5.694 -0.7473 -2.3581 -2.0649
 8042TIP3   OH224064   7.307   3.319   2.196  0.0271 -0.0815 -0.5239
 8042TIP3    H124065   7.285   3.229   2.219  1.4821  0.0926  1.6936
 8042TIP3    H224066   7.231   3.350   2.146 -0.8389 -2.2641 -0.6150
 8043TIP3   OH224067   5.282   4.409   3.355 -0.1562  0.2604  0.4689
 8043TIP3    H124068   5.219   4.363   3.412 -0.7787  0.5733  0.0335
 8043TIP3    H224069   5.291   4.496   3.395 -0.9191  0.6270 -0.1475
 8044TIP3   OH224070   0.163   5.143   4.871  0.0465  0.4411  0.2742
 8044TIP3    H124071   0.097   5.207   4.846  0.3044  0.0065 -1.5756
 8044TIP3    H224072   0.135   5.061   4.829  2.9747  0.7910 -2.6123
 8045TIP3   OH224073   0.238   4.806   5.579  0.1077 -0.2852  0.2453
 8045TIP3    H124074   0.314   4.864   5.591  0.3641 -0.7798  1.0266
 8045TIP3    H224075   0.163   4.865   5.582  0.2932 -0.1117  2.1821
 8046TIP3   OH224076   0.018   4.762   4.475  0.1396  0.6591  0.3517
 8046TIP3    H124077   0.079   4.689   4.468  0.3643  0.8231  0.5793
 8046TIP3    H224078   0.024   4.807   4.391 -0.5677 -0.0254 -0.0764
 8047TIP3   OH224079   2.555   5.299   5.341 -0.2397  0.1113 -0.3390
 8047TIP3    H124080   2.591   5.374   5.388  0.3197 -0.4000  0.0507
 8047TIP3    H224081   2.615   5.227   5.361 -1.1306 -0.5939 -0.1811
 8048TIP3   OH224082   7.464   7.933   4.693 -0.4428 -0.0898  0.5798
 8048TIP3    H124083   7.504   8.005   4.742  0.5022  0.5338 -1.1025
 8048TIP3    H224084   7.484   7.951   4.602 -2.9180 -0.7923 -0.1500
 8049TIP3   OH224085   6.279   5.977   5.613 -0.3656  0.5835 -0.3601
 8049TIP3    H124086   6.270   5.983   5.518 -2.9070 -3.0648 -0.4558
 8049TIP3    H224087   6.370   5.951   5.627 -0.4241 -0.5301 -1.9230
 8050TIP3   OH224088   8.313   4.649   4.108 -0.1183  0.2334 -0.0307
 8050TIP3    H124089   8.253   4.723   4.094  0.2226  0.3857 -0.6644
 8050TIP3    H224090   8.400   4.687   4.101  0.0845  0.2531  2.1243
 8051TIP3   OH224091   1.383   4.679   6.335  0.5796 -0.1526 -0.8061
 8051TIP3    H124092   1.477   4.668   6.346  0.7896 -0.1633 -2.4652
 8051TIP3    H224093   1.370   4.683   6.240 -1.2450 -1.7068 -0.6676
 8052TIP3   OH224094   1.172   4.889   6.304  0.1403  0.3523  0.0967
 8052TIP3    H124095   1.224   4.809   6.312 -1.1769 -0.5625 -0.2932
 8052TIP3    H224096   1.231   4.950   6.259  0.8225 -0.7213 -0.5284
 8053TIP3   OH224097   0.338   6.275   3.786  1.0683 -0.4969  0.1299
 8053TIP3    H124098   0.352   6.191   3.830 -2.9390  0.2462  3.0797
 8053TIP3    H224099   0.378   6.340   3.844  0.7582 -0.0344 -0.1709
 8054TIP3   OH224100   1.907   3.689   5.438  0.0084  0.1272  0.2948
 8054TIP3    H124101   1.904   3.767   5.493 -1.0359  0.6290 -0.4533
 8054TIP3    H224102   1.896   3.616   5.500 -1.2976  0.6904  0.7505
 8055TIP3   OH224103   2.534   5.743   2.458 -0.1376  0.8078 -0.7568
 8055TIP3    H124104   2.489   5.679   2.513 -0.8215  1.5052 -0.5064
 8055TIP3    H224105   2.525   5.708   2.369  2.7314 -1.3821 -0.2574
 8056TIP3   OH224106   1.953   5.437   4.590  0.3198  0.1834 -0.2014
 8056TIP3    H124107   1.999   5.443   4.673 -2.0451  0.7471  1.1116
 8056TIP3    H224108   1.977   5.350   4.556  1.3216 -0.0420  1.0466
 8057TIP3   OH224109   0.911   2.520   4.788  0.3834 -0.3131  0.1055
 8057TIP3    H124110   0.892   2.497   4.878 -1.1312 -1.3215 -0.4487
 8057TIP3    H224111   0.887   2.613   4.781 -0.0738 -0.3951  0.5748
 8058TIP3   OH224112   1.058   2.836   6.723 -0.4942  0.2980 -0.6603
 8058TIP3    H124113   0.989   2.793   6.672  0.0327 -0.9498 -0.3169
 8058TIP3    H224114   1.136   2.828   6.668 -0.4242  0.9530 -0.6584
 8059TIP3   OH224115   0.041   6.045   4.561  0.7664  1.0126  0.4159
 8059TIP3    H124116   0.125   6.032   4.604 -0.2925 -0.3213  2.1576
 8059TIP3    H224117   0.033   6.140   4.550  1.2937  1.3442  2.7342
 8060TIP3   OH224118   4.242   0.334   5.810 -0.4113  0.1075 -0.4184
 8060TIP3    H124119   4.299   0.331   5.734 -0.4095  2.2301 -0.5134
 8060TIP3    H224120   4.297   0.305   5.883 -0.1526 -0.9864 -1.0282
 8061TIP3   OH224121   7.005   6.144   5.046 -0.2750  0.1317  0.3125
 8061TIP3    H124122   6.910   6.130   5.049 -0.3922  0.4640 -1.4108
 8061TIP3    H224123   7.034   6.098   4.967  0.9922  0.0696  0.7985
 8062TIP3   OH224124   8.192   6.472   3.589  0.2040 -0.5611 -0.2134
 8062TIP3    H124125   8.232   6.509   3.667 -3.1956  0.7257  1.0092
 8062TIP3    H224126   8.173   6.382   3.612  0.8127 -0.6958 -0.2180
 8063TIP3   OH224127   3.416   5.939   2.159 -0.4780  0.2504  0.0150
 8063TIP3    H124128   3.493   5.886   2.143  0.5801  1.8719 -0.4534
 8063TIP3    H224129   3.397   5.929   2.252 -0.4236 -1.1022 -0.1231
 8064TIP3   OH224130   8.302   4.134   5.322 -1.0203  0.4134  0.1410
 8064TIP3    H124131   8.302   4.039   5.309 -1.1485  0.2367  1.3749
 8064TIP3    H224132   8.394   4.156   5.339 -1.2947  0.1862  2.0258
 8065TIP3   OH224133   7.258   5.428   2.839 -0.2055  0.1541  0.0456
 8065TIP3    H124134   7.238   5.394   2.752 -3.0957 -2.4479  1.6263
 8065TIP3    H224135   7.213   5.512   2.843  0.0938  0.3677 -1.0158
 8066TIP3   OH224136   0.237   4.364   3.622  0.1511  0.0060  0.4053
 8066TIP3    H124137   0.231   4.448   3.667  2.8805  1.4461 -1.7382
 8066TIP3    H224138   0.292   4.310   3.679  0.9653  0.7427  0.3238
 8067TIP3   OH224139   7.506   5.913   3.444 -0.7043  0.3798 -0.3356
 8067TIP3    H124140   7.500   5.933   3.351 -1.5896 -0.9675 -0.5887
 8067TIP3    H224141   7.415   5.906   3.473 -0.4620 -1.8478  0.0097
 8068TIP3   OH224142   2.046   5.820   5.309 -0.1726 -0.0081  0.0515
 8068TIP3    H124143   2.127   5.784   5.346  0.6965  0.4408 -1.3565
 8068TIP3    H224144   2.025   5.895   5.365  1.3344  0.8944 -0.5413
 8069TIP3   OH224145   1.210   6.471   4.884  0.0925 -0.2938 -0.2791
 8069TIP3    H124146   1.259   6.447   4.963 -0.3051  1.3574  0.5051
 8069TIP3    H224147   1.248   6.555   4.858 -0.6485 -0.2093 -1.1163
 8070TIP3   OH224148   2.000   7.090   4.770  0.1580  0.7190 -0.3944
 8070TIP3    H124149   1.905   7.083   4.778  0.2933 -0.7350  0.0749
 8070TIP3    H224150   2.029   7.125   4.854  0.1213  0.3201 -0.2166
 8071TIP3   OH224151   0.195   6.835   3.393 -0.2292 -0.0608 -0.6908
 8071TIP3    H124152   0.283   6.862   3.366 -0.4822  2.7234  1.0696
 8071TIP3    H224153   0.162   6.784   3.319  1.7444  1.3814 -2.6288
 8072TIP3   OH224154   0.033   5.401   3.985 -0.2192 -0.6699  0.2860
 8072TIP3    H124155   0.074   5.461   3.923  0.1120 -0.8227  0.3559
 8072TIP3    H224156   0.022   5.454   4.065  0.2138 -0.7408  0.3984
 8073TIP3   OH224157   0.390   4.665   4.245  0.1080  0.6460  0.1728
 8073TIP3    H124158   0.305   4.687   4.208  0.3369  1.0784 -0.1172
 8073TIP3    H224159   0.417   4.745   4.291  1.0886  1.1022 -1.1513
 8074TIP3   OH224160   2.810   5.053   4.065  0.0299 -0.1997 -0.0142
 8074TIP3    H124161   2.828   5.096   4.149 -1.1566 -1.3877  0.8715
 8074TIP3    H224162   2.896   5.029   4.031  0.5310  0.4010  0.8104
 8075TIP3   OH224163   1.331   6.092   4.240  0.3322  0.0511  0.9326
 8075TIP3    H124164   1.424   6.070   4.250  0.1874 -0.8408  0.3522
 8075TIP3    H224165   1.318   6.096   4.145  0.1890  1.9752  1.0021
 8076TIP3   OH224166   8.369   5.255   3.785 -0.2059  0.2940  0.2199
 8076TIP3    H124167   8.302   5.201   3.744 -0.4920  0.2527  0.7295
 8076TIP3    H224168   8.424   5.285   3.713  0.5865 -1.5437  0.0070
 8077TIP3   OH224169   0.056   5.214   6.153  0.1043  0.4125  0.2908
 8077TIP3    H124170  -0.026   5.171   6.176  0.4093  1.0325  2.6936
 8077TIP3    H224171   0.054   5.221   6.058 -2.9616  1.0738  0.3554
 8078TIP3   OH224172   2.257   3.887   3.736  0.0334 -0.1370 -0.6749
 8078TIP3    H124173   2.210   3.959   3.695  0.2820  0.8420  0.6981
 8078TIP3    H224174   2.190   3.838   3.783 -0.1196 -0.7519 -1.5230
 8079TIP3   OH224175   7.288   2.009   0.126 -0.1999 -0.5153  0.9154
 8079TIP3    H124176   7.255   2.099   0.117 -0.0442 -0.3421  2.0752
 8079TIP3    H224177   7.383   2.017   0.123 -0.1908 -0.6815  0.7037
 8080TIP3   OH224178   7.821   4.988   4.289  0.1527  0.1535  0.1694
 8080TIP3    H124179   7.888   4.920   4.303  0.8114  0.8420  0.3737
 8080TIP3    H224180   7.780   4.964   4.206 -2.4635 -2.8629  2.2154
 8081TIP3   OH224181   6.864   4.630   6.080 -0.2190 -0.5139  0.1862
 8081TIP3    H124182   6.820   4.614   5.996 -0.0200 -0.7106  0.1190
 8081TIP3    H224183   6.935   4.566   6.082  0.6267  0.4009 -0.1093
 8082TIP3   OH224184   8.116   4.597   6.042 -0.6235  0.9676 -0.0285
 8082TIP3    H124185   8.197   4.550   6.022 -0.9470  0.5301 -0.3155
 8082TIP3    H224186   8.114   4.601   6.138 -0.9298 -0.2086  0.0218
 8083TIP3   OH224187   0.828   3.996   3.749 -0.5074  0.1519 -0.3307
 8083TIP3    H124188   0.741   3.997   3.711 -0.9355  0.0339  0.6363
 8083TIP3    H224189   0.868   4.078   3.719 -1.6785  1.1865  0.8828
 8084TIP3   OH224190   7.857   5.926   4.417  0.1227  0.4072 -0.3036
 8084TIP3    H124191   7.855   5.990   4.345 -0.8220 -0.3319 -0.9406
 8084TIP3    H224192   7.942   5.884   4.409  0.3223  0.8523 -0.5312
 8085TIP3   OH224193   7.698   5.155   5.510 -0.7107 -0.0053 -0.1363
 8085TIP3    H124194   7.760   5.140   5.582 -0.4733 -1.0651 -0.5565
 8085TIP3    H224195   7.751   5.154   5.431 -1.2795 -1.0507 -0.5109
 8086TIP3   OH224196   1.739   4.349   5.968  0.4491  0.3127  0.0110
 8086TIP3    H124197   1.737   4.326   6.061 -0.1057 -0.7302 -0.2556
 8086TIP3    H224198   1.658   4.314   5.933  1.0769 -0.0907 -1.0512
 8087TIP3   OH224199   2.395   7.109   5.291 -0.3539 -0.3644  0.2799
 8087TIP3    H124200   2.349   7.086   5.210 -0.2876  1.0164 -0.1712
 8087TIP3    H224201   2.327   7.146   5.347 -0.3062 -0.8566  0.6597
 8088TIP3   OH224202   3.014   5.339   4.920 -0.2227  0.0887  0.1684
 8088TIP3    H124203   2.956   5.289   4.977 -0.5527  1.0650  0.7108
 8088TIP3    H224204   3.071   5.274   4.880 -2.3092 -0.9893 -1.1063
 8089TIP3   OH224205   1.023   4.222   3.651 -0.1878 -0.4512  0.0320
 8089TIP3    H124206   1.097   4.208   3.592 -1.2600 -0.0087 -1.4474
 8089TIP3    H224207   1.059   4.277   3.722  0.3854  1.5519 -1.7676
 8090TIP3   OH224208   0.223   6.613   4.001  0.1656 -0.2973  0.2798
 8090TIP3    H124209   0.164   6.603   3.926  0.7615  0.0621 -0.2382
 8090TIP3    H224210   0.164   6.620   4.076 -0.4024 -2.9555  0.1418
 8091TIP3   OH224211   4.794   0.490   0.885  0.4565  0.3267  0.2164
 8091TIP3    H124212   4.853   0.552   0.842  0.6474  0.3109  0.4575
 8091TIP3    H224213   4.750   0.444   0.813 -0.4377  1.4584  0.0126
 8092TIP3   OH224214   7.102   4.326   5.499  0.3230 -0.3248 -0.7390
 8092TIP3    H124215   7.172   4.298   5.557  1.3980  1.2835 -1.2217
 8092TIP3    H224216   7.033   4.358   5.557  0.6185 -0.4969 -0.2967
 8093TIP3   OH224217   0.378   4.382   5.459 -0.0035  0.5109  0.2385
 8093TIP3    H124218   0.405   4.461   5.412 -0.4658  0.4311 -0.1668
 8093TIP3    H224219   0.427   4.312   5.416 -0.6078  0.4087 -0.2764
 8094TIP3   OH224220   1.039   6.152   5.735  0.2101 -0.3383  0.3733
 8094TIP3    H124221   1.037   6.106   5.819 -3.1980 -1.9282 -0.4534
 8094TIP3    H224222   0.959   6.204   5.735  0.8725  0.7082 -1.3335
 8095TIP3   OH224223   0.173   4.519   4.404  0.1824 -0.0752  0.1235
 8095TIP3    H124224   0.195   4.439   4.356  0.0295 -0.8661  1.3414
 8095TIP3    H224225   0.256   4.548   4.441  0.2850  0.4879 -0.5395
 8096TIP3   OH224226   0.484   2.122   6.346 -0.1315  0.0632  0.2140
 8096TIP3    H124227   0.550   2.104   6.414 -0.1963  1.6102  0.6950
 8096TIP3    H224228   0.480   2.041   6.296  1.9263 -0.1826  0.3713
 8097TIP3   OH224229   0.758   3.799   5.401 -0.0864  0.4313  0.3339
 8097TIP3    H124230   0.800   3.728   5.450 -0.4078 -0.5714 -0.8296
 8097TIP3    H224231   0.832   3.849   5.364  0.1302  0.3279  0.6242
 8098TIP3   OH224232   7.484   4.636   5.189 -0.3525  0.1069 -0.8738
 8098TIP3    H124233   7.479   4.661   5.281 -0.9444  0.4744 -1.0046
 8098TIP3    H224234   7.520   4.547   5.191 -1.0470 -0.1705 -0.2436
 8099TIP3   OH224235   0.030   7.664   3.322  0.6798  0.2549 -1.0043
 8099TIP3    H124236   0.046   7.634   3.411 -1.3692  0.3674 -0.5931
 8099TIP3    H224237   0.118   7.672   3.284  1.7161  2.2925  1.6484
 8100TIP3   OH224238   1.533   5.820   6.449 -0.1160  0.1245  0.3638
 8100TIP3    H124239   1.549   5.828   6.355 -2.6385 -1.1259 -0.2108
 8100TIP3    H224240   1.612   5.779   6.483  0.4728 -0.1964 -1.3426
 8101TIP3   OH224241   2.201   5.192   2.627 -0.3302 -0.0621 -0.5534
 8101TIP3    H124242   2.290   5.163   2.607 -0.7906 -0.5371 -1.9449
 8101TIP3    H224243   2.203   5.208   2.721  0.0030 -4.7137  0.3983
 8102TIP3   OH224244   0.942   6.473   6.732 -0.4262  0.0366  0.2601
 8102TIP3    H124245   0.849   6.470   6.710 -0.7658  0.2160  1.6123
 8102TIP3    H224246   0.971   6.382   6.725 -0.8705 -0.1280  0.5468
 8103TIP3   OH224247   0.871   4.655   4.317  0.4494  0.1226  0.4305
 8103TIP3    H124248   0.880   4.652   4.221 -0.8623 -0.1213  0.3060
 8103TIP3    H224249   0.829   4.739   4.334  3.2535  1.4545  1.0371
 8104TIP3   OH224250   0.982   5.492   3.420  0.7247  0.1696 -0.1668
 8104TIP3    H124251   0.894   5.531   3.423  0.0919 -1.2724  0.3039
 8104TIP3    H224252   1.020   5.525   3.339  0.0235  1.3801 -0.0177
 8105TIP3   OH224253   6.095   3.106   3.819 -0.6902  0.0459 -0.0400
 8105TIP3    H124254   6.053   3.132   3.901 -0.8642  0.0023 -0.1144
 8105TIP3    H224255   6.023   3.104   3.756 -0.6033 -0.1920 -0.1306
 8106TIP3   OH224256   1.392   6.162   5.256 -0.0478 -0.3461 -0.0176
 8106TIP3    H124257   1.351   6.140   5.340 -0.6799 -2.1467 -0.7601
 8106TIP3    H224258   1.445   6.085   5.235  3.4080  1.7688  0.6849
 8107TIP3   OH224259   1.416   3.439   5.717  0.3662 -0.1590  0.5026
 8107TIP3    H124260   1.430   3.401   5.630  1.6965 -0.5215  0.8674
 8107TIP3    H224261   1.404   3.364   5.775  1.3734  0.0274  0.9546
 8108TIP3   OH224262   1.608   6.269   4.220 -0.6910 -0.0351 -0.2566
 8108TIP3    H124263   1.684   6.239   4.170  0.4746  1.3533  0.6281
 8108TIP3    H224264   1.617   6.226   4.305 -0.2217  1.0451  0.2564
 8109TIP3   OH224265   1.872   6.057   4.835  0.1221 -0.0659 -0.1863
 8109TIP3    H124266   1.872   5.969   4.799 -2.4146  0.0245 -0.4997
 8109TIP3    H224267   1.876   6.044   4.930  0.0726 -0.4889 -0.2414
 8110TIP3   OH224268   8.499   4.857   4.139 -0.5938  0.1489 -0.1421
 8110TIP3    H124269   8.550   4.901   4.207 -0.9009  1.4007 -0.7081
 8110TIP3    H224270   8.441   4.925   4.104 -1.6976 -0.9188 -0.4410
 8111TIP3   OH224271   1.593   5.311   3.725  0.4833  0.4289 -0.4616
 8111TIP3    H124272   1.684   5.311   3.752  1.1613 -0.9860 -2.6183
 8111TIP3    H224273   1.555   5.233   3.766 -0.4081  2.2656  2.3496
 8112TIP3   OH224274   1.142   6.228   3.851  0.2241 -0.3648  0.1399
 8112TIP3    H124275   1.206   6.289   3.888 -0.6609  0.5084  0.2548
 8112TIP3    H224276   1.190   6.147   3.839  1.3521  0.2769  0.2505
 8113TIP3   OH224277   7.902   5.947   4.751 -0.1066  0.5837 -0.7973
 8113TIP3    H124278   7.860   5.916   4.671 -0.5508 -1.0889  0.0588
 8113TIP3    H224279   7.994   5.923   4.741 -0.0163  1.0575 -1.1260
 8114TIP3   OH224280   1.127   6.408   4.379 -0.2441 -0.0445  0.3930
 8114TIP3    H124281   1.188   6.354   4.429  2.3720  0.7938 -1.7775
 8114TIP3    H224282   1.131   6.494   4.421  0.6404  0.2059 -0.2032
 8115TIP3   OH224283   1.148   5.607   4.581 -0.3611 -0.1991  0.5302
 8115TIP3    H124284   1.178   5.645   4.663 -0.5123  0.4928  0.2668
 8115TIP3    H224285   1.053   5.604   4.590 -0.3984  0.1694  0.2525
 8116TIP3   OH224286   0.483   3.755   5.383 -0.4162  0.0234 -0.7167
 8116TIP3    H124287   0.577   3.768   5.372 -0.1761 -1.2740 -0.2768
 8116TIP3    H224288   0.453   3.724   5.298 -0.4400  0.3454 -0.8282
 8117TIP3   OH224289   7.832   4.633   4.906  0.4278 -0.1723 -0.0818
 8117TIP3    H124290   7.826   4.689   4.984 -1.1135  1.4678 -1.3208
 8117TIP3    H224291   7.742   4.605   4.891  0.3941  1.0951 -2.3722
 8118TIP3   OH224292   6.907   0.372  -0.011 -0.4292  0.1790  0.0286
 8118TIP3    H124293   6.847   0.445   0.000 -1.2886 -0.7445  1.5872
 8118TIP3    H224294   6.978   0.390   0.052  0.8687  1.1649 -1.6611
 8119TIP3   OH224295   0.197   3.607   2.043 -0.2483  0.0535 -0.0839
 8119TIP3    H124296   0.248   3.678   2.003  1.0814 -0.3282  0.8997
 8119TIP3    H224297   0.144   3.650   2.110 -1.8817  0.5744 -1.6420
 8120TIP3   OH224298   1.793   4.499   4.767 -0.2382 -0.4542 -0.3131
 8120TIP3    H124299   1.864   4.557   4.742 -0.1396  0.4186  1.9366
 8120TIP3    H224300   1.830   4.411   4.757 -0.2217 -0.1606 -3.2033
 8121TIP3   OH224301   1.314   4.946   5.029 -0.3336  0.2820  0.1823
 8121TIP3    H124302   1.375   5.015   5.053 -0.8062  0.6563  0.3175
 8121TIP3    H224303   1.363   4.889   4.970 -0.4646  1.6657 -1.2688
 8122TIP3   OH224304   6.976   4.470   5.173  0.4145 -0.4683 -0.2156
 8122TIP3    H124305   6.904   4.505   5.225  1.4523 -1.9230  2.3422
 8122TIP3    H224306   6.934   4.424   5.101 -1.1172  0.8076 -0.1594
 8123TIP3   OH224307   8.014   3.886   5.082  0.0242  0.3677 -0.7385
 8123TIP3    H124308   7.994   3.960   5.024  0.3500 -0.2807 -1.6834
 8123TIP3    H224309   8.102   3.860   5.059 -0.7195 -1.4329 -1.6267
 8124TIP3   OH224310   1.037   5.125   5.519 -0.1554 -0.1583 -0.1697
 8124TIP3    H124311   1.007   5.102   5.431 -0.3355 -1.0208  0.1092
 8124TIP3    H224312   1.055   5.219   5.515  2.0705 -0.6031 -1.7831
 8125TIP3   OH224313   1.013   5.326   5.829 -0.4897 -0.0245 -0.2064
 8125TIP3    H124314   0.953   5.254   5.851 -2.2262  1.2744 -0.5633
 8125TIP3    H224315   1.095   5.282   5.806 -1.1368 -1.8220  0.7857
 8126TIP3   OH224316   5.442   0.659   1.405 -0.3651 -0.0386 -0.0519
 8126TIP3    H124317   5.365   0.624   1.361 -0.4977  1.3634 -0.9779
 8126TIP3    H224318   5.504   0.587   1.407 -0.4263 -0.2007 -2.4024
 8127TIP3   OH224319   0.598   4.015   6.688  0.4652  0.2128  0.4182
 8127TIP3    H124320   0.535   3.949   6.659  0.0045  0.8120  0.0450
 8127TIP3    H224321   0.626   4.058   6.607 -0.8334  1.9129  0.8375
 8128TIP3   OH224322   2.452   6.443   5.132 -0.7293 -0.1410  0.2091
 8128TIP3    H124323   2.521   6.493   5.177 -0.3477 -0.2953 -0.2098
 8128TIP3    H224324   2.406   6.397   5.203  0.3360 -0.9638  0.3671
 8129TIP3   OH224325   2.505   6.948   0.872  0.0964  0.2565  0.2203
 8129TIP3    H124326   2.426   6.934   0.925  0.1264  0.6345  0.3646
 8129TIP3    H224327   2.577   6.939   0.935  0.1270  0.8226  0.2699
 8130TIP3   OH224328   1.084   6.287   4.139  0.2914 -0.4415 -0.3296
 8130TIP3    H124329   1.084   6.332   4.224 -1.8370  2.4419 -1.7662
 8130TIP3    H224330   1.156   6.327   4.091 -0.2153 -0.1191 -0.8282
 8131TIP3   OH224331   8.466   6.928   4.256  0.2215  0.0165  0.8442
 8131TIP3    H124332   8.443   7.013   4.293 -0.4832  1.0855 -1.9653
 8131TIP3    H224333   8.552   6.941   4.217 -0.0761 -0.4290  0.0257
 8132TIP3   OH224334   2.311   6.307   3.338  0.2332 -0.4460 -0.3506
 8132TIP3    H124335   2.375   6.361   3.293 -0.0429  0.4387  0.3112
 8132TIP3    H224336   2.282   6.244   3.271  0.1326  0.5881 -1.3062
 8133TIP3   OH224337   8.184   6.000   3.842 -0.3963  0.0137  0.0183
 8133TIP3    H124338   8.161   5.933   3.778  2.3208 -0.3122 -0.6655
 8133TIP3    H224339   8.244   5.956   3.902 -1.6760  0.7604  1.9000
 8134TIP3   OH224340   5.402   1.401   1.971 -0.0055 -0.0915  0.5632
 8134TIP3    H124341   5.382   1.401   1.878 -2.9541 -0.7038  1.1404
 8134TIP3    H224342   5.494   1.376   1.976  0.7479  1.8300 -2.2528
 8135TIP3   OH224343   2.397   4.768   4.498 -0.1123  0.0741 -0.1976
 8135TIP3    H124344   2.332   4.749   4.565  0.9529  0.9242  1.1121
 8135TIP3    H224345   2.359   4.735   4.417 -2.4588  1.1510  0.4235
 8136TIP3   OH224346   1.977   3.631   4.601  0.2296 -0.0143  0.1757
 8136TIP3    H124347   1.964   3.557   4.541 -1.0226  0.2887  0.0431
 8136TIP3    H224348   1.944   3.707   4.553  1.1053  0.5672  0.4796
 8137TIP3   OH224349   0.314   4.076   3.562  0.3476 -0.2162 -0.0407
 8137TIP3    H124350   0.253   4.006   3.588 -2.3605  2.6178  1.5224
 8137TIP3    H224351   0.289   4.098   3.473 -1.2083  1.1696  0.7122
 8138TIP3   OH224352   0.498   5.968   4.113 -0.1833  0.3082  0.0058
 8138TIP3    H124353   0.425   5.969   4.176 -0.5107 -2.2677 -0.3017
 8138TIP3    H224354   0.568   5.921   4.158  0.2331  0.1060 -0.8589
 8139TIP3   OH224355   2.622   7.956   6.411 -0.3672 -0.1198  0.4876
 8139TIP3    H124356   2.685   7.896   6.451 -0.7644 -1.4154 -0.7825
 8139TIP3    H224357   2.663   7.983   6.329  0.2741  2.2119  1.5534
 8140TIP3   OH224358   0.239   5.990   4.708  0.7035 -0.0004 -0.0287
 8140TIP3    H124359   0.216   5.912   4.758  0.0014  0.8334  0.9604
 8140TIP3    H224360   0.314   6.027   4.754  1.9859 -0.8707 -1.3377
 8141TIP3   OH224361   1.413   6.301   5.037  0.1952 -0.1164 -0.7298
 8141TIP3    H124362   1.414   6.258   5.123  0.9311  1.5432  0.1131
 8141TIP3    H224363   1.370   6.238   4.979  0.8862 -1.8144  0.5625
 8142TIP3   OH224364   1.467   3.599   3.493 -0.3838 -0.1571 -0.4665
 8142TIP3    H124365   1.405   3.657   3.537  1.3239  0.0759  1.7086
 8142TIP3    H224366   1.422   3.514   3.492 -1.0225  0.1545  0.5060
 8143TIP3   OH224367   3.034   7.482   4.600 -0.5421  0.2459  0.2620
 8143TIP3    H124368   3.076   7.397   4.616 -0.9332  0.0584  0.3149
 8143TIP3    H224369   3.106   7.542   4.583 -0.3023 -0.2444 -0.4598
 8144TIP3   OH224370   1.146   4.342   6.642 -0.2008 -0.1077  0.1868
 8144TIP3    H124371   1.154   4.408   6.711  1.0681  1.4035 -1.3714
 8144TIP3    H224372   1.070   4.289   6.668 -1.0194  1.7256  1.6451
 8145TIP3   OH224373   0.654   4.522   2.787  0.1346 -0.3149 -0.9447
 8145TIP3    H124374   0.731   4.467   2.801  0.7846  0.7805 -0.1409
 8145TIP3    H224375   0.623   4.498   2.700  2.2563  0.2441 -1.8852
 8146TIP3   OH224376   8.371   5.883   4.003  0.4378 -0.3869 -0.3256
 8146TIP3    H124377   8.344   5.791   4.000  0.2886 -0.3060 -1.8603
 8146TIP3    H224378   8.456   5.884   3.960  0.6024  0.1347  0.0146
 8147TIP3   OH224379   2.350   7.182   3.617 -0.1059  0.5075  0.0256
 8147TIP3    H124380   2.299   7.221   3.546 -3.7038 -1.8379  1.2037
 8147TIP3    H224381   2.381   7.099   3.581 -1.1190 -0.2368  0.8513
 8148TIP3   OH224382   0.879   6.134   3.805 -0.5756 -0.1857 -1.2352
 8148TIP3    H124383   0.850   6.213   3.850 -1.5342 -2.1185  1.6981
 8148TIP3    H224384   0.963   6.112   3.845 -0.5969 -0.9750 -1.6116
 8149TIP3   OH224385   6.737   1.184   0.112 -0.1438 -0.0979  0.0446
 8149TIP3    H124386   6.781   1.119   0.057 -1.0332 -2.5560  2.1094
 8149TIP3    H224387   6.645   1.156   0.112 -0.2473  0.1898  2.2864
 8150TIP3   OH224388   0.757   5.901   5.072  0.9240  0.1962  0.0082
 8150TIP3    H124389   0.791   5.828   5.123  0.9598 -0.2327 -0.6284
 8150TIP3    H224390   0.817   5.909   4.998  0.1579  0.0137 -0.6366
 8151TIP3   OH224391   8.455   7.135   2.540 -0.2908  0.2750  0.5488
 8151TIP3    H124392   8.460   7.064   2.604  2.2467  0.5554  0.7158
 8151TIP3    H224393   8.448   7.091   2.455  0.5292 -0.1949  0.7145
 8152TIP3   OH224394   1.511   0.199   5.700  0.4197  0.2239 -1.1063
 8152TIP3    H124395   1.584   0.250   5.664  1.1277  0.2717  0.3532
 8152TIP3    H224396   1.434   0.254   5.688  0.8084  0.6459 -1.6533
 8153TIP3   OH224397   3.695   3.436   4.560  0.3935 -0.6025 -0.2858
 8153TIP3    H124398   3.673   3.504   4.497  0.2406  0.5663  0.9855
 8153TIP3    H224399   3.651   3.358   4.528 -0.7724  0.2864 -0.9111
 8154TIP3   OH224400   7.469   4.994   5.505 -0.5913 -0.3175  0.3175
 8154TIP3    H124401   7.504   4.966   5.590 -2.1940 -0.6576  0.8774
 8154TIP3    H224402   7.533   5.058   5.473 -0.0829 -0.0195  1.8832
 8155TIP3   OH224403   0.642   5.344   6.932  0.4354 -0.0218  0.5917
 8155TIP3    H124404   0.688   5.426   6.913 -0.7366  0.4582 -0.1839
 8155TIP3    H224405   0.637   5.299   6.848 -1.1871  0.2778  0.5141
 8156TIP3   OH224406   8.262   6.122   5.267 -0.5074  0.0702 -0.2363
 8156TIP3    H124407   8.175   6.162   5.273  0.2712  1.8424 -0.6959
 8156TIP3    H224408   8.268   6.089   5.178 -0.8778 -0.4961 -0.0601
 8157TIP3   OH224409   7.075   3.635   6.529 -0.1754  0.1837 -0.2074
 8157TIP3    H124410   7.134   3.573   6.572  0.3824  0.0381 -1.1685
 8157TIP3    H224411   7.130   3.709   6.506 -0.8228  0.9904  0.8307
 8158TIP3   OH224412   0.403   2.741   6.588  0.0981 -0.0480 -0.2699
 8158TIP3    H124413   0.482   2.795   6.591 -0.0541  0.1072  1.3545
 8158TIP3    H224414   0.399   2.699   6.673 -1.0750 -0.7782 -0.6673
 8159TIP3   OH224415   8.141   5.632   2.019  0.3320  0.0937 -0.2204
 8159TIP3    H124416   8.201   5.578   2.070 -1.1673 -0.8900  0.5558
 8159TIP3    H224417   8.191   5.711   1.998  1.1652  0.2790  2.2854
 8160TIP3   OH224418   1.209   4.945   6.573 -0.0505  0.1278 -0.1911
 8160TIP3    H124419   1.216   4.929   6.479 -3.2167  0.8668 -0.5946
 8160TIP3    H224420   1.211   4.858   6.613  1.3546 -0.1819 -0.9286
 8161TIP3   OH224421   0.437   5.843   2.828 -0.0593 -0.8068  0.3031
 8161TIP3    H124422   0.445   5.906   2.899  1.4051  0.1303 -0.6655
 8161TIP3    H224423   0.526   5.834   2.794 -0.9464 -0.2756 -2.2485
 8162TIP3   OH224424   1.409   5.866   3.091  0.3555  0.3162 -0.5375
 8162TIP3    H124425   1.404   5.859   3.187  2.6523  1.7610 -0.2591
 8162TIP3    H224426   1.432   5.779   3.061  0.8599  0.1415  0.3500
 8163TIP3   OH224427   1.611   5.932   4.181 -0.4332  0.2512  0.3366
 8163TIP3    H124428   1.678   5.922   4.248 -0.5934 -0.1380  0.4414
 8163TIP3    H224429   1.562   5.850   4.183 -1.6511  0.9713  1.0671
 8164TIP3   OH224430   3.754   4.986   4.065  0.3269 -0.1477 -0.0567
 8164TIP3    H124431   3.686   4.993   3.997 -0.0314 -2.9627 -0.0665
 8164TIP3    H224432   3.706   4.957   4.143  1.2049 -0.0667  0.5099
 8165TIP3   OH224433   0.689   5.031   3.772 -0.0765  0.1126 -0.4430
 8165TIP3    H124434   0.725   5.120   3.764 -1.4672  0.5518 -2.3393
 8165TIP3    H224435   0.761   4.974   3.745  0.3339  0.7700 -0.7568
 8166TIP3   OH224436   0.272   5.710   4.415 -0.1862  0.1564  0.2296
 8166TIP3    H124437   0.332   5.711   4.341 -1.0066  2.5043 -0.4316
 8166TIP3    H224438   0.321   5.750   4.487 -0.0937 -0.2417  0.3892
 8167TIP3   OH224439   2.832   6.387   5.699 -0.3492 -0.2508  0.3181
 8167TIP3    H124440   2.751   6.408   5.653 -0.8703 -0.2250  1.2301
 8167TIP3    H224441   2.902   6.422   5.644 -1.0809  1.7085  0.6205
 8168TIP3   OH224442   6.843   1.037   4.334 -0.1173 -1.0807 -0.3178
 8168TIP3    H124443   6.751   1.048   4.357  0.4041 -1.0109  1.8514
 8168TIP3    H224444   6.884   1.004   4.414  1.3612 -3.1848 -1.8795
 8169TIP3   OH224445   2.503   7.396   5.102  0.2013 -0.2377 -0.2746
 8169TIP3    H124446   2.489   7.363   5.191 -0.0914 -2.0893 -0.9866
 8169TIP3    H224447   2.424   7.370   5.054  0.3195  0.8216 -1.0682
 8170TIP3   OH224448   3.431   5.571   3.310 -0.4844 -0.0365  0.2285
 8170TIP3    H124449   3.492   5.641   3.332  1.2501 -1.0895 -1.0948
 8170TIP3    H224450   3.405   5.534   3.394  1.2272 -0.0066  0.7933
 8171TIP3   OH224451   3.940   5.504   2.742 -0.3024  0.6006  0.4227
 8171TIP3    H124452   3.975   5.572   2.683  0.2126  0.8623  1.0195
 8171TIP3    H224453   4.018   5.461   2.776 -0.6479 -1.0332 -0.7896
 8172TIP3   OH224454   0.819   3.151   4.801  0.5865 -0.6166  0.1354
 8172TIP3    H124455   0.858   3.208   4.866 -1.0088 -0.8039  1.2699
 8172TIP3    H224456   0.866   3.171   4.720  1.4588  0.7872  0.9798
 8173TIP3   OH224457   1.542   6.057   3.805 -0.3084  0.1309  0.5494
 8173TIP3    H124458   1.575   5.984   3.858 -0.6770  0.6122  1.4698
 8173TIP3    H224459   1.595   6.056   3.726  1.4689  0.4661  1.6897
 8174TIP3   OH224460   8.311   5.952   4.822 -0.0160  0.1993 -0.4164
 8174TIP3    H124461   8.232   5.957   4.876  1.3693 -1.6693  1.8998
 8174TIP3    H224462   8.336   6.043   4.806 -2.2667  0.7954 -0.6663
 8175TIP3   OH224463   0.912   6.565   6.388  0.8294 -0.2580 -0.5369
 8175TIP3    H124464   0.901   6.568   6.483  0.9805 -1.2860 -0.4845
 8175TIP3    H224465   0.855   6.634   6.355  0.4238 -0.2078  0.2656
 8176TIP3   OH224466   3.334   5.913   3.495 -0.3517 -0.4628  0.2528
 8176TIP3    H124467   3.322   5.824   3.528  0.7434 -0.5037  0.5471
 8176TIP3    H224468   3.312   5.907   3.402  1.1484 -1.3578 -0.0594
 8177TIP3   OH224469   0.930   6.028   5.319 -0.0112  0.3809  0.5350
 8177TIP3    H124470   1.010   6.043   5.368 -0.6648  0.0320  1.7256
 8177TIP3    H224471   0.924   6.102   5.259  1.8644 -0.2482 -0.4705
 8178TIP3   OH224472   1.847   6.120   5.818  0.6765  0.0801 -0.6878
 8178TIP3    H124473   1.903   6.043   5.829  0.1657 -0.1981 -0.0179
 8178TIP3    H224474   1.852   6.140   5.725 -1.9708 -2.8529 -1.5548
 8179TIP3   OH224475   1.669   6.493   2.672 -0.6786  1.0055 -0.2565
 8179TIP3    H124476   1.682   6.467   2.763 -0.5584  0.3685 -0.4482
 8179TIP3    H224477   1.576   6.511   2.664 -0.5958  1.6192  0.1303
 8180TIP3   OH224478   2.490   6.578   3.937 -0.2956  0.4065 -0.0044
 8180TIP3    H124479   2.485   6.538   3.850 -0.8678  0.4053  0.0244
 8180TIP3    H224480   2.526   6.665   3.921  0.3213  0.1245 -0.1502
 8181TIP3   OH224481   2.355   7.493   5.327  0.5219 -0.3868 -0.0801
 8181TIP3    H124482   2.393   7.535   5.250  1.8020 -1.0742  0.1647
 8181TIP3    H224483   2.267   7.468   5.299  0.2552  1.1524 -0.6740
 8182TIP3   OH224484   3.547   4.528   4.884 -0.2004 -0.2924 -0.0042
 8182TIP3    H124485   3.479   4.595   4.893  2.0251  2.2646 -1.4981
 8182TIP3    H224486   3.591   4.528   4.969 -0.0711  0.2889 -0.0709
 8183TIP3   OH224487   2.504   6.221   4.280 -0.3302  0.1157 -0.3001
 8183TIP3    H124488   2.589   6.177   4.283 -0.8545 -0.8055  1.1580
 8183TIP3    H224489   2.479   6.233   4.371 -2.1612 -0.3669 -0.7192
 8184TIP3   OH224490   3.525   5.967   4.818  0.0310  0.2591 -0.0608
 8184TIP3    H124491   3.547   5.902   4.751 -0.7520 -1.5569  1.3887
 8184TIP3    H224492   3.475   5.918   4.883  0.4130  2.0733  1.6534
 8185TIP3   OH224493   1.283   3.518   5.260  0.4782  0.1422  0.2078
 8185TIP3    H124494   1.351   3.570   5.217 -0.2574  2.0207  1.2525
 8185TIP3    H224495   1.288   3.543   5.352 -1.2179 -0.1513  0.4016
 8186TIP3   OH224496   1.487   5.515   2.773 -0.1576  0.0963 -0.2744
 8186TIP3    H124497   1.459   5.431   2.810 -3.1477  0.5986 -1.2761
 8186TIP3    H224498   1.532   5.491   2.691 -3.0601 -0.4506 -1.7533
 8187TIP3   OH224499   0.709   5.862   5.897 -0.0199 -0.2628  0.4929
 8187TIP3    H124500   0.628   5.897   5.934 -0.6616 -0.0037 -1.0920
 8187TIP3    H224501   0.682   5.820   5.816  1.2641 -1.2928  0.5803
 8188TIP3   OH224502   6.488   0.334   3.564  0.2096  0.0730 -0.0460
 8188TIP3    H124503   6.430   0.262   3.590  1.9201 -0.5153  2.3994
 8188TIP3    H224504   6.429   0.405   3.539 -1.5761 -0.7135  1.7853
 8189TIP3   OH224505   1.787   5.651   4.538  0.2620 -0.0177  0.3396
 8189TIP3    H124506   1.844   5.574   4.540 -1.6101 -1.4304  1.5570
 8189TIP3    H224507   1.724   5.636   4.609 -2.5472  0.7035 -1.8957
 8190TIP3   OH224508   1.966   6.985   2.714 -0.5447 -0.5942 -0.6171
 8190TIP3    H124509   1.883   7.029   2.736  0.1312 -0.0280  0.8469
 8190TIP3    H224510   2.031   7.055   2.715  0.1767 -1.2619 -0.4577
 8191TIP3   OH224511   3.414   5.123   3.350 -0.4758  0.4274 -0.4977
 8191TIP3    H124512   3.488   5.108   3.409 -0.6047  0.2415 -0.3820
 8191TIP3    H224513   3.361   5.044   3.358  0.4863 -0.4452 -2.3201
 8192TIP3   OH224514   1.405   6.233   5.677  0.1499  0.5696  0.4301
 8192TIP3    H124515   1.357   6.316   5.677  0.4030  0.7365 -1.3618
 8192TIP3    H224516   1.336   6.166   5.675 -0.0557  0.8116 -2.5786
 8193TIP3   OH224517   1.944   6.106   3.306  0.5326 -0.6137  0.3677
 8193TIP3    H124518   1.970   6.165   3.377  1.2784 -1.6584  0.9834
 8193TIP3    H224519   1.854   6.131   3.285  0.8327  0.7114  0.6415
 8194TIP3   OH224520   8.257   6.306   3.333 -0.1666  0.6147 -0.2402
 8194TIP3    H124521   8.273   6.366   3.406  0.0602  0.1099  0.1316
 8194TIP3    H224522   8.166   6.280   3.344 -0.4163  1.2830 -0.6980
 8195TIP3   OH224523   1.595   7.869   5.019 -0.0389 -0.1508 -0.4737
 8195TIP3    H124524   1.654   7.794   5.019 -0.9686 -0.8935 -0.2809
 8195TIP3    H224525   1.607   7.909   5.105 -0.3974 -0.7653 -0.1384
 8196TIP3   OH224526   2.109   5.080   3.948 -0.4287 -0.1232 -0.0596
 8196TIP3    H124527   2.067   5.010   3.998 -0.8161 -0.2341 -0.5404
 8196TIP3    H224528   2.110   5.048   3.858  0.6904 -0.1268 -0.0603
 8197TIP3   OH224529   5.849   6.855   3.644 -0.1237 -0.0397  0.1637
 8197TIP3    H124530   5.901   6.787   3.603 -1.5722  0.1531 -2.1178
 8197TIP3    H224531   5.849   6.834   3.737  2.8944 -0.7525  0.0272
 8198TIP3   OH224532   1.844   6.442   3.214 -0.1546 -0.0847  0.1795
 8198TIP3    H124533   1.880   6.519   3.260  0.3227 -0.0186 -0.2981
 8198TIP3    H224534   1.822   6.475   3.127  2.5805 -1.0878 -0.9514
 8199TIP3   OH224535   2.369   4.771   3.290  0.3318 -0.2340 -0.3839
 8199TIP3    H124536   2.447   4.790   3.238 -0.5766 -0.1536 -1.7127
 8199TIP3    H224537   2.368   4.675   3.297  0.3086 -0.2605 -0.7359
 8200TIP3   OH224538   3.045   6.653   3.565  0.2233 -0.2989 -0.2427
 8200TIP3    H124539   3.034   6.560   3.587 -1.8594  0.2417  1.1703
 8200TIP3    H224540   3.017   6.660   3.474 -1.8730 -0.6668  0.3595
 8201TIP3   OH224541   4.948   2.592   5.244  0.2644  0.4603 -0.5863
 8201TIP3    H124542   5.012   2.523   5.264 -0.9764 -0.3261  0.7661
 8201TIP3    H224543   4.877   2.547   5.199 -0.0603  1.0441 -0.6647
 8202TIP3   OH224544   5.469   0.550   6.010  0.0789  0.0543  0.0677
 8202TIP3    H124545   5.513   0.499   5.942 -0.9781 -0.0464 -0.5474
 8202TIP3    H224546   5.469   0.640   5.975  4.7464  1.1424  2.5147
 8203TIP3   OH224547   3.808   5.946   4.820 -0.1046 -0.1279 -0.5087
 8203TIP3    H124548   3.713   5.950   4.836  0.2865 -0.3023  2.0651
 8203TIP3    H224549   3.824   5.857   4.789 -0.5116 -0.7271  0.9876
 8204TIP3   OH224550   0.481   6.399   4.263  0.5027 -0.1150  0.0883
 8204TIP3    H124551   0.529   6.365   4.188  0.2866  0.9798 -0.5549
 8204TIP3    H224552   0.543   6.396   4.336  1.0014 -0.3073 -0.3463
 8205TIP3   OH224553   5.824   0.562   3.995 -0.2009 -0.1596  0.0308
 8205TIP3    H124554   5.891   0.619   4.030 -1.1293 -0.4243  2.3120
 8205TIP3    H224555   5.870   0.507   3.931  1.0114  1.9799 -0.9850
 8206TIP3   OH224556   1.458   5.158   3.395  0.0385 -0.4327  0.6815
 8206TIP3    H124557   1.543   5.121   3.421  1.4262  1.3971 -1.1119
 8206TIP3    H224558   1.477   5.249   3.375 -2.5275  0.1882  0.9361
 8207TIP3   OH224559   8.100   5.983   4.987  0.1151  0.0214  0.4722
 8207TIP3    H124560   8.046   5.939   5.053  1.5697 -3.0967 -0.3283
 8207TIP3    H224561   8.052   6.064   4.967 -3.3417 -1.7967  1.0720
 8208TIP3   OH224562   2.392   5.750   5.391  0.5068 -0.2961 -0.5921
 8208TIP3    H124563   2.455   5.738   5.462 -0.6859 -0.6243  0.4206
 8208TIP3    H224564   2.330   5.678   5.401  1.1725 -1.2103 -2.8921
 8209TIP3   OH224565   8.079   7.838   4.738  0.1164 -0.1961  0.4001
 8209TIP3    H124566   8.080   7.819   4.644 -1.6936  0.1410  0.2907
 8209TIP3    H224567   8.045   7.758   4.778 -1.3776  0.4726  0.5259
 8210TIP3   OH224568   0.400   6.227   2.661 -0.3512  0.0248  0.4257
 8210TIP3    H124569   0.420   6.250   2.752 -1.8188 -1.8941  1.2763
 8210TIP3    H224570   0.311   6.258   2.648 -0.7587 -1.2170  0.2034
 8211TIP3   OH224571   0.725   6.814   1.640 -0.0064 -0.4503  0.1162
 8211TIP3    H124572   0.774   6.830   1.721 -2.0057  0.5683  1.1579
 8211TIP3    H224573   0.790   6.779   1.579  3.1647  5.2560 -0.1003
 8212TIP3   OH224574   2.285   7.678   3.921  0.8464 -0.7414  0.4277
 8212TIP3    H124575   2.217   7.635   3.870 -0.1337  0.5663  0.6190
 8212TIP3    H224576   2.364   7.671   3.866 -0.1692  0.5840 -1.2590
 8213TIP3   OH224577   0.067   6.951   5.015 -0.5759 -0.3879  0.3327
 8213TIP3    H124578   0.153   6.979   5.044  0.2400 -0.8207 -1.5990
 8213TIP3    H224579   0.022   7.032   4.991 -0.7985 -0.1468  1.5082
 8214TIP3   OH224580   4.344   6.210   4.390 -0.1353 -0.8165  0.9993
 8214TIP3    H124581   4.392   6.198   4.308  0.8782  0.5223  1.3908
 8214TIP3    H224582   4.252   6.193   4.367  0.1978 -0.8783 -0.2990
 8215TIP3   OH224583   2.403   5.787   4.918  0.1632  0.2944  0.1540
 8215TIP3    H124584   2.490   5.807   4.954 -0.0500  0.5962  0.5064
 8215TIP3    H224585   2.344   5.796   4.993 -0.3841  1.6429 -0.4279
 8216TIP3   OH224586   7.955   3.365   3.576  0.4685 -0.1180  0.3148
 8216TIP3    H124587   7.915   3.452   3.576  1.0321  0.1515  1.2246
 8216TIP3    H224588   7.884   3.306   3.602  0.5918  0.3444  1.7822
 8217TIP3   OH224589   2.092   4.607   3.974 -0.0248 -0.1521  0.0964
 8217TIP3    H124590   2.092   4.513   3.989  0.9262 -0.1257  0.2978
 8217TIP3    H224591   2.013   4.624   3.924 -1.9247 -0.6130  2.8436
 8218TIP3   OH224592   0.864   7.780   5.201 -0.0758 -0.0989  0.4376
 8218TIP3    H124593   0.854   7.699   5.151 -1.0996 -0.1544  0.7170
 8218TIP3    H224594   0.958   7.794   5.205 -0.0354  0.5958 -2.5857
 8219TIP3   OH224595   2.936   2.436   3.352 -0.0399 -0.0123 -0.3315
 8219TIP3    H124596   2.928   2.340   3.348 -2.1832  0.1842 -2.0913
 8219TIP3    H224597   2.919   2.457   3.444 -1.4796 -1.2048 -0.2917
 8220TIP3   OH224598   0.995   3.608   2.407 -0.0314 -0.4998  0.2486
 8220TIP3    H124599   1.053   3.675   2.442 -0.6157 -0.1355  0.5266
 8220TIP3    H224600   0.922   3.605   2.468  0.2915 -1.8442  0.6033
 8221TIP3   OH224601   1.139   5.951   4.391 -0.2943  0.0497 -0.5004
 8221TIP3    H124602   1.191   6.011   4.338 -0.1850 -0.7984 -1.3743
 8221TIP3    H224603   1.178   5.865   4.374 -0.7154 -0.3203  0.4063
 8222TIP3   OH224604   0.573   4.810   3.186 -0.0728  0.1273 -0.9472
 8222TIP3    H124605   0.482   4.782   3.186  0.4859 -1.7658 -0.0548
 8222TIP3    H224606   0.599   4.808   3.094 -0.8456  0.4399 -1.1784
 8223TIP3   OH224607   0.201   4.679   4.042 -0.4335 -0.0556  0.1718
 8223TIP3    H124608   0.208   4.756   3.986  0.0908 -0.7398 -0.7105
 8223TIP3    H224609   0.116   4.687   4.084 -0.2691  1.1488  0.3007
 8224TIP3   OH224610   1.232   5.371   4.482 -0.1202 -0.2170  0.3335
 8224TIP3    H124611   1.310   5.356   4.428 -2.0845 -1.4517 -2.2682
 8224TIP3    H224612   1.224   5.467   4.485  0.1354 -0.1208 -1.4420
 8225TIP3   OH224613   2.979   6.003   5.551  0.0168  0.0260  0.1489
 8225TIP3    H124614   2.929   5.977   5.629  0.4010  1.1080  0.7681
 8225TIP3    H224615   2.937   5.958   5.479  1.6689 -3.7133  1.3755
 8226TIP3   OH224616   0.768   5.090   4.525  0.0772 -0.9934 -0.0659
 8226TIP3    H124617   0.713   5.155   4.570  0.6249 -0.4934 -0.1026
 8226TIP3    H224618   0.852   5.095   4.571  0.6780 -0.3895 -1.2252
 8227TIP3   OH224619   1.550   4.313   4.038  0.0599 -0.0813  0.6135
 8227TIP3    H124620   1.632   4.292   4.083 -0.2649 -0.3894  1.0560
 8227TIP3    H224621   1.482   4.275   4.092 -0.2487 -1.6338 -0.8260
 8228TIP3   OH224622   2.343   5.866   4.491 -0.1915  0.2671 -0.3083
 8228TIP3    H124623   2.392   5.805   4.546  0.3919  1.3509  0.3902
 8228TIP3    H224624   2.341   5.824   4.405 -1.6280 -1.7275  0.6489
 8229TIP3   OH224625   0.111   5.335   4.273 -0.0215 -0.3490 -0.2360
 8229TIP3    H124626   0.111   5.381   4.357 -2.2120  0.2836 -0.5462
 8229TIP3    H224627   0.199   5.349   4.238  0.1137  1.5709  0.7887
 8230TIP3   OH224628   3.617   7.364   4.924 -0.5287  0.3541 -0.3361
 8230TIP3    H124629   3.707   7.351   4.895 -0.2904 -0.6798  0.8157
 8230TIP3    H224630   3.572   7.400   4.848  0.9817  1.3944 -0.7502
 8231TIP3   OH224631   2.216   6.695   3.963  0.1558 -0.0804 -0.1153
 8231TIP3    H124632   2.233   6.777   4.010 -0.3424 -0.0556  0.0301
 8231TIP3    H224633   2.290   6.639   3.985  1.2664  0.8437 -1.4003
 8232TIP3   OH224634   0.677   5.410   3.410 -0.2124  0.3406 -0.2800
 8232TIP3    H124635   0.680   5.451   3.323  0.3717  1.0864  0.0778
 8232TIP3    H224636   0.734   5.334   3.402 -0.6977  0.0221 -0.7399
 8233TIP3   OH224637   8.137   5.821   2.680 -0.4052 -0.2696  0.3468
 8233TIP3    H124638   8.209   5.759   2.678 -0.6191 -0.4929 -0.8185
 8233TIP3    H224639   8.088   5.799   2.759 -1.0298 -2.2426 -0.5467
 8234TIP3   OH224640   1.067   4.745   3.804 -0.2341 -0.1633 -0.0636
 8234TIP3    H124641   0.997   4.761   3.740  1.5210  0.7733 -1.8334
 8234TIP3    H224642   1.118   4.827   3.804  2.5899 -1.8412 -1.0684
 8235TIP3   OH224643   8.446   3.917   3.268 -0.0329 -0.4635  0.3669
 8235TIP3    H124644   8.450   4.012   3.254 -0.6719 -0.4705  0.1212
 8235TIP3    H224645   8.362   3.903   3.310 -1.2784 -1.2522 -2.3105
 8236TIP3   OH224646   3.736   6.714   4.459  0.2346 -0.4206 -0.7910
 8236TIP3    H124647   3.681   6.699   4.382 -0.2377  0.2944 -0.5967
 8236TIP3    H224648   3.763   6.626   4.486  0.5822 -0.6574 -1.8945
 8237TIP3   OH224649   8.246   4.363   4.083 -0.2188 -0.1127 -0.0204
 8237TIP3    H124650   8.269   4.455   4.072 -0.5329  0.0675  0.7847
 8237TIP3    H224651   8.193   4.361   4.163 -3.6765 -0.4342 -2.2446
 8238TIP3   OH224652   3.462   6.338   3.565  0.2209  0.0594 -0.8096
 8238TIP3    H124653   3.394   6.271   3.559 -0.4188  0.7874 -1.7321
 8238TIP3    H224654   3.542   6.293   3.536 -0.5419  0.1628 -3.2202
 8239TIP3   OH224655   0.723   4.532   4.876  0.3435 -0.2253  0.2276
 8239TIP3    H124656   0.783   4.461   4.853 -0.0569 -0.5484  0.1748
 8239TIP3    H224657   0.770   4.583   4.941  1.4807  0.6732 -1.2664
 8240TIP3   OH224658   2.998   5.434   3.823  0.6194 -0.0482  0.1725
 8240TIP3    H124659   3.043   5.350   3.814 -0.1928 -0.5209  0.4523
 8240TIP3    H224660   2.918   5.414   3.872  0.4153  0.8874  0.2445
 8241TIP3   OH224661   0.273   6.521   3.547  0.1980 -0.1676  0.4524
 8241TIP3    H124662   0.331   6.445   3.548  0.7980  0.3024  1.1772
 8241TIP3    H224663   0.332   6.596   3.549 -0.4498  0.3062  1.6278
 8242TIP3   OH224664   2.438   7.601   3.704 -0.1133 -0.1557  0.7398
 8242TIP3    H124665   2.487   7.536   3.755  2.1203  0.9947  0.1294
 8242TIP3    H224666   2.427   7.560   3.618  0.4116 -0.1467  0.6641
 8243TIP3   OH224667   3.234   5.814   2.576 -0.4842  0.4375 -0.9653
 8243TIP3    H124668   3.295   5.740   2.580 -0.1605  0.7222 -0.5664
 8243TIP3    H224669   3.284   5.883   2.533 -0.5832  0.6096 -0.8063
 8244TIP3   OH224670   3.240   6.529   3.812  0.1638 -0.3300 -0.2395
 8244TIP3    H124671   3.309   6.586   3.778 -0.4482  0.6149  0.0892
 8244TIP3    H224672   3.222   6.563   3.900 -3.1752  1.6877 -1.5811
 8245TIP3   OH224673   3.582   1.821   4.189 -0.3350  0.4168  0.3393
 8245TIP3    H124674   3.531   1.902   4.180 -1.6744 -0.2799  1.3733
 8245TIP3    H224675   3.588   1.787   4.100 -1.0581  0.8919  0.1022
 8246TIP3   OH224676   0.464   6.472   3.933 -0.0758 -0.0196 -0.3084
 8246TIP3    H124677   0.533   6.538   3.924  0.1709 -0.1251  0.7431
 8246TIP3    H224678   0.388   6.521   3.965  0.1675 -0.2651  0.6722
 8247TIP3   OH224679   0.418   6.756   3.603  0.5390  0.9062 -0.7145
 8247TIP3    H124680   0.500   6.778   3.558  0.0392  1.7805 -1.2110
 8247TIP3    H224681   0.350   6.803   3.554 -0.4684 -1.1410 -1.3298
 8248TIP3   OH224682   0.814   5.194   3.309  0.3976 -0.2612  0.6133
 8248TIP3    H124683   0.805   5.099   3.322 -0.2159 -0.1553  0.9452
 8248TIP3    H224684   0.791   5.207   3.217 -1.2703 -0.2069  1.0264
 8249TIP3   OH224685   4.138   7.472   6.849 -0.0932  0.4067  0.2684
 8249TIP3    H124686   4.229   7.455   6.872 -0.0218  1.0742  0.4863
 8249TIP3    H224687   4.086   7.432   6.919  0.0962  1.8021  1.2237
 8250TIP3   OH224688   3.888   3.765   2.874 -0.3842  0.0230 -0.5152
 8250TIP3    H124689   3.816   3.733   2.818 -2.0896  1.8531  0.5781
 8250TIP3    H224690   3.902   3.855   2.845  1.3126 -0.2360 -0.5271
 8251TIP3   OH224691   2.778   5.641   3.203  0.0080 -0.9149  0.0899
 8251TIP3    H124692   2.853   5.640   3.144 -0.9714  0.5164 -1.2265
 8251TIP3    H224693   2.704   5.612   3.149 -0.7203 -0.5588  0.8754
 8252TIP3   OH224694   6.903   1.133   5.292  0.1807  0.3671 -0.6453
 8252TIP3    H124695   6.902   1.037   5.291 -0.1035  0.3742 -1.4713
 8252TIP3    H224696   6.976   1.157   5.235 -1.2501  0.6508 -2.4031
 8253TIP3   OH224697   3.691   5.078   3.035  0.2729 -0.5567 -0.0893
 8253TIP3    H124698   3.755   5.149   3.034 -0.3372  0.1054  3.0037
 8253TIP3    H224699   3.644   5.086   2.952 -0.6809  3.4670  0.7699
 8254TIP3   OH224700   3.045   4.681   3.972  0.5451 -0.3731 -0.5486
 8254TIP3    H124701   2.963   4.672   3.923 -0.5198  2.0265  0.7077
 8254TIP3    H224702   3.052   4.600   4.023 -0.5663 -0.9894 -1.3488
 8255TIP3   OH224703   0.370   5.092   4.121 -0.1637 -0.6476 -0.7554
 8255TIP3    H124704   0.390   5.179   4.155 -0.1527 -0.4648 -1.2293
 8255TIP3    H224705   0.456   5.051   4.110 -0.2102 -1.0501  0.3329
 8256TIP3   OH224706   2.758   6.101   4.218  0.3496 -0.0492  0.5864
 8256TIP3    H124707   2.813   6.165   4.173 -1.3201  0.5036 -0.7296
 8256TIP3    H224708   2.776   6.019   4.173  0.6476 -0.0146  0.6393
 8257TIP3   OH224709   1.905   6.583   4.548  0.3809  0.9341 -0.0361
 8257TIP3    H124710   1.846   6.537   4.607  1.0146  1.0569  0.7043
 8257TIP3    H224711   1.943   6.515   4.493 -1.3438  0.9802 -1.3475
 8258TIP3   OH224712   2.265   4.357   4.109  0.0178  0.5279 -0.3859
 8258TIP3    H124713   2.237   4.314   4.029  2.3641 -1.3277 -0.2576
 8258TIP3    H224714   2.206   4.325   4.177  0.1810 -0.5583 -0.7599
 8259TIP3   OH224715   4.314   7.638   4.972 -0.5225 -0.0476  0.7413
 8259TIP3    H124716   4.356   7.626   4.887 -0.2164 -1.2361  1.0535
 8259TIP3    H224717   4.380   7.610   5.036 -1.2877 -0.6021  1.2975
 8260TIP3   OH224718   0.985   5.303   2.950 -0.5888 -0.4690 -0.5581
 8260TIP3    H124719   1.048   5.275   3.017 -0.8219  0.7244  0.1763
 8260TIP3    H224720   1.018   5.387   2.919 -1.2702 -0.3295 -0.9089
 8261TIP3   OH224721   8.224   4.141   3.735  0.0112  0.0953  0.0829
 8261TIP3    H124722   8.193   4.129   3.825  1.1254 -0.8977  0.3440
 8261TIP3    H224723   8.234   4.052   3.701 -1.2883  0.4778 -1.3399
 8262TIP3   OH224724   4.144   7.018   2.327 -0.0402 -0.8212 -0.1154
 8262TIP3    H124725   4.108   7.092   2.279  3.1009 -0.0997 -1.4937
 8262TIP3    H224726   4.116   7.031   2.417 -1.6635  0.6357 -0.8107
 8263TIP3   OH224727   8.045   5.288   4.622  0.3740 -0.2951 -0.0100
 8263TIP3    H124728   8.056   5.369   4.670  2.5934 -0.1893 -0.6260
 8263TIP3    H224729   7.982   5.309   4.553 -1.7277 -0.0729  1.9258
 8264TIP3   OH224730   0.735   5.780   3.281  0.1126 -0.4335 -0.4594
 8264TIP3    H124731   0.710   5.711   3.220  0.8348 -0.9159 -0.2160
 8264TIP3    H224732   0.817   5.816   3.245  1.1532 -1.4763  0.8056
 8265TIP3   OH224733   1.163   7.368   5.167 -0.2399 -0.3016  0.1782
 8265TIP3    H124734   1.071   7.394   5.176 -0.0313  0.8798 -0.9967
 8265TIP3    H224735   1.160   7.290   5.112 -0.4668  0.3312 -0.7128
 8266TIP3   OH224736   7.668   6.140   3.495  0.0770  0.0786  0.4243
 8266TIP3    H124737   7.752   6.097   3.513  0.7767  1.2399  0.0106
 8266TIP3    H224738   7.608   6.069   3.473  1.0702 -0.7286  0.3319
 8267TIP3   OH224739   1.417   6.477   3.174  0.3632  0.4340  0.0213
 8267TIP3    H124740   1.473   6.411   3.215 -1.7208 -0.3495  1.6747
 8267TIP3    H224741   1.473   6.517   3.106  1.8381 -2.6086 -0.6326
 8268TIP3   OH224742   3.108   4.521   6.092 -0.1606  0.5322 -0.1845
 8268TIP3    H124743   3.148   4.586   6.036 -2.3184  1.7175 -0.4187
 8268TIP3    H224744   3.020   4.555   6.109 -0.9650 -1.7934  0.5480
 8269TIP3   OH224745   3.446   7.097   4.457  0.5595  0.8522  0.1895
 8269TIP3    H124746   3.357   7.073   4.431  0.4811  0.8215  0.4809
 8269TIP3    H224747   3.491   7.117   4.375  0.7247 -0.5786 -0.0846
 8270TIP3   OH224748   0.817   5.535   4.465  0.7122  0.3074  0.0940
 8270TIP3    H124749   0.722   5.534   4.454  0.6083  1.6219  0.7832
 8270TIP3    H224750   0.837   5.624   4.493  2.0087 -0.3120  1.1985
 8271TIP3   OH224751   3.456   4.408   3.702  0.2718  0.0056  0.0478
 8271TIP3    H124752   3.365   4.392   3.679  0.0667  1.1821 -0.0042
 8271TIP3    H224753   3.453   4.459   3.783  0.7392  3.0495 -1.7457
 8272TIP3   OH224754   2.526   5.057   5.854 -0.2365  0.1140  0.1750
 8272TIP3    H124755   2.431   5.054   5.867 -0.1217 -2.1558  0.7112
 8272TIP3    H224756   2.543   4.999   5.780  0.7200  0.5083  0.0768
 8273TIP3   OH224757   3.785   3.926   3.183  0.3593  0.6534 -0.1345
 8273TIP3    H124758   3.705   3.875   3.173  0.4725  0.5168 -0.3393
 8273TIP3    H224759   3.766   4.009   3.140  0.3041  0.6456 -0.1244
 8274TIP3   OH224760   2.663   6.382   1.182 -0.3592 -0.1643 -0.4008
 8274TIP3    H124761   2.603   6.309   1.196  1.8647 -1.5841  2.2162
 8274TIP3    H224762   2.647   6.440   1.256  0.2683  0.3507 -0.6678
 8275TIP3   OH224763   8.094   4.172   4.254 -0.9625 -0.0007  0.7613
 8275TIP3    H124764   8.028   4.111   4.286 -1.3796 -0.1585 -0.3770
 8275TIP3    H224765   8.107   4.147   4.163 -0.9125  1.4198  0.3688
 8276TIP3   OH224766   0.546   5.399   6.049 -0.6034 -0.0340 -0.4866
 8276TIP3    H124767   0.543   5.494   6.044  0.4005 -0.0889 -2.3731
 8276TIP3    H224768   0.463   5.371   6.009 -1.1317  0.0596  0.5400
 8277TIP3   OH224769   3.996   4.254   2.527  0.1698  0.4090  0.2218
 8277TIP3    H124770   3.971   4.283   2.614 -1.6706 -0.4078 -0.0143
 8277TIP3    H224771   3.920   4.271   2.472  1.8766  2.4142 -1.6044
 8278TIP3   OH224772   4.770   0.024   5.498 -0.1601  0.4724  0.2859
 8278TIP3    H124773   4.826   0.083   5.549  2.1294 -0.2765 -1.2517
 8278TIP3    H224774   4.777   0.056   5.408 -2.9080  0.8573  0.1806
 8279TIP3   OH224775   3.504   5.475   2.305 -0.0471  0.3585 -0.4115
 8279TIP3    H124776   3.571   5.468   2.373 -0.9969  0.8350  0.6019
 8279TIP3    H224777   3.534   5.416   2.236  0.9457 -0.1387  0.4190
 8280TIP3   OH224778   2.640   6.463   1.958 -0.4890 -0.3556 -0.3994
 8280TIP3    H124779   2.711   6.475   1.896  0.1584  0.5249  0.4972
 8280TIP3    H224780   2.634   6.368   1.970  0.5538 -0.4371 -0.4710
 8281TIP3   OH224781   1.043   2.701   6.036  0.0260 -0.5018 -0.2048
 8281TIP3    H124782   1.032   2.788   6.000  0.4206 -0.1201  0.5645
 8281TIP3    H224783   0.986   2.699   6.113 -0.2615 -1.0498 -0.4288
 8282TIP3   OH224784   0.034   6.396   4.957 -0.2974 -0.6632 -0.1472
 8282TIP3    H124785  -0.007   6.467   5.006 -0.7103 -0.4221 -0.8270
 8282TIP3    H224786   0.056   6.331   5.023 -0.1196  0.0005  0.4556
 8283TIP3   OH224787   2.373   6.533   4.267 -0.3224 -0.1022  0.8485
 8283TIP3    H124788   2.379   6.503   4.176 -0.5752 -0.3411  0.9108
 8283TIP3    H224789   2.387   6.455   4.319 -1.3692 -0.1888  1.0099
 8284TIP3   OH224790   1.176   7.147   5.013  0.1610 -0.1001  0.3255
 8284TIP3    H124791   1.240   7.087   5.050 -1.7191 -2.7626 -0.6430
 8284TIP3    H224792   1.173   7.126   4.920 -1.6906  0.3758  0.2452
 8285TIP3   OH224793   1.657   5.074   4.379 -0.5295 -0.4831 -0.4642
 8285TIP3    H124794   1.665   5.166   4.405  0.3909  0.3597 -3.5719
 8285TIP3    H224795   1.745   5.038   4.389 -0.7315 -0.8487  0.0391
 8286TIP3   OH224796   2.848   7.326   4.027  0.3034 -0.9970  0.3410
 8286TIP3    H124797   2.771   7.274   4.050  0.3271 -0.4013  1.8312
 8286TIP3    H224798   2.852   7.323   3.931 -1.4513 -1.2132  0.2625
 8287TIP3   OH224799   1.216   5.059   3.479 -0.4708 -0.0213  0.3524
 8287TIP3    H124800   1.144   5.121   3.490  0.2095  1.2838 -2.0277
 8287TIP3    H224801   1.288   5.113   3.444  0.5716 -1.9076 -0.4797
 8288TIP3   OH224802   7.552   3.508   2.912 -0.0960  0.3749  0.2095
 8288TIP3    H124803   7.507   3.517   2.828  1.1071 -1.8231 -0.7199
 8288TIP3    H224804   7.551   3.414   2.930  0.8732  0.6745  1.9867
 8289TIP3   OH224805  -0.029   6.706   4.890  0.0184 -0.3434  0.1878
 8289TIP3    H124806   0.063   6.684   4.877  0.4333  1.4465 -0.0252
 8289TIP3    H224807  -0.028   6.797   4.921 -1.7620  0.3322 -1.6105
 8290TIP3   OH224808   8.172   6.812   4.632 -0.1788  0.1550  0.0677
 8290TIP3    H124809   8.228   6.887   4.615 -0.2866  0.2244  0.0190
 8290TIP3    H224810   8.230   6.747   4.673  0.3959 -0.4791 -1.6830
 8291TIP3   OH224811   7.262   6.104   4.390 -0.3517  0.0614  0.4043
 8291TIP3    H124812   7.175   6.075   4.363 -1.2221  0.2697  2.8646
 8291TIP3    H224813   7.323   6.045   4.345 -1.8865 -1.9429  0.9230
 8292TIP3   OH224814   7.269   0.820   4.110  0.0790 -0.4105 -0.1381
 8292TIP3    H124815   7.189   0.841   4.158 -0.0376  0.9760 -0.9164
 8292TIP3    H224816   7.339   0.860   4.161  0.1144 -0.2482 -0.3148
 8293TIP3   OH224817   0.739   6.242   4.463  0.1943  0.0108 -0.0688
 8293TIP3    H124818   0.799   6.189   4.410  0.0781 -1.2503  1.0549
 8293TIP3    H224819   0.775   6.331   4.456  2.6302 -0.8228  1.1678
 8294TIP3   OH224820   8.471   5.614   4.185  0.3943  0.3774  0.3637
 8294TIP3    H124821   8.442   5.578   4.269  0.8654  0.7671  0.6999
 8294TIP3    H224822   8.476   5.709   4.200  1.6571  0.3344  0.2628
 8295TIP3   OH224823   4.430   7.491   5.190 -0.0101  0.2325  0.6514
 8295TIP3    H124824   4.435   7.586   5.200  1.6867  0.0931  1.4546
 8295TIP3    H224825   4.409   7.459   5.278  0.0232 -0.1622  0.5132
 8296TIP3   OH224826   1.448   4.767   3.815  0.0594 -0.5051 -0.4574
 8296TIP3    H124827   1.410   4.802   3.734 -0.1880 -1.4777 -0.7670
 8296TIP3    H224828   1.408   4.680   3.825 -0.5636 -0.0476  1.1670
 8297TIP3   OH224829   1.073   7.979   5.579 -0.0036 -0.3672  0.2348
 8297TIP3    H124830   0.996   7.922   5.588 -0.5236  0.2741 -0.0777
 8297TIP3    H224831   1.053   8.033   5.503  0.4833  0.2462  0.5440
 8298TIP3   OH224832   2.449   6.177   1.511  0.2933 -0.8625  0.4586
 8298TIP3    H124833   2.511   6.242   1.545 -0.2336 -0.6429  1.0202
 8298TIP3    H224834   2.415   6.217   1.430  1.4270 -1.3125 -0.2486
 8299TIP3   OH224835   3.542   7.890   5.076  0.3574  0.6523 -0.4804
 8299TIP3    H124836   3.577   7.806   5.108 -1.5634  0.1044  0.2655
 8299TIP3    H224837   3.483   7.866   5.005  0.7522  1.4774 -1.0826
 8300TIP3   OH224838   1.767   6.228   3.627  0.4124 -0.7647  0.6489
 8300TIP3    H124839   1.728   6.152   3.583 -0.6275 -0.0744  0.3600
 8300TIP3    H224840   1.844   6.250   3.574 -0.1158 -0.7192 -0.1055
 8301TIP3   OH224841   3.230   5.246   4.478 -0.4256 -0.6316 -0.0453
 8301TIP3    H124842   3.247   5.313   4.412 -0.4223 -2.0184 -1.4887
 8301TIP3    H224843   3.136   5.251   4.495 -0.4038 -0.1819 -0.0513
 8302TIP3   OH224844   4.952   7.526   4.623  0.0591 -0.2323 -0.3206
 8302TIP3    H124845   4.969   7.531   4.529 -0.6017  0.3743 -0.4049
 8302TIP3    H224846   5.039   7.531   4.663  0.3582 -0.6977 -0.9037
 8303TIP3   OH224847   2.814   5.242   5.581  0.2939 -0.1042  0.3443
 8303TIP3    H124848   2.874   5.233   5.507 -0.1990 -0.9827  0.0468
 8303TIP3    H224849   2.834   5.168   5.638 -1.2712 -1.0793 -0.3179
 8304TIP3   OH224850   1.512   5.071   4.156 -0.1191  0.1144  0.3712
 8304TIP3    H124851   1.556   5.066   4.241  1.1394  0.4293 -0.2474
 8304TIP3    H224852   1.467   4.987   4.147  0.5205 -0.2946  0.9330
 8305TIP3   OH224853   3.957   5.487   4.804 -0.0288  0.0818  1.1299
 8305TIP3    H124854   3.886   5.455   4.749  1.8781 -2.4015 -0.0112
 8305TIP3    H224855   3.979   5.414   4.861  2.0124  0.5403  0.9976
 8306TIP3   OH224856   4.947   7.613   6.470  0.1608 -0.1561  0.1073
 8306TIP3    H124857   4.984   7.546   6.412 -0.5475 -1.5834  1.2663
 8306TIP3    H224858   5.012   7.623   6.540  0.9476  1.4589 -0.8247
 8307TIP3   OH224859   0.410   5.629   6.656 -0.2229 -0.1584 -0.9770
 8307TIP3    H124860   0.476   5.669   6.712 -0.1287  0.1068 -1.2779
 8307TIP3    H224861   0.327   5.649   6.699  0.0353 -2.7062  0.8106
 8308TIP3   OH224862   2.338   5.304   4.622  0.5129  0.2916  0.0364
 8308TIP3    H124863   2.339   5.252   4.541 -1.5537 -1.0499  0.8387
 8308TIP3    H224864   2.423   5.286   4.662  1.4646  0.7684 -1.6913
 8309TIP3   OH224865   2.669   3.952   5.205  0.6086 -0.0767 -0.2967
 8309TIP3    H124866   2.711   3.989   5.128  0.6390  1.8606  0.6015
 8309TIP3    H224867   2.741   3.940   5.268  0.2639  0.6282  0.2529
 8310TIP3   OH224868   2.890   4.903   4.585 -0.0447 -0.4403  0.0842
 8310TIP3    H124869   2.920   4.891   4.495  0.1807 -2.9459  0.4583
 8310TIP3    H224870   2.794   4.897   4.579  0.0149 -1.4493  0.1232
 8311TIP3   OH224871   8.041   5.526   4.735  0.3733 -0.4339 -0.3017
 8311TIP3    H124872   8.008   5.537   4.824 -0.3810 -1.2878 -0.4589
 8311TIP3    H224873   8.078   5.611   4.712 -0.4819  0.1460  0.4091
 8312TIP3   OH224874   1.552   5.086   3.873 -0.0813  0.1159 -0.3137
 8312TIP3    H124875   1.530   4.993   3.878  0.8710 -0.1340 -0.7902
 8312TIP3    H224876   1.549   5.116   3.964  0.1907 -0.5101 -0.0934
 8313TIP3   OH224877  -0.019   6.417   3.955  0.2429 -0.2722  0.0538
 8313TIP3    H124878   0.022   6.339   3.992 -0.1472 -0.3160  0.4111
 8313TIP3    H224879   0.016   6.424   3.867  2.6058  0.8883  1.0431
 8314TIP3   OH224880   0.983   6.855   3.717  0.0140 -0.2152  0.1537
 8314TIP3    H124881   0.940   6.937   3.743  3.2094  0.5194  3.5066
 8314TIP3    H224882   1.062   6.882   3.670  2.4370 -1.1939  3.4758
 8315TIP3   OH224883   1.677   6.650   4.790  0.1274  0.4606  0.2496
 8315TIP3    H124884   1.772   6.635   4.789  0.3488  1.6468  2.6291
 8315TIP3    H224885   1.646   6.600   4.865 -1.1822 -0.0910 -0.6478
 8316TIP3   OH224886   2.867   6.318   2.568 -0.1088 -0.3695 -0.5201
 8316TIP3    H124887   2.860   6.252   2.500 -2.2133  1.5768 -2.2999
 8316TIP3    H224888   2.914   6.391   2.527  1.3641 -0.3576  1.1120
 8317TIP3   OH224889   1.832   7.320   4.633 -0.1446 -0.0572  1.0524
 8317TIP3    H124890   1.890   7.304   4.558 -1.4558 -0.3361  0.0806
 8317TIP3    H224891   1.815   7.233   4.669 -1.2529 -0.1511  0.3361
 8318TIP3   OH224892   2.644   7.806   3.670  0.0477  0.2118 -0.4004
 8318TIP3    H124893   2.610   7.719   3.651  2.0502 -0.6039 -0.3179
 8318TIP3    H224894   2.728   7.810   3.624 -0.1053  2.1708 -0.5535
 8319TIP3   OH224895   3.615   5.028   4.540  0.0428  0.2128 -0.4700
 8319TIP3    H124896   3.603   5.069   4.626  0.0412 -0.1819 -0.2776
 8319TIP3    H224897   3.696   5.065   4.507  0.0722  0.3265 -0.2726
 8320TIP3   OH224898   3.222   4.668   2.170  0.4469 -0.7920 -0.5218
 8320TIP3    H124899   3.215   4.599   2.105  3.8327 -0.3130 -1.5028
 8320TIP3    H224900   3.240   4.747   2.120 -0.6844  0.3172  0.7707
 8321TIP3   OH224901   5.342   7.198   2.042 -0.0727  0.5676  0.4040
 8321TIP3    H124902   5.258   7.201   2.088 -0.6930  0.5406 -0.7159
 8321TIP3    H224903   5.391   7.129   2.086 -0.5747  0.7005  1.1766
 8322TIP3   OH224904   3.242   4.152   3.679  0.2886 -0.3792  0.3630
 8322TIP3    H124905   3.146   4.144   3.684  0.2843 -0.0213  0.8562
 8322TIP3    H224906   3.268   4.080   3.622 -0.3794  0.1941 -0.6845
 8323TIP3   OH224907   0.170   3.863   4.347 -0.2252 -0.2353 -0.3394
 8323TIP3    H124908   0.215   3.933   4.300  0.9429  0.3925  1.6355
 8323TIP3    H224909   0.086   3.854   4.302  0.3478  1.1712 -1.7565
 8324TIP3   OH224910   1.506   6.369   3.560  0.2055 -0.0721 -0.0148
 8324TIP3    H124911   1.529   6.295   3.617 -1.8640  0.3029  1.3534
 8324TIP3    H224912   1.552   6.351   3.478  0.9266 -2.1153  0.8004
 8325TIP3   OH224913   0.004   3.535   2.567  0.0885 -0.6116 -0.1753
 8325TIP3    H124914   0.022   3.600   2.498 -0.2376 -1.1291 -0.7537
 8325TIP3    H224915   0.041   3.454   2.533 -0.6278 -1.0071 -0.0116
 8326TIP3   OH224916   4.665   1.526   5.724  0.0089 -0.5423  0.3304
 8326TIP3    H124917   4.639   1.452   5.669  1.1685 -0.1286 -0.7805
 8326TIP3    H224918   4.754   1.547   5.696 -0.1305  0.9623  0.9759
 8327TIP3   OH224919   5.529   6.361   3.204 -0.1426 -0.2971 -0.7586
 8327TIP3    H124920   5.538   6.356   3.300  4.1111 -0.8832 -1.0964
 8327TIP3    H224921   5.556   6.450   3.182 -2.2231  0.2062 -1.3657
 8328TIP3   OH224922   2.974   5.177   4.594  0.0385  0.2269 -0.5092
 8328TIP3    H124923   2.883   5.192   4.618  0.2654 -0.0723  0.5706
 8328TIP3    H224924   2.981   5.083   4.582  0.0331  0.3286 -1.3490
 8329TIP3   OH224925   4.837   0.225   2.258 -0.0686  0.6681  0.1316
 8329TIP3    H124926   4.908   0.208   2.320  1.0809  0.6000 -1.1792
 8329TIP3    H224927   4.764   0.253   2.313  0.9038  0.5516  1.5233
 8330TIP3   OH224928   3.460   3.384   3.272 -0.2100 -0.1514 -0.6361
 8330TIP3    H124929   3.476   3.392   3.178  0.9067 -1.0841 -0.5398
 8330TIP3    H224930   3.547   3.379   3.311 -0.6355  1.3703  0.5678
 8331TIP3   OH224931   4.170   7.151   3.565 -0.0957  0.0486  0.0899
 8331TIP3    H124932   4.126   7.233   3.544 -0.5178 -0.7672 -2.4252
 8331TIP3    H224933   4.255   7.158   3.522 -0.3582 -1.0552 -0.6285
 8332TIP3   OH224934   0.549   4.836   6.350 -0.0432  0.2691 -0.1658
 8332TIP3    H124935   0.457   4.815   6.369  0.1157  0.0230  0.3414
 8332TIP3    H224936   0.589   4.750   6.333 -0.2560  0.5051 -1.9534
 8333TIP3   OH224937   0.399   6.514   5.209  0.2466 -0.1733 -0.4413
 8333TIP3    H124938   0.432   6.524   5.298 -0.2721 -1.4042 -0.1043
 8333TIP3    H224939   0.347   6.593   5.194 -0.3902 -0.3635  0.6808
 8334TIP3   OH224940   3.202   4.437   3.681 -0.6738  0.3784 -0.1320
 8334TIP3    H124941   3.194   4.342   3.670 -0.1619  0.1614  1.2667
 8334TIP3    H224942   3.128   4.460   3.737 -1.4062  0.9689 -1.3348
 8335TIP3   OH224943   0.884   6.737   5.174  0.2064 -0.3221 -0.0946
 8335TIP3    H124944   0.873   6.673   5.244 -2.0887 -0.3200 -0.4159
 8335TIP3    H224945   0.795   6.764   5.152  1.0809  2.2856 -0.6115
 8336TIP3   OH224946   1.374   4.855   4.099 -0.6383 -0.6490  0.3014
 8336TIP3    H124947   1.394   4.837   4.007 -1.7118 -0.7695  0.0857
 8336TIP3    H224948   1.322   4.780   4.127 -0.5085 -0.4999  0.9435
 8337TIP3   OH224949   3.648   5.953   4.305  0.0744 -0.0101  0.1376
 8337TIP3    H124950   3.722   5.900   4.337 -0.9464 -1.2078  0.5327
 8337TIP3    H224951   3.620   5.910   4.224  1.3300  1.8385 -1.3379
 8338TIP3   OH224952   1.543   4.419   3.174  0.4703  0.5427  0.4506
 8338TIP3    H124953   1.473   4.430   3.238 -0.2886  2.6512 -0.7043
 8338TIP3    H224954   1.504   4.368   3.103  0.2641  1.2132  0.0768
 8339TIP3   OH224955   2.419   4.530   2.873  0.3771  0.1173 -0.0703
 8339TIP3    H124956   2.498   4.514   2.821  1.4171  2.0155  0.8318
 8339TIP3    H224957   2.402   4.447   2.917  1.2145 -0.6469 -1.1641
 8340TIP3   OH224958   3.014   6.580   2.740  0.9917  0.6313 -0.1862
 8340TIP3    H124959   3.029   6.635   2.817 -0.3189 -0.8995  1.1994
 8340TIP3    H224960   2.919   6.564   2.740  1.4695 -2.4086  0.0053
 8341TIP3   OH224961   1.080   5.555   5.181  0.6069 -0.4040  0.0075
 8341TIP3    H124962   1.001   5.543   5.234  1.5932 -2.5468  1.0035
 8341TIP3    H224963   1.063   5.504   5.102  1.1073 -1.0952  0.3450
 8342TIP3   OH224964   2.850   6.476   4.944 -0.1294 -0.2422  0.5376
 8342TIP3    H124965   2.943   6.475   4.968 -0.2219 -0.5059  0.8993
 8342TIP3    H224966   2.836   6.393   4.899 -0.2116 -0.2524  0.5820
 8343TIP3   OH224967   5.636   0.610   4.687 -0.0623 -0.8098 -0.2113
 8343TIP3    H124968   5.553   0.614   4.641 -0.3687 -1.1782  0.3120
 8343TIP3    H224969   5.648   0.518   4.708 -0.7170 -0.4541  1.8727
 8344TIP3   OH224970   2.078   5.156   4.611 -0.0490 -0.2410 -0.2832
 8344TIP3    H124971   2.168   5.187   4.608 -0.3355  0.8859  1.7922
 8344TIP3    H224972   2.062   5.121   4.523  2.0074  0.6487 -1.0500
 8345TIP3   OH224973   2.106   7.885   4.621  0.2302  0.5051  0.7932
 8345TIP3    H124974   2.015   7.872   4.646 -0.4250  3.4650  0.1615
 8345TIP3    H224975   2.117   7.832   4.542 -0.5623 -0.8305  1.5538
 8346TIP3   OH224976   3.564   4.920   4.892  0.0555 -0.3451  0.3902
 8346TIP3    H124977   3.481   4.875   4.880 -0.0086 -0.7048  2.0388
 8346TIP3    H224978   3.627   4.870   4.840 -0.8902  0.3504 -1.4266
 8347TIP3   OH224979   0.804   8.027   5.063 -0.2492 -0.5806  0.1435
 8347TIP3    H124980   0.823   7.951   5.119  1.6695  1.0474  1.7965
 8347TIP3    H224981   0.889   8.051   5.026 -0.4612  1.9407  1.2087
 8348TIP3   OH224982   8.465   5.448   6.318  0.3984  0.5997  0.3941
 8348TIP3    H124983   8.539   5.505   6.301  0.3244  0.0008 -2.3317
 8348TIP3    H224984   8.491   5.364   6.279 -1.5008  0.2507 -0.1591
 8349TIP3   OH224985   1.149   7.330   4.311  0.0118  0.0859  0.2361
 8349TIP3    H124986   1.234   7.290   4.330 -0.3052 -0.0114  1.4835
 8349TIP3    H224987   1.088   7.285   4.370 -1.2105 -1.0470 -1.8405
 8350TIP3   OH224988   2.388   6.463   4.864  0.1573 -0.6467 -0.7644
 8350TIP3    H124989   2.373   6.554   4.839 -2.5077 -0.8371  0.0181
 8350TIP3    H224990   2.419   6.468   4.955 -1.5509 -0.5760 -0.1652
 8351TIP3   OH224991   2.279   6.117   3.171 -0.2202  0.2695 -0.0970
 8351TIP3    H124992   2.351   6.117   3.108  0.7476  0.8383  0.9771
 8351TIP3    H224993   2.201   6.100   3.119  0.6282  0.2085 -1.3671
 8352TIP3   OH224994   8.211   5.362   4.036 -0.0874  0.1642 -0.2002
 8352TIP3    H124995   8.222   5.443   3.987 -0.9359  0.0894 -0.5158
 8352TIP3    H224996   8.118   5.341   4.028 -0.2492  0.2051  1.5223
 8353TIP3   OH224997   0.915   5.049   5.300 -0.0612 -0.4433 -0.0452
 8353TIP3    H124998   1.006   5.037   5.274  0.0862 -1.0431  0.7612
 8353TIP3    H224999   0.867   4.983   5.251 -0.0979  0.0211 -0.6438
 8354TIP3   OH225000   2.892   5.437   3.399 -0.1053  0.4058 -0.0514
 8354TIP3    H125001   2.831   5.443   3.473 -1.3579 -1.8094 -0.8855
 8354TIP3    H225002   2.841   5.464   3.323 -0.2312 -1.8851 -0.8242
 8355TIP3   OH225003   1.998   3.385   4.837  0.3144  0.0080 -1.2040
 8355TIP3    H125004   1.908   3.407   4.814  0.4273  0.5582 -1.1216
 8355TIP3    H225005   2.048   3.396   4.757  0.3665  0.0222 -1.1704
 8356TIP3   OH225006   2.465   5.412   3.988  0.2100 -0.5508 -0.1862
 8356TIP3    H125007   2.484   5.498   4.026 -0.1671 -1.2386  1.5906
 8356TIP3    H225008   2.401   5.373   4.048 -1.0871 -1.3121 -1.9961
 8357TIP3   OH225009   1.687   4.836   3.981  0.4460 -0.1748  0.0060
 8357TIP3    H125010   1.641   4.816   3.900 -0.3744  0.8529  0.2112
 8357TIP3    H225011   1.665   4.762   4.039  0.7016 -0.7000 -0.5558
 8358TIP3   OH225012   1.388   6.674   4.398 -0.4481 -0.5832  0.3545
 8358TIP3    H125013   1.389   6.617   4.321 -2.9380 -0.6407  0.3199
 8358TIP3    H225014   1.479   6.675   4.428  0.8443  0.4945 -3.3241
 8359TIP3   OH225015   0.463   5.570   3.900 -0.2433 -0.4794 -0.4550
 8359TIP3    H125016   0.518   5.512   3.953 -1.5501 -1.6359 -0.3431
 8359TIP3    H225017   0.475   5.539   3.810 -0.9430 -0.9267 -0.3949
 8360TIP3   OH225018   1.682   3.752   3.854 -0.0190  0.5034 -0.1838
 8360TIP3    H125019   1.669   3.660   3.879  1.4596  0.3985  0.2790
 8360TIP3    H225020   1.667   3.801   3.935  0.2141  0.5700 -0.1795
 8361TIP3   OH225021   0.964   5.371   4.984  0.4800 -0.4865 -0.3632
 8361TIP3    H125022   0.984   5.367   4.890 -0.3463  0.4494 -0.5913
 8361TIP3    H225023   0.944   5.281   5.009  0.0501 -0.6373 -1.2389
 8362TIP3   OH225024   3.841   3.635   3.131  0.8467 -0.4314 -0.5711
 8362TIP3    H125025   3.866   3.687   3.207  0.5444 -0.0375 -0.7407
 8362TIP3    H225026   3.839   3.697   3.058  0.5700 -0.6971 -0.7938
 8363TIP3   OH225027   0.047   5.824   5.228  0.2591  0.1168 -0.0223
 8363TIP3    H125028   0.029   5.785   5.313  1.0600 -0.2194 -0.0047
 8363TIP3    H225029   0.050   5.918   5.245 -0.5286  0.1142  0.1435
 8364TIP3   OH225030   0.468   4.562   3.594 -0.3381  0.3521 -0.1166
 8364TIP3    H125031   0.549   4.592   3.553 -0.9162  0.0841 -1.5008
 8364TIP3    H225032   0.421   4.518   3.523 -1.8492  0.8343  0.5698
 8365TIP3   OH225033   2.528   6.045   3.322 -0.0696 -0.3879 -0.0102
 8365TIP3    H125034   2.460   6.095   3.277  1.3784  1.1832 -0.4822
 8365TIP3    H225035   2.498   6.041   3.413 -0.3300  1.1220 -0.0161
 8366TIP3   OH225036   8.437   5.468   6.717  0.0985  0.5209  0.3153
 8366TIP3    H125037   8.397   5.387   6.686  1.0667  0.4078 -0.6279
 8366TIP3    H225038   8.395   5.537   6.664 -1.2992  0.7377  1.6492
 8367TIP3   OH225039   1.770   7.635   5.032 -0.3623  0.2867  0.1637
 8367TIP3    H125040   1.739   7.570   4.969 -0.1189 -0.8879  1.2300
 8367TIP3    H225041   1.849   7.671   4.991 -1.6198  1.3624 -1.3386
 8368TIP3   OH225042   0.650   3.868   5.748 -0.1959 -0.0668 -0.0332
 8368TIP3    H125043   0.670   3.900   5.836  1.3996 -1.6766  0.2278
 8368TIP3    H225044   0.643   3.947   5.695 -0.6374  0.9001  1.4394
 8369TIP3   OH225045   2.175   6.724   5.102 -0.6104  0.4252  0.2423
 8369TIP3    H125046   2.214   6.810   5.117 -0.2945  0.3650 -0.2073
 8369TIP3    H225047   2.232   6.663   5.150 -0.1797  0.3469 -0.3514
 8370TIP3   OH225048   2.744   5.254   5.902 -0.2441  0.1221 -0.0284
 8370TIP3    H125049   2.767   5.195   5.829 -1.8452  0.8939 -1.1835
 8370TIP3    H225050   2.673   5.210   5.947 -1.2158  0.9853 -0.6903
 8371TIP3   OH225051   0.659   5.238   4.791  0.0706  0.4820 -0.0600
 8371TIP3    H125052   0.712   5.309   4.754  0.6199  1.7134  2.9957
 8371TIP3    H225053   0.715   5.198   4.858 -0.7667 -1.9476 -0.7466
 8372TIP3   OH225054   0.416   6.425   4.728  0.9526 -0.1067  0.1629
 8372TIP3    H125055   0.434   6.479   4.651  1.2123  1.6223  1.3895
 8372TIP3    H225056   0.497   6.427   4.779  0.7587 -1.1553  0.5302
 8373TIP3   OH225057   6.819   7.571   5.387 -0.3828  0.5477  0.3088
 8373TIP3    H125058   6.818   7.590   5.294 -1.8000 -1.3077 -0.0956
 8373TIP3    H225059   6.889   7.506   5.398  0.3115  1.3479  0.6738
 8374TIP3   OH225060   7.972   0.703   3.383  0.3967  0.3828  0.7722
 8374TIP3    H125061   7.971   0.661   3.297  0.5070  1.3678  0.2826
 8374TIP3    H225062   7.880   0.714   3.407  0.3649  0.3925  0.6418
 8375TIP3   OH225063   3.259   6.273   4.996 -0.0197  0.2267 -0.2433
 8375TIP3    H125064   3.286   6.322   4.918  0.4021 -1.4346 -1.1463
 8375TIP3    H225065   3.335   6.278   5.055  1.4000 -2.2955 -1.7631
 8376TIP3   OH225066   5.089   7.352   3.949  0.1410  0.0595  0.0060
 8376TIP3    H125067   5.142   7.417   3.995 -0.8608  1.4968 -0.8244
 8376TIP3    H225068   5.002   7.392   3.943 -0.6069 -1.5681 -0.0889
 8377TIP3   OH225069   3.752   6.401   4.820 -0.1860 -0.1216 -0.4862
 8377TIP3    H125070   3.773   6.393   4.913  0.4665  4.2674 -0.1630
 8377TIP3    H225071   3.669   6.354   4.811 -0.9490  0.4964  2.5842
 8378TIP3   OH225072   4.895   5.237   3.753  0.1888  0.2663  0.3591
 8378TIP3    H125073   4.894   5.281   3.668  1.6250  0.9891  0.7057
 8378TIP3    H225074   4.813   5.188   3.755 -0.4543  1.2490 -0.9155
 8379TIP3   OH225075   4.446   4.619   2.892  0.1970  0.5335 -0.1744
 8379TIP3    H125076   4.488   4.704   2.882  2.1824 -0.7674 -3.9743
 8379TIP3    H225077   4.352   4.638   2.894  0.5964  2.7617 -1.4637
 8380TIP3   OH225078   2.978   3.836   3.084 -0.3546 -0.3948  0.3379
 8380TIP3    H125079   3.050   3.898   3.072  0.2692 -1.1407  0.1862
 8380TIP3    H225080   2.935   3.864   3.165 -0.0124  0.1721  0.3263
 8381TIP3   OH225081   5.009   7.900   3.754  0.4569  0.0641  0.2418
 8381TIP3    H125082   5.021   7.898   3.849  0.2966  0.0787  0.2616
 8381TIP3    H225083   4.915   7.911   3.741  0.5530  0.6967  0.0815
 8382TIP3   OH225084   4.080   7.260   4.530 -0.1336  0.0148  0.3605
 8382TIP3    H125085   4.099   7.328   4.594 -0.8344 -0.6152  1.2391
 8382TIP3    H225086   3.997   7.222   4.558  0.5311 -1.6018  0.2236
 8383TIP3   OH225087   4.111   4.990   4.702  0.2154 -0.5401 -0.6224
 8383TIP3    H125088   4.114   4.896   4.720 -0.2598 -0.8979 -2.2704
 8383TIP3    H225089   4.026   5.019   4.734  0.7778 -0.4666  0.8112
 8384TIP3   OH225090   1.962   5.063   4.361  0.0197 -0.2455 -0.1935
 8384TIP3    H125091   1.990   5.152   4.342  0.1686  0.2527  2.2371
 8384TIP3    H225092   1.951   5.022   4.274  0.3140  1.9886 -1.3135
 8385TIP3   OH225093   4.857   5.578   2.803 -0.4702  0.3582  0.0852
 8385TIP3    H125094   4.939   5.585   2.754  0.6699 -0.4599  1.8239
 8385TIP3    H225095   4.856   5.657   2.858 -1.2974  0.8279 -0.6116
 8386TIP3   OH225096   3.806   4.171   3.989 -0.5614  0.7995  0.1714
 8386TIP3    H125097   3.803   4.242   4.053 -2.3120  0.0183  0.9961
 8386TIP3    H225098   3.795   4.214   3.904  0.9087  1.7511  0.4556
 8387TIP3   OH225099   4.630   5.384   4.113  0.2800  0.0694  0.3240
 8387TIP3    H125100   4.713   5.369   4.158  0.2438  0.4973  0.5394
 8387TIP3    H225101   4.639   5.471   4.075  0.3804 -0.3620 -0.6544
 8388TIP3   OH225102   5.501   6.205   4.364  0.0073  0.0885 -0.3231
 8388TIP3    H125103   5.472   6.275   4.306  1.9590  0.8502 -0.4008
 8388TIP3    H225104   5.544   6.142   4.306  1.1807  0.4290  0.1574
 8389TIP3   OH225105   0.919   5.072   3.949  0.1223  0.2101  1.0225
 8389TIP3    H125106   0.947   5.027   4.029 -1.0241  0.2487  1.4441
 8389TIP3    H225107   0.859   5.140   3.980 -0.8963 -0.2477  0.0533
 8390TIP3   OH225108   5.778   6.094   3.379  0.2105  0.7053  0.3649
 8390TIP3    H125109   5.727   6.143   3.315  0.9592  0.2584 -0.6036
 8390TIP3    H225110   5.764   6.002   3.355  1.8635  0.5992 -0.2392
 8391TIP3   OH225111   7.211   0.424   2.549 -0.1484  0.1318  0.0832
 8391TIP3    H125112   7.128   0.452   2.510  0.6680  0.3591 -1.5053
 8391TIP3    H225113   7.184   0.369   2.623 -1.7217 -0.3830 -0.8344
 8392TIP3   OH225114   4.120   4.516   4.173  0.2278 -0.0312 -0.2746
 8392TIP3    H125115   4.058   4.503   4.245  0.8186  1.5614  0.5430
 8392TIP3    H225116   4.160   4.601   4.191  0.1083  0.5672 -2.6968
 8393TIP3   OH225117   3.473   5.751   3.843  0.2797  0.3921  0.1970
 8393TIP3    H125118   3.455   5.779   3.754  0.8556  0.0653 -0.0259
 8393TIP3    H225119   3.513   5.665   3.833  0.0616  0.2211  0.7865
 8394TIP3   OH225120   0.812   6.593   4.094  0.2678 -0.2507  0.2716
 8394TIP3    H125121   0.782   6.669   4.045  1.9020  0.6009  0.5417
 8394TIP3    H225122   0.835   6.529   4.027  2.2722  0.8233 -0.1301
 8395TIP3   OH225123   2.872   5.967   3.908 -0.1403 -0.7252 -0.4900
 8395TIP3    H125124   2.843   5.897   3.850 -2.8992 -2.1077  2.4130
 8395TIP3    H225125   2.881   5.925   3.993  1.6717  1.7135  0.5700
 8396TIP3   OH225126   5.657   6.531   3.665 -0.2791 -0.5097  0.2963
 8396TIP3    H125127   5.649   6.548   3.571  1.9711 -0.1411  0.1455
 8396TIP3    H225128   5.600   6.596   3.706  1.0617  1.3302 -0.6964
 8397TIP3   OH225129   4.460   5.767   3.545 -0.7872 -0.2463 -0.4647
 8397TIP3    H125130   4.391   5.762   3.611  0.9248 -0.5866  1.3479
 8397TIP3    H225131   4.491   5.857   3.549  0.6781 -0.7753  0.6566
 8398TIP3   OH225132   2.708   4.599   3.323 -0.1667 -0.0258  0.7612
 8398TIP3    H125133   2.655   4.672   3.290  2.4354  0.4196 -2.7247
 8398TIP3    H225134   2.677   4.524   3.272  2.0942  0.1473 -0.9563
 8399TIP3   OH225135   4.832   7.974   2.213 -0.7823  0.4343  0.0420
 8399TIP3    H125136   4.837   7.954   2.307  0.8287  0.2864 -0.0608
 8399TIP3    H225137   4.912   7.937   2.176 -3.0968 -2.7132 -2.0368
 8400TIP3   OH225138   6.556   0.554   4.041 -0.6089  0.7079  0.2174
 8400TIP3    H125139   6.557   0.594   4.128 -0.4706 -0.9141  0.9671
 8400TIP3    H225140   6.465   0.564   4.012 -0.8507  0.5265  0.8974
 8401TIP3   OH225141   4.070   7.098   3.295  0.7260 -0.1839  0.0974
 8401TIP3    H125142   4.126   7.096   3.373  2.1445  0.1765 -0.8838
 8401TIP3    H225143   4.131   7.088   3.222 -0.3062  1.8949 -1.0971
 8402TIP3   OH225144   2.713   5.264   3.868 -0.0607 -0.4493  0.0582
 8402TIP3    H125145   2.710   5.350   3.909  2.4674 -0.4053  0.2380
 8402TIP3    H225146   2.708   5.202   3.940  0.4041 -0.4153  0.1224
 8403TIP3   OH225147   4.402   5.630   2.863  0.4648 -0.1653  0.1920
 8403TIP3    H125148   4.486   5.645   2.820  0.2457 -3.1903 -1.3721
 8403TIP3    H225149   4.343   5.694   2.822  1.0948 -0.6453 -1.5062
 8404TIP3   OH225150   4.739   4.964   2.639 -0.2358 -0.8334 -0.0349
 8404TIP3    H125151   4.793   4.897   2.597  0.4257 -0.2294 -0.1546
 8404TIP3    H225152   4.790   5.044   2.632 -1.1154 -0.2650 -0.0877
 8405TIP3   OH225153   6.237   5.467   1.766  0.0572 -0.1882  0.6721
 8405TIP3    H125154   6.226   5.556   1.731  0.6282 -0.1417  0.5947
 8405TIP3    H225155   6.202   5.472   1.855  0.9961  0.3792  1.0173
 8406TIP3   OH225156   5.164   6.712   3.584 -0.3412  0.0983  0.1170
 8406TIP3    H125157   5.217   6.767   3.643  0.8250 -0.7920 -0.0838
 8406TIP3    H225158   5.165   6.758   3.500 -2.7525  1.8382  0.9704
 8407TIP3   OH225159   5.184   5.505   3.660  0.1836  0.0672 -0.3892
 8407TIP3    H125160   5.197   5.411   3.669 -2.4947 -0.2398  0.5027
 8407TIP3    H225161   5.257   5.544   3.709 -0.4721 -1.5520  1.9033
 8408TIP3   OH225162   3.347   7.106   3.858 -0.3745 -0.1080  0.5278
 8408TIP3    H125163   3.374   7.097   3.950  0.8268 -0.3376  0.1639
 8408TIP3    H225164   3.348   7.016   3.824 -1.7548 -0.1360  0.5370
 8409TIP3   OH225165   2.182   5.265   3.705  0.0548  0.5508 -0.0519
 8409TIP3    H125166   2.150   5.330   3.767 -1.3536 -0.3086  0.1353
 8409TIP3    H225167   2.277   5.274   3.708 -0.0940  2.0531  0.5560
 8410TIP3   OH225168   5.833   5.194   3.369  0.2560 -0.2282  0.4619
 8410TIP3    H125169   5.745   5.166   3.395  0.1570  2.3888  3.1320
 8410TIP3    H225170   5.889   5.170   3.443  1.3574  0.5222 -0.1068
 8411TIP3   OH225171   3.333   5.807   5.294 -0.7441  0.6416  0.0726
 8411TIP3    H125172   3.301   5.862   5.366  0.2628  1.0864  0.1819
 8411TIP3    H225173   3.264   5.741   5.283 -0.3875 -0.1314  2.2138
 8412TIP3   OH225174   5.717   5.573   4.009 -0.2665 -0.4169  0.3108
 8412TIP3    H125175   5.739   5.667   4.007  0.2022 -0.5124  1.1497
 8412TIP3    H225176   5.789   5.532   4.056  0.9881 -1.5985 -2.4834
 8413TIP3   OH225177   3.311   7.265   5.015 -0.3104  0.4641 -0.1029
 8413TIP3    H125178   3.242   7.259   5.082  0.1460  0.4058  0.3652
 8413TIP3    H225179   3.392   7.274   5.065  0.5045 -3.5174 -0.4734
 8414TIP3   OH225180   6.196   5.865   1.539 -0.5244  0.3295  0.0969
 8414TIP3    H125181   6.135   5.797   1.510  0.1338  0.0712 -0.6795
 8414TIP3    H225182   6.226   5.907   1.458 -1.2179  1.8017  0.5778
 8415TIP3   OH225183   7.248   0.729   4.801 -0.1653 -0.6916 -0.1628
 8415TIP3    H125184   7.153   0.717   4.806 -0.9135  3.9513 -0.5073
 8415TIP3    H225185   7.281   0.648   4.763 -4.2113 -1.6832 -1.8002
 8416TIP3   OH225186   5.416   4.348   1.531  0.1364 -0.1888 -0.5588
 8416TIP3    H125187   5.400   4.266   1.484  2.3201  0.2069 -2.0879
 8416TIP3    H225188   5.504   4.375   1.503 -0.1523  2.1767  0.6558
 8417TIP3   OH225189   3.028   5.297   3.053 -0.5660  0.5216  0.0208
 8417TIP3    H125190   3.084   5.222   3.033 -0.8188  0.2231  0.4161
 8417TIP3    H225191   3.085   5.373   3.042 -0.1440  0.2348  0.1967
 8418TIP3   OH225192   3.684   4.698   4.493 -0.0363 -0.3478  0.1858
 8418TIP3    H125193   3.721   4.632   4.552 -0.4428  0.8178  1.7811
 8418TIP3    H225194   3.594   4.711   4.526 -0.6091 -0.4190 -1.3245
 8419TIP3   OH225195   4.195   7.279   4.850 -0.1215  0.1504 -0.2665
 8419TIP3    H125196   4.250   7.260   4.926  1.7195  4.2919 -0.4599
 8419TIP3    H225197   4.236   7.231   4.778  1.7595  1.0831  0.1471
 8420TIP3   OH225198   2.331   5.083   1.555 -0.3075  0.5437 -0.0971
 8420TIP3    H125199   2.423   5.058   1.557  0.1095  2.0259 -0.1638
 8420TIP3    H225200   2.283   5.000   1.548  1.0740 -0.1510 -1.6337
 8421TIP3   OH225201   4.962   6.970   3.215 -0.0626 -0.7010  0.7489
 8421TIP3    H125202   5.016   7.034   3.170 -1.2315  0.6894  1.2625
 8421TIP3    H225203   4.906   6.933   3.147  0.1617 -0.6957  0.5633
 8422TIP3   OH225204   5.179   7.548   4.824 -0.3455  0.0214  0.0281
 8422TIP3    H125205   5.253   7.497   4.857 -0.6999 -1.6550 -1.6491
 8422TIP3    H225206   5.217   7.629   4.792  0.5725 -0.2129  0.5145
 8423TIP3   OH225207   4.701   7.151   3.066  0.5424 -0.1212 -0.1781
 8423TIP3    H125208   4.715   7.206   2.989  1.0290 -1.3344 -0.9774
 8423TIP3    H225209   4.729   7.204   3.140  2.1577  0.2630 -1.0524
 8424TIP3   OH225210   1.977   4.822   4.471  0.7958 -0.2826  0.5795
 8424TIP3    H125211   1.975   4.911   4.435 -0.7391 -0.3037  0.6005
 8424TIP3    H225212   2.002   4.767   4.396 -1.9079 -0.2656 -0.4043
 8425TIP3   OH225213   6.072   7.392   4.523 -0.2382 -0.1399  0.0529
 8425TIP3    H125214   6.123   7.356   4.596  1.1314 -0.7436 -1.1909
 8425TIP3    H225215   5.982   7.363   4.541  0.0864 -0.3140  1.4780
 8426TIP3   OH225216   5.200   7.349   1.848 -0.5774  0.0290 -0.4645
 8426TIP3    H125217   5.258   7.277   1.873 -1.4490 -0.1365  1.1560
 8426TIP3    H225218   5.247   7.394   1.778  1.4344 -0.2050  0.7055
 8427TIP3   OH225219   5.098   6.209   4.412 -0.3921 -0.1511  0.0252
 8427TIP3    H125220   5.116   6.301   4.433  0.7845 -0.1915 -0.7785
 8427TIP3    H225221   5.152   6.159   4.473 -0.0086 -0.2979 -0.4331
 8428TIP3   OH225222   2.672   6.254   3.005 -1.0414 -0.0378 -0.3261
 8428TIP3    H125223   2.632   6.203   3.075  0.2600 -0.3864  0.1627
 8428TIP3    H225224   2.597   6.286   2.953 -1.9474 -0.7026  0.5606
 8429TIP3   OH225225   3.944   5.726   2.950  0.5570  0.2371 -0.2956
 8429TIP3    H125226   3.944   5.668   2.873  1.7916 -0.5022  0.2420
 8429TIP3    H225227   3.986   5.674   3.018 -1.5478  0.4505  1.2352
 8430TIP3   OH225228   2.151   4.813   6.067 -0.9767 -0.2313  0.2416
 8430TIP3    H125229   2.190   4.772   6.144 -1.6171 -1.6009 -0.1525
 8430TIP3    H225230   2.057   4.805   6.080 -1.1011  0.5737 -0.1332
 8431TIP3   OH225231   1.403   5.339   6.504 -0.3402  0.4502  0.0823
 8431TIP3    H125232   1.392   5.429   6.534 -0.3930  1.3149 -2.4179
 8431TIP3    H225233   1.314   5.308   6.486 -0.2096  0.3627 -0.4054
 8432TIP3   OH225234   3.568   6.052   3.899 -0.1155 -0.0057 -0.1959
 8432TIP3    H125235   3.527   6.130   3.862 -0.9975 -0.1276  0.5075
 8432TIP3    H225236   3.495   5.995   3.921  0.5048 -0.8054 -0.2069
 8433TIP3   OH225237   6.499   4.161   4.136  0.0228  0.1881  0.2070
 8433TIP3    H125238   6.528   4.095   4.200  2.0558 -0.7862 -1.6623
 8433TIP3    H225239   6.479   4.111   4.057  1.7302  1.7809 -1.2940
 8434TIP3   OH225240   3.712   6.606   3.970  0.1679  0.7493  0.5845
 8434TIP3    H125241   3.804   6.582   3.980 -0.3645 -1.1089  1.3147
 8434TIP3    H225242   3.682   6.554   3.895 -0.7041  0.0866  1.3903
 8435TIP3   OH225243   4.242   3.300   3.093 -0.0865 -0.2130  0.1733
 8435TIP3    H125244   4.279   3.231   3.038 -0.6731  0.9498 -1.7148
 8435TIP3    H225245   4.154   3.314   3.058  0.0651  1.5465  0.4657
 8436TIP3   OH225246   4.966   7.492   4.325 -0.4010  0.0706  0.0885
 8436TIP3    H125247   4.953   7.403   4.292  0.2956  0.2388 -0.6611
 8436TIP3    H225248   5.025   7.533   4.261  0.8959  0.4262  1.4793
 8437TIP3   OH225249   3.892   5.584   4.273  0.3381 -0.3564  0.0852
 8437TIP3    H125250   3.939   5.505   4.298  0.6425  0.3655  1.8507
 8437TIP3    H225251   3.920   5.601   4.183  2.1209 -0.8870  0.5242
 8438TIP3   OH225252   4.923   7.928   4.030  0.9475  0.1361 -0.1097
 8438TIP3    H125253   4.899   7.876   4.106  0.0554 -1.7949 -1.6878
 8438TIP3    H225254   4.962   8.008   4.067  1.5386 -1.2483  2.3285
 8439TIP3   OH225255   4.012   6.157   3.989  0.0906 -0.2981  0.0702
 8439TIP3    H125256   4.086   6.105   3.958  2.1121  0.9035  2.6506
 8439TIP3    H225257   4.010   6.143   4.084 -2.0258  0.9270  0.2601
 8440TIP3   OH225258   4.765   6.882   4.347  0.3740  0.0756  0.1308
 8440TIP3    H125259   4.694   6.836   4.391  1.6837 -0.7889  1.3893
 8440TIP3    H225260   4.755   6.859   4.254 -1.7766  1.0669  0.0806
 8441TIP3   OH225261   3.403   6.631   3.563  0.7234 -0.2411  0.1731
 8441TIP3    H125262   3.421   6.538   3.570 -0.0463 -0.4384 -0.3876
 8441TIP3    H225263   3.337   6.638   3.493 -0.8561  0.5162  1.6962
 8442TIP3   OH225264   4.083   6.669   4.278  0.3533  0.6374  0.2315
 8442TIP3    H125265   4.062   6.758   4.308 -0.1963  0.8329 -0.7032
 8442TIP3    H225266   4.116   6.681   4.189 -0.8534 -0.2012 -0.3449
 8443TIP3   OH225267   2.773   4.281   6.307  0.1250 -0.2292  0.2235
 8443TIP3    H125268   2.704   4.268   6.241  1.3194 -0.0812 -1.0723
 8443TIP3    H225269   2.849   4.236   6.272  0.3262 -1.5742  2.3160
 8444TIP3   OH225270   2.316   5.711   3.275 -0.2820  0.3349 -0.0301
 8444TIP3    H125271   2.361   5.636   3.314  0.8445 -0.2119 -2.2525
 8444TIP3    H225272   2.386   5.776   3.263 -0.1431 -0.2737 -2.9215
 8445TIP3   OH225273   4.528   4.643   5.667 -0.2091  0.1873 -0.4645
 8445TIP3    H125274   4.574   4.585   5.728  0.7829 -1.8086 -3.0438
 8445TIP3    H225275   4.598   4.678   5.611 -1.4771 -0.5491 -2.5244
 8446TIP3   OH225276   4.632   5.388   4.829  0.4916 -0.6202  0.4952
 8446TIP3    H125277   4.647   5.477   4.797  0.5002  0.3883  3.1791
 8446TIP3    H225278   4.720   5.354   4.849  0.5509 -1.5362 -1.2359
 8447TIP3   OH225279   4.633   5.889   1.972 -0.0441 -0.1263 -0.4590
 8447TIP3    H125280   4.667   5.820   2.028  1.0955 -1.1961 -2.4430
 8447TIP3    H225281   4.627   5.850   1.885  1.0419  2.3919 -1.7197
 8448TIP3   OH225282   5.095   6.830   2.427  0.3401  0.3136 -0.6434
 8448TIP3    H125283   5.012   6.877   2.441  0.0840  0.0563 -1.2806
 8448TIP3    H225284   5.126   6.862   2.342  0.4908 -0.1828 -0.7731
 8449TIP3   OH225285   7.498   6.865   3.440  0.0920 -0.1275 -0.1401
 8449TIP3    H125286   7.515   6.788   3.495  1.7060 -0.7460 -1.4374
 8449TIP3    H225287   7.410   6.851   3.406 -0.0692 -0.8403  0.5514
 8450TIP3   OH225288   2.273   4.033   4.089  0.2035 -0.3390  0.3072
 8450TIP3    H125289   2.266   3.938   4.104  1.2221 -0.2305  1.5748
 8450TIP3    H225290   2.192   4.069   4.125  0.0685 -0.6754  0.3379
 8451TIP3   OH225291   1.772   5.250   5.472  0.6172 -0.1173  0.7327
 8451TIP3    H125292   1.696   5.233   5.417  1.1653  1.7115 -0.6529
 8451TIP3    H225293   1.759   5.195   5.549 -1.5237 -0.6856 -0.0017
 8452TIP3   OH225294   3.402   4.186   3.330  0.0079  0.4671 -0.4768
 8452TIP3    H125295   3.416   4.115   3.394  0.8710  1.6465  0.6594
 8452TIP3    H225296   3.366   4.141   3.253  3.6912 -1.7696 -1.0769
 8453TIP3   OH225297   4.695   7.969   5.002 -0.2214 -0.1028 -0.3776
 8453TIP3    H125298   4.696   7.986   4.908 -2.6464  1.7966 -0.1234
 8453TIP3    H225299   4.766   8.022   5.038  0.1817 -0.1925 -1.0493
 8454TIP3   OH225300   4.795   5.984   2.384 -0.2449  0.0008 -0.4268
 8454TIP3    H125301   4.807   5.972   2.290 -0.7121 -1.0766 -0.3584
 8454TIP3    H225302   4.865   6.043   2.410 -0.2250  0.4519 -1.4846
 8455TIP3   OH225303   6.329   7.457   3.404  0.1347  0.5113  0.4140
 8455TIP3    H125304   6.355   7.365   3.412  0.9043  0.6171 -0.6505
 8455TIP3    H225305   6.300   7.482   3.491 -1.0981 -1.0436  0.4698
 8456TIP3   OH225306   2.448   6.594   3.667 -0.2958 -0.0514  0.4676
 8456TIP3    H125307   2.528   6.629   3.628 -1.5859  1.1878 -1.1500
 8456TIP3    H225308   2.385   6.666   3.661 -1.4598 -0.8944  1.9982
 8457TIP3   OH225309   7.004   0.677   3.746  0.2491 -0.5597 -0.2202
 8457TIP3    H125310   6.937   0.609   3.736 -1.9652  1.4916  0.1555
 8457TIP3    H225311   6.957   0.753   3.781  2.8504  0.8485  0.4112
 8458TIP3   OH225312   3.426   6.366   4.560  0.3325 -1.0419 -0.1720
 8458TIP3    H125313   3.348   6.343   4.509  1.4938 -2.7411 -1.2304
 8458TIP3    H225314   3.460   6.444   4.518 -2.6841  1.8137  2.3921
 8459TIP3   OH225315   2.988   4.787   1.824  0.3161  0.2668 -0.2756
 8459TIP3    H125316   2.960   4.817   1.738 -1.7258 -0.0987  0.2297
 8459TIP3    H225317   3.070   4.740   1.808 -0.3531 -0.3197 -2.0970
 8460TIP3   OH225318   5.177   5.077   3.561 -0.1542 -0.8241  0.1066
 8460TIP3    H125319   5.110   5.014   3.585 -1.2755 -0.0108 -0.8214
 8460TIP3    H225320   5.131   5.142   3.508  1.0275  0.6303  0.8212
 8461TIP3   OH225321   1.140   6.204   4.866 -0.2969  0.0703 -0.5102
 8461TIP3    H125322   1.137   6.300   4.866 -1.9055  0.0464  1.1051
 8461TIP3    H225323   1.181   6.182   4.783  1.6249  2.1921 -0.2022
 8462TIP3   OH225324   4.446   5.514   3.858 -0.1159  0.4199 -0.0311
 8462TIP3    H125325   4.479   5.483   3.773  1.9312 -2.0298  1.5811
 8462TIP3    H225326   4.512   5.577   3.887  0.6126 -0.7591  0.9294
 8463TIP3   OH225327   4.970   6.367   5.683 -0.5407  0.6209  0.0957
 8463TIP3    H125328   4.984   6.305   5.611 -0.8654  0.9905 -0.2909
 8463TIP3    H225329   4.923   6.317   5.750 -0.5457  0.3711 -0.0952
 8464TIP3   OH225330   5.098   5.554   3.411  0.3844 -0.2726 -0.2822
 8464TIP3    H125331   5.147   5.568   3.492  0.0758  2.8798 -0.5689
 8464TIP3    H225332   5.021   5.505   3.438  0.8821 -0.3019  1.1422
 8465TIP3   OH225333   5.354   6.539   5.661 -0.5065  0.0201 -0.0924
 8465TIP3    H125334   5.367   6.500   5.574  0.5887  0.1216  0.0198
 8465TIP3    H225335   5.264   6.573   5.658  0.1448  1.7162 -1.8725
 8466TIP3   OH225336   5.383   6.069   1.832 -0.0745  0.2430  0.7606
 8466TIP3    H125337   5.469   6.032   1.854  0.4737  1.6793  1.0659
 8466TIP3    H225338   5.356   6.021   1.754  1.5938  0.6654 -0.1055
 8467TIP3   OH225339   3.605   6.961   5.788 -0.3574 -0.4139  0.3631
 8467TIP3    H125340   3.571   6.920   5.709  1.6274  0.4258 -0.9561
 8467TIP3    H225341   3.681   6.908   5.812 -1.2479 -0.9725  2.0208
 8468TIP3   OH225342   2.461   5.806   3.802 -0.4738  0.0051 -0.8846
 8468TIP3    H125343   2.474   5.899   3.823 -0.9142 -0.2675  0.6920
 8468TIP3    H225344   2.511   5.792   3.721  1.5283  1.0671  0.1235
 8469TIP3   OH225345   0.559   5.014   3.535  0.2699 -0.0595  0.4446
 8469TIP3    H125346   0.617   4.979   3.467 -1.4923 -2.0627 -0.1135
 8469TIP3    H225347   0.607   5.002   3.617  1.4568  0.1615 -0.2231
 8470TIP3   OH225348   3.267   6.155   3.620  0.5358 -0.2615  0.4284
 8470TIP3    H125349   3.283   6.065   3.592  0.0763  0.0533 -0.9162
 8470TIP3    H225350   3.184   6.151   3.668 -0.4145 -0.2982 -1.1547
 8471TIP3   OH225351   4.357   6.861   1.453 -0.3288  0.2428  0.0948
 8471TIP3    H125352   4.364   6.908   1.536  0.5068 -0.4021  0.4015
 8471TIP3    H225353   4.344   6.769   1.478 -0.6778  0.1265 -0.4898
 8472TIP3   OH225354   3.942   6.596   3.722  0.5186  0.1385  0.1078
 8472TIP3    H125355   4.002   6.522   3.729  0.5886  0.2514  0.7973
 8472TIP3    H225356   3.859   6.557   3.693  1.4931  0.2851 -3.0572
 8473TIP3   OH225357   2.509   6.199   5.041 -0.1471 -0.5045  0.5722
 8473TIP3    H125358   2.449   6.135   5.080  0.6737 -1.2760  0.5877
 8473TIP3    H225359   2.481   6.283   5.077 -0.2074 -1.0531  1.8168
 8474TIP3   OH225360   6.335   7.519   2.708  0.1265 -0.1652  0.2267
 8474TIP3    H125361   6.370   7.474   2.785 -0.0304 -0.7524 -0.0425
 8474TIP3    H225362   6.413   7.549   2.662  0.3775 -2.5900 -1.0454
 8475TIP3   OH225363   1.338   0.448   5.672 -0.1188 -0.0917  0.2770
 8475TIP3    H125364   1.290   0.497   5.605 -0.1263  0.8465  0.9652
 8475TIP3    H225365   1.407   0.507   5.700  1.1988 -1.2708 -0.3934
 8476TIP3   OH225366   6.922   7.185   3.490  0.4544 -0.7832 -0.4437
 8476TIP3    H125367   7.006   7.156   3.455  1.4677  1.4625  0.0588
 8476TIP3    H225368   6.858   7.126   3.450  2.0656 -1.2891 -2.3556
 8477TIP3   OH225369   2.467   5.832   4.255  0.1417 -0.1480  0.2418
 8477TIP3    H125370   2.539   5.790   4.208  0.1101 -0.7532  0.7203
 8477TIP3    H225371   2.448   5.911   4.205 -0.3462 -1.1275 -1.1519
 8478TIP3   OH225372   6.535   5.668   3.897  0.0203 -0.5127  0.0043
 8478TIP3    H125373   6.473   5.732   3.932 -0.1518 -1.9687  2.4665
 8478TIP3    H225374   6.603   5.661   3.965  2.1438 -0.0174 -2.0017
 8479TIP3   OH225375   3.829   5.283   4.159 -0.0917 -0.2599 -0.1881
 8479TIP3    H125376   3.885   5.249   4.089  0.4548  0.1668  0.0421
 8479TIP3    H225377   3.804   5.371   4.130 -0.2459 -0.2600 -0.0589
 8480TIP3   OH225378   4.554   6.403   2.718 -0.3704 -0.6046 -0.1389
 8480TIP3    H125379   4.599   6.475   2.763 -1.2118  0.5028 -1.0659
 8480TIP3    H225380   4.611   6.383   2.643 -0.9727  0.2045 -0.8135
 8481TIP3   OH225381   2.731   6.908   3.635  0.2698 -0.2239  1.1113
 8481TIP3    H125382   2.637   6.914   3.619  0.3324 -2.8493 -0.4565
 8481TIP3    H225383   2.740   6.835   3.696  1.3901 -0.5847  0.5192
 8482TIP3   OH225384   4.905   7.029   2.543 -0.1153 -0.1209 -0.6097
 8482TIP3    H125385   4.842   7.051   2.474 -0.5095 -0.5299 -0.3897
 8482TIP3    H225386   4.983   7.079   2.522 -0.1659 -0.4025 -1.4644
 8483TIP3   OH225387   6.638   5.356   5.228 -0.0139  0.4024 -0.2256
 8483TIP3    H125388   6.709   5.300   5.196  0.2804 -0.2410  1.4971
 8483TIP3    H225389   6.587   5.378   5.149  1.9378  0.6743 -1.4454
 8484TIP3   OH225390   2.762   3.685   3.695  0.0955 -0.4390 -0.4870
 8484TIP3    H125391   2.673   3.695   3.661 -0.6393 -1.7956  0.9581
 8484TIP3    H225392   2.782   3.769   3.737 -0.0590  0.2611 -1.7959
 8485TIP3   OH225393   3.621   7.191   5.172 -0.0038 -0.4371  0.4282
 8485TIP3    H125394   3.652   7.234   5.093 -1.2058  0.0170  0.1941
 8485TIP3    H225395   3.593   7.262   5.229 -0.0484 -0.8081  0.8697
 8486TIP3   OH225396   3.003   5.989   3.639  0.1414  0.1229 -0.0486
 8486TIP3    H125397   3.048   5.983   3.723  1.6931 -0.1192 -0.8951
 8486TIP3    H225398   2.996   5.898   3.609  0.4336  0.2923 -0.6294
 8487TIP3   OH225399   4.745   4.577   4.190  0.4917  0.3714  0.1673
 8487TIP3    H125400   4.706   4.490   4.183  0.8704  0.0348  1.9650
 8487TIP3    H225401   4.760   4.604   4.099  1.4279 -1.9206 -0.3952
 8488TIP3   OH225402   4.865   6.402   3.182 -0.9532  0.1948  0.8006
 8488TIP3    H125403   4.949   6.428   3.144 -0.5663 -4.4932 -1.9129
 8488TIP3    H225404   4.889   6.343   3.254 -1.8867 -1.5028 -0.2599
 8489TIP3   OH225405   4.271   7.467   4.655  0.1333  0.0391 -0.0465
 8489TIP3    H125406   4.262   7.402   4.725  1.9117  2.2611  2.3213
 8489TIP3    H225407   4.363   7.464   4.631  0.0777  1.1384 -0.4325
 8490TIP3   OH225408   4.791   7.057   3.465 -0.4228 -0.2894 -0.3858
 8490TIP3    H125409   4.858   7.034   3.401  0.1164  0.9386 -0.2703
 8490TIP3    H225410   4.826   7.134   3.510 -2.8031  1.5922 -1.6729
 8491TIP3   OH225411   1.739   2.769   0.634  0.6056 -0.4844 -0.0953
 8491TIP3    H125412   1.810   2.787   0.573  2.0487  0.4569  1.8305
 8491TIP3    H225413   1.680   2.711   0.585  1.8415  0.0376 -2.2796
 8492TIP3   OH225414   4.378   5.958   2.159  0.4844 -0.4889  0.0239
 8492TIP3    H125415   4.471   5.939   2.145  0.6526  1.2521 -1.4388
 8492TIP3    H225416   4.373   5.985   2.251  1.5203 -0.1006 -0.0242
 8493TIP3   OH225417   1.294   4.436   3.289 -0.4805 -0.3732 -0.1189
 8493TIP3    H125418   1.206   4.407   3.312 -1.5788  1.5980 -1.6109
 8493TIP3    H225419   1.343   4.430   3.370 -2.5847  0.5851  1.2723
 8494TIP3   OH225420   5.209   4.746   2.424 -0.1681 -0.5709  0.3859
 8494TIP3    H125421   5.168   4.831   2.408 -0.4725 -0.5722  1.1507
 8494TIP3    H225422   5.193   4.728   2.517  1.3631 -0.6841  0.6340
 8495TIP3   OH225423   5.657   4.535   4.856 -0.1967  0.9499  0.3053
 8495TIP3    H125424   5.746   4.500   4.871 -0.2998 -0.2139 -1.5872
 8495TIP3    H225425   5.599   4.465   4.885 -0.4678  1.1097  0.1500
 8496TIP3   OH225426   5.585   4.536   4.400  0.8840 -0.0206  0.2529
 8496TIP3    H125427   5.657   4.472   4.405  0.5624 -0.4608 -0.6547
 8496TIP3    H225428   5.593   4.587   4.481  3.3317  1.1166 -0.6692
 8497TIP3   OH225429   0.562   7.084   4.871 -0.2655 -0.3837  0.2097
 8497TIP3    H125430   0.619   7.019   4.832 -1.3960 -1.8651  0.9953
 8497TIP3    H225431   0.621   7.148   4.911  0.8745  0.1082 -2.1857
 8498TIP3   OH225432   3.147   6.417   4.472  0.7473  0.0871  0.6190
 8498TIP3    H125433   3.082   6.427   4.403  1.5393 -1.5881 -0.4203
 8498TIP3    H225434   3.135   6.493   4.528 -0.7569  0.8286 -0.6710
 8499TIP3   OH225435   3.602   5.744   2.181 -0.1632 -0.2280  0.4543
 8499TIP3    H125436   3.541   5.680   2.219  0.9194 -1.2504  0.5186
 8499TIP3    H225437   3.674   5.747   2.243  0.3484  0.1671 -0.1554
 8500TIP3   OH225438   5.202   6.358   3.590 -0.0338  0.1582  0.1188
 8500TIP3    H125439   5.114   6.360   3.628  0.5259  3.6818  1.3586
 8500TIP3    H225440   5.186   6.352   3.495 -1.5794  0.1076  0.3658
 8501TIP3   OH225441   4.249   5.096   2.419  0.7206 -0.3293  0.2405
 8501TIP3    H125442   4.342   5.115   2.429  0.6145 -0.4535  1.4992
 8501TIP3    H225443   4.220   5.069   2.506 -0.8071  1.1246  0.2136
 8502TIP3   OH225444   5.052   7.354   3.232 -0.1708  0.1696  0.2346
 8502TIP3    H125445   5.133   7.396   3.204  0.1090  0.8769  2.0339
 8502TIP3    H225446   5.067   7.260   3.220  0.8224  0.3195  0.3333
 8503TIP3   OH225447   4.236   5.689   3.731  0.1271  0.2038 -0.5777
 8503TIP3    H125448   4.160   5.643   3.767  0.5289 -0.8719 -1.0682
 8503TIP3    H225449   4.310   5.630   3.747  0.8164  1.1246 -0.3385
 8504TIP3   OH225450   4.706   5.607   4.529 -0.4746 -0.6273  0.2267
 8504TIP3    H125451   4.732   5.661   4.604 -0.3335  0.3210 -0.5004
 8504TIP3    H225452   4.674   5.670   4.464 -1.5511 -1.5228 -0.1205
 8505TIP3   OH225453   7.700   0.311   2.864  0.3119  0.4247 -0.2511
 8505TIP3    H125454   7.739   0.342   2.782 -0.1529  1.2329 -0.1741
 8505TIP3    H225455   7.621   0.365   2.875 -0.3146 -0.5519  0.0766
 8506TIP3   OH225456   1.978   0.854   5.573 -0.0947  0.4860 -0.2482
 8506TIP3    H125457   1.885   0.856   5.549 -0.1274 -3.0746 -0.6962
 8506TIP3    H225458   1.978   0.861   5.668 -0.8941 -0.5590 -0.1649
 8507TIP3   OH225459   2.960   3.502   3.444  0.6082 -0.2130  0.2070
 8507TIP3    H125460   2.911   3.443   3.502  0.3195 -0.2660 -0.0898
 8507TIP3    H225461   3.048   3.505   3.482  0.6676 -0.9644  0.1266
 8508TIP3   OH225462   3.002   5.379   5.391 -0.1824  0.6214  0.4422
 8508TIP3    H125463   3.083   5.331   5.411  0.7099  1.6876 -0.6021
 8508TIP3    H225464   2.943   5.313   5.354  0.3840 -0.0527  0.7381
 8509TIP3   OH225465   2.999   6.939   3.991 -0.0450  0.5584 -0.7964
 8509TIP3    H125466   3.008   6.858   4.041  0.4722  0.9099 -0.3172
 8509TIP3    H225467   3.014   6.912   3.900  1.0572  0.2679 -0.5425
 8510TIP3   OH225468   2.008   5.917   5.910  0.3868  0.1532 -0.5623
 8510TIP3    H125469   1.967   5.831   5.909  0.6546  0.0029 -2.9055
 8510TIP3    H225470   2.089   5.905   5.960 -0.1641 -0.6530  0.1435
 8511TIP3   OH225471   4.794   5.307   5.266 -0.0033 -0.4991 -0.0091
 8511TIP3    H125472   4.869   5.310   5.206 -0.7791 -0.1672 -0.9857
 8511TIP3    H225473   4.718   5.328   5.210 -0.9091 -1.5542  0.8023
 8512TIP3   OH225474   2.667   5.630   1.858 -0.5079  0.2650 -0.0607
 8512TIP3    H125475   2.706   5.702   1.908 -0.4616 -0.4406  0.9415
 8512TIP3    H225476   2.576   5.627   1.888 -0.1189 -1.0771  1.0796
 8513TIP3   OH225477   5.223   7.886   3.567 -0.3669  0.2371 -0.0774
 8513TIP3    H125478   5.146   7.879   3.623 -0.1475  0.5534  0.2672
 8513TIP3    H225479   5.277   7.954   3.608 -0.4762  0.8896 -0.9822
 8514TIP3   OH225480   3.153   5.924   4.301 -0.1797 -0.2844 -0.0433
 8514TIP3    H125481   3.185   6.005   4.262 -2.3240  0.5635 -0.0921
 8514TIP3    H225482   3.097   5.952   4.373 -2.0570 -1.6688 -0.9278
 8515TIP3   OH225483   4.386   6.869   3.802 -0.6454 -0.0137 -0.6387
 8515TIP3    H125484   4.316   6.844   3.742 -0.8752 -1.3424  0.1514
 8515TIP3    H225485   4.343   6.922   3.868 -0.3832  1.4943 -1.6532
 8516TIP3   OH225486   7.044   6.993   4.195 -0.4845  0.2264 -0.7051
 8516TIP3    H125487   6.952   6.972   4.213 -0.2466 -0.1164  0.1527
 8516TIP3    H225488   7.082   7.007   4.282  0.0839  1.1911 -1.1090
 8517TIP3   OH225489   4.942   7.240   4.218  0.0383  0.2926  0.5679
 8517TIP3    H125490   4.877   7.194   4.165 -0.0822  2.4279 -1.2216
 8517TIP3    H225491   5.024   7.194   4.201  0.0551  1.0857 -1.7480
 8518TIP3   OH225492   3.371   5.776   4.370  0.7235 -0.2755 -0.0280
 8518TIP3    H125493   3.294   5.819   4.334  1.1165  0.9561  0.5939
 8518TIP3    H225494   3.440   5.794   4.306  1.1579  0.9868  0.7828
 8519TIP3   OH225495   2.933   7.108   3.701 -0.5176  0.4835  1.3472
 8519TIP3    H125496   3.019   7.073   3.727 -0.0676  0.1294 -0.5332
 8519TIP3    H225497   2.884   7.031   3.672 -0.3412  1.0960 -0.6058
 8520TIP3   OH225498   4.916   6.296   3.685  0.1262 -0.2345  0.0704
 8520TIP3    H125499   4.966   6.305   3.766 -0.1922 -1.9980  0.4899
 8520TIP3    H225500   4.870   6.379   3.676 -0.3733 -0.2595  2.0928
 8521TIP3   OH225501   6.519   0.103   5.035  0.5046  0.4989  0.1772
 8521TIP3    H125502   6.485   0.015   5.051 -0.8095  0.7415 -1.1263
 8521TIP3    H225503   6.458   0.161   5.080 -0.4907  0.9048 -1.6462
 8522TIP3   OH225504   4.000   4.874   5.598  0.0834  0.0013  0.0055
 8522TIP3    H125505   4.004   4.778   5.595  1.9818  0.0802 -0.2961
 8522TIP3    H225506   4.065   4.899   5.664  1.2696  1.1908 -1.5895
 8523TIP3   OH225507   4.111   7.413   3.544  0.5011 -0.1681  0.5057
 8523TIP3    H125508   4.037   7.438   3.488  1.1318 -0.4347 -0.4636
 8523TIP3    H225509   4.090   7.450   3.630 -0.1672  0.8414 -0.0774
 8524TIP3   OH225510   3.174   1.243   1.084  0.2650  0.2251  0.1135
 8524TIP3    H125511   3.100   1.183   1.093 -0.2219  0.9459  0.9367
 8524TIP3    H225512   3.147   1.307   1.019  0.0278  0.6734  0.6429
 8525TIP3   OH225513   3.521   5.640   5.631 -0.6764 -0.3371 -0.7190
 8525TIP3    H125514   3.477   5.712   5.676  1.8034 -0.2654  1.7057
 8525TIP3    H225515   3.469   5.563   5.653 -0.2741 -0.0927  1.2391
 8526TIP3   OH225516   2.088   5.821   1.411 -0.7286 -0.3051  0.1072
 8526TIP3    H125517   2.140   5.889   1.454 -2.2574  0.0549  1.4280
 8526TIP3    H225518   2.142   5.742   1.416 -0.6337 -0.1378  2.2174
 8527TIP3   OH225519   2.880   7.229   4.521  0.3543 -0.1216  0.5091
 8527TIP3    H125520   2.885   7.324   4.523  1.3866 -0.1784  0.8789
 8527TIP3    H225521   2.971   7.200   4.531  0.1408 -1.1302 -0.3661
 8528TIP3   OH225522   0.939   6.602   3.639  0.4841 -0.2062 -0.2581
 8528TIP3    H125523   0.935   6.684   3.689  0.8770  0.2362 -0.9428
 8528TIP3    H225524   1.032   6.580   3.638  0.6366  0.4416 -1.8279
 8529TIP3   OH225525   1.295   6.501   3.636 -0.0026 -0.3477  0.5161
 8529TIP3    H125526   1.289   6.539   3.549 -0.5619 -1.9423 -0.1552
 8529TIP3    H225527   1.372   6.444   3.632  1.2913  1.2708  1.7452
 8530TIP3   OH225528   7.769   7.200   3.310 -0.2699 -0.2809  0.8362
 8530TIP3    H125529   7.751   7.156   3.393 -0.1846 -1.6909  0.1422
 8530TIP3    H225530   7.799   7.287   3.334 -1.5106 -0.2279  2.2259
 8531TIP3   OH225531   6.669   7.327   5.051  0.2996 -0.3234  0.3067
 8531TIP3    H125532   6.583   7.284   5.059  0.5312 -0.7086  0.7256
 8531TIP3    H225533   6.655   7.395   4.985 -0.1948 -0.7267 -0.0101
 8532TIP3   OH225534   7.755   0.559   4.337  0.2730 -0.7921  0.0387
 8532TIP3    H125535   7.703   0.518   4.406 -2.0085  0.6234 -0.7761
 8532TIP3    H225536   7.788   0.485   4.285 -1.9545 -1.7133 -0.1208
 8533TIP3   OH225537   3.897   4.492   3.822  1.0091  0.3697  0.2743
 8533TIP3    H125538   3.961   4.426   3.846 -0.3259 -0.4583  1.6896
 8533TIP3    H225539   3.939   4.576   3.843  1.8557 -0.1273  0.5812
 8534TIP3   OH225540   7.976   0.041   0.987  0.2190 -0.3864 -0.1105
 8534TIP3    H125541   7.933  -0.040   1.016  0.8266 -0.7627 -0.2682
 8534TIP3    H225542   7.992   0.028   0.894 -0.4947  0.2807 -0.3315
 8535TIP3   OH225543   5.499   4.492   1.865 -0.6145 -0.0645  0.0771
 8535TIP3    H125544   5.551   4.546   1.925  0.9648 -0.4227 -0.9439
 8535TIP3    H225545   5.500   4.540   1.783 -2.0501 -0.0014  0.0855
 8536TIP3   OH225546   6.534   7.502   3.213 -0.5027  0.6824  0.0176
 8536TIP3    H125547   6.467   7.496   3.281 -0.7811  0.7400 -0.2533
 8536TIP3    H225548   6.598   7.435   3.237  0.2033  1.7658  1.2263
 8537TIP3   OH225549   6.041   5.769   2.947 -0.9965 -0.7860 -0.2920
 8537TIP3    H125550   6.076   5.752   2.859 -0.8845  1.5991 -0.7501
 8537TIP3    H225551   6.065   5.691   2.998  1.4655 -0.9654 -1.6345
 8538TIP3   OH225552   4.389   6.251   2.296 -0.0580  0.4158  0.1725
 8538TIP3    H125553   4.384   6.169   2.345 -0.7000 -0.1679 -0.8398
 8538TIP3    H225554   4.363   6.318   2.360  1.6477 -0.0063  1.3413
 8539TIP3   OH225555   5.053   5.466   4.000  0.4180 -0.0748 -0.0181
 8539TIP3    H125556   5.024   5.540   3.947  0.2462  0.2413  0.5043
 8539TIP3    H225557   5.066   5.504   4.087  2.7092 -0.1372 -0.3132
 8540TIP3   OH225558   6.926   6.282   4.079 -0.4979 -0.0892 -0.3093
 8540TIP3    H125559   6.975   6.217   4.028  0.6372 -1.0735  1.9815
 8540TIP3    H225560   6.840   6.284   4.038  0.0661 -1.6219 -1.6342
 8541TIP3   OH225561   4.524   7.103   4.839 -0.5343 -0.0803  0.2065
 8541TIP3    H125562   4.486   7.133   4.756  0.2999 -1.8136 -0.8138
 8541TIP3    H225563   4.454   7.051   4.880 -0.0066 -1.5145 -0.6950
 8542TIP3   OH225564   6.183   7.868   4.089  0.1377  0.0718 -0.5672
 8542TIP3    H125565   6.161   7.945   4.141 -0.5371  1.1948 -2.4871
 8542TIP3    H225566   6.099   7.839   4.053  0.3840 -1.5817  0.1462
 8543TIP3   OH225567   5.540   5.723   4.379 -0.4602  0.2571  0.6069
 8543TIP3    H125568   5.539   5.628   4.363  1.1532  0.2106  0.7396
 8543TIP3    H225569   5.529   5.732   4.473  1.5143  0.1123  0.8656
 8544TIP3   OH225570   6.014   4.575   2.884  0.4299 -0.0389 -0.0412
 8544TIP3    H125571   6.069   4.574   2.963  1.1093 -0.5907 -0.5131
 8544TIP3    H225572   6.047   4.648   2.832 -0.9400  1.2193  0.8095
 8545TIP3   OH225573   4.716   6.399   1.030 -0.5736  0.0036 -0.0772
 8545TIP3    H125574   4.790   6.338   1.037 -0.1928  0.5513  0.7251
 8545TIP3    H225575   4.641   6.344   1.009 -0.2322 -0.7399  0.6394
 8546TIP3   OH225576   4.655   4.362   4.770 -0.1531 -0.2212 -0.2304
 8546TIP3    H125577   4.664   4.357   4.675 -0.7728  1.5718 -0.3928
 8546TIP3    H225578   4.730   4.313   4.804 -0.2972 -1.4551 -1.6216
 8547TIP3   OH225579   3.841   5.986   3.843  0.4768  0.1710  0.0172
 8547TIP3    H125580   3.898   6.045   3.892 -0.0476 -0.4808  1.4356
 8547TIP3    H225581   3.758   5.988   3.891  0.4776 -1.7597  0.1044
 8548TIP3   OH225582   4.750   5.333   4.468  0.0569 -0.0407  0.4009
 8548TIP3    H125583   4.798   5.335   4.386  1.7874  1.1494  1.4036
 8548TIP3    H225584   4.710   5.420   4.475 -1.0666 -0.5373  0.2630
 8549TIP3   OH225585   5.085   6.226   2.030  0.3481 -0.2381  0.1048
 8549TIP3    H125586   5.117   6.142   2.062 -0.1351 -0.5713 -0.2706
 8549TIP3    H225587   5.161   6.284   2.034  0.6999 -0.7091  0.3093
 8550TIP3   OH225588   4.071   7.831   4.556  0.6353 -0.2228 -0.3895
 8550TIP3    H125589   4.059   7.774   4.480 -1.3444 -0.2149 -0.1189
 8550TIP3    H225590   4.130   7.900   4.525 -0.9903  0.3803 -2.2618
 8551TIP3   OH225591   3.497   6.053   4.524  0.4089  0.6779 -0.2233
 8551TIP3    H125592   3.516   6.146   4.534 -1.2046  1.1572 -1.4486
 8551TIP3    H225593   3.542   6.028   4.443 -0.8901  0.9066 -1.0349
 8552TIP3   OH225594   6.214   5.049   5.173  0.2328 -0.2156  0.3020
 8552TIP3    H125595   6.169   4.992   5.111  1.9078 -0.3812 -0.7764
 8552TIP3    H225596   6.251   4.989   5.238 -0.2503 -0.1518  0.6400
 8553TIP3   OH225597   4.683   5.868   4.422  0.0755 -0.3266 -0.3078
 8553TIP3    H125598   4.710   5.894   4.334 -0.8168  0.3447 -0.3891
 8553TIP3    H225599   4.591   5.894   4.428  0.6968  1.6122  1.5776
 8554TIP3   OH225600   0.196   4.816   2.980 -0.1499  0.2172 -0.0988
 8554TIP3    H125601   0.176   4.844   2.891 -0.9246 -1.3236 -0.4383
 8554TIP3    H225602   0.258   4.743   2.968 -0.2691 -0.0031  0.6203
 8555TIP3   OH225603   0.316   0.163   3.728  0.5058 -0.0408 -0.3016
 8555TIP3    H125604   0.223   0.161   3.704  0.2313  1.2586  0.5947
 8555TIP3    H225605   0.332   0.254   3.754  2.0366 -0.2543 -0.4557
 8556TIP3   OH225606   2.503   4.596   3.849  0.0073 -0.3719 -0.1228
 8556TIP3    H125607   2.494   4.624   3.758 -0.7675 -0.7758 -0.1788
 8556TIP3    H225608   2.427   4.633   3.893  0.8966  0.6585  0.5847
 8557TIP3   OH225609   2.459   4.950   3.746 -0.1042 -0.0689  0.2678
 8557TIP3    H125610   2.394   4.888   3.780  1.4183 -1.7302  0.2049
 8557TIP3    H225611   2.504   4.902   3.677  0.9545  1.1976  0.0578
 8558TIP3   OH225612   2.556   0.207   3.995 -0.4021 -0.2499 -0.1518
 8558TIP3    H125613   2.620   0.158   4.045  0.9376  2.5281  0.9451
 8558TIP3    H225614   2.588   0.203   3.905 -0.6752 -1.8830 -0.2011
 8559TIP3   OH225615   5.232   7.010   5.155 -0.4099 -0.2186 -0.2885
 8559TIP3    H125616   5.309   6.983   5.105 -0.0291 -0.8909  0.6695
 8559TIP3    H225617   5.166   6.944   5.134 -0.6053  0.1332 -0.7924
 8560TIP3   OH225618   0.817   6.783   5.680 -0.2185 -0.0250 -0.3797
 8560TIP3    H125619   0.911   6.798   5.695 -0.3463  0.4692 -0.0489
 8560TIP3    H225620   0.794   6.844   5.609 -0.6731  1.1435  0.7560
 8561TIP3   OH225621   3.382   7.402   4.784 -0.1874  0.1903  0.0160
 8561TIP3    H125622   3.360   7.355   4.865 -1.0348  1.4043  0.5119
 8561TIP3    H225623   3.359   7.341   4.714  0.0916 -0.6883  0.6711
 8562TIP3   OH225624   1.726   6.333   6.126 -0.2616  0.0588 -0.3005
 8562TIP3    H125625   1.768   6.255   6.163  1.4109  0.4161 -1.3775
 8562TIP3    H225626   1.682   6.301   6.047 -0.9875 -0.0929  0.1631
 8563TIP3   OH225627   4.371   5.290   4.185  0.6692  0.3590 -0.0338
 8563TIP3    H125628   4.348   5.359   4.247  2.6375 -0.1852  1.3333
 8563TIP3    H225629   4.459   5.312   4.155  1.1302 -1.2984  0.0588
 8564TIP3   OH225630   5.622   6.524   1.312  0.2687 -0.0166 -0.6767
 8564TIP3    H125631   5.560   6.597   1.310  0.4549  0.1942  0.6819
 8564TIP3    H225632   5.685   6.544   1.243  0.6006  1.3676  0.0044
 8565TIP3   OH225633   5.228   6.259   1.731 -0.0032  0.1176  0.2331
 8565TIP3    H125634   5.304   6.209   1.760 -1.0961 -0.9586  1.2867
 8565TIP3    H225635   5.242   6.346   1.769  0.5847 -0.1369  0.6170
 8566TIP3   OH225636   1.790   5.764   3.363  0.4361 -0.4392 -0.3444
 8566TIP3    H125637   1.801   5.715   3.444 -2.6267 -0.7374 -0.0439
 8566TIP3    H225638   1.787   5.697   3.295 -3.0458 -0.7293 -0.0059
 8567TIP3   OH225639   5.311   7.024   4.895  0.3111 -0.2711  0.0738
 8567TIP3    H125640   5.341   6.999   4.807  0.6755  0.6950 -0.0779
 8567TIP3    H225641   5.338   7.115   4.905  0.0267 -0.2911  1.0882
 8568TIP3   OH225642   3.132   6.389   0.975  0.5901 -0.4065 -0.2147
 8568TIP3    H125643   3.132   6.332   1.052  2.1776  1.8700  1.5553
 8568TIP3    H225644   3.050   6.438   0.981 -0.5796 -2.1796 -1.5088
 8569TIP3   OH225645   6.297   6.139   3.411  0.3569 -0.4933  0.3007
 8569TIP3    H125646   6.204   6.137   3.432  0.1982  0.4114 -0.2939
 8569TIP3    H225647   6.328   6.223   3.444  0.4901  0.1494 -1.3978
 8570TIP3   OH225648   6.982   5.526   2.210  0.1523 -0.1918  0.3205
 8570TIP3    H125649   7.021   5.527   2.297  1.3874 -0.3455 -0.2166
 8570TIP3    H225650   7.057   5.521   2.150 -0.5696  2.1778 -0.8301
 8571TIP3   OH225651   5.690   3.727   2.646  0.2335 -0.2713  0.1537
 8571TIP3    H125652   5.650   3.686   2.569 -0.0194 -0.8586  0.5978
 8571TIP3    H225653   5.616   3.747   2.704  0.2825  1.4367 -0.3454
 8572TIP3   OH225654   2.122   6.336   3.815 -0.1552  0.0295 -0.0609
 8572TIP3    H125655   2.163   6.343   3.901  0.7685  4.6515 -0.7286
 8572TIP3    H225656   2.193   6.311   3.756 -0.2655 -0.8125  0.1675
 8573TIP3   OH225657   2.285   5.346   5.269  0.0204  0.2442 -0.6026
 8573TIP3    H125658   2.380   5.338   5.276  0.4773  3.8700 -1.6495
 8573TIP3    H225659   2.261   5.412   5.333 -1.5655  0.5427 -1.4655
 8574TIP3   OH225660   6.608   4.319   4.572  0.0360  0.2213  0.5896
 8574TIP3    H125661   6.520   4.342   4.602 -0.1638 -0.1343  0.2903
 8574TIP3    H225662   6.664   4.332   4.648 -0.3465  0.0396  0.9052
 8575TIP3   OH225663   3.216   6.077   4.573 -0.3365 -0.0114  0.3383
 8575TIP3    H125664   3.220   6.062   4.667 -1.8174  1.6103  0.6940
 8575TIP3    H225665   3.297   6.039   4.539  1.3628  1.4515  2.5741
 8576TIP3   OH225666   4.635   5.144   4.001 -0.9025 -0.1398 -0.4006
 8576TIP3    H125667   4.627   5.230   4.042 -1.1309 -0.8784  1.1435
 8576TIP3    H225668   4.610   5.158   3.910 -2.0327  1.2096  0.1019
 8577TIP3   OH225669   7.061   4.145   5.296 -0.0428 -0.3679  0.0264
 8577TIP3    H125670   7.066   4.211   5.366  0.3113  0.1024 -0.4429
 8577TIP3    H225671   7.133   4.166   5.238 -1.1860  0.1204 -1.2474
 8578TIP3   OH225672   5.626   6.608   3.162  0.2586 -0.2434  0.4922
 8578TIP3    H125673   5.697   6.627   3.101 -0.1317  1.4219  0.5476
 8578TIP3    H225674   5.669   6.592   3.246  0.7296 -1.7146 -0.0048
 8579TIP3   OH225675   3.605   5.795   3.324 -0.0652 -0.4220 -0.0772
 8579TIP3    H125676   3.565   5.869   3.279 -0.8839  0.6252  2.2814
 8579TIP3    H225677   3.699   5.803   3.306 -0.4383 -0.4578 -2.1428
 8580TIP3   OH225678   2.499   5.187   4.202 -0.4472 -0.2632  0.3569
 8580TIP3    H125679   2.419   5.222   4.163 -0.2959 -0.6423 -0.3051
 8580TIP3    H225680   2.530   5.121   4.139  0.6669  0.2410  0.3571
 8581TIP3   OH225681   4.541   6.052   3.646  0.2593 -0.0973  0.2553
 8581TIP3    H125682   4.630   6.073   3.674 -0.3096  1.1488  1.1915
 8581TIP3    H225683   4.486   6.077   3.720 -0.8749 -0.8609 -0.3139
 8582TIP3   OH225684   3.597   7.309   4.557  0.1529 -0.2894  0.1835
 8582TIP3    H125685   3.554   7.224   4.562  1.2602 -0.7425  2.8164
 8582TIP3    H225686   3.578   7.340   4.469 -2.4612 -2.0931  0.0463
 8583TIP3   OH225687   0.737   1.705   0.752 -0.0154 -0.8092  0.0808
 8583TIP3    H125688   0.688   1.623   0.764  0.7346 -1.2310  0.2509
 8583TIP3    H225689   0.711   1.736   0.665 -0.1048 -1.3514 -0.0848
 8584TIP3   OH225690   0.164   5.501   6.152 -0.1438 -0.2940 -0.5384
 8584TIP3    H125691   0.257   5.518   6.169 -0.3645  0.2881  0.1037
 8584TIP3    H225692   0.156   5.406   6.148  0.4266 -0.3489 -0.3219
 8585TIP3   OH225693   5.698   4.250   5.850  0.0164  0.3667 -0.2078
 8585TIP3    H125694   5.683   4.253   5.945 -0.0265  3.3682 -0.2535
 8585TIP3    H225695   5.786   4.215   5.841  0.2403  0.5830  1.0018
 8586TIP3   OH225696   7.735   7.228   3.816  0.5682  0.4468  0.3851
 8586TIP3    H125697   7.756   7.137   3.838 -1.2127 -0.3841 -1.1163
 8586TIP3    H225698   7.760   7.237   3.724 -1.9275  0.5440 -0.3361
 8587TIP3   OH225699   0.419   5.443   6.434 -0.3767 -0.4279 -0.3313
 8587TIP3    H125700   0.428   5.511   6.501  0.5038 -1.0383  0.1692
 8587TIP3    H225701   0.500   5.449   6.383  0.0598 -1.6455  0.2171
 8588TIP3   OH225702   3.582   5.123   3.552 -0.4707  0.2335 -0.0324
 8588TIP3    H125703   3.668   5.088   3.530 -0.1421  1.7988 -1.3425
 8588TIP3    H225704   3.598   5.216   3.570 -1.8144  0.4414  0.1384
 8589TIP3   OH225705   5.435   5.076   3.996  0.2213 -0.1656 -0.3719
 8589TIP3    H125706   5.440   5.165   3.962 -0.5930 -0.4519 -1.2806
 8589TIP3    H225707   5.348   5.071   4.035 -0.5001 -1.1577 -2.0684
 8590TIP3   OH225708   5.879   6.844   3.146 -0.0685  0.4240  0.2134
 8590TIP3    H125709   5.916   6.899   3.215  0.3559 -2.3154  2.2779
 8590TIP3    H225710   5.945   6.843   3.077  0.9255  0.6463  1.1456
 8591TIP3   OH225711   6.823   7.842   3.319  0.1374 -0.5987  0.0883
 8591TIP3    H125712   6.876   7.915   3.287 -3.0272  1.8416  0.1388
 8591TIP3    H225713   6.875   7.805   3.390  2.2289  1.0123 -0.5206
 8592TIP3   OH225714   5.400   6.476   2.954 -0.3499  0.1471 -0.5163
 8592TIP3    H125715   5.364   6.558   2.986 -0.0252  0.6287 -1.3801
 8592TIP3    H225716   5.434   6.433   3.032  0.0596  1.1216 -0.1569
 8593TIP3   OH225717   6.377   7.189   3.458  0.5225  0.2269 -0.7184
 8593TIP3    H125718   6.469   7.189   3.486 -0.5341  0.9582  3.1322
 8593TIP3    H225719   6.356   7.096   3.446  1.0004 -0.1853  1.3575
 8594TIP3   OH225720   7.812   0.454   1.842 -0.2026 -0.1893 -0.2750
 8594TIP3    H125721   7.779   0.541   1.867 -2.0414 -1.1599  0.7895
 8594TIP3    H225722   7.749   0.393   1.880 -1.2289 -1.8952 -4.4791
 8595TIP3   OH225723   7.772   5.579   5.296  0.2733  0.2165  0.3187
 8595TIP3    H125724   7.784   5.484   5.289 -0.0999  0.1830  0.1595
 8595TIP3    H225725   7.789   5.598   5.389 -1.0584 -0.2088  0.6699
 8596TIP3   OH225726   0.143   5.318   5.107 -0.5885 -0.1086  0.0704
 8596TIP3    H125727   0.197   5.394   5.086  0.7373 -1.2921 -0.9285
 8596TIP3    H225728   0.158   5.257   5.035 -1.3466 -1.4607  1.0341
 8597TIP3   OH225729   4.544   1.267   0.621  0.1117 -0.3879  0.4620
 8597TIP3    H125730   4.639   1.268   0.608  0.0854 -0.3584  0.2666
 8597TIP3    H225731   4.527   1.344   0.676  0.1371 -0.0683  0.0296
 8598TIP3   OH225732   5.929   3.843   3.555  0.4729 -0.8386  0.1009
 8598TIP3    H125733   5.986   3.832   3.631  0.2186  0.7064  0.5216
 8598TIP3    H225734   5.976   3.902   3.497 -1.5769  2.1743  1.4061
 8599TIP3   OH225735   5.733   6.204   3.109  0.0106  0.8452  0.6192
 8599TIP3    H125736   5.699   6.120   3.080 -1.0525  0.9207  1.5843
 8599TIP3    H225737   5.654   6.256   3.129  0.6285  2.2139 -0.3817
 8600TIP3   OH225738   5.768   5.264   4.068  0.3171 -0.3665 -0.0907
 8600TIP3    H125739   5.746   5.229   4.154  0.5943  3.1663  1.4721
 8600TIP3    H225740   5.683   5.275   4.025 -0.1124  1.2476  1.1217
 8601TIP3   OH225741   4.869   5.167   1.429 -0.3468 -0.5336  0.0755
 8601TIP3    H125742   4.786   5.120   1.425  0.9821 -3.0609  0.9934
 8601TIP3    H225743   4.902   5.150   1.518  1.9421 -0.9779 -0.8350
 8602TIP3   OH225744   0.213   6.839   2.451  0.2763  0.2830 -0.4746
 8602TIP3    H125745   0.127   6.867   2.419 -0.0704  0.2242  0.3650
 8602TIP3    H225746   0.202   6.836   2.547  1.3783  0.8124 -0.3319
 8603TIP3   OH225747   4.736   6.707   3.686  0.5049  0.3600 -0.2274
 8603TIP3    H125748   4.686   6.642   3.637  0.3051  1.9579 -2.2146
 8603TIP3    H225749   4.827   6.676   3.679  0.2351 -0.5544  0.2171
 8604TIP3   OH225750   4.429   6.513   4.358 -0.2396 -0.5707  0.3440
 8604TIP3    H125751   4.435   6.513   4.262  0.1805 -0.6447  0.3682
 8604TIP3    H225752   4.445   6.604   4.382 -0.0777 -0.6041  0.3602
 8605TIP3   OH225753   4.454   5.412   2.344  0.0194 -0.0297  0.0559
 8605TIP3    H125754   4.494   5.445   2.424  0.8393  2.0523 -1.1796
 8605TIP3    H225755   4.524   5.360   2.303 -0.6629 -1.8002  1.0492
 8606TIP3   OH225756   0.271   6.653   3.125  0.1785  0.8359  0.0618
 8606TIP3    H125757   0.361   6.669   3.096  0.2001  2.2705  0.8655
 8606TIP3    H225758   0.248   6.569   3.085  2.2153 -0.0506  0.6607
 8607TIP3   OH225759   6.097   6.702   3.718 -0.3349 -0.7746 -0.2255
 8607TIP3    H125760   6.169   6.639   3.711  0.5944  0.1470  0.9659
 8607TIP3    H225761   6.037   6.664   3.782  0.4611 -0.2204  0.8472
 8608TIP3   OH225762   5.769   6.002   2.681  0.2376  0.0915 -0.5550
 8608TIP3    H125763   5.834   6.043   2.737 -0.2324  1.4501 -0.9792
 8608TIP3    H225764   5.758   5.914   2.717  1.5347  0.2069  0.1455
 8609TIP3   OH225765   5.363   5.010   3.013  0.3073  0.3545 -0.8215
 8609TIP3    H125766   5.431   4.949   2.984  0.6675  0.0339  0.6340
 8609TIP3    H225767   5.313   4.961   3.079  0.8396  1.7440  0.6577
 8610TIP3   OH225768   6.481   4.663   4.780  0.3108  0.4559  0.1982
 8610TIP3    H125769   6.490   4.681   4.686 -0.8241  1.1112  0.1976
 8610TIP3    H225770   6.571   4.653   4.811  0.6319 -1.9487 -1.3559
 8611TIP3   OH225771   7.104   6.176   2.600  0.3382 -0.1074  0.4884
 8611TIP3    H125772   7.121   6.181   2.506  0.8649  0.9624  0.6277
 8611TIP3    H225773   7.030   6.115   2.609  0.4883 -0.4501 -0.5850
 8612TIP3   OH225774   5.449   5.068   1.853  0.5689 -0.2558  0.0835
 8612TIP3    H125775   5.462   4.991   1.797  0.6991 -0.2005  0.0376
 8612TIP3    H225776   5.383   5.041   1.917  0.1551 -0.2017 -0.3200
 8613TIP3   OH225777   6.861   5.378   4.793  0.0551  0.7602  0.1216
 8613TIP3    H125778   6.805   5.441   4.747 -0.4007  1.0624  1.0783
 8613TIP3    H225779   6.915   5.432   4.851  1.6158  0.5045 -1.0722
 8614TIP3   OH225780   6.299   7.091   1.003  0.2710 -0.5941  0.1961
 8614TIP3    H125781   6.343   7.105   0.919 -0.1104 -0.1010  0.0818
 8614TIP3    H225782   6.220   7.043   0.981 -0.1009  0.0099  0.2139
 8615TIP3   OH225783   7.528   6.763   4.962  0.1012  0.3436  0.1744
 8615TIP3    H125784   7.541   6.669   4.975 -0.3056  0.3297  0.4732
 8615TIP3    H225785   7.543   6.801   5.049  0.2301  0.5549  0.0607
 8616TIP3   OH225786   5.883   5.042   1.768  0.3343 -0.8560  0.0715
 8616TIP3    H125787   5.968   5.016   1.732  0.3083 -0.5440 -0.2180
 8616TIP3    H225788   5.819   5.003   1.709  0.3156  2.1395 -2.0001
 8617TIP3   OH225789   3.375   5.018   4.432 -0.0523 -0.4242 -0.1327
 8617TIP3    H125790   3.326   5.099   4.445 -0.5819 -0.5042 -1.4802
 8617TIP3    H225791   3.457   5.032   4.478 -0.1358  0.8910 -0.3566
 8618TIP3   OH225792   6.936   5.399   1.849  0.2843  0.6189 -0.2041
 8618TIP3    H125793   6.900   5.320   1.890  0.6242  0.7038  0.2669
 8618TIP3    H225794   6.994   5.366   1.780 -0.6367  0.4815 -0.9161
 8619TIP3   OH225795   7.016   7.125   3.762 -0.4663 -0.3070  0.3584
 8619TIP3    H125796   7.076   7.050   3.766  0.9789  0.7512 -0.6082
 8619TIP3    H225797   7.006   7.142   3.669 -1.4890  0.1590  0.5528
 8620TIP3   OH225798   6.066   6.499   2.529  0.1919  0.8868 -0.0964
 8620TIP3    H125799   6.050   6.434   2.596 -1.7911  1.9786  0.5619
 8620TIP3    H225800   6.027   6.462   2.450 -0.3912  0.9967  0.1359
 8621TIP3   OH225801   0.026   6.487   3.437  0.2262  0.0100 -0.4621
 8621TIP3    H125802   0.115   6.498   3.471  0.6477 -1.0412 -1.1940
 8621TIP3    H225803  -0.019   6.568   3.462  1.2174  0.3101  0.4173
 8622TIP3   OH225804   6.132   6.166   3.150 -0.0228  0.3753 -0.5186
 8622TIP3    H125805   6.117   6.172   3.245 -0.1109 -1.7915 -0.3813
 8622TIP3    H225806   6.070   6.227   3.112 -0.2226  1.0202  0.8034
 8623TIP3   OH225807   8.504   1.156   4.207 -0.6848  0.1089  0.0360
 8623TIP3    H125808   8.531   1.065   4.217  0.6966  0.3830 -1.0451
 8623TIP3    H225809   8.421   1.162   4.255  0.0661 -1.2868  1.5734
 8624TIP3   OH225810   7.141   4.126   4.780 -0.8422 -0.0852  0.0893
 8624TIP3    H125811   7.214   4.065   4.789 -0.6772  0.2196  0.8882
 8624TIP3    H225812   7.095   4.099   4.701  1.0497  0.6834 -1.2843
 8625TIP3   OH225813   8.207   5.581   1.178  0.1801 -0.1650  0.4801
 8625TIP3    H125814   8.235   5.671   1.191  0.2437  0.1872 -1.8319
 8625TIP3    H225815   8.114   5.588   1.156  0.0253 -0.7162  0.9454
 8626TIP3   OH225816   4.784   6.008   1.576  0.1206  0.2837 -0.4540
 8626TIP3    H125817   4.763   5.948   1.504 -1.3546  0.7214 -0.3965
 8626TIP3    H225818   4.764   6.095   1.542 -0.4537  0.5073  0.4367
 8627TIP3   OH225819   7.657   6.508   3.008  0.5900 -0.2558  0.6309
 8627TIP3    H125820   7.613   6.570   3.066  1.8928 -0.0986  1.4616
 8627TIP3    H225821   7.586   6.469   2.957 -0.4228  0.6262  1.3412
 8628TIP3   OH225822   4.826   7.574   3.941  0.2790  0.4665 -0.3485
 8628TIP3    H125823   4.767   7.530   3.880 -1.7136  3.4146 -0.6221
 8628TIP3    H225824   4.781   7.571   4.026  0.6976  0.8797 -0.1029
 8629TIP3   OH225825   6.162   5.769   2.682 -0.2783  0.0668  0.3494
 8629TIP3    H125826   6.090   5.755   2.620  0.7594  1.2509 -1.1761
 8629TIP3    H225827   6.207   5.685   2.686 -0.3657 -0.0192 -0.4781
 8630TIP3   OH225828   4.766   5.669   2.421 -0.4772  0.2137  0.3211
 8630TIP3    H125829   4.819   5.746   2.442 -1.7877  1.0112  0.7646
 8630TIP3    H225830   4.681   5.704   2.395 -0.6670 -1.0297 -0.8442
 8631TIP3   OH225831   7.460   7.388   1.193 -0.0875  0.5390  0.7055
 8631TIP3    H125832   7.380   7.410   1.145  0.5430 -0.5160 -0.8627
 8631TIP3    H225833   7.525   7.451   1.163  0.0877  0.4092  0.8084
 8632TIP3   OH225834   6.446   7.159   2.808 -0.2974  0.6125 -0.0709
 8632TIP3    H125835   6.377   7.096   2.828  2.2941 -1.2928  3.4074
 8632TIP3    H225836   6.434   7.229   2.872  0.9791  0.2415  0.5928
 8633TIP3   OH225837   6.895   6.447   2.159 -0.0308 -1.4255  0.2173
 8633TIP3    H125838   6.806   6.431   2.128 -0.1396 -1.1862  0.3974
 8633TIP3    H225839   6.889   6.439   2.254  0.0641 -1.0595  0.2572
 8634TIP3   OH225840   2.237   0.510   4.941 -0.2521 -0.4403 -0.4639
 8634TIP3    H125841   2.179   0.451   4.892 -1.5773 -0.6970  1.3586
 8634TIP3    H225842   2.183   0.541   5.014  2.1161 -1.1411  1.6188
 8635TIP3   OH225843   4.581   7.660   4.089 -0.6912  0.8290  0.3120
 8635TIP3    H125844   4.536   7.625   4.012 -0.5902  0.0879  0.5939
 8635TIP3    H225845   4.533   7.624   4.164  0.4143 -0.0294  0.6154
 8636TIP3   OH225846   7.841   0.222   3.089 -0.2983  0.1808  0.5755
 8636TIP3    H125847   7.882   0.308   3.097 -0.5309  0.2029  1.6700
 8636TIP3    H225848   7.798   0.223   3.003 -1.3451  1.6288  1.0912
 8637TIP3   OH225849   7.177   7.339   1.527 -0.3330  0.1585 -0.1417
 8637TIP3    H125850   7.103   7.397   1.547  0.1963  0.6039  0.5343
 8637TIP3    H225851   7.255   7.391   1.547  0.1646 -0.4245 -0.5418
 8638TIP3   OH225852   6.095   6.939   2.675  0.1039 -0.3162 -0.2418
 8638TIP3    H125853   6.118   6.846   2.674  1.2087 -0.0989  2.6032
 8638TIP3    H225854   6.115   6.968   2.586  0.9886 -2.5023 -0.8169
 8639TIP3   OH225855   6.734   7.162   4.034  0.2547 -0.2204 -0.4111
 8639TIP3    H125856   6.716   7.088   3.976  1.4414 -0.6157 -0.2925
 8639TIP3    H225857   6.697   7.136   4.119 -1.5638  0.3981 -0.9747
 8640TIP3   OH225858   4.996   6.313   3.935 -0.9725 -0.4057  0.5438
 8640TIP3    H125859   5.078   6.280   3.971  1.2680  1.0472 -2.9798
 8640TIP3    H225860   5.001   6.408   3.946 -1.2818 -0.1381 -1.4769
 8641TIP3   OH225861   3.721   5.575   4.485 -0.2952 -0.1804 -0.0598
 8641TIP3    H125862   3.726   5.491   4.531 -0.1490 -0.2268 -0.1559
 8641TIP3    H225863   3.796   5.574   4.426 -1.5577 -0.9354 -1.6704
 8642TIP3   OH225864   6.476   6.077   3.743  0.2297  0.0573 -0.0575
 8642TIP3    H125865   6.563   6.114   3.749  1.5236 -2.7400 -0.5500
 8642TIP3    H225866   6.469   6.019   3.820 -2.2062  2.1745  1.4198
 8643TIP3   OH225867   7.309   6.555   2.114  0.0033  0.0619  0.0911
 8643TIP3    H125868   7.291   6.632   2.060  0.6407  1.0511  1.2749
 8643TIP3    H225869   7.240   6.492   2.090 -0.2833  0.8381 -1.1645
 8644TIP3   OH225870   6.434   5.660   2.980 -0.5796  0.0023 -0.2590
 8644TIP3    H125871   6.472   5.664   3.067 -3.2495 -2.0749  1.0771
 8644TIP3    H225872   6.510   5.662   2.921  1.4106 -0.7694  2.1779
 8645TIP3   OH225873   5.303   3.937   1.286  0.2525  0.2168 -0.3830
 8645TIP3    H125874   5.329   3.975   1.202 -0.1276  1.9597  0.2677
 8645TIP3    H225875   5.385   3.915   1.329  0.4655 -0.1768 -0.9914
 8646TIP3   OH225876   6.186   6.223   5.813 -0.1505  0.6516 -0.3935
 8646TIP3    H125877   6.188   6.220   5.717  0.1531  2.2198 -0.4411
 8646TIP3    H225878   6.242   6.150   5.840  0.4996  0.7675 -1.4112
 8647TIP3   OH225879   4.147   4.936   3.875 -0.7254 -0.2758  0.1387
 8647TIP3    H125880   4.201   5.015   3.886 -0.9603 -0.2991  1.6785
 8647TIP3    H225881   4.102   4.926   3.960 -0.3184 -2.3421  0.1421
 8648TIP3   OH225882   7.740   0.183   1.353 -0.8379 -0.0924 -0.4971
 8648TIP3    H125883   7.805   0.207   1.419 -0.5328  1.5735 -1.3614
 8648TIP3    H225884   7.656   0.191   1.398 -0.5800  0.1484 -0.0521
 8649TIP3   OH225885   4.423   6.859   5.444 -0.1956  0.4744 -0.0963
 8649TIP3    H125886   4.518   6.856   5.433 -0.2547  1.1834 -0.8044
 8649TIP3    H225887   4.410   6.890   5.534  0.2376 -0.1349  0.1862
 8650TIP3   OH225888   6.382   5.076   3.143 -0.2198  0.0927 -0.0924
 8650TIP3    H125889   6.441   5.128   3.088  0.4162 -0.2221  0.2827
 8650TIP3    H225890   6.429   5.066   3.225 -0.1250 -1.4989 -0.3358
 8651TIP3   OH225891   6.820   7.751   3.837  0.0927  0.1268 -0.2868
 8651TIP3    H125892   6.909   7.725   3.814  0.5376  0.1975  1.2937
 8651TIP3    H225893   6.780   7.774   3.753  1.0877 -1.3067 -1.1854
 8652TIP3   OH225894   5.248   4.557   0.607  0.1540  0.0995 -0.2655
 8652TIP3    H125895   5.243   4.464   0.587  0.0798  0.3195 -1.2950
 8652TIP3    H225896   5.177   4.597   0.557 -1.4202  0.3984  2.1112
 8653TIP3   OH225897   5.396   7.254   3.987  0.0952  0.1555 -0.4241
 8653TIP3    H125898   5.402   7.338   3.941 -0.8819  0.0778 -0.7017
 8653TIP3    H225899   5.472   7.205   3.956 -0.4140  0.1991 -1.7893
 8654TIP3   OH225900   3.997   6.551   5.724  0.2655  0.2665  0.3906
 8654TIP3    H125901   4.060   6.617   5.695  0.0787  0.3046  0.0746
 8654TIP3    H225902   4.014   6.541   5.818  0.8527  0.1540  0.2711
 8655TIP3   OH225903   7.213   5.712   3.283  0.1482 -0.7496 -0.0693
 8655TIP3    H125904   7.145   5.699   3.217 -0.1234  0.9601 -0.1486
 8655TIP3    H225905   7.243   5.623   3.305 -0.9974 -1.4230 -1.1820
 8656TIP3   OH225906   6.728   7.000   3.376 -0.6676 -0.5103 -0.1510
 8656TIP3    H125907   6.646   6.992   3.327  0.4206 -1.9806 -1.7670
 8656TIP3    H225908   6.774   6.918   3.361  2.6928  1.6126 -2.2290
 8657TIP3   OH225909   5.025   5.077   1.659 -0.3539 -0.3122 -0.0278
 8657TIP3    H125910   4.949   5.032   1.695 -0.7854  0.2089 -0.2764
 8657TIP3    H225911   5.078   5.008   1.619 -0.9148 -0.6159 -0.2449
 8658TIP3   OH225912   6.573   5.726   4.270 -0.4206 -0.9843  0.2317
 8658TIP3    H125913   6.666   5.745   4.270 -0.6926  0.3900 -0.5245
 8658TIP3    H225914   6.531   5.809   4.295 -1.5082 -1.1729 -0.9309
 8659TIP3   OH225915   0.977   0.175   3.860  0.4005  0.4704 -0.2521
 8659TIP3    H125916   0.999   0.266   3.840  0.5869  0.1452 -1.5736
 8659TIP3    H225917   0.882   0.170   3.846  0.3415  0.5427  0.1298
 8660TIP3   OH225918   4.497   5.085   0.251  0.1448  0.2385 -0.7371
 8660TIP3    H125919   4.454   5.161   0.211  0.8691  0.4747 -1.0920
 8660TIP3    H225920   4.588   5.113   0.263 -0.3685  0.6786  2.4586
 8661TIP3   OH225921   2.032   0.986   1.641 -0.2896 -0.3344 -0.0425
 8661TIP3    H125922   2.053   1.077   1.660 -1.0632 -0.5733  2.0418
 8661TIP3    H225923   1.936   0.983   1.638 -0.3747 -1.5963  2.7431
 8662TIP3   OH225924   5.601   7.344   3.646  0.1791 -0.2314 -0.0817
 8662TIP3    H125925   5.603   7.250   3.629  0.4865 -0.2015 -0.2161
 8662TIP3    H225926   5.692   7.372   3.638  0.2233 -0.0845  0.8665
 8663TIP3   OH225927   5.415   6.421   4.213  0.1848  0.6883  0.0866
 8663TIP3    H125928   5.472   6.416   4.136  0.6480 -1.3723  0.5378
 8663TIP3    H225929   5.432   6.508   4.250  1.4273  0.9261 -1.0247
 8664TIP3   OH225930   3.742   5.348   3.563  0.3608  0.3854  0.0283
 8664TIP3    H125931   3.777   5.333   3.475 -0.9036 -0.7132 -0.3080
 8664TIP3    H225932   3.742   5.443   3.573  0.3184  0.5240 -1.2425
 8665TIP3   OH225933   0.474   6.611   1.714  0.0519  0.1539 -0.2953
 8665TIP3    H125934   0.483   6.545   1.645  1.4727  0.6433 -0.5910
 8665TIP3    H225935   0.458   6.693   1.667 -0.1102  0.3009  0.0141
 8666TIP3   OH225936   6.908   7.069   1.561  0.4718 -0.0155  0.3251
 8666TIP3    H125937   6.852   7.147   1.567 -0.6930 -0.7611 -0.5664
 8666TIP3    H225938   6.888   7.019   1.640  0.4270  0.0835  0.3770
 8667TIP3   OH225939   6.403   5.964   2.914  0.4473  0.4844  0.4637
 8667TIP3    H125940   6.367   5.902   2.976  1.7261  0.3306  1.0651
 8667TIP3    H225941   6.332   5.982   2.853 -0.4747 -0.1857  1.3451
 8668TIP3   OH225942   8.191   7.990   4.941 -0.0018 -0.7562 -0.5311
 8668TIP3    H125943   8.115   8.036   4.976  0.2137  0.0623 -1.1399
 8668TIP3    H225944   8.154   7.923   4.883 -0.2918 -1.0666  0.0053
 8669TIP3   OH225945   7.944   5.793   2.303  0.2142  0.7350  0.2408
 8669TIP3    H125946   7.969   5.862   2.365  1.0681 -0.5638  1.3707
 8669TIP3    H225947   7.868   5.752   2.342 -1.0935  1.8617 -1.0752
 8670TIP3   OH225948   5.032   6.319   4.788  0.2943 -0.1916  0.4430
 8670TIP3    H125949   4.949   6.335   4.743  0.4272 -0.0119  0.2602
 8670TIP3    H225950   5.068   6.241   4.745  1.6434  1.4590 -1.5136
 8671TIP3   OH225951   7.262   7.971   1.039  0.4041  0.2318  0.2459
 8671TIP3    H125952   7.307   7.895   1.076  1.6024  1.7406  1.9782
 8671TIP3    H225953   7.272   7.961   0.945 -1.1486 -2.7525  0.3325
 8672TIP3   OH225954   4.901   7.314   3.568 -0.4808 -0.2100  0.7349
 8672TIP3    H125955   4.986   7.346   3.538 -1.4859  0.7001 -1.3207
 8672TIP3    H225956   4.921   7.256   3.641  1.8038  0.9680  1.1136
 8673TIP3   OH225957   0.881   0.591   3.405 -0.2930 -0.0825  0.0391
 8673TIP3    H125958   0.844   0.509   3.437 -1.8070  0.6746  0.2497
 8673TIP3    H225959   0.817   0.658   3.429  1.5640  1.3656  1.1328
 8674TIP3   OH225960   6.027   7.216   3.600 -0.0103  0.4824 -0.1882
 8674TIP3    H125961   6.014   7.140   3.657  0.1783 -0.0026 -0.7911
 8674TIP3    H225962   6.100   7.263   3.640 -0.2082  0.4243  0.2566
 8675TIP3   OH225963   8.214   5.903   1.224 -0.5143 -0.2745 -0.1221
 8675TIP3    H125964   8.126   5.871   1.241 -0.6631 -0.8182 -1.8552
 8675TIP3    H225965   8.202   5.995   1.202 -0.3363  0.3911  2.4396
 8676TIP3   OH225966   6.659   6.755   4.030 -0.0628  0.1156 -0.2478
 8676TIP3    H125967   6.610   6.687   3.984  1.4588 -1.1290 -0.0938
 8676TIP3    H225968   6.605   6.779   4.104 -0.1476 -1.7279  0.3141
 8677TIP3   OH225969   5.162   7.091   3.054 -0.1676  0.4943 -0.1439
 8677TIP3    H125970   5.128   7.129   2.973  0.7346  0.7161 -0.4265
 8677TIP3    H225971   5.257   7.091   3.042 -0.1194 -1.2661  0.1163
 8678TIP3   OH225972   3.168   0.085   3.581 -0.2751 -0.7218  0.5177
 8678TIP3    H125973   3.119   0.104   3.661 -0.4908  0.8486  0.0265
 8678TIP3    H225974   3.240   0.028   3.610 -0.5843 -0.5066  1.7525
 8679TIP3   OH225975   0.289   6.600   2.817  0.5027 -0.7090 -0.6097
 8679TIP3    H125976   0.211   6.617   2.764  1.9414  0.3623 -2.4235
 8679TIP3    H225977   0.263   6.528   2.874 -1.0369 -2.0300 -2.8896
 8680TIP3   OH225978   8.215   7.509   3.848  0.5568  0.0512  0.7886
 8680TIP3    H125979   8.140   7.544   3.895  0.6046 -1.1077  1.7462
 8680TIP3    H225980   8.186   7.422   3.819  0.9418  0.2781 -0.3073
 8681TIP3   OH225981   7.518   4.008   2.680  0.3249  0.5029  0.0202
 8681TIP3    H125982   7.441   4.055   2.711 -0.8596 -2.1427  1.1399
 8681TIP3    H225983   7.489   3.963   2.600  0.9272  0.1380  0.0028
 8682TIP3   OH225984   5.421   6.718   4.131  0.0537 -0.4850  0.2675
 8682TIP3    H125985   5.332   6.687   4.143  0.2113 -0.6560  1.0468
 8682TIP3    H225986   5.465   6.696   4.213  1.7993 -3.7622 -1.4447
 8683TIP3   OH225987   4.589   4.603   1.719 -0.1430  0.0468 -0.7810
 8683TIP3    H125988   4.544   4.530   1.762  2.1868 -0.4498  0.9286
 8683TIP3    H225989   4.644   4.561   1.654  3.9778 -0.1820  2.6369
 8684TIP3   OH225990   6.129   6.919   3.545  0.2656 -0.0224 -0.0628
 8684TIP3    H125991   6.095   6.884   3.627  0.2718 -1.8592 -0.8215
 8684TIP3    H225992   6.202   6.861   3.522  0.2210  0.4261 -1.3912
 8685TIP3   OH225993   7.706   6.875   2.945  0.2828 -0.5175  0.0122
 8685TIP3    H125994   7.628   6.918   2.910  1.2040  0.5083 -0.7981
 8685TIP3    H225995   7.676   6.837   3.028 -1.7959 -2.5833 -1.6239
 8686TIP3   OH225996   7.107   7.747   3.739 -0.2423  0.0391  0.7339
 8686TIP3    H125997   7.082   7.655   3.742  1.4400 -0.4357  0.7009
 8686TIP3    H225998   7.163   7.759   3.816 -1.6648  1.4280  1.6075
 8687TIP3   OH225999   0.910   0.504   0.965  0.1135 -0.0176  0.8845
 8687TIP3    H126000   0.876   0.591   0.984 -1.6213 -0.5054  0.1276
 8687TIP3    H226001   0.927   0.503   0.871  0.7919 -0.2717  1.0048
 8688TIP3   OH226002   7.962   4.741   4.354  0.1072 -0.7175 -0.6259
 8688TIP3    H126003   8.005   4.658   4.333 -0.1023 -1.4610  1.7526
 8688TIP3    H226004   7.935   4.731   4.445 -0.1675  1.8688 -0.4100
 8689TIP3   OH226005   5.557   6.845   3.591  0.1744 -0.1388  0.0885
 8689TIP3    H126006   5.565   6.847   3.687  1.4024  1.6391 -0.0213
 8689TIP3    H226007   5.643   6.875   3.560 -0.7988  1.0507 -1.5373
 8690TIP3   OH226008   8.187   0.869   4.907 -0.1559  0.2046  0.4986
 8690TIP3    H126009   8.164   0.884   4.816  0.0660  1.1906  0.5946
 8690TIP3    H226010   8.283   0.861   4.907 -0.2564 -1.1219  0.4719
 8691TIP3   OH226011   6.611   7.215   0.999 -0.3984 -0.1276 -0.8018
 8691TIP3    H126012   6.611   7.128   0.959  0.8628  0.0186 -1.1488
 8691TIP3    H226013   6.635   7.274   0.927  3.6286 -0.0548  0.4824
 8692TIP3   OH226014   5.059   6.606   2.213  0.1401  0.0328 -0.3983
 8692TIP3    H126015   4.986   6.667   2.213 -0.3039 -0.4903 -0.9084
 8692TIP3    H226016   5.107   6.625   2.132 -0.7553 -1.1798 -1.2247
 8693TIP3   OH226017   4.363   5.252   1.533 -0.2831 -0.5113  0.0439
 8693TIP3    H126018   4.326   5.321   1.478 -0.4655 -0.6823 -0.0500
 8693TIP3    H226019   4.330   5.171   1.494  1.2762 -0.7267 -0.8532
 8694TIP3   OH226020   6.690   7.239   3.634  0.3080  0.1985 -0.2427
 8694TIP3    H126021   6.752   7.254   3.562  0.1957  0.1591 -0.3461
 8694TIP3    H226022   6.746   7.224   3.711  0.4261  0.5553 -0.2571
 8695TIP3   OH226023   7.190   5.852   2.579  0.4590  0.3769  0.0187
 8695TIP3    H126024   7.101   5.874   2.551  0.0503 -1.4439 -0.1496
 8695TIP3    H226025   7.243   5.924   2.545 -0.7793  0.8897 -0.8878
 8696TIP3   OH226026   6.790   5.871   3.818  0.4535 -0.4179 -0.3072
 8696TIP3    H126027   6.825   5.803   3.875 -1.1419  0.2287  1.5219
 8696TIP3    H226028   6.739   5.823   3.752  0.8620 -1.0827 -0.1453
 8697TIP3   OH226029   6.546   6.505   3.941  0.1578 -0.1003 -0.0210
 8697TIP3    H126030   6.569   6.490   3.849  1.6071 -0.8453  0.4301
 8697TIP3    H226031   6.460   6.465   3.951  0.2809 -0.6047 -0.9001
 8698TIP3   OH226032   5.293   5.840   2.666  0.8828 -0.0423 -0.1709
 8698TIP3    H126033   5.347   5.772   2.706  1.2024 -0.1716 -0.8193
 8698TIP3    H226034   5.216   5.845   2.722  0.5545 -1.3964 -0.4796
 8699TIP3   OH226035   6.615   5.260   2.606 -0.4592  0.4396  0.1009
 8699TIP3    H126036   6.637   5.171   2.579  1.4571  0.9069 -0.0154
 8699TIP3    H226037   6.661   5.270   2.690  0.9937  1.9598 -0.8439
 8700TIP3   OH226038   4.102   6.916   0.967 -0.6109 -0.0596  0.9191
 8700TIP3    H126039   4.102   6.854   1.039  1.2922 -2.1147 -0.7794
 8700TIP3    H226040   4.166   6.983   0.993 -0.6599 -0.2726  1.5836
 8701TIP3   OH226041   7.045   6.778   2.365 -0.4540  0.2803 -0.1192
 8701TIP3    H126042   7.080   6.850   2.418  0.6673 -0.4187  0.1156
 8701TIP3    H226043   7.091   6.700   2.397 -4.3032 -1.1816  2.1338
 8702TIP3   OH226044   5.865   6.367   5.510 -0.3222 -0.0150 -0.1426
 8702TIP3    H126045   5.827   6.281   5.527  0.1108 -0.2884 -0.5385
 8702TIP3    H226046   5.791   6.420   5.481 -1.2376  0.7244  3.3836
 8703TIP3   OH226047   3.553   5.418   5.880  0.1826  0.2646  0.0260
 8703TIP3    H126048   3.629   5.419   5.822 -1.1711 -0.8919 -1.8108
 8703TIP3    H226049   3.488   5.367   5.833 -1.9179  1.6590  1.3558
 8704TIP3   OH226050   5.355   5.930   1.596 -0.0044 -0.5049  0.3967
 8704TIP3    H126051   5.326   5.839   1.598  1.0509 -0.8739 -0.4742
 8704TIP3    H226052   5.448   5.926   1.619 -0.6470  0.6772  3.4182
 8705TIP3   OH226053   5.368   7.817   2.163  0.2958 -0.0599  0.1768
 8705TIP3    H126054   5.320   7.819   2.080  1.3635 -0.7728 -0.4689
 8705TIP3    H226055   5.460   7.815   2.138  0.6263 -0.4716  1.3699
 8706TIP3   OH226056   6.056   7.907   2.740  0.0989 -0.6349  0.1471
 8706TIP3    H126057   6.010   7.969   2.797 -0.1430 -1.4018  0.7860
 8706TIP3    H226058   6.080   7.835   2.798 -1.2815 -2.0275 -0.9736
 8707TIP3   OH226059   5.323   5.367   4.087  0.1820  0.0648  0.4144
 8707TIP3    H126060   5.244   5.357   4.033  0.0180 -2.4245  1.0756
 8707TIP3    H226061   5.389   5.400   4.026 -0.5259 -0.8425 -0.8809
 8708TIP3   OH226062   5.298   5.959   2.078 -0.1643  0.4755 -0.2396
 8708TIP3    H126063   5.358   5.884   2.077  1.3021  1.5830  1.1231
 8708TIP3    H226064   5.336   6.020   2.014  0.0488  1.0874  0.4681
 8709TIP3   OH226065   3.759   5.052   6.093 -0.7884 -0.2673  0.0826
 8709TIP3    H126066   3.852   5.067   6.076 -0.2615 -1.7137  1.6300
 8709TIP3    H226067   3.744   4.960   6.071 -1.6578 -0.2681  0.6360
 8710TIP3   OH226068   6.524   6.338   1.709  0.0950 -0.0455 -0.1614
 8710TIP3    H126069   6.458   6.270   1.691  0.6895 -0.6006 -0.2467
 8710TIP3    H226070   6.481   6.396   1.772 -0.4448 -0.4653 -0.1346
 8711TIP3   OH226071   7.798   7.662   2.143 -0.5863  0.4086 -0.1710
 8711TIP3    H126072   7.715   7.703   2.118 -1.3757 -1.3801 -0.5598
 8711TIP3    H226073   7.862   7.699   2.082 -1.4201  0.5149 -0.9942
 8712TIP3   OH226074   4.815   6.465   2.816  0.4406  0.7375 -0.3411
 8712TIP3    H126075   4.868   6.532   2.858 -0.6441  2.8208 -2.1836
 8712TIP3    H226076   4.878   6.412   2.767  1.2780  0.5432  0.9270
 8713TIP3   OH226077   5.771   6.708   2.920  0.0005  0.7824 -0.0813
 8713TIP3    H126078   5.863   6.686   2.913 -0.2860 -0.9147  1.3350
 8713TIP3    H226079   5.769   6.789   2.971  0.6770  0.4580  0.4645
 8714TIP3   OH226080   0.722   0.110   4.442 -0.0552 -0.0594 -0.3862
 8714TIP3    H126081   0.796   0.106   4.502 -0.6886  2.5438  0.6197
 8714TIP3    H226082   0.645   0.102   4.498 -0.6082  0.3649 -1.0751
 8715TIP3   OH226083   8.267   0.176   4.587  0.2732 -0.1117  0.0543
 8715TIP3    H126084   8.188   0.231   4.590 -0.2009 -0.7482 -0.5802
 8715TIP3    H226085   8.310   0.192   4.671 -1.4421 -1.0837  1.1319
 8716TIP3   OH226086   6.589   7.224   4.299 -0.2710 -0.6950 -0.7782
 8716TIP3    H126087   6.514   7.215   4.358  0.3862  1.6802  0.4965
 8716TIP3    H226088   6.551   7.216   4.211 -1.6928 -1.5652 -0.1104
 8717TIP3   OH226089   0.378   0.147   3.435  0.2053 -0.8986  0.6168
 8717TIP3    H126090   0.316   0.075   3.424 -2.0911  1.0331  0.3821
 8717TIP3    H226091   0.376   0.166   3.529 -0.8230  0.2051  0.3881
 8718TIP3   OH226092   5.881   5.123   4.901  0.2127  0.4985 -0.1846
 8718TIP3    H126093   5.954   5.141   4.842  2.5236 -2.8629  1.4921
 8718TIP3    H226094   5.910   5.157   4.986 -0.2049 -0.7441  0.4676
 8719TIP3   OH226095   5.813   7.531   3.779  0.4643 -0.5167 -0.3031
 8719TIP3    H126096   5.848   7.591   3.845  0.4362  0.6289 -1.3178
 8719TIP3    H226097   5.803   7.447   3.826  0.9970  0.1220  0.9810
 8720TIP3   OH226098   6.701   6.255   4.562 -0.1083  0.3890 -0.0248
 8720TIP3    H126099   6.789   6.222   4.543  0.2105  1.5328 -0.6181
 8720TIP3    H226100   6.711   6.304   4.643 -0.6981 -1.3971  1.1549
 8721TIP3   OH226101   4.438   6.026   3.394 -0.1058  0.6307 -0.2675
 8721TIP3    H126102   4.484   6.091   3.340 -0.8256  1.7569  0.4472
 8721TIP3    H226103   4.445   6.060   3.483 -1.6032  0.4062 -0.0483
 8722TIP3   OH226104   5.624   7.064   3.955 -0.0382 -0.0886  0.2016
 8722TIP3    H126105   5.705   7.039   3.911  0.1015  0.7996 -0.0663
 8722TIP3    H226106   5.556   7.012   3.912  0.1272  0.6296 -0.9546
 8723TIP3   OH226107   6.079   7.003   4.383 -0.0246  0.5274 -0.5474
 8723TIP3    H126108   6.155   7.060   4.369 -0.0191  0.9643  1.1590
 8723TIP3    H226109   6.117   6.915   4.393  0.4708  0.9958  2.1507
 8724TIP3   OH226110   5.134   6.472   3.091  0.3215 -0.6078  0.2378
 8724TIP3    H126111   5.194   6.413   3.045  0.9222 -0.5142  0.8982
 8724TIP3    H226112   5.143   6.556   3.045  0.1311 -0.7906 -0.1393
 8725TIP3   OH226113   4.752   5.297   2.844 -0.4934 -0.3194 -0.0102
 8725TIP3    H126114   4.800   5.375   2.870 -0.4821 -0.3602  0.0909
 8725TIP3    H226115   4.783   5.279   2.755 -1.2537  0.3942 -0.4312
 8726TIP3   OH226116   6.640   6.194   4.299 -0.0935  0.5953 -0.4492
 8726TIP3    H126117   6.600   6.281   4.288 -2.6049 -0.2177  1.5630
 8726TIP3    H226118   6.647   6.183   4.394  3.6265  0.0278 -0.7167
 8727TIP3   OH226119   7.779   6.689   3.402 -0.2653  0.3566 -0.3140
 8727TIP3    H126120   7.766   6.594   3.404  0.6233  0.2124 -1.1232
 8727TIP3    H226121   7.743   6.717   3.318  0.9654  0.4990 -0.8051
 8728TIP3   OH226122   6.101   5.367   4.854  0.0248 -0.1303  0.1616
 8728TIP3    H126123   6.052   5.431   4.905  1.0982  1.6206 -0.9466
 8728TIP3    H226124   6.164   5.330   4.916  0.4596  1.0634  0.4485
 8729TIP3   OH226125   7.533   6.767   4.113 -0.1327  0.6384  0.0576
 8729TIP3    H126126   7.563   6.830   4.047 -0.2263  0.2159 -0.3994
 8729TIP3    H226127   7.445   6.743   4.084  0.8275 -1.5506 -1.1583
 8730TIP3   OH226128   7.576   7.074   5.074 -0.3600  0.1891 -0.2035
 8730TIP3    H126129   7.495   7.094   5.121 -1.1073 -1.5707 -0.7101
 8730TIP3    H226130   7.558   7.097   4.983  0.5864  2.1886  0.0932
 8731TIP3   OH226131   5.168   6.338   3.323  0.1525  0.1273 -0.6030
 8731TIP3    H126132   5.220   6.272   3.277 -0.4419 -0.1991 -0.8041
 8731TIP3    H226133   5.145   6.402   3.255  1.0074  0.7199 -0.3432
 8732TIP3   OH226134   4.599   6.240   6.288 -0.5927 -0.4786 -0.3098
 8732TIP3    H126135   4.588   6.263   6.381 -1.7423  1.0506 -0.7993
 8732TIP3    H226136   4.562   6.153   6.281 -1.1574 -0.3196  0.5364
 8733TIP3   OH226137   5.075   4.499   5.453 -0.7288 -0.0259 -0.1012
 8733TIP3    H126138   5.041   4.558   5.385 -1.3475 -0.9763 -0.6381
 8733TIP3    H226139   5.008   4.502   5.522 -1.4536 -1.1180 -0.7209
 8734TIP3   OH226140   5.889   6.861   4.206  0.2093  0.1581 -0.0239
 8734TIP3    H126141   5.800   6.868   4.240  0.1752 -0.0085 -0.0781
 8734TIP3    H226142   5.943   6.912   4.267  0.0192  0.5828 -0.2086
 8735TIP3   OH226143   4.120   5.022   4.395  0.3004 -0.4400 -0.1557
 8735TIP3    H126144   4.067   4.981   4.463 -0.0543  1.6533  0.8731
 8735TIP3    H226145   4.160   5.097   4.438 -1.3316  1.9663 -2.6599
 8736TIP3   OH226146   6.931   7.494   4.437 -0.2317  0.5017  0.0938
 8736TIP3    H126147   6.851   7.534   4.404  0.2510  0.5963 -1.0105
 8736TIP3    H226148   6.955   7.429   4.371 -0.2962 -0.6887  1.2375
 8737TIP3   OH226149   5.020   7.823   4.349  0.7460  0.0030 -0.2980
 8737TIP3    H126150   4.931   7.835   4.316  0.5427 -0.4926  0.0643
 8737TIP3    H226151   5.065   7.776   4.280  0.9856  1.0452 -0.8687
 8738TIP3   OH226152   5.091   5.644   3.131 -0.0934 -0.2824 -0.3532
 8738TIP3    H126153   5.051   5.559   3.113  1.5825 -1.1599 -0.0269
 8738TIP3    H226154   5.154   5.626   3.201 -0.7270  1.5047  0.7090
 8739TIP3   OH226155   4.283   7.485   3.181  0.1040 -0.1175 -0.0891
 8739TIP3    H126156   4.374   7.514   3.182  0.1411 -0.2354  0.5662
 8739TIP3    H226157   4.279   7.416   3.248 -0.4869 -0.0478 -0.0476
 8740TIP3   OH226158   6.220   7.303   3.754 -0.1974  0.6183  0.1933
 8740TIP3    H126159   6.302   7.257   3.773 -0.8341 -0.6423 -0.0408
 8740TIP3    H226160   6.243   7.396   3.757  1.9979  0.2816 -3.1534
 8741TIP3   OH226161   5.493   7.234   3.262 -0.2437 -0.1741  0.4590
 8741TIP3    H126162   5.580   7.201   3.285 -1.3370 -3.3976  0.2027
 8741TIP3    H226163   5.454   7.164   3.209 -2.7365  1.5205 -0.0179
 8742TIP3   OH226164   8.315   6.565   4.691 -0.0496 -0.2184  0.2141
 8742TIP3    H126165   8.386   6.521   4.644 -0.7079 -2.4306  1.2040
 8742TIP3    H226166   8.359   6.624   4.751  0.8470  1.1156 -1.6960
 8743TIP3   OH226167   0.796  -0.016   0.413  0.1019  0.3966 -0.2644
 8743TIP3    H126168   0.872   0.039   0.392  0.2250 -0.3435 -1.8043
 8743TIP3    H226169   0.720   0.035   0.385  0.1712  0.0915 -1.0005
 8744TIP3   OH226170   1.314   0.102   2.212  0.3403 -0.4971  0.0349
 8744TIP3    H126171   1.354   0.124   2.296 -0.2933 -0.1305  0.2436
 8744TIP3    H226172   1.248   0.037   2.233 -0.8538  0.7005  0.0363
 8745TIP3   OH226173   1.905   1.040   2.682 -0.4182  0.0941  0.3810
 8745TIP3    H126174   1.826   1.065   2.634  0.4739  3.1906  0.4211
 8745TIP3    H226175   1.960   1.118   2.679  2.4932 -1.8890  0.6736
 8746TIP3   OH226176   8.164   6.643   3.391 -0.6992  0.1821  0.0261
 8746TIP3    H126177   8.188   6.588   3.465 -0.0411  0.0083 -0.3129
 8746TIP3    H226178   8.173   6.733   3.423  0.7168  0.1273 -0.1861
 8747TIP3   OH226179   6.657   6.501   3.299 -0.0217 -0.1880 -0.1160
 8747TIP3    H126180   6.685   6.573   3.357  0.3972  1.3807 -2.2233
 8747TIP3    H226181   6.574   6.531   3.262 -0.1901 -1.1084 -0.4831
 8748TIP3   OH226182   7.381   4.269   1.684 -0.5365 -0.1310  0.3362
 8748TIP3    H126183   7.362   4.299   1.596 -0.5863  2.1386  1.0736
 8748TIP3    H226184   7.463   4.314   1.707 -0.0924 -1.3322  1.1434
 8749TIP3   OH226185   1.076   6.457   1.876  0.0786  0.0848  0.4956
 8749TIP3    H126186   1.095   6.395   1.805 -0.1112  0.8744 -0.2525
 8749TIP3    H226187   1.022   6.407   1.937  0.6270 -0.7433  0.3173
 8750TIP3   OH226188   6.439   5.621   4.977 -0.0987 -1.1982  0.1378
 8750TIP3    H126189   6.376   5.670   4.924  0.2409 -0.6295  0.2529
 8750TIP3    H226190   6.408   5.531   4.975 -0.9516 -0.9062  0.2460
 8751TIP3   OH226191   7.423   6.390   2.959 -0.2143  0.1050 -0.3359
 8751TIP3    H126192   7.359   6.386   3.031 -0.1730  1.7618 -0.1939
 8751TIP3    H226193   7.384   6.337   2.890 -0.5359 -1.0204  0.6772
 8752TIP3   OH226194   8.218   4.799   3.810 -0.3809 -0.1914  0.0789
 8752TIP3    H126195   8.125   4.783   3.793 -0.2853  0.8400 -1.5586
 8752TIP3    H226196   8.245   4.859   3.740  0.6547  2.3372  2.5584
 8753TIP3   OH226197   5.266   5.387   0.831 -0.5686 -0.5694  0.9496
 8753TIP3    H126198   5.183   5.393   0.878 -1.7624 -0.7752 -1.0619
 8753TIP3    H226199   5.255   5.312   0.773  1.1413 -0.7600  0.8355
 8754TIP3   OH226200   6.156   5.211   3.494  0.2210 -0.5404 -0.4550
 8754TIP3    H126201   6.150   5.156   3.416 -1.2878 -0.5257 -0.3557
 8754TIP3    H226202   6.084   5.182   3.550  0.4565  0.3739  0.3414
 8755TIP3   OH226203   6.260   6.458   3.981  0.0578 -0.3563  0.0281
 8755TIP3    H126204   6.170   6.430   3.967 -0.1140  0.6050 -0.8008
 8755TIP3    H226205   6.256   6.514   4.058 -0.1912  0.3780 -0.5183
 8756TIP3   OH226206   6.164   3.713   3.186  0.4399 -0.3193 -0.1887
 8756TIP3    H126207   6.185   3.757   3.104  0.7543 -1.6823 -0.8567
 8756TIP3    H226208   6.072   3.689   3.178 -0.1749  1.5797  0.8341
 8757TIP3   OH226209   5.457   6.063   6.808  0.4753  0.4246 -0.2202
 8757TIP3    H126210   5.511   5.992   6.773  0.1462 -0.1479  0.4212
 8757TIP3    H226211   5.415   6.100   6.731  0.4765 -0.2293 -0.5433
 8758TIP3   OH226212   4.391   5.230   5.402 -0.4146 -0.4281  0.7538
 8758TIP3    H126213   4.423   5.277   5.325 -0.8906 -1.0070  0.1927
 8758TIP3    H226214   4.381   5.139   5.372 -0.6214 -0.6547  1.4931
 8759TIP3   OH226215   5.617   7.188   2.638 -0.1356  0.1619 -1.0396
 8759TIP3    H126216   5.568   7.229   2.710  2.5921  0.6926  0.6225
 8759TIP3    H226217   5.660   7.261   2.594  0.5340 -0.4228 -1.3706
 8760TIP3   OH226218   5.448   5.696   3.076  0.2805 -0.3907 -0.6960
 8760TIP3    H126219   5.538   5.663   3.083  0.1173 -0.5547  0.8488
 8760TIP3    H226220   5.452   5.783   3.116  0.0881  0.2972 -2.1237
 8761TIP3   OH226221   4.589   6.636   4.760 -0.0757 -0.5734 -0.7358
 8761TIP3    H126222   4.648   6.706   4.786 -1.2194 -0.7332  2.4037
 8761TIP3    H226223   4.642   6.556   4.765  0.0784 -0.4360 -0.1803
 8762TIP3   OH226224   0.163   5.547   3.520  0.0546 -0.1218  0.1133
 8762TIP3    H126225   0.215   5.549   3.600 -1.2213 -0.8616  0.9739
 8762TIP3    H226226   0.213   5.599   3.457  1.9086 -0.9686  0.8757
 8763TIP3   OH226227   0.083   2.544   1.061 -0.1764 -0.6415  0.6106
 8763TIP3    H126228   0.146   2.606   1.023 -2.3753  0.3499 -1.5119
 8763TIP3    H226229   0.128   2.510   1.139  3.0658 -0.1049 -0.9059
 8764TIP3   OH226230   4.074   7.405   4.120 -0.2908  0.2541  0.2542
 8764TIP3    H126231   4.000   7.382   4.063  1.0431 -2.0537 -0.5974
 8764TIP3    H226232   4.103   7.491   4.088 -2.2588  0.9547  0.2848
 8765TIP3   OH226233   8.508   7.255   2.989  0.8518 -0.5072  0.2419
 8765TIP3    H126234   8.462   7.265   2.905 -0.5401  0.4075  1.0952
 8765TIP3    H226235   8.486   7.334   3.037  2.7531 -0.4136  0.9581
 8766TIP3   OH226236   5.040   2.827   2.734 -0.2661  0.3994 -0.3783
 8766TIP3    H126237   4.976   2.837   2.804  0.7540 -1.7942  0.9050
 8766TIP3    H226238   4.987   2.807   2.656 -1.1983 -1.3281  0.6605
 8767TIP3   OH226239   5.019   5.770   4.388 -0.1210 -0.0099  0.8146
 8767TIP3    H126240   4.941   5.775   4.444  0.3085 -3.3114  1.8019
 8767TIP3    H226241   5.091   5.750   4.449  0.9247 -0.3300 -0.5112
 8768TIP3   OH226242   4.687   7.612   4.434 -0.2052 -0.3896  0.2578
 8768TIP3    H126243   4.775   7.576   4.418  0.5297  1.7532 -0.6994
 8768TIP3    H226244   4.629   7.556   4.383  1.0974  0.6806 -2.5032
 8769TIP3   OH226245   8.313   7.269   4.560 -0.3163  0.4638  0.4959
 8769TIP3    H126246   8.284   7.205   4.625 -0.2393 -0.0134  0.0614
 8769TIP3    H226247   8.238   7.282   4.503  0.4227 -1.0329 -0.8341
 8770TIP3   OH226248   6.018   7.383   3.397  0.4533 -0.2908 -0.6179
 8770TIP3    H126249   5.997   7.298   3.435  0.0630 -0.9496 -2.2705
 8770TIP3    H226250   6.008   7.444   3.470  0.8631 -1.6623  0.6225
 8771TIP3   OH226251   7.195   6.690   4.182  0.1795 -0.2321  0.0562
 8771TIP3    H126252   7.192   6.610   4.234 -0.1127  0.8739  1.7818
 8771TIP3    H226253   7.182   6.761   4.246  2.7737  1.3308 -1.0783
 8772TIP3   OH226254   6.885   7.709   4.130  0.1130 -0.2291  0.4451
 8772TIP3    H126255   6.817   7.736   4.192 -0.2366 -1.8879  0.8119
 8772TIP3    H226256   6.845   7.720   4.044 -0.6851 -1.3225  0.6628
 8773TIP3   OH226257   0.594   0.913   3.023  0.1234 -0.1122  0.1564
 8773TIP3    H126258   0.624   0.959   2.944 -0.0082 -0.8217 -0.3123
 8773TIP3    H226259   0.630   0.964   3.095 -1.1571  1.5219 -0.3244
 8774TIP3   OH226260   5.557   7.968   4.825 -0.2653 -0.1089  0.6075
 8774TIP3    H126261   5.543   7.905   4.754 -0.8639 -0.3186  0.9109
 8774TIP3    H226262   5.469   7.986   4.859  0.1478 -1.0729  2.2322
 8775TIP3   OH226263   7.077   6.217   5.362 -0.0855 -0.0759  0.0704
 8775TIP3    H126264   7.126   6.283   5.411  0.4242 -0.5779  0.2515
 8775TIP3    H226265   7.058   6.258   5.278  0.4781  0.2006  0.0734
 8776TIP3   OH226266   5.821   7.280   2.033 -0.0156 -0.0376 -0.2925
 8776TIP3    H126267   5.911   7.287   2.065 -0.2526  0.2447  0.3087
 8776TIP3    H226268   5.777   7.357   2.067 -1.1008 -1.3657  1.3801
 8777TIP3   OH226269   7.542   0.640   1.538 -0.0314  0.5053  0.1157
 8777TIP3    H126270   7.486   0.571   1.503 -1.4608  1.5185  0.3679
 8777TIP3    H226271   7.580   0.601   1.617  1.5583 -1.0356 -1.3542
 8778TIP3   OH226272   4.644   4.559   2.297 -0.1855  0.1157 -0.0039
 8778TIP3    H126273   4.592   4.608   2.360 -1.2626 -0.8320 -0.1407
 8778TIP3    H226274   4.581   4.505   2.250  0.7115  0.1560 -1.3041
 8779TIP3   OH226275  -0.006   0.217   1.997 -0.3509 -0.2337 -0.0749
 8779TIP3    H126276   0.041   0.264   1.928 -1.4120 -0.1721 -0.7756
 8779TIP3    H226277  -0.032   0.134   1.956 -1.3789 -0.0063  0.0942
 8780TIP3   OH226278   6.829   5.436   3.654  0.7444 -0.5396  0.6112
 8780TIP3    H126279   6.813   5.420   3.561  0.8072 -1.4197  0.7490
 8780TIP3    H226280   6.918   5.471   3.657  0.2227  0.8756  0.2056
 8781TIP3   OH226281   7.567   6.602   2.699 -0.0183  0.3955 -0.0858
 8781TIP3    H126282   7.590   6.673   2.638  0.2451  2.1517  2.0025
 8781TIP3    H226283   7.622   6.618   2.775  0.1758 -2.2137  0.3385
 8782TIP3   OH226284   7.633   5.471   4.711 -0.2714 -0.4348 -0.1226
 8782TIP3    H126285   7.714   5.496   4.666 -0.4725  0.3138 -0.0884
 8782TIP3    H226286   7.587   5.554   4.724 -1.4918 -0.9517 -1.0187
 8783TIP3   OH226287   5.270   5.283   3.091 -0.1255 -0.5968 -0.0815
 8783TIP3    H126288   5.337   5.321   3.148  0.3090  0.0373 -0.9934
 8783TIP3    H226289   5.296   5.191   3.081 -1.3666 -1.2599  2.4050
 8784TIP3   OH226290   5.922   5.843   1.268  0.1143 -0.3364  0.2134
 8784TIP3    H126291   5.888   5.792   1.194  1.1145 -0.9541  0.1688
 8784TIP3    H226292   5.949   5.777   1.332 -0.4226  0.1910  0.9933
 8785TIP3   OH226293   4.244   4.732   4.115  0.0463  0.2608  0.3991
 8785TIP3    H126294   4.327   4.775   4.098 -0.4189  0.3869 -1.7071
 8785TIP3    H226295   4.189   4.800   4.154 -0.5101  1.5014 -2.4152
 8786TIP3   OH226296   7.729   7.026   3.528  0.1272 -0.1931  0.2108
 8786TIP3    H126297   7.743   6.952   3.587 -1.7855  0.7297  1.8895
 8786TIP3    H226298   7.648   7.003   3.481  0.2151  0.2696 -0.1646
 8787TIP3   OH226299   5.970   5.907   3.169  0.0930  0.0537  0.0438
 8787TIP3    H126300   5.998   5.999   3.171 -2.1597  0.8101 -1.1659
 8787TIP3    H226301   6.007   5.872   3.088  3.2549 -0.9420  1.8199
 8788TIP3   OH226302   7.269   6.615   2.680 -0.2577  0.1735  0.1518
 8788TIP3    H126303   7.289   6.570   2.598 -2.0737 -2.4772  1.1106
 8788TIP3    H226304   7.348   6.605   2.732 -0.5490 -1.7561  0.2593
 8789TIP3   OH226305   5.653   5.898   1.584 -0.5810  0.1658  0.3047
 8789TIP3    H126306   5.651   5.918   1.677  0.0146  0.2565  0.3007
 8789TIP3    H226307   5.746   5.905   1.560 -1.0040  2.3683 -0.7680
 8790TIP3   OH226308   4.998   6.082   0.842 -0.0933  0.2309  0.5113
 8790TIP3    H126309   5.088   6.056   0.863  0.3221  0.7254 -0.6096
 8790TIP3    H226310   5.003   6.117   0.753 -1.5846 -0.6964  0.0467
 8791TIP3   OH226311   6.922   7.705   2.875 -0.0361  0.4223 -0.4828
 8791TIP3    H126312   6.899   7.793   2.905  0.0592  0.8535 -1.6498
 8791TIP3    H226313   6.947   7.717   2.783  1.9410 -0.5083 -0.0895
 8792TIP3   OH226314   6.405   6.189   0.609 -0.3074 -0.1544  0.4107
 8792TIP3    H126315   6.488   6.142   0.599 -0.3606  0.2139 -1.9816
 8792TIP3    H226316   6.404   6.215   0.701  1.8224 -0.9204  0.6918
 8793TIP3   OH226317   6.001   4.346   5.190 -0.6291 -0.8020  0.2394
 8793TIP3    H126318   5.964   4.433   5.205 -0.4312 -1.0246  2.0676
 8793TIP3    H226319   5.940   4.286   5.233  0.6168 -1.3542  1.2583
 8794TIP3   OH226320   5.418   6.721   4.830 -0.4178  0.0828 -0.6815
 8794TIP3    H126321   5.454   6.652   4.775 -2.0519 -1.2450 -0.1112
 8794TIP3    H226322   5.400   6.793   4.769  1.6253  0.1520 -1.2187
 8795TIP3   OH226323   5.582   6.538   2.750 -0.0984  0.0229 -0.0574
 8795TIP3    H126324   5.542   6.506   2.830 -0.0960  0.1446 -0.0078
 8795TIP3    H226325   5.666   6.575   2.778 -0.5392  0.9554  0.0132
 8796TIP3   OH226326   6.318   5.249   4.997  0.0771 -0.1090  0.4789
 8796TIP3    H126327   6.413   5.245   5.006  0.2890 -0.3500 -1.7303
 8796TIP3    H226328   6.287   5.171   5.043  0.7145  1.4224  3.6556
 8797TIP3   OH226329   1.511   0.023   3.813 -0.2126  0.1486 -0.8313
 8797TIP3    H126330   1.475  -0.064   3.829 -1.2057  0.6429 -0.3693
 8797TIP3    H226331   1.440   0.083   3.834  0.8881  1.1304  0.1512
 8798TIP3   OH226332   7.263   6.998   2.966 -0.0859 -0.1003  0.8795
 8798TIP3    H126333   7.328   6.995   2.896 -0.3814  0.3157  0.5871
 8798TIP3    H226334   7.254   6.907   2.994 -1.2891 -0.5283 -0.8287
 8799TIP3   OH226335   7.563   5.727   3.645 -0.3153 -0.7219 -0.8542
 8799TIP3    H126336   7.658   5.727   3.658 -0.3141  1.1644 -0.7503
 8799TIP3    H226337   7.548   5.792   3.576 -1.5377 -0.8950 -0.7619
 8800TIP3   OH226338   6.738   7.269   1.511 -0.5270 -0.4285  0.0898
 8800TIP3    H126339   6.697   7.282   1.425  1.0559  0.3330 -0.5623
 8800TIP3    H226340   6.743   7.358   1.547  0.5242 -0.5223  0.1722
 8801TIP3   OH226341   5.988   6.012   4.661  0.3976  0.0726  0.0702
 8801TIP3    H126342   6.034   6.096   4.666  0.0185  0.2760  0.1608
 8801TIP3    H226343   6.057   5.947   4.670  0.3579  0.3830  3.3091
 8802TIP3   OH226344   7.818   2.365   2.159  0.1706  0.3155  0.1138
 8802TIP3    H126345   7.906   2.357   2.197  0.8409  0.8449 -1.2774
 8802TIP3    H226346   7.759   2.345   2.231  1.4416 -0.4123  0.9860
 8803TIP3   OH226347   6.060   5.864   0.791  0.2469  0.0930  0.5412
 8803TIP3    H126348   6.102   5.947   0.766 -0.6090  0.4440  0.2476
 8803TIP3    H226349   6.068   5.862   0.887  0.2536  0.5302  0.5534
 8804TIP3   OH226350   7.128   7.041   2.237  0.4087  0.3305  0.5011
 8804TIP3    H126351   7.145   6.953   2.203  2.1420  0.8359 -0.0064
 8804TIP3    H226352   7.204   7.060   2.292  0.2867  1.6791  0.2220
 8805TIP3   OH226353   0.229   7.848   1.475  0.4401 -0.1707  0.3675
 8805TIP3    H126354   0.274   7.795   1.409  1.3675  1.2840 -0.2023
 8805TIP3    H226355   0.260   7.813   1.558  0.8766 -0.6706  0.0020
 8806TIP3   OH226356   6.631   7.530   3.823  0.7001  0.4485  0.0729
 8806TIP3    H126357   6.664   7.620   3.827 -0.6310  0.8900  2.4476
 8806TIP3    H226358   6.708   7.476   3.843  1.6849  0.9791 -2.1254
 8807TIP3   OH226359   0.562   7.370   1.891  0.4587 -0.1376 -0.0543
 8807TIP3    H126360   0.610   7.452   1.883  0.4691  0.1266  2.3681
 8807TIP3    H226361   0.503   7.383   1.965  0.2683 -2.2160  0.2065
 8808TIP3   OH226362   7.990   6.268   1.424 -0.2165 -0.1192 -0.8810
 8808TIP3    H126363   7.945   6.344   1.388 -0.1980 -0.5161 -1.7577
 8808TIP3    H226364   7.982   6.278   1.519  0.1784  1.1918 -0.9878
 8809TIP3   OH226365   6.434   6.506   0.508 -0.0637 -0.1908 -0.2391
 8809TIP3    H126366   6.451   6.601   0.509  0.9064 -0.3628  0.3187
 8809TIP3    H226367   6.372   6.492   0.579 -0.1182  0.0101 -0.2454
 8810TIP3   OH226368   6.780   6.830   2.314 -0.1749 -0.2618 -0.7149
 8810TIP3    H126369   6.874   6.812   2.325  0.1663  2.4980  1.5291
 8810TIP3    H226370   6.737   6.751   2.347  1.3489 -0.9779 -0.3788
 8811TIP3   OH226371   6.672   7.566   2.110  0.8843  0.1540  0.0764
 8811TIP3    H126372   6.611   7.493   2.117 -1.1472  1.8842  1.4191
 8811TIP3    H226373   6.704   7.579   2.199  0.2038  1.6845  0.1180
 8812TIP3   OH226374   7.981   6.857   0.146 -0.0205 -0.3083  0.1247
 8812TIP3    H126375   7.986   6.877   0.240  0.0554 -0.9748  0.2663
 8812TIP3    H226376   7.971   6.942   0.104  0.8685  0.0685  0.6696
 8813TIP3   OH226377   5.424   5.641   3.736  0.4210  0.1294 -0.1559
 8813TIP3    H126378   5.356   5.707   3.724  0.1428 -0.1239  0.0560
 8813TIP3    H226379   5.498   5.690   3.772 -0.0958  0.1545  0.8589
 8814TIP3   OH226380   7.908   7.424   0.515 -0.5317  0.1739  0.1275
 8814TIP3    H126381   7.885   7.469   0.434  0.1795  0.4728  0.0906
 8814TIP3    H226382   7.866   7.476   0.584  2.2170  2.2805  0.2902
 8815TIP3   OH226383   8.412   6.416   4.412  0.1558  0.0874 -0.4877
 8815TIP3    H126384   8.366   6.413   4.328  1.1018 -0.3827 -0.9998
 8815TIP3    H226385   8.498   6.452   4.391  0.7251 -0.9031  0.1196
 8816TIP3   OH226386   7.064   6.118   2.914 -0.4020 -0.1878 -0.1164
 8816TIP3    H126387   7.027   6.145   2.998 -0.5294  0.1166 -0.2680
 8816TIP3    H226388   7.017   6.037   2.892 -0.4950 -0.1705  0.0216
 8817TIP3   OH226389   7.638   7.576   2.932  0.0702  0.1744  0.3008
 8817TIP3    H126390   7.617   7.532   3.014  0.8722  0.7113  0.8067
 8817TIP3    H226391   7.704   7.641   2.956 -0.3056  0.9062 -0.6276
 8818TIP3   OH226392   2.486  -0.014   3.163 -0.2618 -0.0698 -0.1585
 8818TIP3    H126393   2.553  -0.050   3.221 -0.1473  1.8940  0.9625
 8818TIP3    H226394   2.488   0.080   3.179 -4.8064 -0.1445  1.6029
 8819TIP3   OH226395   7.247   6.589   2.392 -0.3314  0.6562 -0.3373
 8819TIP3    H126396   7.258   6.571   2.299  0.2432  0.6518 -0.2705
 8819TIP3    H226397   7.305   6.663   2.409  0.1094  0.2046  0.1615
 8820TIP3   OH226398   2.260   6.142   0.848 -0.2299  0.3841  0.6588
 8820TIP3    H126399   2.240   6.079   0.779  0.5009  0.7311  0.1330
 8820TIP3    H226400   2.336   6.190   0.816 -1.3450  2.1798  0.6311
 8821TIP3   OH226401   0.840   6.304   3.220  0.1751 -0.7183 -0.1182
 8821TIP3    H126402   0.894   6.360   3.164 -1.1151 -0.4968 -1.1656
 8821TIP3    H226403   0.891   6.295   3.301  0.9648  0.9599 -0.3959
 8822TIP3   OH226404   0.133   5.968   2.676 -0.1927  0.5776 -0.1273
 8822TIP3    H126405   0.156   5.898   2.736  2.2066  1.4531  0.0568
 8822TIP3    H226406   0.129   6.047   2.731 -0.6969  0.9313 -0.6671
 8823TIP3   OH226407   7.606   6.269   0.981  0.3877  0.7996 -0.3665
 8823TIP3    H126408   7.517   6.285   0.949  0.1723 -0.4276 -0.4343
 8823TIP3    H226409   7.643   6.356   0.997 -2.3151  1.3320  3.7290
 8824TIP3   OH226410   6.307   6.909   1.708 -0.2595 -0.2131 -0.0550
 8824TIP3    H126411   6.391   6.952   1.689  0.6814 -1.3728  1.4199
 8824TIP3    H226412   6.248   6.981   1.731  0.5719  0.5301 -0.2255
 8825TIP3   OH226413   2.409   0.158   0.249  0.2622 -0.1152 -0.4868
 8825TIP3    H126414   2.436   0.156   0.157  1.6238  0.0882 -0.1125
 8825TIP3    H226415   2.359   0.239   0.258  0.7887  0.2585 -0.8751
 8826TIP3   OH226416   4.353   2.100   6.887  0.6898 -0.2887 -0.1668
 8826TIP3    H126417   4.434   2.117   6.840  0.4330  0.0006 -0.5113
 8826TIP3    H226418   4.284   2.110   6.820  0.2392  1.1787  0.4880
 8827TIP3   OH226419   1.404   6.532   2.654  0.0203 -0.4830  0.1574
 8827TIP3    H126420   1.343   6.474   2.700  0.1487  0.3178  1.3624
 8827TIP3    H226421   1.347   6.594   2.608 -0.0766  0.1855  1.1755
 8828TIP3   OH226422   6.936   6.527   1.373 -0.6768  0.1776  0.0799
 8828TIP3    H126423   6.880   6.537   1.450  1.5584 -1.2388  1.9684
 8828TIP3    H226424   6.941   6.433   1.359  0.3841  0.3386 -0.6761
 8829TIP3   OH226425   7.469   5.634   0.732 -0.1609  0.0380  0.5868
 8829TIP3    H126426   7.552   5.616   0.777 -1.4884 -2.0925  2.3186
 8829TIP3    H226427   7.413   5.672   0.800 -0.7106  1.1739 -0.4840
 8830TIP3   OH226428   7.087   6.242   2.313  0.0233  0.1216  0.1502
 8830TIP3    H126429   7.030   6.317   2.329 -1.4361 -0.0828 -3.6516
 8830TIP3    H226430   7.136   6.265   2.235  0.8503 -2.1487 -0.0410
 8831TIP3   OH226431   6.736   6.051   1.994 -0.3375  0.4377  0.4764
 8831TIP3    H126432   6.776   6.098   1.921 -2.3402  2.4918  0.6347
 8831TIP3    H226433   6.797   5.979   2.013  0.3374 -0.0007 -3.0229
 8832TIP3   OH226434   0.052   5.172   3.252  0.4009 -0.3497 -0.1207
 8832TIP3    H126435  -0.020   5.143   3.196  0.4592  1.8029 -1.3637
 8832TIP3    H226436   0.119   5.104   3.243 -0.2320 -0.8023 -1.4175
 8833TIP3   OH226437   8.139   7.524   4.191  0.2082  0.9792 -0.6233
 8833TIP3    H126438   8.106   7.610   4.218 -0.2734  0.5153  0.3071
 8833TIP3    H226439   8.088   7.501   4.114 -1.5716  0.3310  0.7270
 8834TIP3   OH226440   7.237   7.780   2.595 -0.1888  0.1798  0.1056
 8834TIP3    H126441   7.148   7.746   2.598  0.1287 -0.6713 -0.1651
 8834TIP3    H226442   7.232   7.856   2.536 -0.5071 -0.5547 -0.8179
 8835TIP3   OH226443   7.275   7.515   3.358 -0.2185  0.5614 -0.4308
 8835TIP3    H126444   7.181   7.535   3.354  0.1825  2.6157 -0.4159
 8835TIP3    H226445   7.310   7.583   3.416  1.8687  2.1500 -3.4452
 8836TIP3   OH226446   0.200   5.823   1.544 -0.2690 -0.3188  0.3178
 8836TIP3    H126447   0.154   5.841   1.627  0.4016  0.7068  0.4728
 8836TIP3    H226448   0.293   5.827   1.567  0.0071  3.1940 -1.1009
 8837TIP3   OH226449   3.091   1.363   1.872  0.0340 -0.0611  0.0322
 8837TIP3    H126450   3.154   1.378   1.801  0.4942  0.3429  0.5237
 8837TIP3    H226451   3.100   1.270   1.892  1.9379  0.3970  1.4592
 8838TIP3   OH226452   6.997   5.031   2.093  0.0697  0.3953 -0.5348
 8838TIP3    H126453   6.905   5.010   2.107  0.3237  0.1845  0.8480
 8838TIP3    H226454   7.000   5.127   2.094 -0.2590  0.4239 -1.4796
 8839TIP3   OH226455   6.675   6.483   2.686 -0.0252  0.1800  0.4709
 8839TIP3    H126456   6.723   6.411   2.645  0.0165  0.2842  0.3356
 8839TIP3    H226457   6.645   6.447   2.769 -0.9854 -0.3598 -0.0966
 8840TIP3   OH226458   8.057   7.117   4.275  0.7495  0.1659  0.1143
 8840TIP3    H126459   8.101   7.098   4.192  3.4120  0.2214  1.4662
 8840TIP3    H226460   7.986   7.053   4.279 -0.7816  1.5041 -3.1492
 8841TIP3   OH226461   8.231   6.086   2.387 -0.1163 -0.2575  0.3634
 8841TIP3    H126462   8.264   6.163   2.432 -0.4028 -0.5210  1.0367
 8841TIP3    H226463   8.140   6.078   2.416 -0.0752 -0.8701  0.3448
 8842TIP3   OH226464   1.726   1.334   1.621 -0.4423 -0.3175  0.5628
 8842TIP3    H126465   1.707   1.266   1.557 -3.4588 -0.0215  1.0931
 8842TIP3    H226466   1.764   1.405   1.570 -0.4587 -1.0666 -0.5041
 8843TIP3   OH226467   3.913   0.074   5.318  0.3409 -0.2096 -0.4562
 8843TIP3    H126468   3.949  -0.014   5.301 -1.5451 -1.2110  0.5339
 8843TIP3    H226469   3.987   0.133   5.305  1.4395 -1.8668 -2.0036
 8844TIP3   OH226470   1.149   5.591   3.213  0.4226  0.2184 -0.3969
 8844TIP3    H126471   1.151   5.596   3.118  0.5212  0.2455 -0.3931
 8844TIP3    H226472   1.233   5.552   3.237  1.0498  1.6625 -0.2216
 8845TIP3   OH226473   7.457   5.847   3.002 -0.2270 -0.4641  0.0222
 8845TIP3    H126474   7.401   5.773   2.979  0.0587 -0.3190 -1.1702
 8845TIP3    H226475   7.536   5.807   3.038 -0.6530 -0.6940  0.7203
 8846TIP3   OH226476   5.565   7.475   5.562 -0.2312 -0.3670  0.0439
 8846TIP3    H126477   5.512   7.505   5.636  1.6414 -0.7816  1.5959
 8846TIP3    H226478   5.537   7.530   5.489 -1.6203  0.5398  1.2175
 8847TIP3   OH226479   8.257   4.879   4.507 -0.2761  0.3138  0.4333
 8847TIP3    H126480   8.319   4.809   4.485  0.2818  1.0191 -0.2619
 8847TIP3    H226481   8.218   4.850   4.590  0.8904 -0.2086  0.8263
 8848TIP3   OH226482   0.007   5.960   2.434 -0.2582 -0.9952 -0.1310
 8848TIP3    H126483   0.074   5.963   2.502  0.2799 -0.7793 -0.6636
 8848TIP3    H226484  -0.076   5.973   2.481  0.1713 -0.0668  0.3806
 8849TIP3   OH226485   4.977   7.502   1.900  0.1134 -0.1781  0.4633
 8849TIP3    H126486   5.069   7.474   1.898 -0.4281 -2.0876  1.4937
 8849TIP3    H226487   4.968   7.559   1.824  1.9825 -0.4908 -0.0245
 8850TIP3   OH226488   7.480   6.770   1.452  0.1125 -0.4616  0.6961
 8850TIP3    H126489   7.571   6.769   1.481 -0.1577 -1.8694  1.5648
 8850TIP3    H226490   7.453   6.862   1.459  1.6165  0.0463 -0.0795
 8851TIP3   OH226491   6.211   7.115   3.115 -0.2261 -0.6336  0.1015
 8851TIP3    H126492   6.224   7.209   3.127  1.9462 -1.0951  1.6309
 8851TIP3    H226493   6.166   7.108   3.031  0.0529  1.7439 -0.2803
 8852TIP3   OH226494   0.511   7.409   2.151  0.4037  0.6532  0.0902
 8852TIP3    H126495   0.578   7.356   2.193  0.5014  0.6155 -0.1122
 8852TIP3    H226496   0.536   7.499   2.170  0.4292  0.6353  0.1403
 8853TIP3   OH226497   7.872   3.711   4.242  0.3003  0.4217 -0.2014
 8853TIP3    H126498   7.828   3.752   4.316 -0.9218 -1.3704  0.1122
 8853TIP3    H226499   7.941   3.772   4.217  0.8686  0.9608  2.5540
 8854TIP3   OH226500   7.274   6.026   1.672 -0.2744  0.0447  0.1770
 8854TIP3    H126501   7.272   6.030   1.576 -0.1121 -1.9951  0.0677
 8854TIP3    H226502   7.213   6.094   1.700 -2.7110 -1.4023 -1.4352
 8855TIP3   OH226503   7.853   6.232   2.925  0.0538  0.0619 -0.0006
 8855TIP3    H126504   7.906   6.310   2.942  0.8351 -0.4964  0.1750
 8855TIP3    H226505   7.779   6.263   2.874  0.1586  0.9852  0.4013
 8856TIP3   OH226506   5.802   6.271   4.294 -0.1441  0.1160  0.4343
 8856TIP3    H126507   5.841   6.187   4.321 -0.9173  0.0438  1.3544
 8856TIP3    H226508   5.726   6.246   4.242  1.1321  0.2571 -1.5875
 8857TIP3   OH226509   8.116   4.100   1.367  0.4742  0.1480 -0.0033
 8857TIP3    H126510   8.064   4.181   1.371  0.2025  0.0322 -1.0640
 8857TIP3    H226511   8.143   4.093   1.275 -0.7746 -1.7701 -0.2499
 8858TIP3   OH226512   6.617   6.033   1.604  0.2099  0.2012  0.8335
 8858TIP3    H126513   6.660   6.072   1.528 -1.6930  0.1937 -0.2707
 8858TIP3    H226514   6.550   5.976   1.568  0.9786 -1.8086  2.5055
 8859TIP3   OH226515   0.684   5.535   3.155 -0.1017  0.1398  0.4421
 8859TIP3    H126516   0.698   5.444   3.130 -2.2701 -0.4926  1.3914
 8859TIP3    H226517   0.609   5.563   3.102 -0.9688  0.5928  1.8620
 8860TIP3   OH226518   6.395   6.235   2.992  0.1280 -0.1960  0.5751
 8860TIP3    H126519   6.419   6.150   2.954 -0.7610 -0.4258  0.5208
 8860TIP3    H226520   6.323   6.215   3.051  1.1082  0.2525  1.9671
 8861TIP3   OH226521   0.770   7.580   0.156  0.8064  0.2550 -0.0928
 8861TIP3    H126522   0.684   7.538   0.153  0.3740  0.8661  2.2247
 8861TIP3    H226523   0.796   7.590   0.065 -1.9089  0.7235 -0.8428
 8862TIP3   OH226524   5.914   5.671   1.776  0.4847  0.5235  0.0475
 8862TIP3    H126525   5.928   5.758   1.814  1.0197  0.5787 -0.2676
 8862TIP3    H226526   5.933   5.610   1.847 -0.8378  0.6779  0.5583
 8863TIP3   OH226527   0.602   4.089   1.893 -0.1451  0.2258  0.2005
 8863TIP3    H126528   0.650   4.046   1.963 -0.0772 -0.0201  0.0055
 8863TIP3    H226529   0.664   4.093   1.820  0.2615  1.7936  0.6190
 8864TIP3   OH226530   6.523   6.963   2.390  0.3715 -0.2127  0.4168
 8864TIP3    H126531   6.587   6.897   2.363 -0.1427 -1.5652  2.4102
 8864TIP3    H226532   6.471   6.979   2.312  1.1904 -1.3732 -0.3921
 8865TIP3   OH226533   7.313   6.184   2.787 -0.2664 -0.3134 -0.2484
 8865TIP3    H126534   7.251   6.139   2.843  1.0903 -1.7028  0.1797
 8865TIP3    H226535   7.267   6.196   2.704 -1.0954 -1.3018  0.0615
 8866TIP3   OH226536   8.275   5.706   3.264  0.4113 -0.3964  0.9738
 8866TIP3    H126537   8.355   5.758   3.274  1.1128 -1.8014  2.9745
 8866TIP3    H226538   8.305   5.615   3.262 -0.8723 -0.8121 -1.6638
 8867TIP3   OH226539   7.188   4.879   3.062 -0.3209  0.1182 -0.1010
 8867TIP3    H126540   7.114   4.874   3.122 -1.3379 -1.3659 -1.4361
 8867TIP3    H226541   7.179   4.966   3.021  0.2725  1.0495  1.7121
 8868TIP3   OH226542   0.392   6.424   0.644  0.0175  0.1266 -0.3929
 8868TIP3    H126543   0.303   6.430   0.678 -0.3608 -1.2176 -1.1038
 8868TIP3    H226544   0.407   6.330   0.632  1.7051  0.2989  0.1744
 8869TIP3   OH226545   0.496   5.575   0.798 -0.2730  0.1448 -0.0009
 8869TIP3    H126546   0.418   5.523   0.819 -0.1310  0.5213  1.5544
 8869TIP3    H226547   0.569   5.514   0.808 -0.2881  0.0562 -0.4367
 8870TIP3   OH226548   6.837   5.754   2.167  0.1660  0.1164 -0.1136
 8870TIP3    H126549   6.872   5.675   2.208  2.1309  0.1922 -1.5654
 8870TIP3    H226550   6.900   5.822   2.189 -0.3342  0.7997 -0.7828
 8871TIP3   OH226551   8.346   6.313   2.564 -0.0950 -0.0667  0.2167
 8871TIP3    H126552   8.382   6.245   2.621 -0.1897  0.1466  0.5287
 8871TIP3    H226553   8.300   6.373   2.623 -0.2162  0.1389 -0.0846
 8872TIP3   OH226554   0.290   6.047   0.971  0.1836  0.2227 -0.3952
 8872TIP3    H126555   0.357   6.107   0.938  0.4926  0.1505  0.0920
 8872TIP3    H226556   0.219   6.052   0.907  1.7464 -1.6966 -2.3284
 8873TIP3   OH226557   7.567   6.220   4.300 -0.0298 -0.5532  0.3894
 8873TIP3    H126558   7.592   6.150   4.360  1.4343  0.0068  0.4461
 8873TIP3    H226559   7.564   6.178   4.214  2.4579 -0.3460  0.1784
 8874TIP3   OH226560   7.742   3.576   3.244  0.1554  0.2573  0.0331
 8874TIP3    H126561   7.753   3.653   3.188  0.5752  1.3070  1.5389
 8874TIP3    H226562   7.647   3.564   3.249  0.1107  0.2157 -0.8150
 8875TIP3   OH226563   7.453   3.754   4.195  0.7493 -0.2564 -0.7049
 8875TIP3    H126564   7.514   3.689   4.160  0.5629 -1.2190  0.6910
 8875TIP3    H226565   7.368   3.710   4.192  0.6707 -0.1993  0.5237
 8876TIP3   OH226566   0.285   7.106   2.495 -0.2795 -0.5452 -0.1941
 8876TIP3    H126567   0.350   7.078   2.560  4.0739 -0.9093 -4.3961
 8876TIP3    H226568   0.272   7.029   2.440 -3.3120 -0.0216 -0.2882
 8877TIP3   OH226569   8.248   6.470   2.773  0.6704 -0.1450  0.0076
 8877TIP3    H126570   8.286   6.389   2.807  1.1995  0.2312  0.3204
 8877TIP3    H226571   8.169   6.485   2.826 -0.3919 -1.3681 -1.1880
 8878TIP3   OH226572   3.790   0.439   4.908  0.4812 -0.9110 -0.0788
 8878TIP3    H126573   3.816   0.515   4.960  0.0402 -1.7742  1.3944
 8878TIP3    H226574   3.854   0.371   4.930  0.7478 -1.0476 -1.2369
 8879TIP3   OH226575   2.051   6.821   2.326 -0.1141 -0.1611  0.6630
 8879TIP3    H126576   2.109   6.755   2.362  0.5280  0.1204  0.1651
 8879TIP3    H226577   2.092   6.904   2.349 -2.2018  0.1535  3.4378
 8880TIP3   OH226578   4.648   5.506   2.596  0.4687 -0.2387 -0.1857
 8880TIP3    H126579   4.697   5.545   2.523 -1.1320  3.4226  0.5488
 8880TIP3    H226580   4.708   5.511   2.670  0.8952 -0.8037 -0.4902
 8881TIP3   OH226581   6.187   5.540   1.429 -0.1559 -0.1341 -0.4466
 8881TIP3    H126582   6.115   5.594   1.461 -0.3926 -0.6486 -0.1054
 8881TIP3    H226583   6.162   5.515   1.340 -0.3049 -0.1505 -0.3990
 8882TIP3   OH226584   1.145   7.798   1.399  0.2839  0.4290  0.3802
 8882TIP3    H126585   1.072   7.842   1.441 -0.7366  1.2257 -2.1365
 8882TIP3    H226586   1.180   7.863   1.338  1.3977 -0.8426 -0.3549
 8883TIP3   OH226587   0.926   1.279   2.259  0.2557  0.6356 -0.8378
 8883TIP3    H126588   0.891   1.262   2.172 -0.9872  0.5125 -0.3270
 8883TIP3    H226589   0.868   1.232   2.318  0.8816  1.0035  0.0907
 8884TIP3   OH226590   7.975   5.960   2.497 -0.2546 -0.1355  0.3403
 8884TIP3    H126591   7.926   6.022   2.552  0.3229 -0.5689  1.3490
 8884TIP3    H226592   8.033   5.915   2.558 -0.6380 -1.6420 -0.4027
 8885TIP3   OH226593   7.891   4.891   2.753  0.2080  0.1345 -0.4083
 8885TIP3    H126594   7.848   4.920   2.834 -0.4634 -1.7291 -0.0681
 8885TIP3    H226595   7.863   4.954   2.687  1.8539  2.4811  1.0626
 8886TIP3   OH226596   6.716   6.658   3.501 -0.0273 -0.4271  0.5190
 8886TIP3    H126597   6.774   6.720   3.457 -1.1668 -0.3861 -0.9473
 8886TIP3    H226598   6.772   6.617   3.568  1.1513  1.0303  0.4543
 8887TIP3   OH226599   0.893   7.411   3.647  0.1052  0.5851  0.3580
 8887TIP3    H126600   0.815   7.413   3.702  0.6121 -0.7284  1.1552
 8887TIP3    H226601   0.964   7.386   3.707  0.5181 -1.7654 -1.0627
 8888TIP3   OH226602   1.866   7.792   2.858 -0.1675 -0.0801 -0.2815
 8888TIP3    H126603   1.938   7.836   2.903  0.0304 -0.2095 -0.4646
 8888TIP3    H226604   1.839   7.722   2.917 -1.3556  1.0973  0.5845
 8889TIP3   OH226605   5.970   7.798   1.503 -0.5556  0.3581 -0.5863
 8889TIP3    H126606   6.058   7.766   1.522 -1.1418 -0.1651  1.4672
 8889TIP3    H226607   5.970   7.815   1.409  1.3545 -0.8134 -0.8353
 8890TIP3   OH226608   4.634   7.807   1.741 -0.0813  0.2104  0.3306
 8890TIP3    H126609   4.637   7.806   1.837 -0.8802 -0.5912  0.3477
 8890TIP3    H226610   4.575   7.736   1.718  1.7748 -1.0133 -0.8306
 8891TIP3   OH226611   6.836   7.640   1.883  0.7142 -0.4073  0.0744
 8891TIP3    H126612   6.797   7.586   1.951 -1.5747  0.2401 -0.6877
 8891TIP3    H226613   6.860   7.721   1.928  1.0197 -0.7240  0.4934
 8892TIP3   OH226614   8.099   6.732   1.220 -0.4316  0.0798 -0.1961
 8892TIP3    H126615   8.132   6.643   1.230  0.2553  0.5038  1.4863
 8892TIP3    H226616   8.047   6.730   1.140  0.9139 -1.4340 -1.0631
 8893TIP3   OH226617   0.320   5.727   2.266  0.1536 -0.4339  0.1936
 8893TIP3    H126618   0.339   5.634   2.276  0.1568 -0.7316 -2.1113
 8893TIP3    H226619   0.312   5.760   2.355  0.9994 -2.4594  1.0619
 8894TIP3   OH226620   7.775   6.456   1.297 -0.5786  0.1723  0.2897
 8894TIP3    H126621   7.811   6.543   1.311 -0.2956 -0.1455  1.5636
 8894TIP3    H226622   7.756   6.453   1.203 -1.1655  1.8137  0.3330
 8895TIP3   OH226623   8.173   6.225   0.034  0.5604 -0.4765 -0.5026
 8895TIP3    H126624   8.105   6.291   0.019  0.3372 -0.7619 -0.7515
 8895TIP3    H226625   8.255   6.275   0.035  0.4657 -0.2833 -1.4182
 8896TIP3   OH226626   0.412   6.739   1.956 -0.2073  0.1531 -0.0288
 8896TIP3    H126627   0.450   6.705   1.874  0.3924  0.4158  0.1380
 8896TIP3    H226628   0.373   6.662   1.998 -0.0631 -0.0773 -0.3169
 8897TIP3   OH226629   1.294   7.160   3.682  0.5454 -0.6542 -0.0700
 8897TIP3    H126630   1.368   7.192   3.631 -2.2240  2.7554 -2.0639
 8897TIP3    H226631   1.254   7.093   3.627  1.1265 -1.3152  0.2985
 8898TIP3   OH226632   3.638   0.647   4.659  0.1195 -0.5486 -0.8787
 8898TIP3    H126633   3.722   0.626   4.621 -0.5372 -2.0478 -1.5232
 8898TIP3    H226634   3.606   0.564   4.696 -0.2538  0.3833  0.9672
 8899TIP3   OH226635   1.022   0.782   2.041 -0.0265  0.4411 -0.4207
 8899TIP3    H126636   1.077   0.770   1.963  0.5830 -0.1896  0.0975
 8899TIP3    H226637   1.025   0.877   2.057 -0.4415  0.6164 -1.3673
 8900TIP3   OH226638   7.619   6.674   1.899  0.6582  0.5815 -0.2274
 8900TIP3    H126639   7.525   6.676   1.914  0.8326 -0.4916  1.1369
 8900TIP3    H226640   7.637   6.751   1.846 -1.2478 -0.2686 -2.1373
 8901TIP3   OH226641   0.674   0.063   1.219  0.1760 -0.3997 -0.5967
 8901TIP3    H126642   0.716  -0.015   1.254  2.4676 -0.4448 -3.3479
 8901TIP3    H226643   0.686   0.129   1.288  0.0688 -1.8524  0.8574
 8902TIP3   OH226644   7.554   5.465   2.727  0.0394 -0.4299  0.0654
 8902TIP3    H126645   7.542   5.555   2.695 -0.5018 -0.7500 -0.6391
 8902TIP3    H226646   7.647   5.460   2.749 -0.1399  0.6321  1.1201
 8903TIP3   OH226647   7.640   5.362   1.335  0.0851 -0.2729  0.0717
 8903TIP3    H126648   7.623   5.419   1.260 -2.5329 -1.5290 -0.3363
 8903TIP3    H226649   7.684   5.286   1.297 -0.4631 -0.5209 -0.0759
 8904TIP3   OH226650   7.503   4.367   2.939 -0.3412  0.0380  0.3529
 8904TIP3    H126651   7.494   4.306   3.012 -2.3499  0.9613  0.9334
 8904TIP3    H226652   7.582   4.417   2.959  1.3227 -2.3147 -0.1317
 8905TIP3   OH226653   7.442   4.755   2.268 -0.2320  0.4729  0.3393
 8905TIP3    H126654   7.357   4.758   2.224  0.6108 -1.7016 -1.5607
 8905TIP3    H226655   7.499   4.810   2.215  0.3491 -0.7383 -0.3165
 8906TIP3   OH226656   1.867   0.419   3.239  0.4428  0.1283  0.3108
 8906TIP3    H126657   1.833   0.415   3.329 -0.7925 -0.1428 -0.1621
 8906TIP3    H226658   1.962   0.422   3.250  0.3143 -0.1971  1.6251
 8907TIP3   OH226659   1.643   0.007   2.500 -0.3992 -0.7915 -0.3426
 8907TIP3    H126660   1.698   0.022   2.577  1.0159  0.7690 -1.5977
 8907TIP3    H226661   1.700   0.029   2.426 -2.4550  0.0321 -1.7155
 8908TIP3   OH226662   1.273   6.099   1.091 -0.0510 -0.1591  0.3236
 8908TIP3    H126663   1.364   6.092   1.062  0.0596  0.2157  0.5708
 8908TIP3    H226664   1.250   6.191   1.078 -0.4272 -0.2747  0.1646
 8909TIP3   OH226665   7.784   7.162   4.746  0.3973  0.0126  0.2298
 8909TIP3    H126666   7.802   7.084   4.694  1.0173 -0.3091  0.9234
 8909TIP3    H226667   7.713   7.207   4.699 -0.0392 -1.0270 -0.1021
 8910TIP3   OH226668   7.482   7.812   3.984 -0.2658 -0.5479  0.4444
 8910TIP3    H126669   7.452   7.897   4.018  0.6728 -1.3776  3.5759
 8910TIP3    H226670   7.402   7.761   3.972 -0.7017  0.1494  0.3431
 8911TIP3   OH226671   6.101   6.760   1.115  0.7956  0.1029  0.3128
 8911TIP3    H126672   6.050   6.799   1.186  0.6863  0.3205  0.1150
 8911TIP3    H226673   6.109   6.830   1.050  0.6638 -0.1825 -0.0113
 8912TIP3   OH226674   7.892   7.440   3.310 -0.5433  0.4763 -0.3420
 8912TIP3    H126675   7.820   7.488   3.270  0.2732  1.8928 -0.1645
 8912TIP3    H226676   7.969   7.466   3.258  0.2514  1.0221  1.0907
 8913TIP3   OH226677   7.486   5.359   1.555 -0.7869 -0.0057 -0.4852
 8913TIP3    H126678   7.417   5.293   1.550  1.6719 -2.6261 -1.1182
 8913TIP3    H226679   7.514   5.371   1.464  0.2139  0.3341 -0.1409
 8914TIP3   OH226680   0.557   5.309   1.386  0.1015 -0.2438  0.5496
 8914TIP3    H126681   0.490   5.334   1.450 -0.8364 -2.0176  0.2798
 8914TIP3    H226682   0.524   5.343   1.303 -0.5153 -1.1863  0.4041
 8915TIP3   OH226683   5.398   5.627   2.808 -0.2619 -0.1590  0.4326
 8915TIP3    H126684   5.407   5.666   2.894 -1.2922 -0.5858  0.7419
 8915TIP3    H226685   5.463   5.556   2.807  0.4592  0.4880  0.4686
 8916TIP3   OH226686   8.027   5.749   2.977  0.3235 -0.1558  0.2062
 8916TIP3    H126687   8.084   5.686   2.932 -0.3049  0.0142 -0.8716
 8916TIP3    H226688   7.990   5.699   3.050  0.9374 -0.6149  0.2090
 8917TIP3   OH226689   7.884   6.696   2.790 -0.0048 -0.9081  0.3050
 8917TIP3    H126690   7.910   6.777   2.746 -0.3545 -0.4083  1.0010
 8917TIP3    H226691   7.830   6.726   2.864 -0.4793 -1.8019  0.3181
 8918TIP3   OH226692   7.482   6.255   2.340  0.4784 -0.4163  0.0560
 8918TIP3    H126693   7.497   6.302   2.422  0.9848 -3.4954  1.7659
 8918TIP3    H226694   7.559   6.277   2.287  0.2506  1.4275  0.4418
 8919TIP3   OH226695   0.181   5.421   3.234  0.4590  0.8986 -0.4452
 8919TIP3    H126696   0.250   5.410   3.300  0.6981  0.4295 -0.7665
 8919TIP3    H226697   0.140   5.335   3.227  0.8738  0.7583 -1.3749
 8920TIP3   OH226698   0.772   5.788   2.952 -0.1333 -0.3279 -0.1343
 8920TIP3    H126699   0.826   5.847   3.004  0.8479 -1.5218  0.2185
 8920TIP3    H226700   0.833   5.722   2.920 -1.2657 -1.2996 -0.3038
 8921TIP3   OH226701   7.134   6.177   3.638  0.0680  0.2298  0.3015
 8921TIP3    H126702   7.148   6.234   3.562 -1.6402  2.7159  1.7623
 8921TIP3    H226703   7.220   6.173   3.681  0.4536  0.8904 -0.3871
 8922TIP3   OH226704   8.238   7.937   1.397  0.0154 -0.3274  0.3119
 8922TIP3    H126705   8.265   7.884   1.322  0.1846  0.2485 -0.0377
 8922TIP3    H226706   8.147   7.910   1.414 -0.0093 -0.4895 -0.0674
 8923TIP3   OH226707   2.101   0.677   2.300 -0.0267 -0.1367 -0.1136
 8923TIP3    H126708   2.091   0.661   2.206 -0.2302  0.7686 -0.2490
 8923TIP3    H226709   2.024   0.636   2.339 -0.5479  0.5032 -0.4608
 8924TIP3   OH226710   7.771   6.678   0.608 -0.9968  0.0259  0.0484
 8924TIP3    H126711   7.834   6.627   0.556 -0.3230 -0.7033  1.5394
 8924TIP3    H226712   7.689   6.628   0.602 -1.3145  0.7168 -1.4977
 8925TIP3   OH226713   1.103   7.298   3.802  0.2437 -0.0247  0.3278
 8925TIP3    H126714   1.164   7.243   3.752  0.6300  0.2293  0.5190
 8925TIP3    H226715   1.149   7.381   3.812  1.3482 -0.9429  3.4875
 8926TIP3   OH226716   6.352   5.138   2.274 -0.2356  0.3537  0.4529
 8926TIP3    H126717   6.416   5.199   2.309 -0.5231  0.3490  0.9900
 8926TIP3    H226718   6.269   5.163   2.315 -1.3136  2.6212 -2.8593
 8927TIP3   OH226719   0.520   6.311   3.567  0.4927  0.0975  0.2798
 8927TIP3    H126720   0.580   6.368   3.616 -1.8733  3.3845 -0.4922
 8927TIP3    H226721   0.450   6.292   3.628 -0.2334  0.5331 -0.4077
 8928TIP3   OH226722   8.368   5.690   2.703  0.0443  0.3243 -0.6296
 8928TIP3    H126723   8.395   5.663   2.615 -1.3965 -0.2946 -0.8924
 8928TIP3    H226724   8.438   5.750   2.732  1.9344 -1.5862 -1.0919
 8929TIP3   OH226725   7.560   6.586   1.080 -1.0348 -0.1384 -0.0199
 8929TIP3    H126726   7.642   6.553   1.043 -1.4184 -0.7529 -0.3345
 8929TIP3    H226727   7.584   6.669   1.121 -0.1497 -0.5847  0.3720
 8930TIP3   OH226728   6.561   6.180   3.295  0.5469 -0.3780  0.0827
 8930TIP3    H126729   6.572   6.273   3.316  0.4632  0.0146 -1.5377
 8930TIP3    H226730   6.466   6.165   3.297  0.6403 -0.7968  1.8197
 8931TIP3   OH226731   7.461   5.877   2.192 -0.2250 -0.5797  0.2869
 8931TIP3    H126732   7.509   5.832   2.122  0.0740  2.9718 -1.9193
 8931TIP3    H226733   7.529   5.904   2.254 -0.3682 -2.7415  1.4382
 8932TIP3   OH226734   7.571   6.938   4.724 -0.6142  0.2599  0.3003
 8932TIP3    H126735   7.566   6.936   4.820  1.7538  1.3121  0.4861
 8932TIP3    H226736   7.612   6.855   4.701  0.3329  0.7208  0.3214
 8933TIP3   OH226737   3.151   3.369   6.761 -0.3983  0.4674 -0.3313
 8933TIP3    H126738   3.118   3.453   6.792 -0.5146  0.3191 -0.0511
 8933TIP3    H226739   3.145   3.374   6.665  0.3485  1.0845 -0.3475
 8934TIP3   OH226740   7.182   7.480   1.895  0.3792  0.2889  0.2408
 8934TIP3    H126741   7.277   7.484   1.908  1.1242 -2.3426 -3.6946
 8934TIP3    H226742   7.153   7.412   1.957  0.9233  1.4933  1.8612
 8935TIP3   OH226743   1.012   0.635   2.739  0.4633 -0.0468 -0.1480
 8935TIP3    H126744   1.034   0.673   2.824 -0.2124  3.9601 -1.6238
 8935TIP3    H226745   0.917   0.627   2.741  0.4363  0.1571 -0.5405
 8936TIP3   OH226746   5.211   6.694   2.653  0.4318  0.0970 -0.1382
 8936TIP3    H126747   5.222   6.600   2.639  0.3259  0.2151 -1.0505
 8936TIP3    H226748   5.147   6.720   2.587  1.0008  0.9424 -0.3632
 8937TIP3   OH226749   8.190   6.205   0.326  0.1643 -0.1085 -0.3099
 8937TIP3    H126750   8.193   6.286   0.275 -0.5927  0.9505  1.2663
 8937TIP3    H226751   8.162   6.138   0.264  3.5218  0.2514 -2.3235
 8938TIP3   OH226752   1.413   5.874   2.542 -0.2829  0.0340 -0.1458
 8938TIP3    H126753   1.403   5.899   2.451 -3.3733 -1.3665 -0.2480
 8938TIP3    H226754   1.378   5.947   2.592 -1.2684 -0.4058 -0.1837
 8939TIP3   OH226755   7.815   7.012   3.951  0.2322 -0.1442  0.3515
 8939TIP3    H126756   7.806   7.029   4.045  1.2706 -1.8748  0.7980
 8939TIP3    H226757   7.908   6.990   3.940  0.4609  1.5357 -1.3516
 8940TIP3   OH226758   0.495   5.597   2.963  0.2827 -0.5389 -0.4065
 8940TIP3    H126759   0.504   5.576   2.870  1.3927  0.4371 -0.5302
 8940TIP3    H226760   0.479   5.692   2.965  1.7626 -0.2977  0.4668
 8941TIP3   OH226761   6.650   6.762   1.650  0.4173  0.0329  0.3930
 8941TIP3    H126762   6.729   6.747   1.704  1.0505 -1.9043 -0.9915
 8941TIP3    H226763   6.684   6.779   1.563 -0.6923 -0.9849 -0.2559
 8942TIP3   OH226764   0.438   7.683   0.223  0.7208  0.3747  0.0198
 8942TIP3    H126765   0.367   7.626   0.192  1.9911 -1.3535  0.1888
 8942TIP3    H226766   0.415   7.702   0.314  0.0666  0.4981 -0.1648
 8943TIP3   OH226767   8.026   7.268   3.922 -0.3360 -0.4773  0.1658
 8943TIP3    H126768   8.061   7.193   3.969  1.3263 -0.1424 -0.4805
 8943TIP3    H226769   8.005   7.234   3.835  1.2209 -0.0402 -0.4058
 8944TIP3   OH226770   0.172   6.599   1.779  0.1232 -0.0675  0.0633
 8944TIP3    H126771   0.257   6.630   1.746  1.6239 -1.1951  2.7132
 8944TIP3    H226772   0.179   6.504   1.779 -1.3559 -0.1906 -0.1485
 8945TIP3   OH226773   6.328   6.002   4.373  0.2776  0.6627 -1.0417
 8945TIP3    H126774   6.292   6.059   4.305  2.3005 -0.4061 -3.1030
 8945TIP3    H226775   6.368   6.062   4.436 -2.4243  1.7149 -0.2462
 8946TIP3   OH226776   7.055   4.640   2.197  0.1576  1.3679  0.1440
 8946TIP3    H126777   7.094   4.582   2.131 -0.8164  1.5387 -0.5976
 8946TIP3    H226778   7.093   4.725   2.179  0.3680  1.2856  0.1997
 8947TIP3   OH226779   6.622   6.432   0.956 -0.3632 -0.1298  0.7044
 8947TIP3    H126780   6.576   6.516   0.969  0.6722  0.2840  1.7945
 8947TIP3    H226781   6.696   6.454   0.899  1.9433  0.4599  3.7641
 8948TIP3   OH226782   1.640   0.121   4.375  0.0732 -0.3418  0.0242
 8948TIP3    H126783   1.665   0.153   4.461 -1.7968 -0.0996  0.4995
 8948TIP3    H226784   1.602   0.035   4.391 -3.1150  0.9505 -0.1167
 8949TIP3   OH226785   5.614   3.891   2.898  0.3181 -0.4731 -0.3080
 8949TIP3    H126786   5.578   3.944   2.969  1.3137  0.6517 -0.6451
 8949TIP3    H226787   5.701   3.926   2.883  0.0955 -0.6476 -2.1461
 8950TIP3   OH226788   6.406   4.283   3.824 -0.2386 -0.3293 -0.2278
 8950TIP3    H126789   6.498   4.259   3.815 -0.0282  0.6768 -0.8848
 8950TIP3    H226790   6.396   4.362   3.770 -1.3482 -0.0989  0.2859
 8951TIP3   OH226791   6.949   7.379   2.647 -0.1236  0.6390  0.1832
 8951TIP3    H126792   6.856   7.384   2.668  0.6055  1.2375  3.6296
 8951TIP3    H226793   6.979   7.297   2.686  0.9215  0.8042 -0.2488
 8952TIP3   OH226794   0.017   1.793   1.357 -0.9935 -0.6058  0.2271
 8952TIP3    H126795   0.039   1.886   1.349 -0.4728 -0.9537 -3.1855
 8952TIP3    H226796   0.050   1.768   1.443  0.8638  1.8550  0.3001
 8953TIP3   OH226797   0.998   7.987   0.814  0.1091 -0.1097  0.1709
 8953TIP3    H126798   1.081   7.960   0.773  0.1836  0.0852  0.1967
 8953TIP3    H226799   0.993   7.935   0.894  1.7038  2.1131  1.7778
 8954TIP3   OH226800   7.985   6.204   2.690  0.6815  0.0937  0.7601
 8954TIP3    H126801   7.941   6.202   2.775 -0.9881 -1.7842 -0.1054
 8954TIP3    H226802   7.955   6.286   2.651  0.3614  0.2981  1.4215
 8955TIP3   OH226803   5.967   7.563   4.320 -0.2424  0.0865  0.1322
 8955TIP3    H126804   6.007   7.647   4.340  0.3113 -0.0518 -0.3754
 8955TIP3    H226805   6.013   7.501   4.377  0.8734 -0.2044 -1.0612
 8956TIP3   OH226806   8.219   7.199   3.214  0.2170  0.5184 -0.3822
 8956TIP3    H126807   8.221   7.122   3.158  0.8305  0.3942 -0.1901
 8956TIP3    H226808   8.157   7.258   3.171 -0.7778 -0.3507 -0.1675
 8957TIP3   OH226809   0.467   1.224   1.456  0.6590 -0.2990  0.3671
 8957TIP3    H126810   0.514   1.145   1.431  0.4036  0.3186 -2.1998
 8957TIP3    H226811   0.381   1.215   1.415  1.1611  1.9893 -1.3001
 8958TIP3   OH226812   1.918   0.004   1.974 -0.2228 -0.8894 -0.0085
 8958TIP3    H126813   1.944   0.072   1.912  0.8830 -1.6056 -0.3469
 8958TIP3    H226814   1.847   0.043   2.025  0.6281  0.6456  0.0315
 8959TIP3   OH226815   0.581   0.497   2.305  0.1141  0.3316 -0.4814
 8959TIP3    H126816   0.545   0.509   2.393  0.9768 -0.7761  0.0413
 8959TIP3    H226817   0.676   0.499   2.318  0.2567 -2.0365 -1.0625
 8960TIP3   OH226818   7.969   6.942   2.631  0.3277 -0.0495  0.1615
 8960TIP3    H126819   7.965   6.870   2.568 -0.6930  1.0254 -1.0640
 8960TIP3    H226820   7.877   6.960   2.653  0.5158  1.3156 -0.1008
 8961TIP3   OH226821   0.941   5.608   2.859  0.5925  0.0012 -0.4781
 8961TIP3    H126822   1.035   5.594   2.852  0.0177 -4.0206 -1.7296
 8961TIP3    H226823   0.910   5.610   2.768 -0.5324  1.3798 -0.0875
 8962TIP3   OH226824   0.957   5.897   3.119  0.2269 -0.1792  0.0339
 8962TIP3    H126825   1.018   5.880   3.047 -0.5592  1.5432 -1.0657
 8962TIP3    H226826   1.011   5.938   3.187  0.8831 -1.4199  0.2811
 8963TIP3   OH226827   8.449   6.661   1.215  0.1412  0.0460 -0.6664
 8963TIP3    H126828   8.493   6.740   1.185 -0.7434  0.6986 -0.2622
 8963TIP3    H226829   8.438   6.674   1.309 -0.0622 -0.5306 -0.6087
 8964TIP3   OH226830   8.123   5.412   2.646  0.1863  0.8327 -0.1583
 8964TIP3    H126831   8.036   5.373   2.641  1.1302 -1.3187 -0.4403
 8964TIP3    H226832   8.117   5.491   2.593 -1.0456 -0.4012 -1.9183
 8965TIP3   OH226833   6.900   3.338   4.536  0.6342 -0.3117 -0.5027
 8965TIP3    H126834   6.917   3.384   4.454  0.0028  2.1792  0.6856
 8965TIP3    H226835   6.983   3.345   4.585  0.9613 -1.6537 -0.8399
 8966TIP3   OH226836   6.947   4.667   0.485 -0.8766 -0.0924  0.6022
 8966TIP3    H126837   6.928   4.633   0.398  1.8052 -0.1876  0.0006
 8966TIP3    H226838   6.970   4.758   0.471 -0.0526 -0.2085  1.1477
 8967TIP3   OH226839   7.953   4.586   2.819 -0.0524 -0.0917 -0.2854
 8967TIP3    H126840   7.945   4.669   2.772 -0.4259 -0.5366 -1.0149
 8967TIP3    H226841   7.891   4.527   2.776  0.6775 -0.9433 -0.1919
 8968TIP3   OH226842   1.304   6.781   0.264 -0.2691 -0.2191 -0.6493
 8968TIP3    H126843   1.225   6.728   0.252 -0.9979  0.4172  1.1383
 8968TIP3    H226844   1.315   6.787   0.359 -0.1546  2.7334 -0.7921
 8969TIP3   OH226845   0.322   0.190   1.504  0.1259 -0.7390 -0.6435
 8969TIP3    H126846   0.320   0.130   1.429  0.0759 -2.6739  0.8884
 8969TIP3    H226847   0.398   0.162   1.555 -0.6610 -0.3365  0.7729
 8970TIP3   OH226848   8.093   6.586   2.546  0.4803 -0.1529 -0.2777
 8970TIP3    H126849   8.173   6.614   2.501  0.9945 -0.2616  0.5509
 8970TIP3    H226850   8.123   6.561   2.634 -1.0141  3.9250  1.5332
 8971TIP3   OH226851   0.301   4.474   1.999 -0.0323 -0.0336  0.0827
 8971TIP3    H126852   0.373   4.443   2.054  0.2389 -0.3746 -0.4556
 8971TIP3    H226853   0.344   4.521   1.928 -0.3838  0.4623  0.1951
 8972TIP3   OH226854   7.144   7.677   2.110  0.3307 -0.4485  0.3980
 8972TIP3    H126855   7.169   7.613   2.177 -1.8162 -1.9282 -0.1494
 8972TIP3    H226856   7.128   7.623   2.032  0.2192  0.9675 -0.5635
 8973TIP3   OH226857   8.411   5.613   5.395 -0.1618 -0.8057 -0.1976
 8973TIP3    H126858   8.336   5.641   5.342  1.0660  2.1499 -0.4810
 8973TIP3    H226859   8.373   5.591   5.480 -1.3752  0.5227 -0.3805
 8974TIP3   OH226860   7.264   5.466   4.818  0.4103 -0.3202 -0.4676
 8974TIP3    H126861   7.312   5.427   4.892 -1.4915 -1.9141 -0.0534
 8974TIP3    H226862   7.188   5.508   4.858  1.1965  1.8783 -1.1759
 8975TIP3   OH226863   6.312   5.775   0.537  0.4715  0.2543 -0.1356
 8975TIP3    H126864   6.310   5.704   0.601  1.3712 -0.6670 -1.1174
 8975TIP3    H226865   6.269   5.739   0.459 -1.2854  1.6079  0.1591
 8976TIP3   OH226866   5.883   7.987   3.251  0.1291  0.1100 -0.5306
 8976TIP3    H126867   5.869   7.963   3.343 -1.0122 -0.8019 -0.9284
 8976TIP3    H226868   5.880   7.904   3.204 -2.4035  0.8782 -1.7722
 8977TIP3   OH226869   8.310   6.210   1.631  0.4858 -0.1539 -0.0750
 8977TIP3    H126870   8.361   6.252   1.700  2.0193 -0.8173 -0.7812
 8977TIP3    H226871   8.253   6.148   1.677 -0.1547  1.0530  0.7711
 8978TIP3   OH226872   6.390   6.873   5.485 -0.0427 -0.3605 -0.5649
 8978TIP3    H126873   6.368   6.932   5.413 -0.3456 -1.2740 -1.2452
 8978TIP3    H226874   6.390   6.786   5.444  1.4772 -0.7220  0.1534
 8979TIP3   OH226875   1.311   7.860   5.045  0.0498 -0.1080  0.0547
 8979TIP3    H126876   1.303   7.857   4.949 -2.3529 -0.4225  0.2496
 8979TIP3    H226877   1.404   7.880   5.060  0.3685  0.3877 -2.3362
 8980TIP3   OH226878   0.376   6.093   5.779 -0.5637  0.7371 -0.4406
 8980TIP3    H126879   0.302   6.053   5.734  0.1345 -0.9864 -0.0974
 8980TIP3    H226880   0.388   6.177   5.735 -1.6929  0.3248 -1.5701
 8981TIP3   OH226881   0.712   6.605   2.927 -0.0910  0.2953 -0.6950
 8981TIP3    H126882   0.783   6.588   2.865  0.3620 -0.2717 -0.0192
 8981TIP3    H226883   0.648   6.654   2.876 -1.5074 -3.5307 -2.7686
 8982TIP3   OH226884   5.565   0.630   3.932  0.1891 -0.1933  0.0051
 8982TIP3    H126885   5.660   0.633   3.946 -0.0056  0.9552  1.2933
 8982TIP3    H226886   5.535   0.556   3.985  0.2247  0.2747  0.6975
 8983TIP3   OH226887   1.344   7.530   3.515  0.0011 -0.3287  0.0865
 8983TIP3    H126888   1.401   7.569   3.581 -1.4716 -0.6230  1.5455
 8983TIP3    H226889   1.255   7.555   3.541 -0.6614 -1.0516 -1.3720
 8984TIP3   OH226890   7.614   5.334   5.210  0.2325  0.0748  0.3775
 8984TIP3    H126891   7.533   5.315   5.257 -0.8499 -0.6995 -1.7173
 8984TIP3    H226892   7.591   5.406   5.151  0.0990 -2.2932 -2.5747
 8985TIP3   OH226893   5.227   5.946   6.543 -0.2588  0.3459  0.6129
 8985TIP3    H126894   5.166   5.944   6.470 -1.0614 -0.7747  1.3010
 8985TIP3    H226895   5.260   5.857   6.550  1.8948  1.0546 -0.0896
 8986TIP3   OH226896   0.728   6.212   2.327  0.7894  0.4704  0.6450
 8986TIP3    H126897   0.813   6.169   2.322  0.6270  0.0951  1.0715
 8986TIP3    H226898   0.680   6.164   2.395 -0.5160 -0.6557 -1.0181
 8987TIP3   OH226899   0.801   6.791   2.600  0.0435 -0.2205  0.0026
 8987TIP3    H126900   0.733   6.822   2.540 -0.6410 -2.8849 -0.6416
 8987TIP3    H226901   0.777   6.829   2.685 -0.8738  0.8086 -0.7019
 8988TIP3   OH226902   1.747   6.339   5.178  0.1753 -0.1226  0.1381
 8988TIP3    H126903   1.735   6.244   5.178  0.1938 -0.1248 -0.2990
 8988TIP3    H226904   1.709   6.367   5.261 -0.6428 -0.4106 -0.1243
 8989TIP3   OH226905   2.312   7.096   4.563 -0.6876  0.6189  0.0255
 8989TIP3    H126906   2.228   7.061   4.591 -0.4750  0.0430 -0.0371
 8989TIP3    H226907   2.339   7.038   4.491  0.2172  0.1962  0.6929
 8990TIP3   OH226908   3.660   0.174   5.331 -0.2798  0.9016  0.1382
 8990TIP3    H126909   3.755   0.174   5.324 -0.2940  1.3708 -0.0720
 8990TIP3    H226910   3.628   0.141   5.247 -0.2650 -0.9762  0.8565
 8991TIP3   OH226911   8.236   6.514   1.806 -0.5858 -0.6554  0.0191
 8991TIP3    H126912   8.234   6.506   1.711  0.2602  1.4160 -0.1994
 8991TIP3    H226913   8.150   6.550   1.829 -0.5493 -0.5507 -0.0125
 8992TIP3   OH226914   7.621   5.731   5.691  0.4527  0.3324 -0.2109
 8992TIP3    H126915   7.609   5.769   5.604  1.0607  0.1057 -0.3931
 8992TIP3    H226916   7.630   5.637   5.675 -2.1188 -0.0438  0.3244
 8993TIP3   OH226917   4.031   0.416   4.543 -0.0779  0.1616  0.4520
 8993TIP3    H126918   3.945   0.375   4.538  0.4133 -0.7501 -0.8291
 8993TIP3    H226919   4.091   0.348   4.512  0.7962  1.6918 -1.3350
 8994TIP3   OH226920   0.355   7.007   5.043  0.3248 -0.3072  0.5672
 8994TIP3    H126921   0.413   7.046   4.978 -0.3054 -0.7986 -0.2870
 8994TIP3    H226922   0.388   7.040   5.127  1.1230  0.3371  0.0043
 8995TIP3   OH226923   8.380   6.116   4.149 -0.1745 -0.4223  0.4706
 8995TIP3    H126924   8.354   6.029   4.120  1.0473  0.2078 -2.6567
 8995TIP3    H226925   8.467   6.105   4.187 -0.7720 -0.8383  1.7504
 8996TIP3   OH226926   1.320   6.540   5.193  0.0994 -0.1786 -0.5656
 8996TIP3    H126927   1.398   6.498   5.157 -1.1595 -1.9839 -1.2565
 8996TIP3    H226928   1.341   6.556   5.285  0.3809 -2.9392 -0.1150
 8997TIP3   OH226929   8.179   7.541   4.480 -0.0659  0.5324 -0.1659
 8997TIP3    H126930   8.244   7.538   4.411  0.6439 -1.5233  0.5699
 8997TIP3    H226931   8.141   7.454   4.482 -0.9875  0.9411  1.1696
 8998TIP3   OH226932   2.266   6.934   2.509  0.2109  0.4187  0.1717
 8998TIP3    H126933   2.292   7.025   2.525  0.4080  0.6533 -1.4789
 8998TIP3    H226934   2.229   6.905   2.593  0.3146  1.9627  0.7621
 8999TIP3   OH226935   1.322   7.024   4.106 -0.4107  0.0266  0.1212
 8999TIP3    H126936   1.327   6.969   4.028 -0.3931 -0.7743  0.6851
 8999TIP3    H226937   1.233   7.060   4.103 -1.1038 -1.5868  0.7865
 9000TIP3   OH226938   3.041   0.889   5.031 -0.0540  0.3538 -0.0410
 9000TIP3    H126939   3.025   0.900   4.938  0.9809 -1.0561 -0.4039
 9000TIP3    H226940   3.008   0.970   5.071 -2.4093  0.1016 -1.3829
 9001TIP3   OH226941   7.993   7.657   2.866 -0.0653 -0.0399 -0.2655
 9001TIP3    H126942   7.940   7.736   2.877 -2.6941 -1.8435  0.5101
 9001TIP3    H226943   7.994   7.642   2.772 -3.2959 -1.4391 -0.1610
 9002TIP3   OH226944   8.348   7.936   3.827 -0.0876  0.3489 -0.2303
 9002TIP3    H126945   8.405   7.909   3.898 -0.3633 -1.5855 -0.7335
 9002TIP3    H226946   8.263   7.898   3.849 -0.4576  0.7160 -1.0095
 9003TIP3   OH226947   0.686   6.938   2.789  0.5632  0.3268  0.1425
 9003TIP3    H126948   0.615   6.993   2.756  0.3669 -0.9542 -1.6474
 9003TIP3    H226949   0.643   6.855   2.810  1.2335  0.1197  0.6747
 9004TIP3   OH226950   2.540   6.853   3.918  0.7541  0.1043  0.1954
 9004TIP3    H126951   2.494   6.933   3.895  1.1242  0.2382 -0.0864
 9004TIP3    H226952   2.602   6.879   3.987  1.4228  0.2247 -0.4437
 9005TIP3   OH226953   7.624   6.615   4.687  0.0911 -0.0584 -0.1882
 9005TIP3    H126954   7.635   6.599   4.594 -0.4479 -0.2105 -0.2271
 9005TIP3    H226955   7.547   6.564   4.711 -1.9468  2.8406 -0.3834
 9006TIP3   OH226956   5.687   5.673   5.618  0.1150  0.4162  0.4701
 9006TIP3    H126957   5.726   5.590   5.644  0.3822  0.4720  0.2416
 9006TIP3    H226958   5.678   5.722   5.700  0.6299  0.4520  0.5040
 9007TIP3   OH226959   1.415   6.631   5.429  0.3792 -0.2933 -0.7844
 9007TIP3    H126960   1.450   6.678   5.504  0.9043 -3.3203  0.9490
 9007TIP3    H226961   1.486   6.572   5.402 -0.6199 -0.8768 -2.2149
 9008TIP3   OH226962   0.468   6.036   3.056  0.1751 -0.2871 -0.1018
 9008TIP3    H126963   0.456   6.124   3.092 -1.0311  0.0890 -1.3666
 9008TIP3    H226964   0.561   6.018   3.067  0.8456  1.9981 -1.6798
 9009TIP3   OH226965   1.038   6.064   6.019 -0.4361 -0.1042  0.3714
 9009TIP3    H126966   0.972   6.104   6.076  0.2607 -0.8340  1.7213
 9009TIP3    H226967   1.110   6.127   6.017  0.3957 -0.9595  1.9867
 9010TIP3   OH226968   2.422   5.731   1.982  0.0025 -0.0545 -0.1151
 9010TIP3    H126969   2.388   5.653   2.026 -2.4523  1.8610  1.4986
 9010TIP3    H226970   2.455   5.786   2.053  0.7667  0.8253 -1.1465
 9011TIP3   OH226971   3.042   0.949   5.409 -0.1296  0.4378  0.4015
 9011TIP3    H126972   2.952   0.919   5.397  0.6347 -1.0460 -2.1067
 9011TIP3    H226973   3.095   0.872   5.391  1.6840  1.5689  0.8115
 9012TIP3   OH226974   2.244   7.546   2.950  0.3517 -0.1676 -0.3094
 9012TIP3    H126975   2.215   7.528   2.860 -1.0981 -0.5677  0.2322
 9012TIP3    H226976   2.263   7.640   2.951 -0.3697 -0.0169 -0.8221
 9013TIP3   OH226977   0.103   6.404   3.737  0.0601  0.1685 -0.3939
 9013TIP3    H126978   0.182   6.360   3.769 -0.6872  0.0774  1.3884
 9013TIP3    H226979   0.134   6.468   3.673  1.4737 -0.5303 -0.4153
 9014TIP3   OH226980   0.525   6.586   4.523 -0.0892  0.6534  0.7276
 9014TIP3    H126981   0.520   6.678   4.550  1.8298  1.0256 -0.0711
 9014TIP3    H226982   0.612   6.577   4.484 -0.1752 -1.5510  0.9426
 9015TIP3   OH226983   0.515   7.344   4.161 -0.4210  0.4556 -0.3695
 9015TIP3    H126984   0.439   7.287   4.177 -1.0604  1.7282  1.3496
 9015TIP3    H226985   0.481   7.415   4.106 -0.4125  0.8505  0.1283
 9016TIP3   OH226986   6.889   0.692   1.191 -0.0037  0.5984 -0.2390
 9016TIP3    H126987   6.795   0.672   1.192  0.1653 -0.3504  2.2734
 9016TIP3    H226988   6.894   0.784   1.167 -1.6552  0.8940  0.4807
 9017TIP3   OH226989   2.174   7.141   5.746 -0.1855 -0.2985 -0.1031
 9017TIP3    H126990   2.226   7.075   5.700 -0.2987  0.3664 -1.2119
 9017TIP3    H226991   2.104   7.091   5.787 -1.3878 -0.6896 -2.5170
 9018TIP3   OH226992   3.779   7.590   2.153 -0.2889  0.3391  0.5210
 9018TIP3    H126993   3.764   7.683   2.137 -1.5248 -0.2046 -1.6289
 9018TIP3    H226994   3.841   7.564   2.085 -2.2210 -1.0447 -0.7473
 9019TIP3   OH226995   2.380   7.646   2.054  0.0687 -0.2535  0.1840
 9019TIP3    H126996   2.298   7.694   2.044 -0.0408 -0.2732  0.9500
 9019TIP3    H226997   2.405   7.659   2.145  1.0986  0.0373 -0.1277
 9020TIP3   OH226998   0.186   6.535   5.452  0.1483  0.2349 -0.3600
 9020TIP3    H126999   0.233   6.529   5.369  0.5616  1.1451 -0.1920
 9020TIP3    H227000   0.253   6.557   5.516 -0.6723  2.6876 -0.2982
 9021TIP3   OH227001   1.533   5.658   4.278  0.6034 -0.2336 -0.1430
 9021TIP3    H127002   1.441   5.679   4.262  1.2180  2.9199  0.0088
 9021TIP3    H227003   1.532   5.605   4.358 -1.1642 -1.5263 -0.9861
 9022TIP3   OH227004   6.354   2.589   4.140 -0.1967 -0.3077  0.3155
 9022TIP3    H127005   6.296   2.661   4.115  2.0856  1.0536 -1.1911
 9022TIP3    H227006   6.389   2.615   4.225 -0.3082 -0.2287  0.3384
 9023TIP3   OH227007   7.242   0.171   4.066  0.0126 -0.1561 -0.1478
 9023TIP3    H127008   7.232   0.155   3.972  2.5024  0.5507 -0.5656
 9023TIP3    H227009   7.235   0.084   4.106  0.0805 -0.6036 -1.0979
 9024TIP3   OH227010   1.619   5.914   2.783 -0.3827 -0.6413 -0.2323
 9024TIP3    H127011   1.683   5.898   2.713 -0.3351  0.6627 -0.5065
 9024TIP3    H227012   1.534   5.900   2.742 -0.4480  2.3706 -1.2014
 9025TIP3   OH227013   1.532   7.319   3.866 -0.5984  0.5650  0.0638
 9025TIP3    H127014   1.501   7.386   3.806  2.4957  2.7727  0.7679
 9025TIP3    H227015   1.498   7.345   3.952 -2.5685 -0.9430 -0.2334
 9026TIP3   OH227016   3.607  -0.012   4.123 -0.3443 -0.3988  0.5481
 9026TIP3    H127017   3.625   0.018   4.212 -0.0988  2.4991 -0.4239
 9026TIP3    H227018   3.515   0.007   4.110  0.2228  1.6148 -0.6819
 9027TIP3   OH227019   2.157   7.423   2.381 -0.4961 -0.3938 -0.1352
 9027TIP3    H127020   2.158   7.515   2.355  1.6647 -0.5342 -0.7030
 9027TIP3    H227021   2.099   7.381   2.318 -1.7139  0.6204  0.2997
 9028TIP3   OH227022   5.069   1.605   4.550  0.3238  0.3328 -0.1075
 9028TIP3    H127023   4.991   1.552   4.567  0.5341  0.0129 -0.1375
 9028TIP3    H227024   5.079   1.658   4.630 -0.2011  0.7326 -0.2993
 9029TIP3   OH227025   2.574   7.427   3.857 -0.4858 -0.2915  0.3405
 9029TIP3    H127026   2.658   7.411   3.814 -0.3590 -0.4108  0.6284
 9029TIP3    H227027   2.551   7.343   3.896 -0.7755 -0.2778  0.1998
 9030TIP3   OH227028   8.379   5.830   4.472  0.1962 -0.1251 -0.4680
 9030TIP3    H127029   8.441   5.841   4.400  0.6316 -1.4469 -0.3097
 9030TIP3    H227030   8.430   5.849   4.551  0.0952 -0.0685 -0.4160
 9031TIP3   OH227031   2.441   6.095   2.944 -0.6675 -0.3906 -0.6827
 9031TIP3    H127032   2.459   6.004   2.970  0.5035 -0.1284 -0.5688
 9031TIP3    H227033   2.472   6.100   2.853  0.2476  0.1933 -0.3323
 9032TIP3   OH227034   1.889   6.189   4.159 -0.3345  0.0128 -0.2084
 9032TIP3    H127035   1.906   6.236   4.077  1.9671  0.7544  0.6479
 9032TIP3    H227036   1.965   6.133   4.170 -2.1196 -2.4804 -0.1711
 9033TIP3   OH227037   1.670   6.906   6.191  0.1820 -0.3198 -0.1516
 9033TIP3    H127038   1.608   6.899   6.264 -1.2382 -1.7156 -1.4521
 9033TIP3    H227039   1.668   6.998   6.166 -1.6914 -0.4340 -0.4487
 9034TIP3   OH227040   2.434   6.856   5.935  0.3737  0.1241 -0.0843
 9034TIP3    H127041   2.504   6.824   5.993  0.9611 -1.1221 -1.4562
 9034TIP3    H227042   2.480   6.886   5.857 -0.6238 -0.8269 -1.0497
 9035TIP3   OH227043   4.222   0.547   3.716  0.5359 -0.0299 -0.7987
 9035TIP3    H127044   4.170   0.474   3.749  1.9655 -0.3593  0.8187
 9035TIP3    H227045   4.190   0.561   3.627 -0.3759 -2.0603 -0.8231
 9036TIP3   OH227046   1.947   0.240   1.820  0.0971  0.2362  0.4214
 9036TIP3    H127047   1.891   0.202   1.752 -0.7858  0.3377  1.0771
 9036TIP3    H227048   1.987   0.317   1.779  0.2873 -0.2197 -0.2632
 9037TIP3   OH227049   8.347   3.250   0.550  0.0147 -0.8440  0.4765
 9037TIP3    H127050   8.342   3.326   0.609 -0.6915 -2.4166  2.4862
 9037TIP3    H227051   8.258   3.237   0.520  0.3200 -0.2539 -0.7178
 9038TIP3   OH227052   2.369   7.465   5.631 -0.3780 -0.5366 -0.0426
 9038TIP3    H127053   2.344   7.482   5.540 -3.0919  1.2600  0.9777
 9038TIP3    H227054   2.448   7.517   5.645  0.7918 -1.8093 -1.7028
 9039TIP3   OH227055   6.958   0.989   2.965  0.1041  0.2839  0.4359
 9039TIP3    H127056   7.045   0.959   2.940 -0.7787 -3.8135  1.8113
 9039TIP3    H227057   6.898   0.927   2.922 -2.2153  3.1490 -0.6835
 9040TIP3   OH227058   6.164   0.019   3.264 -0.2715 -0.3886  0.1799
 9040TIP3    H127059   6.120  -0.065   3.247 -0.9966 -0.0648  0.4164
 9040TIP3    H227060   6.198   0.046   3.178 -0.0441 -0.9179  0.1010
 9041TIP3   OH227061   0.894   6.284   5.211  0.1522  0.9228 -0.0687
 9041TIP3    H127062   0.963   6.326   5.263  1.3213 -0.4705 -0.4778
 9041TIP3    H227063   0.875   6.348   5.142  2.0882  0.7034 -0.8248
 9042TIP3   OH227064   3.156   6.862   4.873 -0.3085 -0.0170  0.5526
 9042TIP3    H127065   3.151   6.766   4.878  0.3648 -0.2208 -2.1249
 9042TIP3    H227066   3.089   6.887   4.810  0.0576  1.2081  0.6315
 9043TIP3   OH227067   4.280   2.311   4.193  0.2956 -0.1850 -0.5044
 9043TIP3    H127068   4.223   2.235   4.180  0.7520 -0.6123 -0.0230
 9043TIP3    H227069   4.228   2.370   4.247 -0.0985 -0.1033 -0.9599
 9044TIP3   OH227070   1.838   7.881   2.147  0.9279 -0.2762 -0.1773
 9044TIP3    H127071   1.906   7.945   2.170  0.2089  0.2933  0.3855
 9044TIP3    H227072   1.804   7.852   2.231  1.2623 -1.4178 -0.4329
 9045TIP3   OH227073   1.929   7.322   3.626  0.2796  0.3931  0.7288
 9045TIP3    H127074   1.899   7.412   3.615 -1.1140 -0.2927 -1.5452
 9045TIP3    H227075   1.851   7.275   3.656  0.4897 -0.4203  0.0065
 9046TIP3   OH227076   8.394   5.660   2.412 -0.3208  0.2729  0.6173
 9046TIP3    H127077   8.456   5.624   2.349 -1.5650  0.4774 -0.7456
 9046TIP3    H227078   8.364   5.742   2.373 -1.3729  0.2301  1.2984
 9047TIP3   OH227079   5.181   1.226   5.648 -0.2122 -0.1720  0.5207
 9047TIP3    H127080   5.251   1.282   5.613  0.4602 -2.9279 -2.7800
 9047TIP3    H227081   5.218   1.189   5.728  1.5079 -0.2834 -0.2953
 9048TIP3   OH227082   1.036   6.409   2.390 -0.5021 -0.6061  0.0463
 9048TIP3    H127083   1.060   6.344   2.456 -0.7907  0.5537  1.3207
 9048TIP3    H227084   1.091   6.387   2.314  2.2583  0.0190  1.7808
 9049TIP3   OH227085   5.526   0.635   6.275  0.3743 -0.5569 -0.2815
 9049TIP3    H127086   5.606   0.681   6.248 -0.7892  0.2996 -2.4511
 9049TIP3    H227087   5.503   0.582   6.198 -2.2607  0.8073 -0.4878
 9050TIP3   OH227088   0.175   7.265   3.944 -0.1849  0.2717  0.6130
 9050TIP3    H127089   0.186   7.342   3.999 -0.4497  0.7775 -0.0406
 9050TIP3    H227090   0.259   7.219   3.950 -0.4644 -0.1009  2.0563
 9051TIP3   OH227091   6.635   0.564   4.337 -0.1371  0.5637 -0.4572
 9051TIP3    H127092   6.686   0.494   4.379 -0.0466  0.8646 -0.0719
 9051TIP3    H227093   6.558   0.574   4.392  0.8602  2.2209  0.6613
 9052TIP3   OH227094   1.409   6.963   2.431 -0.0551 -0.3642 -0.0869
 9052TIP3    H127095   1.471   7.014   2.483  0.9981 -2.1645  0.4658
 9052TIP3    H227096   1.353   7.029   2.389 -0.1093  1.1556  2.2719
 9053TIP3   OH227097   1.743   6.289   2.327 -0.6970  0.1491 -0.1582
 9053TIP3    H127098   1.788   6.361   2.372 -1.8797  1.5790 -1.2389
 9053TIP3    H227099   1.654   6.291   2.362 -0.8843 -0.4482 -0.6011
 9054TIP3   OH227100   3.925   0.665   5.032 -0.5514  0.4425 -0.1031
 9054TIP3    H127101   3.900   0.679   5.123 -0.2266  0.1434  0.0346
 9054TIP3    H227102   3.999   0.724   5.018  1.7261 -2.0491  0.8881
 9055TIP3   OH227103   5.934   0.735   4.795  0.0471  0.3871 -0.2478
 9055TIP3    H127104   5.841   0.729   4.817 -0.3055  1.3153 -1.3986
 9055TIP3    H227105   5.935   0.738   4.699  1.2641  0.3319 -0.2369
 9056TIP3   OH227106   2.034   7.634   4.326  0.2996  0.1791  0.4871
 9056TIP3    H127107   2.097   7.618   4.256 -0.1497  1.0004 -0.1189
 9056TIP3    H227108   2.039   7.729   4.341 -1.1260  0.3298  0.0888
 9057TIP3   OH227109   0.227   7.334   5.055  0.1922  0.0306  0.1575
 9057TIP3    H127110   0.298   7.274   5.078  1.0230  0.7319 -0.5836
 9057TIP3    H227111   0.260   7.421   5.077 -0.8493  0.2712  0.8264
 9058TIP3   OH227112   3.333   7.546   5.319 -0.1656 -0.4294 -0.4922
 9058TIP3    H127113   3.347   7.638   5.342 -0.8929 -0.6481  0.8465
 9058TIP3    H227114   3.414   7.502   5.347 -0.1415 -0.3330 -0.4075
 9059TIP3   OH227115   2.545   7.655   4.916 -0.1447 -0.3279  0.4902
 9059TIP3    H127116   2.449   7.658   4.923 -0.3579  1.5189 -2.4082
 9059TIP3    H227117   2.567   7.562   4.926 -2.3801 -0.9759 -0.2382
 9060TIP3   OH227118   4.194   2.376   1.870 -0.1024  0.1263 -0.2176
 9060TIP3    H127119   4.204   2.311   1.801 -0.0506  0.0791 -0.1649
 9060TIP3    H227120   4.267   2.437   1.857 -1.0644  1.0960 -1.2825
 9061TIP3   OH227121   2.349   7.849   4.792  0.0888 -0.4033  0.3421
 9061TIP3    H127122   2.417   7.913   4.768 -0.5772  0.4140  0.6128
 9061TIP3    H227123   2.276   7.868   4.733  0.1092 -1.3327  0.0022
 9062TIP3   OH227124   0.664   6.678   3.870 -0.0870  0.7142  0.4134
 9062TIP3    H127125   0.694   6.691   3.780 -1.4754  0.9429 -0.0207
 9062TIP3    H227126   0.652   6.766   3.905 -0.5273  0.6297  0.4856
 9063TIP3   OH227127   8.320   5.148   4.475 -0.1872  0.3458 -0.2196
 9063TIP3    H127128   8.295   5.055   4.475 -0.3456  0.3876 -0.4068
 9063TIP3    H227129   8.283   5.183   4.555  0.9554 -0.0375  0.4914
 9064TIP3   OH227130   1.911   7.817   3.486  0.2640  0.5941 -0.2390
 9064TIP3    H127131   1.871   7.898   3.515 -0.6449 -0.1923  0.7500
 9064TIP3    H227132   2.000   7.820   3.521 -0.4976  0.1118  1.8233
 9065TIP3   OH227133   7.577   1.708   4.538 -0.8081 -0.1952  0.3610
 9065TIP3    H127134   7.617   1.631   4.498 -1.2746 -0.6808  0.8375
 9065TIP3    H227135   7.649   1.772   4.543 -0.3199 -0.7374  0.3527
 9066TIP3   OH227136   0.216   6.259   2.096  0.3701 -0.7178 -0.4086
 9066TIP3    H127137   0.136   6.211   2.119  1.1148 -1.5592  0.4723
 9066TIP3    H227138   0.191   6.351   2.101  0.0872 -0.9021  2.3034
 9067TIP3   OH227139   0.540   5.683   5.280  0.4077 -0.1114 -0.1809
 9067TIP3    H127140   0.632   5.689   5.305  1.0162 -0.9211 -2.1786
 9067TIP3    H227141   0.514   5.595   5.307  1.0923 -1.0225 -2.4145
 9068TIP3   OH227142   1.667   6.692   4.260 -0.0380 -0.1251 -0.0651
 9068TIP3    H127143   1.747   6.644   4.241 -0.8113 -0.9203 -1.3858
 9068TIP3    H227144   1.597   6.640   4.220 -1.1951  0.6700  0.8714
 9069TIP3   OH227145   0.543   6.757   4.868  0.0977 -0.5221 -0.3466
 9069TIP3    H127146   0.525   6.800   4.784 -0.0224 -0.1803 -0.1457
 9069TIP3    H227147   0.622   6.706   4.852 -0.1149 -0.7262 -0.7675
 9070TIP3   OH227148   8.044   7.671   3.378 -0.4361  0.8124 -0.0971
 9070TIP3    H127149   7.997   7.727   3.317 -2.4871  0.2379  0.9021
 9070TIP3    H227150   7.986   7.595   3.390  0.7732  0.0610  1.1180
 9071TIP3   OH227151   4.043   5.695   5.688  0.0875  0.2470  0.5397
 9071TIP3    H127152   3.985   5.641   5.634  0.7324  0.9067 -0.8341
 9071TIP3    H227153   4.007   5.688   5.776 -2.0504  0.5854 -0.2794
 9072TIP3   OH227154   3.977   5.739   1.873  0.5179  0.4882  0.2000
 9072TIP3    H127155   4.038   5.666   1.876 -1.0208 -0.8066  1.0721
 9072TIP3    H227156   3.966   5.764   1.965  0.9233  1.7331 -0.0826
 9073TIP3   OH227157   0.745   8.010   4.801 -0.0761 -0.9898 -0.1729
 9073TIP3    H127158   0.755   8.005   4.896 -0.4664  1.3723  0.0111
 9073TIP3    H227159   0.709   7.925   4.777  1.7003 -2.2795  1.5577
 9074TIP3   OH227160   2.881   5.945   3.018 -0.0507  0.0017 -0.7024
 9074TIP3    H127161   2.863   6.008   3.088 -2.7036  0.3221 -1.6174
 9074TIP3    H227162   2.871   5.995   2.937  1.4033 -0.7490 -1.3690
 9075TIP3   OH227163   2.569   6.679   2.660  0.1319 -0.3458  0.3935
 9075TIP3    H127164   2.514   6.699   2.584  2.5716  0.3556 -1.2409
 9075TIP3    H227165   2.585   6.763   2.701  1.0583 -0.3770  0.1014
 9076TIP3   OH227166   0.693   7.360   3.260 -0.6453  0.2613  0.9108
 9076TIP3    H127167   0.731   7.430   3.206 -1.1774  0.0207  0.2113
 9076TIP3    H227168   0.760   7.291   3.260 -0.2086  0.6818  1.4278
 9077TIP3   OH227169   4.486   1.318   6.140 -0.0014  0.3495  0.1991
 9077TIP3    H127170   4.424   1.351   6.206  0.0610  0.9836 -0.0515
 9077TIP3    H227171   4.435   1.317   6.059 -0.0871 -0.4626  0.2609
 9078TIP3   OH227172   5.870   0.696   5.951 -0.5331 -0.6280  0.7529
 9078TIP3    H127173   5.924   0.634   5.999 -2.0259 -1.9069  0.8152
 9078TIP3    H227174   5.932   0.762   5.918  1.0167 -1.9357  0.9948
 9079TIP3   OH227175   2.242   7.277   4.075 -0.1850 -0.1271 -0.6062
 9079TIP3    H127176   2.320   7.230   4.103 -0.5813  0.6499  1.9847
 9079TIP3    H227177   2.210   7.229   3.999  2.2134 -1.0647 -1.0502
 9080TIP3   OH227178   0.473   6.082   4.392 -0.6568  0.0127 -0.4711
 9080TIP3    H127179   0.550   6.130   4.422 -1.5366  0.5515  0.9662
 9080TIP3    H227180   0.440   6.037   4.470  0.1316 -2.9586 -1.7878
 9081TIP3   OH227181   0.240   6.946   4.188 -0.3714  0.2300  0.6004
 9081TIP3    H127182   0.309   7.003   4.155 -1.5177  1.1028 -0.3712
 9081TIP3    H227183   0.286   6.875   4.233  1.2512 -0.5663 -2.2072
 9082TIP3   OH227184   4.203   0.125   6.320  0.3585 -0.1754 -0.6733
 9082TIP3    H127185   4.171   0.110   6.231  0.1736  2.5056 -1.1131
 9082TIP3    H227186   4.152   0.199   6.352  1.5405 -0.0758  1.0739
 9083TIP3   OH227187   0.766   6.543   2.336  0.6692 -0.2857 -0.3063
 9083TIP3    H127188   0.697   6.477   2.338  0.9928 -0.6747 -1.7276
 9083TIP3    H227189   0.847   6.493   2.329  1.1758  0.1360  2.1322
 9084TIP3   OH227190   5.194   2.036   6.087  0.1131 -0.1040 -0.3241
 9084TIP3    H127191   5.285   2.006   6.085  0.4246  0.7615  0.5395
 9084TIP3    H227192   5.152   1.989   6.015  1.1066 -0.9388 -0.3704
 9085TIP3   OH227193   2.975   8.000   3.229  0.3511  0.1816  0.0999
 9085TIP3    H127194   2.939   8.060   3.294  1.1429  0.7037  0.0711
 9085TIP3    H227195   2.980   7.915   3.274 -0.5757  0.1855  0.2073
 9086TIP3   OH227196   0.383   7.897   1.067 -0.0145  0.2783  0.1197
 9086TIP3    H127197   0.461   7.948   1.046  0.5912 -0.9768 -0.6753
 9086TIP3    H227198   0.367   7.843   0.990 -1.2487 -0.0058  0.5559
 9087TIP3   OH227199   4.660   7.617   1.982  0.0935 -0.5338 -0.5123
 9087TIP3    H127200   4.598   7.582   2.046 -1.9897 -0.5004 -2.4252
 9087TIP3    H227201   4.655   7.557   1.908  1.1789  0.3533 -1.3292
 9088TIP3   OH227202   8.449   6.896   4.601 -0.1355  0.2400  0.2570
 9088TIP3    H127203   8.462   6.960   4.531  0.3720 -1.8050 -1.5582
 9088TIP3    H227204   8.538   6.875   4.630 -0.3097  0.4794  0.9758
 9089TIP3   OH227205   2.109   6.868   4.649 -0.2187 -0.2373  0.1210
 9089TIP3    H127206   2.037   6.847   4.590 -0.6951 -1.5119  1.1551
 9089TIP3    H227207   2.082   6.949   4.692 -1.8286 -1.6057  1.7573
 9090TIP3   OH227208   1.945   5.732   1.801  0.4768  0.0466 -0.3915
 9090TIP3    H127209   1.901   5.702   1.881 -0.2104 -1.7372 -1.4131
 9090TIP3    H227210   2.023   5.677   1.794  1.5953  1.5169  0.0659
 9091TIP3   OH227211   3.016   6.223   3.460 -0.2369 -0.3747 -0.7867
 9091TIP3    H127212   3.024   6.299   3.517  0.4185 -1.9022  1.2424
 9091TIP3    H227213   3.023   6.148   3.519  1.4512 -2.0567 -3.0123
 9092TIP3   OH227214   2.473   6.916   3.567  0.1380  0.1321  0.0747
 9092TIP3    H127215   2.476   6.937   3.474  0.0884 -0.7627 -0.1304
 9092TIP3    H227216   2.390   6.869   3.579  0.9880 -1.3529  0.2270
 9093TIP3   OH227217   0.106   5.101   3.958 -0.0892 -0.1845  0.8731
 9093TIP3    H127218   0.123   5.070   3.870 -0.4388 -0.5650  0.9360
 9093TIP3    H227219   0.191   5.102   4.001  0.3726  1.8529 -0.0527
 9094TIP3   OH227220   1.770   7.798   4.752 -0.4316 -0.1200  0.0480
 9094TIP3    H127221   1.684   7.803   4.711 -1.2323 -1.5145  1.5227
 9094TIP3    H227222   1.818   7.733   4.701 -1.2033 -1.3576  0.8546
 9095TIP3   OH227223   3.204   8.022   4.762 -0.2240  0.3357 -0.1971
 9095TIP3    H127224   3.169   7.973   4.687  0.6632 -1.7389  0.6901
 9095TIP3    H227225   3.298   8.003   4.760 -0.2844 -0.2910  1.8142
 9096TIP3   OH227226   1.856   4.094   6.577 -0.3493  0.4877  0.9027
 9096TIP3    H127227   1.803   4.032   6.527 -1.3289  1.8058  0.2576
 9096TIP3    H227228   1.946   4.066   6.563 -0.6714  0.2561 -0.8225
 9097TIP3   OH227229   4.236   7.656   5.376  0.2347  0.3407 -0.1689
 9097TIP3    H127230   4.291   7.721   5.419 -0.5328  0.1956  1.0708
 9097TIP3    H227231   4.184   7.706   5.313 -0.3549  0.9408  0.7853
 9098TIP3   OH227232   6.796   0.402   4.542  0.0478 -0.4504 -0.4893
 9098TIP3    H127233   6.891   0.395   4.543  0.2384  1.8752 -0.5785
 9098TIP3    H227234   6.775   0.460   4.615 -1.2858 -0.8032 -0.5856
 9099TIP3   OH227235   6.857   1.862   3.079  0.3848 -0.3314  0.3519
 9099TIP3    H127236   6.865   1.955   3.096 -2.1128  0.0547 -0.4307
 9099TIP3    H227237   6.945   1.827   3.093  1.7144  2.3923 -1.0021
 9100TIP3   OH227238   4.242   0.132   4.783  0.1394  0.0299 -0.2444
 9100TIP3    H127239   4.332   0.112   4.808 -0.5125 -0.5549  1.6490
 9100TIP3    H227240   4.194   0.051   4.798 -0.5237  0.0167 -2.2585
 9101TIP3   OH227241   3.719   7.914   3.891 -0.6741 -0.6345  0.3693
 9101TIP3    H127242   3.778   7.883   3.960 -0.3548 -0.1930  0.2903
 9101TIP3    H227243   3.766   7.896   3.810 -0.9597 -0.9538  0.2716
 9102TIP3   OH227244   7.936   4.480   1.119  0.1964  0.5496  0.0122
 9102TIP3    H127245   7.966   4.457   1.031  1.3194 -0.5480  0.6709
 9102TIP3    H227246   7.877   4.554   1.105 -1.1240 -0.8021 -1.8548
 9103TIP3   OH227247   7.681   5.137   1.945  0.3412 -0.3813  1.1878
 9103TIP3    H127248   7.751   5.199   1.961 -0.2564  0.0395  2.2467
 9103TIP3    H227249   7.602   5.190   1.939  0.1615 -0.8039 -0.4971
 9104TIP3   OH227250   6.398   0.401   6.490  0.7608 -0.2833  0.7502
 9104TIP3    H127251   6.379   0.469   6.554  0.1104  0.0569  0.1880
 9104TIP3    H227252   6.489   0.417   6.465 -0.2521  2.2367 -1.6106
 9105TIP3   OH227253   0.416   7.420   3.784  0.1767 -0.2778  0.3921
 9105TIP3    H127254   0.360   7.415   3.707  1.3947  1.0897 -0.6232
 9105TIP3    H227255   0.487   7.358   3.767  0.1654 -0.3590  0.6366
 9106TIP3   OH227256   0.496   6.583   5.454  0.0041  0.1059 -0.4177
 9106TIP3    H127257   0.523   6.665   5.413  0.3545  0.2938  0.1795
 9106TIP3    H227258   0.553   6.575   5.531 -0.6200 -0.2492  0.0147
 9107TIP3   OH227259   2.110   7.591   6.534  0.0933  0.1266  0.0212
 9107TIP3    H127260   2.104   7.638   6.617  0.6041 -0.1957  0.2466
 9107TIP3    H227261   2.080   7.653   6.468  0.4850  0.6678  0.3503
 9108TIP3   OH227262   3.199   5.816   2.864 -0.3021 -0.5382 -0.3368
 9108TIP3    H127263   3.232   5.806   2.775 -2.0215 -0.5109 -1.0009
 9108TIP3    H227264   3.218   5.908   2.886  0.8494 -0.7634 -0.3587
 9109TIP3   OH227265   0.334   6.830   3.869  0.4104  0.0359  0.2862
 9109TIP3    H127266   0.365   6.765   3.806 -1.0875 -0.7043  0.2823
 9109TIP3    H227267   0.315   6.779   3.948  1.9201  0.9074  1.2312
 9110TIP3   OH227268   2.039   0.468   2.641  0.2857  0.1669 -0.0298
 9110TIP3    H127269   2.013   0.426   2.723  1.0609  0.7188  0.5054
 9110TIP3    H227270   2.126   0.432   2.622 -0.1049 -0.3371 -0.8736
 9111TIP3   OH227271   0.926   5.997   4.874  0.7330 -0.0565 -0.1469
 9111TIP3    H127272   0.859   6.058   4.844  0.0024 -0.4793  0.6036
 9111TIP3    H227273   1.001   6.053   4.897 -0.3868  0.6974  1.7764
 9112TIP3   OH227274   0.303   7.278   4.623 -0.0353  0.0125 -0.2357
 9112TIP3    H127275   0.334   7.343   4.559 -1.9121 -0.5263 -1.7545
 9112TIP3    H227276   0.244   7.327   4.681  0.7268  0.2484  0.3402
 9113TIP3   OH227277   2.455   7.635   3.310 -0.0259 -0.1501 -0.0616
 9113TIP3    H127278   2.487   7.563   3.256  0.6736  0.4934 -0.5312
 9113TIP3    H227279   2.535   7.674   3.346 -0.4163  0.2235  0.3998
 9114TIP3   OH227280   7.253   4.636   0.231 -0.2914 -0.2409 -0.0315
 9114TIP3    H127281   7.294   4.682   0.158  0.7479 -1.4138 -0.1835
 9114TIP3    H227282   7.173   4.686   0.248 -0.4615  0.1472 -1.8520
 9115TIP3   OH227283   1.780   7.611   2.236  0.5586 -0.0246 -0.1000
 9115TIP3    H127284   1.820   7.595   2.321  0.6554 -3.0344 -0.6450
 9115TIP3    H227285   1.846   7.660   2.187  1.2009  0.1787  0.9539
 9116TIP3   OH227286   6.939   0.376   3.755  0.5213 -0.4001  0.0998
 9116TIP3    H127287   7.018   0.394   3.806  1.0794  0.5459 -1.0840
 9116TIP3    H227288   6.965   0.306   3.695 -0.0062 -1.1992  0.7985
 9117TIP3   OH227289   3.607   7.262   5.629 -0.2057 -0.1694 -0.0932
 9117TIP3    H127290   3.674   7.200   5.659  0.7911  1.0025  0.1531
 9117TIP3    H227291   3.601   7.326   5.700 -0.7632  0.3656 -0.6242
 9118TIP3   OH227292   2.943   0.340   2.159  0.0020 -0.2504 -0.0631
 9118TIP3    H127293   2.995   0.284   2.217  0.1042  0.1223  0.2109
 9118TIP3    H227294   2.960   0.429   2.191 -0.3870 -0.0878 -0.3083
 9119TIP3   OH227295   6.663   0.938   2.439  0.6811 -0.1558 -0.2151
 9119TIP3    H127296   6.611   0.884   2.381 -0.3034  1.2628 -0.6959
 9119TIP3    H227297   6.624   1.025   2.432  3.1041  0.9451 -0.5667
 9120TIP3   OH227298   4.086   0.717   3.134 -0.0538 -0.4679  0.2517
 9120TIP3    H127299   3.998   0.755   3.137  0.1360 -0.1199  1.3905
 9120TIP3    H227300   4.079   0.635   3.182  0.2871 -0.3557  0.4932
 9121TIP3   OH227301   1.634   7.553   5.277 -0.0050 -0.2243 -0.2567
 9121TIP3    H127302   1.700   7.573   5.211  0.7961  0.4981  0.7342
 9121TIP3    H227303   1.550   7.560   5.231  0.6112 -1.2605 -1.5584
 9122TIP3   OH227304   4.085   5.203   0.372 -0.1799 -0.3879  0.5990
 9122TIP3    H127305   4.099   5.117   0.333  0.4794 -1.5231  3.2580
 9122TIP3    H227306   3.991   5.206   0.391 -0.2859 -0.3117  0.0824
 9123TIP3   OH227307   0.227   6.114   4.289  0.1946 -0.0545  0.5338
 9123TIP3    H127308   0.197   6.204   4.283  1.2075  0.1928 -0.8569
 9123TIP3    H227309   0.315   6.120   4.325  0.0951 -0.5330  0.8689
 9124TIP3   OH227310   3.270   7.215   4.130  0.3129 -0.8609  0.2346
 9124TIP3    H127311   3.296   7.295   4.176 -1.1033 -0.8178  0.9764
 9124TIP3    H227312   3.191   7.239   4.082  1.2597 -1.1503 -1.5542
 9125TIP3   OH227313   4.913   0.281   4.248  0.2615 -0.1635  0.3941
 9125TIP3    H127314   4.830   0.246   4.215  0.4591  0.3848 -0.7222
 9125TIP3    H227315   4.978   0.214   4.227 -0.0794 -1.1274  2.3497
 9126TIP3   OH227316   1.023   7.759   2.878 -0.7148  0.1875 -0.0258
 9126TIP3    H127317   1.096   7.705   2.847 -0.5466 -0.2071  1.0172
 9126TIP3    H227318   0.971   7.700   2.933 -2.4132  0.1810 -1.6056
 9127TIP3   OH227319   4.234   6.470   5.249 -0.2086  0.1884  0.3648
 9127TIP3    H127320   4.140   6.478   5.232  0.0729  0.4437 -1.1581
 9127TIP3    H227321   4.275   6.535   5.192  0.9282 -0.3063  0.5990
 9128TIP3   OH227322   2.109   7.813   5.751  0.2354  0.0278  0.3733
 9128TIP3    H127323   2.016   7.810   5.728  0.2948 -0.6895  0.1904
 9128TIP3    H227324   2.116   7.884   5.815 -0.0090  1.7503 -1.4777
 9129TIP3   OH227325   7.135   0.467   3.315  0.9953 -0.4952  0.2291
 9129TIP3    H127326   7.144   0.406   3.242 -0.8838  1.1743 -1.4693
 9129TIP3    H227327   7.220   0.510   3.321  0.9741 -0.1923 -1.4235
 9130TIP3   OH227328   6.164   0.796   4.938 -0.0599  0.1024 -0.2041
 9130TIP3    H127329   6.161   0.890   4.960  0.3363 -0.1982  1.2299
 9130TIP3    H227330   6.088   0.782   4.882 -2.0461  0.6470  2.2489
 9131TIP3   OH227331   2.526   7.637   4.586  0.4820 -0.4019 -0.2262
 9131TIP3    H127332   2.614   7.604   4.565  0.0191 -0.3340 -2.3773
 9131TIP3    H227333   2.524   7.639   4.681  3.3681  1.0719 -0.1375
 9132TIP3   OH227334   6.441   0.632   5.568 -0.9061 -0.0606  0.1989
 9132TIP3    H127335   6.367   0.675   5.525 -0.4587 -0.2654 -0.7809
 9132TIP3    H227336   6.408   0.546   5.592 -1.5080  0.4723  1.2985
 9133TIP3   OH227337   0.657   5.974   3.743  0.1260  0.7768  0.3073
 9133TIP3    H127338   0.714   6.051   3.744  2.6111 -0.9876 -0.3606
 9133TIP3    H227339   0.713   5.902   3.774 -1.5415 -1.1505 -1.0124
 9134TIP3   OH227340   0.329   7.024   4.714  0.3300 -0.0912  0.0643
 9134TIP3    H127341   0.280   7.104   4.696 -0.7450 -0.6546  0.4250
 9134TIP3    H227342   0.400   7.051   4.771 -1.2759  0.2818  1.9582
 9135TIP3   OH227343   7.111   0.707   5.547 -0.3488 -0.0594 -0.7441
 9135TIP3    H127344   7.191   0.733   5.594 -2.0690  1.4569  1.4765
 9135TIP3    H227345   7.121   0.613   5.532  2.4037  0.3287 -1.6494
 9136TIP3   OH227346   1.828   1.173   0.964 -0.0133  0.0834 -0.3600
 9136TIP3    H127347   1.881   1.143   0.890 -0.5492 -1.2716 -0.2224
 9136TIP3    H227348   1.742   1.133   0.949 -0.4453  0.7016  0.4189
 9137TIP3   OH227349   5.655   0.597   4.276  0.5400  0.5222  0.3703
 9137TIP3    H127350   5.673   0.545   4.198  0.1258 -0.4918  0.9361
 9137TIP3    H227351   5.728   0.658   4.282  0.4455  0.7827 -0.9426
 9138TIP3   OH227352   2.413   7.962   3.379 -0.1745 -0.0230 -0.5962
 9138TIP3    H127353   2.375   8.012   3.452  1.4763 -1.7612  1.4892
 9138TIP3    H227354   2.504   7.991   3.375  1.0791 -3.5206  1.2837
 9139TIP3   OH227355   3.866   6.722   0.902  0.4166  0.0303 -0.2368
 9139TIP3    H127356   3.856   6.750   0.811 -0.1657 -2.2454 -0.9039
 9139TIP3    H227357   3.941   6.772   0.934  0.5981  0.8972 -1.9453
 9140TIP3   OH227358   2.368   6.321   3.641  0.0176 -0.1789  0.2279
 9140TIP3    H127359   2.349   6.414   3.631  0.4116 -0.1464 -0.1891
 9140TIP3    H227360   2.459   6.311   3.614 -1.1373 -1.3318 -3.4564
 9141TIP3   OH227361   3.567   6.324   0.994 -0.2465  0.2036 -0.0488
 9141TIP3    H127362   3.614   6.249   0.956 -1.1445 -0.9267  1.0440
 9141TIP3    H227363   3.550   6.381   0.919 -0.0350 -0.9429 -0.9948
 9142TIP3   OH227364   2.773   5.901   1.224 -0.1003  0.1910 -0.2002
 9142TIP3    H127365   2.853   5.953   1.219  0.2395 -0.3178 -0.0973
 9142TIP3    H227366   2.707   5.954   1.178  0.2258  0.7311 -0.0506
 9143TIP3   OH227367   0.584   5.461   3.665 -0.1834 -0.1179 -0.4332
 9143TIP3    H127368   0.519   5.392   3.677  1.6101 -1.6716  0.4644
 9143TIP3    H227369   0.621   5.446   3.578  0.8411 -0.8358  0.1237
 9144TIP3   OH227370   2.651   6.555   6.470 -0.3782  0.2994  0.5507
 9144TIP3    H127371   2.744   6.532   6.477 -0.0954  0.9898 -0.7304
 9144TIP3    H227372   2.651   6.642   6.431 -1.6000 -0.1570 -0.4978
 9145TIP3   OH227373   2.731   6.706   4.877  0.1244  0.3003  0.0187
 9145TIP3    H127374   2.773   6.735   4.796 -0.2708 -0.6466 -0.5370
 9145TIP3    H227375   2.776   6.625   4.899  0.7962  0.9929  1.2178
 9146TIP3   OH227376   2.692   5.976   5.268 -0.2525  0.0001 -0.4183
 9146TIP3    H127377   2.777   5.943   5.299 -0.6849  0.2800  1.1152
 9146TIP3    H227378   2.703   6.071   5.268 -0.3116  0.0070 -0.9859
 9147TIP3   OH227379   3.016   6.450   2.381  0.0149  0.7298 -0.2491
 9147TIP3    H127380   2.986   6.541   2.384 -1.4024  0.2734 -0.4169
 9147TIP3    H227381   3.029   6.432   2.288  1.0916  1.0065 -0.1610
 9148TIP3   OH227382   1.708   7.154   3.717 -0.7275 -0.3694 -0.4068
 9148TIP3    H127383   1.702   7.116   3.805  2.3454 -0.2151 -0.0555
 9148TIP3    H227384   1.647   7.228   3.719  0.7186  0.8259  2.3090
 9149TIP3   OH227385   7.281   0.218   4.696 -0.4996  0.0585  0.1761
 9149TIP3    H127386   7.299   0.260   4.611 -1.4331  1.7112  0.7803
 9149TIP3    H227387   7.205   0.163   4.679 -2.5791  2.7086  0.6353
 9150TIP3   OH227388   2.895   5.841   4.157  0.2169 -0.0676 -0.0157
 9150TIP3    H127389   2.990   5.836   4.148  0.3034  0.0014  0.7639
 9150TIP3    H227390   2.874   5.773   4.221 -0.2477 -0.0239 -0.1216
 9151TIP3   OH227391   7.851   7.004   5.052  0.3944 -0.2566 -0.4271
 9151TIP3    H127392   7.765   7.042   5.069  0.5593  0.3704 -0.9442
 9151TIP3    H227393   7.913   7.072   5.081  0.6864  0.2040 -2.0710
 9152TIP3   OH227394   7.295   0.622   5.736  0.0497 -0.4199  0.2092
 9152TIP3    H127395   7.283   0.530   5.711  1.3809 -0.8253  1.0061
 9152TIP3    H227396   7.352   0.618   5.813 -1.5128  0.9694  1.4848
 9153TIP3   OH227397   3.631   6.932   1.950  0.0253  0.5997  0.0009
 9153TIP3    H127398   3.611   6.853   1.900 -0.8018 -1.2261  3.1030
 9153TIP3    H227399   3.547   6.961   1.984  0.4771  2.2503 -0.2403
 9154TIP3   OH227400   1.917   6.552   4.191  0.0170  0.2038  0.2198
 9154TIP3    H127401   1.990   6.605   4.224  0.2690 -0.3060  0.4834
 9154TIP3    H227402   1.908   6.482   4.255  0.0760 -0.4136 -0.4513
 9155TIP3   OH227403   0.446   7.401   2.870 -0.3238 -0.5128 -0.2147
 9155TIP3    H127404   0.383   7.356   2.814 -0.4506  0.2231 -0.6713
 9155TIP3    H227405   0.517   7.426   2.811  0.0148 -0.6247  0.1447
 9156TIP3   OH227406   7.168   3.710   0.634 -0.4904  0.1327 -0.2507
 9156TIP3    H127407   7.109   3.781   0.609 -1.8941 -1.4441 -1.5420
 9156TIP3    H227408   7.120   3.662   0.702  0.3399  0.2629  0.4361
 9157TIP3   OH227409   0.094   7.312   1.890 -0.2665  0.3065  0.5702
 9157TIP3    H127410   0.113   7.356   1.808  0.8685 -0.1742  0.5638
 9157TIP3    H227411   0.074   7.221   1.865  1.1903 -0.1209  0.9064
 9158TIP3   OH227412   7.290   3.708   3.383 -0.1231 -0.5504 -0.5015
 9158TIP3    H127413   7.294   3.718   3.478  2.3997 -0.9497 -0.5497
 9158TIP3    H227414   7.266   3.795   3.352  0.1805 -0.1237  0.4280
 9159TIP3   OH227415   0.696   6.469   5.146 -0.2418  0.6412  0.1974
 9159TIP3    H127416   0.601   6.458   5.138 -0.1510  0.9014 -1.2716
 9159TIP3    H227417   0.707   6.520   5.227 -1.3457  0.6171  0.3684
 9160TIP3   OH227418   2.750   7.698   5.945  0.0047  0.0809  0.3183
 9160TIP3    H127419   2.795   7.656   6.019  1.8828 -0.3696 -1.0624
 9160TIP3    H227420   2.711   7.626   5.897 -1.2276  0.3794  0.8410
 9161TIP3   OH227421   1.040   6.980   4.483  0.1501 -0.1494  0.7952
 9161TIP3    H127422   0.988   7.030   4.421  0.2553  1.4293  1.9268
 9161TIP3    H227423   1.129   6.984   4.448 -0.2053 -1.4241 -0.2652
 9162TIP3   OH227424   0.663   7.493   4.651  0.7682 -0.2006 -0.3195
 9162TIP3    H127425   0.742   7.463   4.607 -0.4249  0.4212 -3.0373
 9162TIP3    H227426   0.595   7.489   4.583 -0.8947  2.0430  1.1293
 9163TIP3   OH227427   1.884   7.665   2.607 -0.2192  0.1896  0.3180
 9163TIP3    H127428   1.916   7.736   2.551 -0.5486  1.5285  1.8045
 9163TIP3    H227429   1.885   7.702   2.695 -0.3480 -1.6796  1.1169
 9164TIP3   OH227430   0.104   7.813   5.028  0.1900 -0.4645 -0.2965
 9164TIP3    H127431   0.147   7.884   4.980  1.0699  0.2325  1.4682
 9164TIP3    H227432   0.033   7.856   5.076  0.8158 -0.7294  0.8931
 9165TIP3   OH227433   1.756   5.907   4.442  0.0407 -0.5851 -0.1219
 9165TIP3    H127434   1.755   5.818   4.475  0.6857 -0.4487  0.2809
 9165TIP3    H227435   1.845   5.939   4.460 -0.3505  0.3299  0.2491
 9166TIP3   OH227436   4.424   7.959   4.597 -0.9861 -0.0638 -0.4008
 9166TIP3    H127437   4.482   7.883   4.589 -1.3418 -0.6087  1.8483
 9166TIP3    H227438   4.354   7.930   4.656 -1.1284  2.0019  0.4998
 9167TIP3   OH227439   2.304   7.285   4.969 -0.4719 -0.0409  0.3617
 9167TIP3    H127440   2.292   7.309   4.878 -0.4171  1.6586  0.7924
 9167TIP3    H227441   2.215   7.275   5.004 -0.4959 -0.0436  0.2991
 9168TIP3   OH227442   0.105   5.764   0.584  0.1782 -0.3588 -0.5074
 9168TIP3    H127443   0.082   5.718   0.503 -0.9366 -0.9299  0.1183
 9168TIP3    H227444   0.122   5.693   0.647 -0.8665  0.0876  0.2765
 9169TIP3   OH227445   1.872   7.917   4.371 -0.0768 -0.1754 -0.9129
 9169TIP3    H127446   1.827   7.961   4.299  0.4801  0.6144 -0.7791
 9169TIP3    H227447   1.867   7.978   4.444 -0.7127 -1.0119 -0.2441
 9170TIP3   OH227448   1.412   7.020   4.628  0.3103  0.1173  0.1695
 9170TIP3    H127449   1.374   6.989   4.546  0.2523 -0.2700  0.3417
 9170TIP3    H227450   1.481   6.957   4.649  0.7124  0.5360  0.1197
 9171TIP3   OH227451   4.772   0.778   4.922  0.2636  0.1404  0.6231
 9171TIP3    H127452   4.690   0.783   4.873 -0.4877  2.0868  2.0201
 9171TIP3    H227453   4.748   0.737   5.005  0.8874 -0.0972  0.6894
 9172TIP3   OH227454   5.660   0.649   5.549 -0.6714  0.1411  0.6241
 9172TIP3    H127455   5.613   0.588   5.491 -1.2334  0.0726  1.1400
 9172TIP3    H227456   5.743   0.605   5.568 -0.7473 -0.1167  0.3707
 9173TIP3   OH227457   5.526   0.351   5.205 -0.5852 -0.9948 -0.1149
 9173TIP3    H127458   5.543   0.270   5.252  1.7040  0.1397  1.0689
 9173TIP3    H227459   5.515   0.417   5.273 -0.4175  0.0632 -1.0949
 9174TIP3   OH227460   7.711   0.416   4.092  0.2895 -0.1181 -0.4204
 9174TIP3    H127461   7.660   0.379   4.020  0.8190 -0.2544 -0.7204
 9174TIP3    H227462   7.748   0.496   4.057 -0.5595  0.5179  0.1195
 9175TIP3   OH227463   1.221   5.515   4.130  0.4100  0.3553 -0.2172
 9175TIP3    H127464   1.264   5.431   4.144  0.6086  0.3495 -0.8295
 9175TIP3    H227465   1.154   5.497   4.064 -0.6239  0.3389  0.8313
 9176TIP3   OH227466   4.618   6.432   0.427  0.1272  0.3878 -0.5959
 9176TIP3    H127467   4.571   6.458   0.347 -1.6272 -1.7057 -0.3006
 9176TIP3    H227468   4.590   6.496   0.492 -1.3693 -0.0704 -0.7523
 9177TIP3   OH227469   4.865   6.648   2.502  0.3327 -0.4527  0.1011
 9177TIP3    H127470   4.950   6.636   2.458  1.0944  1.1958  1.0702
 9177TIP3    H227471   4.801   6.647   2.431  1.4074  0.7155 -0.9277
 9178TIP3   OH227472   4.244   7.346   4.344 -0.4177  0.0748  0.7971
 9178TIP3    H127473   4.198   7.305   4.418 -1.3085 -0.2562  0.0678
 9178TIP3    H227474   4.186   7.334   4.269  1.8603 -2.3334 -0.6570
 9179TIP3   OH227475   0.690   6.706   3.544 -0.6341  0.3926  0.6164
 9179TIP3    H127476   0.740   6.624   3.552  0.1041  0.8254  0.4087
 9179TIP3    H227477   0.732   6.753   3.473 -0.9184  1.0590  0.8907
 9180TIP3   OH227478   2.694   7.096   1.991  0.1647 -0.2009 -0.3454
 9180TIP3    H127479   2.638   7.043   1.934 -0.4694  0.8690 -0.7408
 9180TIP3    H227480   2.716   7.039   2.064 -1.5306 -0.6189 -0.1344
 9181TIP3   OH227481   6.579   0.548   3.303  0.4699 -1.0029 -1.2805
 9181TIP3    H127482   6.498   0.533   3.352 -0.3935  0.7916 -2.1136
 9181TIP3    H227483   6.573   0.488   3.229 -0.3247 -0.5621 -1.5827
 9182TIP3   OH227484   3.835   7.176   2.488  0.3207  1.0341  0.3972
 9182TIP3    H127485   3.918   7.213   2.459 -0.2408  1.4575 -0.7097
 9182TIP3    H227486   3.769   7.231   2.447 -0.5140  1.0566  1.7380
 9183TIP3   OH227487   8.364   1.205   3.579 -0.1217  0.4564 -0.3314
 9183TIP3    H127488   8.276   1.166   3.574 -0.0809  0.5283 -1.7825
 9183TIP3    H227489   8.413   1.162   3.510  0.4448  1.8053 -0.7740
 9184TIP3   OH227490   3.541   6.734   4.838 -0.2931  0.2079  0.6186
 9184TIP3    H127491   3.630   6.762   4.859 -0.1569  2.7466 -2.8529
 9184TIP3    H227492   3.486   6.775   4.905  0.9671 -0.1214  1.8830
 9185TIP3   OH227493   7.110   0.191   3.563  0.3493  0.3360  0.1836
 9185TIP3    H127494   7.080   0.110   3.521 -1.7245  0.7576  0.8064
 9185TIP3    H227495   7.182   0.221   3.507 -1.2486 -0.0186 -2.1512
 9186TIP3   OH227496   2.964   7.082   2.400  0.3875 -0.2713 -0.2222
 9186TIP3    H127497   2.890   7.032   2.435  0.6873 -0.6321 -0.0934
 9186TIP3    H227498   2.981   7.149   2.466  0.9925 -0.9914  0.3650
 9187TIP3   OH227499   3.172   7.617   3.935  0.2137 -0.2432  0.0563
 9187TIP3    H127500   3.180   7.530   3.895 -0.3949 -0.8801  1.3056
 9187TIP3    H227501   3.090   7.614   3.984  1.6965 -0.0098  2.6505
 9188TIP3   OH227502   7.729   0.683   4.018 -0.2878 -0.0497  0.5103
 9188TIP3    H127503   7.718   0.767   4.062  0.3438 -0.9341  2.4414
 9188TIP3    H227504   7.640   0.649   4.008 -0.5192  0.6936  0.0220
 9189TIP3   OH227505   2.619   6.500   4.718  0.0692  0.5209 -0.0476
 9189TIP3    H127506   2.660   6.584   4.741  0.4132  0.0761  1.0142
 9189TIP3    H227507   2.571   6.475   4.797  1.9153 -1.4418  0.4963
 9190TIP3   OH227508   6.102   1.065   4.153  0.0809  0.0648  0.1881
 9190TIP3    H127509   6.036   1.023   4.098  1.4405 -0.6278 -0.9454
 9190TIP3    H227510   6.137   1.135   4.098 -1.5636  2.2062  1.7564
 9191TIP3   OH227511   4.793   7.800   4.222  0.1525  0.3749 -0.5778
 9191TIP3    H127512   4.729   7.744   4.177  0.1919  0.6053 -0.9206
 9191TIP3    H227513   4.757   7.811   4.310  1.2475 -2.0306  0.2322
 9192TIP3   OH227514   3.173   6.780   4.366  0.3265  0.3375 -0.3725
 9192TIP3    H127515   3.128   6.743   4.290  0.4436 -0.2941 -0.1403
 9192TIP3    H227516   3.150   6.722   4.438 -0.2822  1.2938  0.2040
 9193TIP3   OH227517   2.962   6.367   4.108  0.0557 -0.6030 -0.0157
 9193TIP3    H127518   2.920   6.351   4.023 -0.0698 -1.2294  0.1608
 9193TIP3    H227519   2.980   6.461   4.108 -0.7791 -0.4351 -0.3537
 9194TIP3   OH227520   7.702   1.330   6.334 -0.1860  0.6880 -0.0781
 9194TIP3    H127521   7.668   1.335   6.245 -1.1050  0.8269  0.2718
 9194TIP3    H227522   7.627   1.355   6.390  0.5963  1.3625  0.6832
 9195TIP3   OH227523   5.099   0.721   4.499  0.2132 -0.6022 -0.5650
 9195TIP3    H127524   5.052   0.742   4.579  0.6368 -0.5300 -0.3339
 9195TIP3    H227525   5.056   0.642   4.465  0.5274 -1.0706  0.1322
 9196TIP3   OH227526   8.464   0.188   4.349 -0.2145 -0.1606 -0.0084
 9196TIP3    H127527   8.504   0.103   4.331 -0.4034 -0.8343  2.5916
 9196TIP3    H227528   8.421   0.177   4.434 -1.7459  2.0110 -0.4642
 9197TIP3   OH227529   1.499   7.270   3.059 -0.0383 -0.1358  0.2507
 9197TIP3    H127530   1.474   7.265   2.967 -1.1947 -0.6322  0.5836
 9197TIP3    H227531   1.508   7.364   3.076 -1.3552  0.0538  0.0127
 9198TIP3   OH227532   4.418   7.227   1.504  0.1714 -0.1196 -0.3565
 9198TIP3    H127533   4.361   7.227   1.427 -1.5646  2.6984  0.8494
 9198TIP3    H227534   4.475   7.303   1.493  1.7982 -1.2738 -0.1522
 9199TIP3   OH227535   3.397   7.643   5.670 -0.2498  0.0674 -0.5804
 9199TIP3    H127536   3.432   7.595   5.745  0.7045  0.9089 -0.4586
 9199TIP3    H227537   3.311   7.605   5.653  0.0210 -0.8973  0.2178
 9200TIP3   OH227538   6.540   7.766   0.965  0.6211 -0.2874  0.0255
 9200TIP3    H127539   6.623   7.813   0.972 -0.1002  1.1145 -0.5059
 9200TIP3    H227540   6.530   7.722   1.049  2.0922 -0.8037 -0.0585
 9201TIP3   OH227541   4.786   6.910   1.816 -0.2246  0.3889  0.0854
 9201TIP3    H127542   4.855   6.912   1.750  2.4430 -0.7885  2.7100
 9201TIP3    H227543   4.775   6.817   1.837 -2.7642  0.5386 -0.3884
 9202TIP3   OH227544   4.778   6.890   2.970  0.0609 -0.2167 -0.2201
 9202TIP3    H127545   4.782   6.882   2.875 -1.9915 -1.4153 -0.2223
 9202TIP3    H227546   4.708   6.953   2.986  1.5070  1.2447  0.4691
 9203TIP3   OH227547   4.722   7.877   3.606 -0.1848  0.4525 -0.3325
 9203TIP3    H127548   4.739   7.784   3.587 -0.4499  0.7480 -2.1069
 9203TIP3    H227549   4.706   7.879   3.700 -3.1332 -1.7810 -0.7030
 9204TIP3   OH227550   4.768   7.305   4.644 -0.5302 -0.0586 -0.0192
 9204TIP3    H127551   4.769   7.284   4.737 -2.1529  0.0254  0.0223
 9204TIP3    H227552   4.847   7.358   4.631 -0.5421  0.3280  1.3920
 9205TIP3   OH227553   4.930   0.585   0.468  0.0103 -0.4778  0.0294
 9205TIP3    H127554   4.891   0.654   0.414 -4.1500 -1.6441  1.3400
 9205TIP3    H227555   4.918   0.615   0.558 -1.8802 -2.8245  0.6241
 9206TIP3   OH227556   2.678   7.106   4.809  0.6283  0.2935  0.3097
 9206TIP3    H127557   2.662   7.025   4.759  0.9015  0.6244 -0.3275
 9206TIP3    H227558   2.592   7.131   4.842  0.6236 -0.5489  0.9707
 9207TIP3   OH227559   2.943   6.649   3.319 -0.1385 -0.4316  0.2269
 9207TIP3    H127560   2.917   6.716   3.255  0.0923 -0.0346  0.5430
 9207TIP3    H227561   2.925   6.566   3.276 -0.8266 -0.1637 -0.0103
 9208TIP3   OH227562   3.217   7.949   4.143 -0.1262 -0.0526  0.6124
 9208TIP3    H127563   3.125   7.960   4.166  0.1424  1.6438  0.9621
 9208TIP3    H227564   3.247   8.038   4.123  1.3454 -0.6414  0.1533
 9209TIP3   OH227565   3.180   7.603   0.954  0.2918  0.0331  0.4750
 9209TIP3    H127566   3.264   7.561   0.976 -0.0569 -0.5557  0.6994
 9209TIP3    H227567   3.204   7.692   0.928  1.2198 -0.7500 -1.4774
 9210TIP3   OH227568   2.311   6.246   2.277 -0.7672  0.4881 -0.5189
 9210TIP3    H127569   2.243   6.211   2.335 -0.6611 -0.5964 -1.0329
 9210TIP3    H227570   2.264   6.273   2.198 -0.7084  0.4986 -0.5505
 9211TIP3   OH227571   5.165   6.820   3.026 -0.1570  0.0051 -0.3290
 9211TIP3    H127572   5.220   6.794   3.100  3.3157  1.2262 -2.3182
 9211TIP3    H227573   5.138   6.910   3.047 -2.2603 -0.9339  1.0987
 9212TIP3   OH227574   2.238   7.179   2.077  1.0679  0.4939 -0.5268
 9212TIP3    H127575   2.163   7.238   2.070 -0.8356 -1.6592  0.6364
 9212TIP3    H227576   2.273   7.173   1.988 -0.5469  1.0803 -1.2200
 9213TIP3   OH227577   5.903   1.422   3.963  0.5374  0.0819  0.2448
 9213TIP3    H127578   5.865   1.405   4.050  1.0040  4.7688  1.5241
 9213TIP3    H227579   5.832   1.463   3.914  0.0429 -3.2491 -1.9529
 9214TIP3   OH227580   5.475   6.851   3.880 -0.6390 -0.7469 -0.0642
 9214TIP3    H127581   5.381   6.871   3.878 -0.3412  0.6979  0.2038
 9214TIP3    H227582   5.484   6.789   3.952 -1.0828  0.7688  1.3175
 9215TIP3   OH227583   5.811   0.092   4.378 -0.0491 -0.4063 -0.4076
 9215TIP3    H127584   5.840   0.144   4.303 -0.3275  0.0181 -0.2173
 9215TIP3    H227585   5.753   0.025   4.339 -0.6690  0.1794 -0.4994
 9216TIP3   OH227586   1.714   6.586   3.586 -0.3511  0.2592  0.2938
 9216TIP3    H127587   1.624   6.564   3.560 -1.1608  1.0000  2.3392
 9216TIP3    H227588   1.759   6.604   3.504 -1.0882 -3.6607 -1.0731
 9217TIP3   OH227589   6.662   1.114   5.056 -0.6103  0.8705 -0.1011
 9217TIP3    H127590   6.695   1.159   5.134  0.4216  1.7504 -1.0217
 9217TIP3    H227591   6.583   1.163   5.032 -2.6666 -1.2467  2.1105
 9218TIP3   OH227592   3.996   6.838   3.849 -0.5085  0.4325  0.2361
 9218TIP3    H127593   3.972   6.761   3.797 -0.3559  0.4133  0.1905
 9218TIP3    H227594   4.062   6.883   3.795 -0.3705  0.4290  0.4000
 9219TIP3   OH227595   5.475   6.773   2.593  0.0152 -0.1928  0.2868
 9219TIP3    H127596   5.388   6.736   2.605  0.3371 -1.4631 -1.1265
 9219TIP3    H227597   5.527   6.734   2.664 -0.4991  0.3739  0.9801
 9220TIP3   OH227598   2.157   6.503   3.006  0.7182  0.1396 -0.2100
 9220TIP3    H127599   2.232   6.509   2.946  2.1818 -1.2214  1.4099
 9220TIP3    H227600   2.100   6.437   2.967  1.6468 -0.7194 -0.1367
 9221TIP3   OH227601   5.371   0.735   5.582 -0.3566  0.1343  0.0132
 9221TIP3    H127602   5.442   0.702   5.526  2.0694  1.1004  2.3764
 9221TIP3    H227603   5.306   0.666   5.582  1.1088 -1.2903 -1.3322
 9222TIP3   OH227604   3.337   6.128   0.312  0.2638  0.2583  0.3430
 9222TIP3    H127605   3.326   6.221   0.334  0.1367  0.7550 -1.7435
 9222TIP3    H227606   3.252   6.102   0.276 -0.6130 -1.4378  3.5066
 9223TIP3   OH227607   8.269   6.222   3.665 -0.2941  0.5756 -0.4743
 9223TIP3    H127608   8.257   6.137   3.707  1.1409 -0.1225 -1.4107
 9223TIP3    H227609   8.341   6.263   3.712 -0.9098  1.2498 -0.0944
 9224TIP3   OH227610   2.616   5.999   4.742 -0.1999  0.5136  0.0765
 9224TIP3    H127611   2.604   5.920   4.689 -1.0295  0.1722  0.7535
 9224TIP3    H227612   2.548   6.059   4.712  0.5259  1.0391 -0.5419
 9225TIP3   OH227613   3.111   6.465   2.982 -0.0722 -0.3876 -0.1216
 9225TIP3    H127614   3.088   6.388   3.034  2.0034 -0.2579  1.0619
 9225TIP3    H227615   3.124   6.430   2.894  0.9387 -1.4560  0.4216
 9226TIP3   OH227616   1.921   4.892   4.101  0.2026 -0.1699  0.2461
 9226TIP3    H127617   1.916   4.821   4.165 -1.6972  0.0037  0.3249
 9226TIP3    H227618   1.838   4.887   4.054  0.8441  0.8281 -1.0053
 9227TIP3   OH227619   5.346   7.656   3.620 -0.3436 -0.0336  0.7041
 9227TIP3    H127620   5.434   7.646   3.584  0.1339  0.7153  1.6249
 9227TIP3    H227621   5.315   7.739   3.584 -1.1882 -0.9165 -0.6404
 9228TIP3   OH227622   5.043   5.989   1.816  0.3981  0.0764  0.0868
 9228TIP3    H127623   4.979   5.942   1.869  0.1045 -0.8396 -1.0630
 9228TIP3    H227624   5.117   6.004   1.874 -0.0564 -0.6167  0.8450
 9229TIP3   OH227625   2.541   6.421   3.213 -0.6018  0.6401 -0.8344
 9229TIP3    H127626   2.595   6.423   3.292 -1.0952 -0.9599 -0.4263
 9229TIP3    H227627   2.574   6.492   3.159  1.3721  0.2161 -0.2313
 9230TIP3   OH227628   4.342   7.100   5.270  0.5130  0.6661 -0.9249
 9230TIP3    H127629   4.266   7.043   5.276  0.7152  0.3880 -0.9960
 9230TIP3    H227630   4.372   7.109   5.360 -1.7359  3.6877 -0.4063
 9231TIP3   OH227631   4.579   0.388   2.958  0.1775 -0.2971  0.2079
 9231TIP3    H127632   4.552   0.470   2.998  1.3675  0.8145 -1.1961
 9231TIP3    H227633   4.672   0.401   2.938  0.3722 -1.9771 -0.0574
 9232TIP3   OH227634   2.045   5.977   3.547 -0.2573  0.2103 -0.5229
 9232TIP3    H127635   2.019   5.963   3.456 -0.0480  0.6266 -0.6462
 9232TIP3    H227636   2.082   5.892   3.574  3.5017  1.2428 -2.1077
 9233TIP3   OH227637   6.862   6.337   3.389 -0.0083  0.4077 -0.2746
 9233TIP3    H127638   6.931   6.400   3.412  0.1298  0.4288 -0.7320
 9233TIP3    H227639   6.790   6.391   3.357 -0.5628  0.4404  0.9847
 9234TIP3   OH227640   6.404   0.283   5.862 -0.6661  0.5244 -0.5588
 9234TIP3    H127641   6.464   0.351   5.831 -1.1664 -0.0727 -3.0267
 9234TIP3    H227642   6.340   0.275   5.791 -1.6210 -1.3058  0.4779
 9235TIP3   OH227643   7.055   1.063   1.941  0.2481  0.1105 -0.1755
 9235TIP3    H127644   6.960   1.047   1.940  0.4323 -1.4638 -4.1818
 9235TIP3    H227645   7.063   1.158   1.954 -1.7054 -0.0726  2.9154
 9236TIP3   OH227646   6.196   1.026   6.214 -0.0051 -0.3191  0.4080
 9236TIP3    H127647   6.200   0.964   6.141  1.4432  0.6983 -0.3990
 9236TIP3    H227648   6.288   1.047   6.232 -0.4373  0.6873  1.4433
 9237TIP3   OH227649   4.346   7.697   3.407  0.4988  0.1988 -0.0244
 9237TIP3    H127650   4.313   7.651   3.330 -1.2522  0.4498  0.5379
 9237TIP3    H227651   4.361   7.629   3.472 -3.5662  0.4501  1.3344
 9238TIP3   OH227652   2.495   5.967   2.120  0.0507  0.3167 -0.3407
 9238TIP3    H127653   2.582   6.004   2.106  0.6232  0.3172  2.9548
 9238TIP3    H227654   2.443   6.001   2.047  2.9717 -0.3912 -2.8813
 9239TIP3   OH227655   3.536   7.477   4.330 -0.0774  0.2792  0.3767
 9239TIP3    H127656   3.549   7.456   4.237  0.2414 -0.1236  0.5144
 9239TIP3    H227657   3.441   7.473   4.342 -0.0805 -0.2172  0.1975
 9240TIP3   OH227658   7.472   1.312   4.228 -0.4235  0.2771  0.0639
 9240TIP3    H127659   7.454   1.230   4.182 -0.9802  0.6494 -0.3943
 9240TIP3    H227660   7.515   1.367   4.163 -0.1366  0.3843  0.3424
 9241TIP3   OH227661   7.190   0.049   3.339 -0.2944 -0.0556  0.3697
 9241TIP3    H127662   7.276   0.042   3.380 -0.2518 -0.9656  0.1540
 9241TIP3    H227663   7.208   0.082   3.251 -0.3411  1.4441  0.9053
 9242TIP3   OH227664   4.192   7.883   3.637 -0.6030  0.3121  0.0038
 9242TIP3    H127665   4.266   7.897   3.696 -0.9475 -1.1150  0.7786
 9242TIP3    H227666   4.227   7.829   3.566 -1.0745 -1.0176  0.7659
 9243TIP3   OH227667   6.924   0.020   4.771  0.3584  0.2158  0.3754
 9243TIP3    H127668   6.997   0.075   4.801  0.3061  0.6999 -0.3870
 9243TIP3    H227669   6.849   0.079   4.768  0.0072 -0.2038  0.8189
 9244TIP3   OH227670   3.934   7.059   2.088 -0.1003 -0.1797 -0.4666
 9244TIP3    H127671   3.901   6.996   2.153  2.1896 -0.0449  0.8732
 9244TIP3    H227672   3.967   7.005   2.016  1.5078 -0.5287  0.5116
 9245TIP3   OH227673   1.890   7.755   3.213 -0.0433  0.0947  0.2346
 9245TIP3    H127674   1.901   7.846   3.184 -0.6243 -0.0354 -0.4182
 9245TIP3    H227675   1.909   7.756   3.306 -0.8973  1.0451  0.3967
 9246TIP3   OH227676   3.988   8.012   3.775  0.1763  0.4840  0.8614
 9246TIP3    H127677   4.050   7.940   3.764 -1.0267 -0.6014  1.1528
 9246TIP3    H227678   3.996   8.038   3.867 -0.2409 -0.0622  1.0525
 9247TIP3   OH227679   3.893   7.575   3.429 -0.4095 -0.1557 -0.2705
 9247TIP3    H127680   3.920   7.658   3.467 -2.5583  1.3740 -2.0094
 9247TIP3    H227681   3.917   7.581   3.337 -2.0367 -0.7965 -0.7589
 9248TIP3   OH227682   6.201   0.727   5.387 -0.1463  0.2565  0.0988
 9248TIP3    H127683   6.157   0.697   5.307 -0.7504 -0.5453  0.7241
 9248TIP3    H227684   6.151   0.686   5.458  1.0053  0.1503  0.8520
 9249TIP3   OH227685   2.539   6.753   1.600 -0.1742  0.3375 -0.2084
 9249TIP3    H127686   2.580   6.693   1.537  0.2911 -0.3452  0.7357
 9249TIP3    H227687   2.470   6.797   1.550 -0.4416 -0.8940 -0.9431
 9250TIP3   OH227688   6.086   7.675   5.109 -0.1234 -0.5274  0.1294
 9250TIP3    H127689   6.110   7.740   5.174  0.8969 -1.2270  0.4667
 9250TIP3    H227690   5.994   7.692   5.090  0.4413  1.7599 -0.6634
 9251TIP3   OH227691   4.792   0.094   5.233 -0.1346  0.9955 -0.5629
 9251TIP3    H127692   4.756   0.168   5.185 -1.1889  1.6474  1.1762
 9251TIP3    H227693   4.881   0.083   5.199 -0.1809  2.6994 -1.2287
 9252TIP3   OH227694   3.156   7.451   0.105  0.3932  0.3628  0.8193
 9252TIP3    H127695   3.103   7.377   0.135 -2.9225  2.8228  1.2333
 9252TIP3    H227696   3.181   7.496   0.186  2.0015  0.0001  0.5376
 9253TIP3   OH227697   4.907   7.733   2.889 -0.1736 -0.5523 -0.5406
 9253TIP3    H127698   4.923   7.710   2.980 -0.5766 -0.8525 -0.5463
 9253TIP3    H227699   4.955   7.815   2.876  1.5515 -1.5594 -0.6178
 9254TIP3   OH227700   5.002   7.781   3.163 -0.0329  0.0238 -0.2541
 9254TIP3    H127701   4.943   7.856   3.166  0.1316  0.1150  0.9003
 9254TIP3    H227702   4.972   7.723   3.233  2.1611  0.7857  1.3720
 9255TIP3   OH227703   4.507   7.227   3.712 -0.3059  0.0052  0.1117
 9255TIP3    H127704   4.536   7.136   3.716 -0.7531 -0.1367  0.2245
 9255TIP3    H227705   4.425   7.224   3.662  0.6131  0.5904 -1.4581
 9256TIP3   OH227706   2.615   5.722   4.024 -0.4157 -0.2975  0.3184
 9256TIP3    H127707   2.547   5.740   3.959 -0.8754  0.9408  1.1311
 9256TIP3    H227708   2.697   5.729   3.975 -0.8045 -0.5858 -0.3906
 9257TIP3   OH227709   3.838   7.212   3.236  0.3374  0.1265  0.3076
 9257TIP3    H127710   3.826   7.306   3.252 -1.0174  0.3505 -1.7623
 9257TIP3    H227711   3.923   7.192   3.274  0.9781  2.3568  0.1496
 9258TIP3   OH227712   4.298   7.769   0.595 -0.1611  0.1096  0.6811
 9258TIP3    H127713   4.287   7.848   0.542 -0.7333  1.1089  2.2583
 9258TIP3    H227714   4.321   7.700   0.532 -2.9699  0.7784 -1.1234
 9259TIP3   OH227715   5.113   0.105   4.030 -0.1859  0.7136 -0.2288
 9259TIP3    H127716   5.046   0.037   4.030  0.0878  0.4465 -0.3140
 9259TIP3    H227717   5.110   0.142   3.942  1.7128 -1.1872 -1.1105
 9260TIP3   OH227718   5.461   7.764   4.365 -0.3218  0.2174  0.3873
 9260TIP3    H127719   5.536   7.777   4.422  0.8913 -0.9444 -0.9011
 9260TIP3    H227720   5.483   7.686   4.314 -2.6122 -0.4383  0.3270
 9261TIP3   OH227721   4.502   6.739   4.493 -0.1436 -0.5053 -0.0645
 9261TIP3    H127722   4.445   6.816   4.487 -1.2524 -1.3661 -0.7266
 9261TIP3    H227723   4.526   6.733   4.585 -0.2912  0.4572  0.0411
 9262TIP3   OH227724   2.893   7.088   3.152  0.1386 -0.1984  0.0529
 9262TIP3    H127725   2.846   7.100   3.234 -0.4336 -0.3371 -0.2553
 9262TIP3    H227726   2.972   7.039   3.177 -0.7815 -1.6109  0.2955
 9263TIP3   OH227727   2.640   6.468   5.494 -0.4164  0.0835 -0.0010
 9263TIP3    H127728   2.646   6.486   5.400 -2.2766  0.9500  0.0181
 9263TIP3    H227729   2.629   6.554   5.534  0.7608 -0.2439  1.0688
 9264TIP3   OH227730   4.724   7.613   3.585  0.6645  0.2506 -0.3176
 9264TIP3    H127731   4.745   7.525   3.616  0.7481  0.4785  0.2730
 9264TIP3    H227732   4.634   7.629   3.613  0.7941  0.5177 -0.0458
 9265TIP3   OH227733   3.603   5.954   3.041  0.1530  0.5921 -0.0808
 9265TIP3    H127734   3.664   6.022   3.012  1.7775 -0.7127  0.2016
 9265TIP3    H227735   3.533   6.002   3.085  2.4775  1.9807  2.2506
 9266TIP3   OH227736   2.362   6.075   3.559  0.0903  0.3640  0.6201
 9266TIP3    H127737   2.340   6.167   3.569  0.0391  0.4766 -0.5166
 9266TIP3    H227738   2.289   6.038   3.508 -0.0848 -0.3856  1.3970
 9267TIP3   OH227739   7.792   1.259   4.948 -0.1901  0.1264 -0.0606
 9267TIP3    H127740   7.828   1.177   4.981  0.8684  0.8813  0.6672
 9267TIP3    H227741   7.792   1.318   5.023  1.6782  1.6746 -1.2306
 9268TIP3   OH227742   3.355   7.499   1.474  0.6078 -0.3779  0.1303
 9268TIP3    H127743   3.409   7.422   1.452  1.1171 -0.3800  1.3237
 9268TIP3    H227744   3.407   7.573   1.443  1.8879 -0.3062  2.3274
 9269TIP3   OH227745   3.805   7.215   3.547  0.1307  0.2788 -0.7452
 9269TIP3    H127746   3.863   7.145   3.577 -0.2435  0.7542  1.1709
 9269TIP3    H227747   3.719   7.191   3.582 -0.2338  1.1161 -1.0469
 9270TIP3   OH227748   4.040   6.104   4.277  0.0882  0.0830  0.0095
 9270TIP3    H127749   4.007   6.149   4.355  4.3777  1.7050  1.0615
 9270TIP3    H227750   4.042   6.011   4.302  2.2664  0.6707  2.2830
 9271TIP3   OH227751   6.105   0.469   4.958 -0.2866 -0.0479  0.0298
 9271TIP3    H127752   6.010   0.461   4.949 -0.4795 -0.2545  2.0162
 9271TIP3    H227753   6.124   0.558   4.926 -1.4553  0.8269  1.6772
 9272TIP3   OH227754   4.988   0.148   4.638  0.3795 -0.3310 -0.3688
 9272TIP3    H127755   4.928   0.179   4.705 -0.3914  0.1658 -1.2639
 9272TIP3    H227756   4.970   0.054   4.630  0.6103 -0.4247  0.2533
 9273TIP3   OH227757   0.735   7.324   4.883  0.1474 -0.4352  0.1553
 9273TIP3    H127758   0.675   7.365   4.821  0.5462 -0.4974 -0.2706
 9273TIP3    H227759   0.814   7.307   4.833  0.8320  0.4185  0.9439
 9274TIP3   OH227760   1.598   6.822   4.585  0.0946  0.3834 -0.8860
 9274TIP3    H127761   1.681   6.869   4.581  0.7718 -0.7676 -0.7176
 9274TIP3    H227762   1.611   6.757   4.654 -0.9804  0.2515 -0.8057
 9275TIP3   OH227763   4.426   7.280   2.336  0.1703 -0.6268  0.5013
 9275TIP3    H127764   4.352   7.253   2.390  0.2638  1.1206  1.5231
 9275TIP3    H227765   4.454   7.363   2.373  1.4634 -0.3488 -1.0450
 9276TIP3   OH227766   6.772   3.923   1.422  0.3682  0.1030 -0.3303
 9276TIP3    H127767   6.858   3.928   1.464  0.9448 -0.1718 -1.4574
 9276TIP3    H227768   6.713   3.896   1.492  1.1340  0.6143  0.5373
 9277TIP3   OH227769   5.437   5.718   2.051 -0.1591 -0.1080  0.2599
 9277TIP3    H127770   5.525   5.694   2.022  0.8835  1.2675  2.1954
 9277TIP3    H227771   5.424   5.668   2.131 -2.0729 -2.0386 -1.1855
 9278TIP3   OH227772   3.946   7.054   4.798 -0.1802  1.0047  0.0613
 9278TIP3    H127773   3.909   7.134   4.761 -0.5942  1.3819  1.2751
 9278TIP3    H227774   3.870   7.002   4.824  0.0761 -0.0197 -1.2081
 9279TIP3   OH227775   4.324   7.768   4.397 -0.2061 -0.6878  0.3358
 9279TIP3    H127776   4.315   7.788   4.304  0.0870 -0.4080  0.3665
 9279TIP3    H227777   4.308   7.851   4.442 -1.1913 -1.0028  0.5850
 9280TIP3   OH227778   8.283   0.979   3.318  0.3239 -0.5406  0.3196
 9280TIP3    H127779   8.275   0.887   3.344 -0.8988 -0.3279  0.7396
 9280TIP3    H227780   8.263   0.979   3.224 -3.4389 -0.2521  1.0185
 9281TIP3   OH227781   4.810   7.998   3.230 -0.2174  0.0098 -0.0640
 9281TIP3    H127782   4.781   8.036   3.147 -1.7437  0.8084  0.8266
 9281TIP3    H227783   4.736   7.944   3.258 -0.5900  1.4943  1.8691
 9282TIP3   OH227784   2.441   6.042   4.086 -0.3837  0.2275 -0.3796
 9282TIP3    H127785   2.470   6.067   3.998 -0.3134 -1.1297 -0.7502
 9282TIP3    H227786   2.456   6.120   4.139  2.2686  0.1287 -0.9357
 9283TIP3   OH227787   7.152   0.381   4.907 -0.5470 -0.6070 -0.8402
 9283TIP3    H127788   7.098   0.313   4.948  0.4262 -0.8536  0.0553
 9283TIP3    H227789   7.229   0.334   4.876  0.9346  0.3152  1.2813
 9284TIP3   OH227790   2.971   7.090   4.209  0.2454 -0.7102 -0.5192
 9284TIP3    H127791   2.918   7.168   4.192 -1.0192 -1.6775 -1.1143
 9284TIP3    H227792   2.982   7.049   4.123  1.7100 -0.6837 -0.3491
 9285TIP3   OH227793   6.861   0.604   5.302  0.1458  0.1995 -0.7352
 9285TIP3    H127794   6.789   0.542   5.315  0.7339 -0.1875  0.7510
 9285TIP3    H227795   6.940   0.551   5.309  0.6013  0.7227 -1.7979
 9286TIP3   OH227796   0.023   0.347   5.065  0.1778 -0.3001 -0.0984
 9286TIP3    H127797   0.039   0.319   5.155  3.3563 -0.1328 -0.5542
 9286TIP3    H227798   0.076   0.426   5.055  0.0283 -0.4347 -2.1637
 9287TIP3   OH227799   2.887   6.913   4.440 -0.4093  0.0452 -0.2482
 9287TIP3    H127800   2.903   6.989   4.384 -1.1773  0.0174 -0.5090
 9287TIP3    H227801   2.901   6.838   4.383 -0.6568  0.0099 -0.2653
 9288TIP3   OH227802   7.610   0.299   4.895 -0.5362  0.1382 -0.1276
 9288TIP3    H127803   7.674   0.318   4.827 -0.4039 -0.8441 -0.2725
 9288TIP3    H227804   7.588   0.207   4.884  0.0226 -0.2327  1.5936
 9289TIP3   OH227805   4.042   7.619   3.194 -0.3115  0.5351  0.8161
 9289TIP3    H127806   4.087   7.688   3.242 -0.1987  1.7530 -0.9701
 9289TIP3    H227807   4.112   7.564   3.159 -0.3460  0.3283  1.0729
 9290TIP3   OH227808   3.103   6.843   3.733 -0.0211 -0.2506  0.3068
 9290TIP3    H127809   3.188   6.832   3.775  0.6036  0.1637 -0.8104
 9290TIP3    H227810   3.095   6.767   3.675 -0.1213  0.0316 -0.0544
 9291TIP3   OH227811   4.544   7.506   4.650  0.1250 -0.2300 -0.4166
 9291TIP3    H127812   4.565   7.576   4.588  0.3442 -0.0450 -0.1357
 9291TIP3    H227813   4.620   7.448   4.645  1.9116  1.7408  2.4647
 9292TIP3   OH227814   4.263   6.564   4.966  0.3439  0.1355 -0.1337
 9292TIP3    H127815   4.177   6.524   4.953  1.7153 -3.3112  0.8403
 9292TIP3    H227816   4.307   6.554   4.882 -0.1497  1.8408 -0.6134
 9293TIP3   OH227817   2.650   6.787   4.185 -0.4040  0.1595 -0.4776
 9293TIP3    H127818   2.726   6.733   4.162  1.3142  2.2522  0.0390
 9293TIP3    H227819   2.616   6.748   4.265  1.7532  0.6664  0.7426
 9294TIP3   OH227820   6.673   0.113   5.259 -0.4636 -0.3121  0.4369
 9294TIP3    H127821   6.619   0.068   5.324 -1.7592  0.3188 -0.1846
 9294TIP3    H227822   6.649   0.072   5.176  0.9281 -0.8767  0.2906
 9295TIP3   OH227823   4.071   6.963   4.327 -0.2361  0.1801 -0.1221
 9295TIP3    H127824   3.995   6.996   4.375 -0.1494  0.9646 -0.5229
 9295TIP3    H227825   4.057   6.991   4.237  0.6539  0.5460 -0.1516
 9296TIP3   OH227826   1.119   0.742   5.114 -0.6079 -0.3118  0.2620
 9296TIP3    H127827   1.133   0.648   5.115 -0.9952 -0.3683  0.4328
 9296TIP3    H227828   1.076   0.759   5.030 -0.9565 -0.3515  0.4293
 9297TIP3   OH227829   3.983   7.040   4.032  0.1075  0.3787 -0.0838
 9297TIP3    H127830   3.973   6.959   3.982  0.4880 -0.7248  1.6094
 9297TIP3    H227831   3.896   7.080   4.032 -0.6730 -1.3062  1.2316
 9298TIP3   OH227832   6.347   6.796   3.390 -0.2972 -0.1173 -0.1090
 9298TIP3    H127833   6.363   6.868   3.329  1.9584  0.0779  0.6893
 9298TIP3    H227834   6.385   6.825   3.473 -0.4583 -1.7154  0.5464
 9299TIP3   OH227835   8.414   0.271   4.079  0.0457 -0.2525  0.1622
 9299TIP3    H127836   8.444   0.195   4.029  0.5040 -0.6875  1.0888
 9299TIP3    H227837   8.440   0.252   4.169  0.2064  1.0337  0.3905
 9300TIP3   OH227838   4.342   7.157   2.605  0.1265 -0.3917  0.2867
 9300TIP3    H127839   4.327   7.075   2.652 -1.3574  0.6430  1.6938
 9300TIP3    H227840   4.435   7.175   2.616  0.2002 -1.2382  1.0663
 9301TIP3   OH227841   4.987   6.251   2.660  0.2413 -0.6247  0.0538
 9301TIP3    H127842   4.964   6.260   2.567  0.6715 -1.2411 -0.1130
 9301TIP3    H227843   5.082   6.266   2.663  0.0499  0.5805  0.5611
 9302TIP3   OH227844   3.866   7.713   4.259  0.2018  0.1580  0.1562
 9302TIP3    H127845   3.810   7.686   4.332  0.6129  0.2602  0.5086
 9302TIP3    H227846   3.954   7.683   4.283  0.1986 -0.5534 -0.6798
 9303TIP3   OH227847   0.465   6.876   3.332 -0.0483  0.2221 -0.3269
 9303TIP3    H127848   0.496   6.799   3.283 -0.8388  0.1076 -0.6545
 9303TIP3    H227849   0.502   6.951   3.284 -0.9096  0.1172 -1.1787
 9304TIP3   OH227850   0.555   0.463   2.916 -0.3030 -0.0887  0.3725
 9304TIP3    H127851   0.498   0.387   2.909  0.3715 -0.5835  0.2343
 9304TIP3    H227852   0.495   0.537   2.928 -0.9479 -0.6608  0.7025
 9305TIP3   OH227853   7.025   7.621   3.361  0.0159 -0.0468 -0.4180
 9305TIP3    H127854   6.970   7.577   3.426  0.4846  1.0743  0.7574
 9305TIP3    H227855   6.980   7.606   3.278 -1.7651  0.3838  0.4430
 9306TIP3   OH227856   5.818   6.349   2.457 -0.3248 -0.1823 -0.1749
 9306TIP3    H127857   5.723   6.356   2.462 -0.2697 -0.1894  1.0209
 9306TIP3    H227858   5.844   6.415   2.393 -1.0879  0.1570 -0.1384
 9307TIP3   OH227859   3.824   6.976   2.686 -0.5391 -0.1877 -0.0182
 9307TIP3    H127860   3.812   7.041   2.617 -1.2868  0.0939  0.3773
 9307TIP3    H227861   3.819   7.026   2.768 -0.1558 -0.5963  0.2574
 9308TIP3   OH227862   0.925   0.822   4.881 -0.0169 -0.6228  0.0653
 9308TIP3    H127863   0.882   0.897   4.923 -0.7387 -0.9371 -0.1002
 9308TIP3    H227864   0.903   0.831   4.788  0.0419 -0.9387  0.0206
 9309TIP3   OH227865   2.814   7.347   3.741 -0.0931 -0.1766 -0.2606
 9309TIP3    H127866   2.823   7.254   3.720 -0.6755 -0.6651  1.5450
 9309TIP3    H227867   2.880   7.391   3.687  2.0485 -1.9204  0.8616
 9310TIP3   OH227868   4.773   1.036   5.037  0.2600  0.0627  0.4486
 9310TIP3    H127869   4.797   1.018   5.128 -0.4216 -0.7653  0.4807
 9310TIP3    H227870   4.773   0.950   4.995 -1.5025  0.1654  0.1968
 9311TIP3   OH227871   4.690   6.861   4.872  0.3601  0.0660  0.3518
 9311TIP3    H127872   4.675   6.945   4.829  1.8429 -0.7674 -1.8656
 9311TIP3    H227873   4.636   6.865   4.951  1.0795  3.4426  0.7379
 9312TIP3   OH227874   4.746   7.265   4.928 -0.0288 -0.0761  0.1711
 9312TIP3    H127875   4.664   7.220   4.906  0.8835 -1.4914 -0.4044
 9312TIP3    H227876   4.809   7.194   4.942  1.1895  1.0136  0.2386
 9313TIP3   OH227877   5.088   7.915   2.819  0.4551 -0.0421 -0.6319
 9313TIP3    H127878   5.080   7.961   2.735  0.6995  1.6033  0.2421
 9313TIP3    H227879   5.182   7.914   2.836  0.2917  1.0368  0.3894
 9314TIP3   OH227880   6.301   0.319   5.082 -0.2172  0.1643 -0.1305
 9314TIP3    H127881   6.219   0.351   5.046  0.2049 -0.5498 -1.7760
 9314TIP3    H227882   6.361   0.394   5.075 -0.8805  0.9118  1.7228
 9315TIP3   OH227883   3.825   7.291   4.712  0.1138  0.3128 -0.2136
 9315TIP3    H127884   3.831   7.382   4.742 -3.1783  0.4429  0.2950
 9315TIP3    H227885   3.746   7.289   4.657 -1.4482 -2.7525  1.9514
 9316TIP3   OH227886   0.583   0.896   2.246 -0.0781 -0.3158 -0.1638
 9316TIP3    H127887   0.608   0.905   2.154  0.8540 -1.4984 -0.0410
 9316TIP3    H227888   0.613   0.977   2.287 -1.3726  0.6369 -1.0894
 9317TIP3   OH227889   1.856   7.306   1.428 -0.1488 -0.3734 -0.1223
 9317TIP3    H127890   1.775   7.275   1.470 -1.5875  2.4246 -0.7200
 9317TIP3    H227891   1.881   7.234   1.370 -2.7224 -0.9693 -0.5936
 9318TIP3   OH227892   2.542   2.059   0.590 -0.4358  0.0403 -0.0612
 9318TIP3    H127893   2.591   2.046   0.671  1.3522 -2.4720 -1.4794
 9318TIP3    H227894   2.601   2.111   0.535 -0.4196 -0.7530 -0.8053
 9319TIP3   OH227895   7.084   6.790   2.800 -0.3226 -0.5166  0.2523
 9319TIP3    H127896   7.127   6.758   2.720 -0.2547 -0.0895  0.1198
 9319TIP3    H227897   7.151   6.779   2.868  0.1285  0.4766 -0.0188
 9320TIP3   OH227898   4.901   7.114   3.780 -0.0516 -0.4597 -0.0938
 9320TIP3    H127899   4.947   7.153   3.855  0.1514  1.8465 -1.3754
 9320TIP3    H227900   4.837   7.055   3.819 -1.3337  2.2144  2.0088
 9321TIP3   OH227901   4.026   5.655   3.462 -0.3686 -0.5146  0.0375
 9321TIP3    H127902   4.099   5.714   3.446  0.4982 -0.8733  2.4361
 9321TIP3    H227903   3.984   5.689   3.541 -2.0536 -1.0407 -0.6048
 9322TIP3   OH227904   6.782   6.760   2.637 -0.2581 -0.3285 -0.7982
 9322TIP3    H127905   6.753   6.670   2.651  0.0971 -0.2507  0.5669
 9322TIP3    H227906   6.709   6.814   2.667 -0.5080 -0.1584 -1.7049
 9323TIP3   OH227907   2.297   6.941   1.925 -0.3219 -0.1674  0.0725
 9323TIP3    H127908   2.246   6.882   1.981  1.7144 -2.3524 -0.2638
 9323TIP3    H227909   2.238   6.963   1.853 -1.5971 -0.6619  0.9607
 9324TIP3   OH227910   1.994   5.609   2.492  0.0546 -0.2445  0.7179
 9324TIP3    H127911   2.034   5.586   2.576  0.8964  1.3121  0.7654
 9324TIP3    H227912   1.921   5.667   2.515  0.4283  0.3725  0.3781
 9325TIP3   OH227913   6.586   0.259   3.859  0.3470  0.1479 -0.1403
 9325TIP3    H127914   6.500   0.221   3.840  0.5341  0.2704 -1.3088
 9325TIP3    H227915   6.634   0.188   3.902 -0.8844  0.6259  2.1111
 9326TIP3   OH227916   3.365   6.691   4.161  0.3376 -0.7364  0.0945
 9326TIP3    H127917   3.412   6.674   4.243  0.9172  2.9022  0.5693
 9326TIP3    H227918   3.281   6.729   4.189 -0.2104 -1.1408 -0.9707
 9327TIP3   OH227919   5.806   0.223   2.259 -0.6786 -0.1194 -0.0451
 9327TIP3    H127920   5.866   0.201   2.188  0.7281 -0.1735  1.1559
 9327TIP3    H227921   5.788   0.316   2.247  0.7665  0.2328  0.4066
 9328TIP3   OH227922   2.029   5.807   2.156 -0.0025 -0.2815 -0.0485
 9328TIP3    H127923   2.081   5.797   2.235  3.4573 -0.8011 -2.2994
 9328TIP3    H227924   1.987   5.722   2.143  0.8381 -0.7430  0.2582
 9329TIP3   OH227925   2.714   6.083   2.616  0.1728 -0.0460 -0.4377
 9329TIP3    H127926   2.619   6.095   2.619  0.2010  0.6095 -2.0347
 9329TIP3    H227927   2.738   6.101   2.526  1.9110  0.4426  0.1053
 9330TIP3   OH227928   1.943   6.976   5.548 -0.3197  0.2236  0.4806
 9330TIP3    H127929   1.851   6.962   5.571 -0.3395  0.1397  0.3526
 9330TIP3    H227930   1.981   6.888   5.548 -0.4875  0.1438 -0.5034
 9331TIP3   OH227931   0.585   3.980   0.628 -0.2642  0.6423  0.2977
 9331TIP3    H127932   0.594   3.894   0.589 -0.2051  1.2412 -1.0171
 9331TIP3    H227933   0.671   4.021   0.619 -0.2085  0.7351  1.1777
 9332TIP3   OH227934   7.414   0.695   3.120 -0.0557 -0.3204  0.3170
 9332TIP3    H127935   7.380   0.634   3.055 -1.4926 -0.7486  1.4552
 9332TIP3    H227936   7.417   0.645   3.201 -0.5956  0.9110  1.1166
 9333TIP3   OH227937   6.362   7.877   3.323  0.5119  0.1872 -0.0185
 9333TIP3    H127938   6.355   7.882   3.228 -0.6755  2.1620  0.1570
 9333TIP3    H227939   6.456   7.876   3.341  0.7512 -1.1680 -1.2282
 9334TIP3   OH227940   7.224   0.708   2.752 -0.5179  0.2416 -0.2124
 9334TIP3    H127941   7.150   0.670   2.799 -0.7999 -0.6255 -1.3437
 9334TIP3    H227942   7.297   0.647   2.767 -1.7625 -2.5170 -4.6085
 9335TIP3   OH227943   5.284   7.157   3.431 -0.0804 -0.5707  0.1036
 9335TIP3    H127944   5.266   7.216   3.505  0.2824  0.9827 -1.0108
 9335TIP3    H227945   5.373   7.180   3.404  0.8077 -2.9680  0.8226
 9336TIP3   OH227946   1.841   4.013   6.836 -0.2619 -0.1335  0.2998
 9336TIP3    H127947   1.881   4.079   6.892 -2.1194  0.7966  0.5857
 9336TIP3    H227948   1.854   4.044   6.747  0.5166 -0.3499  0.3364
 9337TIP3   OH227949   8.185   1.597   2.116 -0.0886  0.2491  0.3369
 9337TIP3    H127950   8.139   1.568   2.037  0.5676  1.6388 -0.5762
 9337TIP3    H227951   8.265   1.544   2.118 -1.9813 -2.6395  2.2858
 9338TIP3   OH227952   7.803   0.788   1.671 -0.2895 -0.0179  0.7512
 9338TIP3    H127953   7.804   0.725   1.599  2.9898  2.5331 -1.5712
 9338TIP3    H227954   7.855   0.745   1.740  1.0574 -0.3410 -0.4256
 9339TIP3   OH227955   5.701   1.158   3.839 -0.1308  0.6814 -0.4043
 9339TIP3    H127956   5.766   1.194   3.778  0.1761  1.4651  0.3685
 9339TIP3    H227957   5.620   1.206   3.818 -0.3733 -0.0517 -1.1381
 9340TIP3   OH227958   0.652   2.032   3.082  0.6094 -0.3564  0.3619
 9340TIP3    H127959   0.596   2.067   3.012 -0.6982 -1.5751  0.7794
 9340TIP3    H227960   0.642   2.096   3.153  0.8282  0.1473 -0.0557
 9341TIP3   OH227961   7.214   6.781   3.656 -0.0152 -0.1985 -0.0727
 9341TIP3    H127962   7.234   6.772   3.562  2.7116  1.8297  0.2624
 9341TIP3    H227963   7.242   6.870   3.678 -2.8236  0.2001  2.1829
 9342TIP3   OH227964   2.427   3.033   1.315  0.5215  0.0161  0.2617
 9342TIP3    H127965   2.439   2.955   1.370  0.3257 -0.3467 -0.2095
 9342TIP3    H227966   2.477   3.101   1.360  1.3093 -0.5636  0.2905
 9343TIP3   OH227967   2.392   0.858   4.721  0.1673 -0.1189 -0.4871
 9343TIP3    H127968   2.304   0.847   4.684 -1.0751  1.1579  1.9971
 9343TIP3    H227969   2.396   0.794   4.792  1.1853 -0.0069 -0.4428
 9344TIP3   OH227970   6.976   6.039   0.528  0.4800  0.1341 -0.2224
 9344TIP3    H127971   7.065   6.073   0.529  0.4388  0.2438 -0.3257
 9344TIP3    H227972   6.963   6.003   0.616  1.1579 -1.2482 -0.6775
 9345TIP3   OH227973   7.684   6.019   2.255  0.4025  0.0018 -0.5137
 9345TIP3    H127974   7.718   6.104   2.281  1.4590 -0.9918  1.5598
 9345TIP3    H227975   7.706   6.011   2.162  0.3769  1.9216 -0.7020
 9346TIP3   OH227976   7.629   7.523   3.210  0.2235 -0.2662 -0.1344
 9346TIP3    H127977   7.560   7.460   3.230 -0.6275  0.8293  0.4320
 9346TIP3    H227978   7.582   7.605   3.193  1.2824  0.0947 -1.3717
 9347TIP3   OH227979   4.165   6.043   6.778  0.0551 -0.3811 -0.2948
 9347TIP3    H127980   4.191   6.102   6.849 -0.1011 -0.8722  0.1752
 9347TIP3    H227981   4.245   6.032   6.726  0.4314 -0.7600  0.3444
 9348TIP3   OH227982   7.576   0.218   2.227 -0.3936 -0.5015 -0.2543
 9348TIP3    H127983   7.589   0.123   2.222 -1.5726 -0.5846 -2.6345
 9348TIP3    H227984   7.491   0.228   2.269 -0.4023 -0.5257 -0.2660
 9349TIP3   OH227985   1.213   1.329   2.216  0.6784  0.2644 -0.1630
 9349TIP3    H127986   1.128   1.362   2.186 -0.3897 -1.6739  0.6341
 9349TIP3    H227987   1.215   1.238   2.185  2.0867  0.0310  0.5965
 9350TIP3   OH227988   6.117   7.680   3.371  0.5096  0.0868  0.2164
 9350TIP3    H127989   6.194   7.635   3.336  0.6102 -0.2431  0.8632
 9350TIP3    H227990   6.114   7.655   3.463 -1.4685 -1.4255 -0.2220
 9351TIP3   OH227991   4.601   6.876   2.344  0.0428 -0.3977 -0.2613
 9351TIP3    H127992   4.630   6.789   2.369  2.4171  0.6482  0.7309
 9351TIP3    H227993   4.630   6.886   2.253 -0.0088 -0.5499 -0.2941
 9352TIP3   OH227994   0.197   0.876   3.560  0.8920  0.0385  0.0560
 9352TIP3    H127995   0.217   0.816   3.489 -0.5849 -0.9722  0.4735
 9352TIP3    H227996   0.103   0.893   3.551  1.1839  1.9358  0.2160
 9353TIP3   OH227997   0.239   0.834   2.164 -0.2802 -0.0387 -0.4162
 9353TIP3    H127998   0.294   0.757   2.154 -1.1047 -0.7369  0.3531
 9353TIP3    H227999   0.290   0.905   2.127  1.3607 -0.5876  0.7657
 9354TIP3   OH228000   5.462   6.051   1.210  0.3260  0.0466  0.1575
 9354TIP3    H128001   5.513   6.045   1.291 -1.9032  1.9407  1.7581
 9354TIP3    H228002   5.475   6.141   1.179 -1.2913  0.2793  0.1002
 9355TIP3   OH228003   7.425   7.337   3.245 -0.1688 -0.0374  0.0020
 9355TIP3    H128004   7.379   7.270   3.295  0.4597 -0.3105  0.2190
 9355TIP3    H228005   7.380   7.419   3.267  0.2701 -0.1157  1.2250
 9356TIP3   OH228006   4.844   5.667   1.769 -0.6733 -0.2178  0.4895
 9356TIP3    H128007   4.766   5.721   1.756 -0.9554 -1.3831 -3.1989
 9356TIP3    H228008   4.810   5.580   1.790 -0.2736 -0.0198  2.0361
 9357TIP3   OH228009   6.780   0.703   1.977  0.4115 -0.0093  0.2169
 9357TIP3    H128010   6.859   0.671   2.021  0.9079 -0.5608 -1.0501
 9357TIP3    H228011   6.789   0.798   1.979 -0.4520  0.0491  2.8723
 9358TIP3   OH228012   2.211   1.457   0.758 -0.3187  0.5100 -0.2278
 9358TIP3    H128013   2.133   1.430   0.711 -0.7746  1.0004  0.2455
 9358TIP3    H228014   2.181   1.475   0.847  0.7934 -1.9544  0.7080
 9359TIP3   OH228015   5.124   7.170   2.500 -0.1280  0.0974 -0.3630
 9359TIP3    H128016   5.205   7.119   2.499 -0.2994 -0.1845 -1.6474
 9359TIP3    H228017   5.139   7.240   2.437 -1.4973 -0.9849 -1.9461
 9360TIP3   OH228018   5.279   7.170   1.340 -0.4936 -0.0651 -0.2024
 9360TIP3    H128019   5.359   7.139   1.383 -1.7986 -2.9759  0.2061
 9360TIP3    H228020   5.208   7.121   1.381 -2.1860  0.1412 -2.7285
 9361TIP3   OH228021   3.612   0.087   1.889 -0.3131 -0.2217  0.5220
 9361TIP3    H128022   3.527   0.059   1.925  0.1847 -2.0475  0.3171
 9361TIP3    H228023   3.591   0.164   1.836 -1.9035 -0.8267  0.2283
 9362TIP3   OH228024   0.700   1.895   2.346 -0.0673  0.0567  0.1413
 9362TIP3    H128025   0.619   1.896   2.295 -1.1050  0.2903  1.7677
 9362TIP3    H228026   0.767   1.869   2.283 -1.0352  1.9683 -1.7410
 9363TIP3   OH228027   7.442   7.856   2.810 -0.0664  0.5045  0.3158
 9363TIP3    H128028   7.370   7.806   2.771 -0.5221  0.0549  1.6885
 9363TIP3    H228029   7.400   7.907   2.880  0.7809  1.0052  0.4671
 9364TIP3   OH228030   6.903   1.120   3.694  0.1301  0.5096  0.1074
 9364TIP3    H128031   6.963   1.182   3.736  0.7105 -0.1875  0.3108
 9364TIP3    H228032   6.960   1.056   3.652 -0.4724  0.0968 -0.0827
 9365TIP3   OH228033   7.287   1.597   2.898 -0.2290  0.0232  0.1839
 9365TIP3    H128034   7.300   1.539   2.972 -2.1321  0.3416  0.7983
 9365TIP3    H228035   7.225   1.550   2.841  0.1261  0.3832 -0.5077
 9366TIP3   OH228036   8.244   0.730   3.400 -0.1394  0.4136 -0.6845
 9366TIP3    H128037   8.149   0.722   3.409  0.1175 -0.7676  1.2809
 9366TIP3    H228038   8.271   0.650   3.356  0.2152 -0.4097  1.0176
 9367TIP3   OH228039   7.957   0.973   2.085  0.4763  0.0317 -0.0774
 9367TIP3    H128040   8.042   0.935   2.064  0.3123 -0.1680 -0.3827
 9367TIP3    H228041   7.926   1.009   2.002 -0.6565 -1.6999 -0.4083
 9368TIP3   OH228042   6.594   6.575   2.391 -0.1831  0.0559 -0.0152
 9368TIP3    H128043   6.627   6.555   2.479  0.2994 -0.0350 -0.2137
 9368TIP3    H228044   6.499   6.568   2.399 -0.0793 -1.4931  0.1367
 9369TIP3   OH228045   4.641   7.665   2.921 -0.5113  0.0138  0.3470
 9369TIP3    H128046   4.606   7.626   2.841 -1.8163  0.0709  0.8702
 9369TIP3    H228047   4.720   7.710   2.893 -1.0980  0.2637 -0.9751
 9370TIP3   OH228048   6.626   6.889   3.024 -0.0816 -0.0324  0.3908
 9370TIP3    H128049   6.556   6.846   2.975  0.9780  0.1032 -1.2774
 9370TIP3    H228050   6.698   6.827   3.024 -0.3457 -0.3691  2.5291
 9371TIP3   OH228051   7.070   6.472   1.660  0.1699  0.4871 -0.1939
 9371TIP3    H128052   7.049   6.470   1.566  1.6466  0.4139 -0.5259
 9371TIP3    H228053   7.152   6.519   1.666  0.7211 -0.5801  0.9448
 9372TIP3   OH228054   4.988   7.450   4.992 -0.0460  0.0782  0.6549
 9372TIP3    H128055   5.050   7.439   4.920  0.0192 -1.3095  0.9225
 9372TIP3    H228056   4.911   7.490   4.951  0.1810 -0.2432 -0.0943
 9373TIP3   OH228057   1.750   0.016   3.153 -0.0812  0.7178 -0.0131
 9373TIP3    H128058   1.734   0.110   3.161  1.4159  1.0217 -0.4719
 9373TIP3    H228059   1.689  -0.013   3.086 -2.5228  0.8230  2.0641
 9374TIP3   OH228060   7.561   0.269   3.153 -0.0192 -0.2784 -0.0269
 9374TIP3    H128061   7.648   0.236   3.132  1.0416  1.6482  1.2346
 9374TIP3    H228062   7.552   0.348   3.101 -1.3475 -0.8765 -0.7349
 9375TIP3   OH228063   7.015   7.131   3.056  0.8113 -0.0197 -0.7391
 9375TIP3    H128064   7.105   7.097   3.058  0.8781  0.2103  1.8407
 9375TIP3    H228065   6.965   7.069   3.110  0.3930  2.3855  1.7713
 9376TIP3   OH228066   8.316   1.398   5.093  0.2727 -0.3666  0.2986
 9376TIP3    H128067   8.269   1.315   5.104 -0.2542 -0.4916 -2.6263
 9376TIP3    H228068   8.406   1.372   5.075  0.2276 -0.2634 -0.0589
 9377TIP3   OH228069   6.631   7.298   5.520  0.1407  0.5045 -0.2047
 9377TIP3    H128070   6.725   7.298   5.506  0.2618  0.8646  0.5683
 9377TIP3    H228071   6.597   7.359   5.454  0.3900 -0.0080 -0.8122
 9378TIP3   OH228072   6.107   7.100   2.390 -0.4818 -0.0955 -0.2334
 9378TIP3    H128073   6.150   7.135   2.313 -2.8939  2.3043 -0.5645
 9378TIP3    H228074   6.032   7.051   2.355 -0.6669 -0.3528  0.5058
 9379TIP3   OH228075   7.896   5.288   1.937 -0.0115 -0.1714 -0.0870
 9379TIP3    H128076   7.968   5.306   1.878 -0.5984 -0.3070 -0.8459
 9379TIP3    H228077   7.924   5.325   2.021  0.7847  0.0780 -0.4568
 9380TIP3   OH228078   6.242   7.952   2.316 -0.2025 -0.3518  0.1894
 9380TIP3    H128079   6.182   7.895   2.267 -1.1118 -1.2312  2.2792
 9380TIP3    H228080   6.264   8.022   2.255 -0.9331 -1.6714 -1.6365
 9381TIP3   OH228081   0.706   0.110   3.518 -0.1791 -0.3442 -0.0892
 9381TIP3    H128082   0.775   0.060   3.473  1.1818  2.8957 -1.7785
 9381TIP3    H228083   0.627   0.092   3.468 -0.0897 -2.2156  0.4159
 9382TIP3   OH228084   3.986   6.229   1.984 -0.1254 -1.0545 -0.1086
 9382TIP3    H128085   4.019   6.314   1.953  0.3130 -0.9641  0.5880
 9382TIP3    H228086   3.905   6.250   2.030 -1.6626 -1.3802 -2.6001
 9383TIP3   OH228087   0.060   0.698   3.383 -0.5789 -0.1633  0.0844
 9383TIP3    H128088  -0.001   0.727   3.451 -0.8169 -0.3191 -0.0661
 9383TIP3    H228089   0.036   0.607   3.366 -0.7839  0.0015 -0.5054
 9384TIP3   OH228090   8.391   1.535   1.855  0.2357  0.1741 -0.1202
 9384TIP3    H128091   8.333   1.465   1.825 -0.4014  0.7736 -0.3064
 9384TIP3    H228092   8.345   1.616   1.831  0.5724  0.6569  0.8442
 9385TIP3   OH228093   7.239   7.490   3.648 -0.7606 -0.4981  0.6486
 9385TIP3    H128094   7.261   7.446   3.566 -1.5055 -0.2337  0.3022
 9385TIP3    H228095   7.145   7.504   3.643 -0.6801  0.2808  1.1744
 9386TIP3   OH228096   6.315   6.630   2.359  0.4163 -0.0166 -0.2951
 9386TIP3    H128097   6.267   6.551   2.333  0.1929  0.0286 -0.0203
 9386TIP3    H228098   6.247   6.695   2.374  0.5609  0.0316  0.1528
 9387TIP3   OH228099   6.803   0.379   4.147 -0.2695 -0.1472 -0.1501
 9387TIP3    H128100   6.815   0.443   4.077  3.2204 -1.2572 -0.6393
 9387TIP3    H228101   6.708   0.378   4.162 -0.8294  1.9335 -3.1038
 9388TIP3   OH228102   5.693   7.813   3.734 -0.8994  0.5311 -0.0677
 9388TIP3    H128103   5.715   7.824   3.826 -2.9395  1.8766  0.2772
 9388TIP3    H228104   5.702   7.719   3.718  0.4049  0.4150  1.2273
 9389TIP3   OH228105   7.332   7.051   3.685  0.0362 -0.0944  0.2544
 9389TIP3    H128106   7.379   7.007   3.755  0.7314  2.0832  1.1926
 9389TIP3    H228107   7.292   7.127   3.727 -0.7570  0.4226 -1.4065
 9390TIP3   OH228108   5.926   6.576   3.914  0.2504  0.1638  0.2019
 9390TIP3    H128109   5.924   6.482   3.893  2.3324  0.7561 -2.9345
 9390TIP3    H228110   5.988   6.583   3.987 -0.1450 -0.8931  0.6595
 9391TIP3   OH228111   7.016   1.264   5.524  0.6307 -0.0005  0.2731
 9391TIP3    H128112   6.991   1.209   5.450 -0.7509  2.5490 -1.2014
 9391TIP3    H228113   7.027   1.202   5.597 -1.7475 -2.1378 -1.1017
 9392TIP3   OH228114   5.325   7.446   3.247 -0.1302 -0.3894  0.3027
 9392TIP3    H128115   5.380   7.375   3.216 -2.1152 -0.5098 -3.2044
 9392TIP3    H228116   5.375   7.525   3.229  0.6546 -0.7031  1.0775
 9393TIP3   OH228117   0.274   0.254   4.332 -0.4008 -0.0129  0.3264
 9393TIP3    H128118   0.321   0.324   4.378 -2.0179  1.8277 -0.7171
 9393TIP3    H228119   0.229   0.206   4.402 -0.6959  1.0947  0.9068
 9394TIP3   OH228120   5.873   7.003   1.986 -0.0238  0.4546 -0.0274
 9394TIP3    H128121   5.832   7.084   2.017 -0.2082  0.6215 -0.7027
 9394TIP3    H228122   5.829   6.983   1.904  1.2215  0.6354 -0.7601
 9395TIP3   OH228123   7.491   1.851   2.389  0.0991 -0.0406 -0.6231
 9395TIP3    H128124   7.570   1.832   2.440 -0.2711 -0.7963 -0.3243
 9395TIP3    H228125   7.516   1.925   2.334  0.5452  0.6838  0.5393
 9396TIP3   OH228126   7.779   7.240   2.467  0.0700 -0.2260 -0.0146
 9396TIP3    H128127   7.782   7.322   2.419 -0.7879  0.0664  0.4287
 9396TIP3    H228128   7.871   7.215   2.478  0.3011  0.2624 -0.8394
 9397TIP3   OH228129   3.570   7.389   5.384 -0.4286 -0.8087  0.0646
 9397TIP3    H128130   3.582   7.347   5.469 -1.1636 -0.2370  0.4588
 9397TIP3    H228131   3.555   7.481   5.405 -0.8880 -0.7131 -0.6694
 9398TIP3   OH228132   5.141   7.489   3.490 -0.1081  0.2041 -0.1115
 9398TIP3    H128133   5.218   7.530   3.529 -0.3209  0.0755  0.4483
 9398TIP3    H228134   5.172   7.454   3.406  0.6712 -0.7155  0.5616
 9399TIP3   OH228135   6.180   7.237   2.150  0.7027 -0.0244  0.1787
 9399TIP3    H128136   6.181   7.153   2.104  0.2764  0.3182 -0.4646
 9399TIP3    H228137   6.267   7.245   2.189  0.5767 -1.0037  0.6836
 9400TIP3   OH228138   2.422   2.842   1.062  0.8060 -0.2384  0.6485
 9400TIP3    H128139   2.426   2.910   1.129 -1.1571 -0.0365  0.5708
 9400TIP3    H228140   2.386   2.766   1.107 -2.2234  0.4166 -0.5555
 9401TIP3   OH228141   5.378   7.409   1.657  0.3736 -0.2490 -0.1541
 9401TIP3    H128142   5.369   7.361   1.574 -0.1039  0.6685 -0.6385
 9401TIP3    H228143   5.465   7.385   1.689  0.1682 -1.3886 -0.4219
 9402TIP3   OH228144   5.531   7.806   2.515  0.2843  0.3257  0.1050
 9402TIP3    H128145   5.452   7.772   2.472  0.6240 -0.5074  0.1362
 9402TIP3    H228146   5.525   7.772   2.604  1.4979 -1.0915 -0.3395
 9403TIP3   OH228147   7.193   0.280   1.983  0.0630 -0.5795  0.0296
 9403TIP3    H128148   7.188   0.314   2.072  1.6156  0.4966 -0.2643
 9403TIP3    H228149   7.223   0.190   1.993  1.3414 -0.1084  0.5466
 9404TIP3   OH228150   7.232   0.435   0.667  0.0733  0.2951  0.0186
 9404TIP3    H128151   7.321   0.465   0.650  0.3967 -0.8090 -0.3148
 9404TIP3    H228152   7.201   0.491   0.737  0.5595  1.5522 -0.7551
 9405TIP3   OH228153   6.111   1.310   2.900  0.1609 -0.2018  0.2548
 9405TIP3    H128154   6.123   1.230   2.951 -2.0768 -0.4342  0.4523
 9405TIP3    H228155   6.158   1.377   2.950  1.0526 -1.1464  0.6964
 9406TIP3   OH228156   0.893   1.021   3.837 -0.2733 -0.0921 -0.3788
 9406TIP3    H128157   0.916   1.107   3.801  1.8788  0.5784  2.4244
 9406TIP3    H228158   0.951   0.960   3.792 -0.1492  0.2507 -0.6880
 9407TIP3   OH228159   7.953   1.190   4.551  0.0857  0.5793 -0.7166
 9407TIP3    H128160   7.866   1.186   4.591 -0.1297 -0.4816 -1.2777
 9407TIP3    H228161   7.945   1.253   4.480 -0.1357  0.7506 -0.5364
 9408TIP3   OH228162   5.010   7.578   2.163  0.1382 -0.3047  0.0273
 9408TIP3    H128163   4.962   7.652   2.199 -0.3348 -1.2665  1.3967
 9408TIP3    H228164   4.981   7.572   2.072  0.1780  1.1750 -0.0933
 9409TIP3   OH228165   2.640   1.796   2.867 -0.7834 -0.5466 -0.2897
 9409TIP3    H128166   2.696   1.749   2.806 -1.7200 -0.6119 -1.1161
 9409TIP3    H228167   2.647   1.747   2.949  1.2844  0.1275 -0.0266
 9410TIP3   OH228168   7.647   2.211   4.635 -0.4141 -0.2092 -0.3209
 9410TIP3    H128169   7.611   2.145   4.694 -1.5200 -1.3309 -2.2111
 9410TIP3    H228170   7.622   2.294   4.675  0.3585 -0.9152  1.6966
 9411TIP3   OH228171   5.231   7.673   3.018 -0.6390  0.2944 -0.0717
 9411TIP3    H128172   5.295   7.743   3.029 -0.7395  0.3034  0.4585
 9411TIP3    H228173   5.148   7.712   3.046 -0.7072 -0.0122  0.1510
 9412TIP3   OH228174   7.808   2.082   2.965  0.2182  0.1762  0.6488
 9412TIP3    H128175   7.733   2.091   2.906  1.2074  2.5356 -0.3519
 9412TIP3    H228176   7.882   2.068   2.906  0.8653  0.0669  1.4872
 9413TIP3   OH228177   6.419   1.511   1.726 -0.4145 -1.2151  0.5471
 9413TIP3    H128178   6.427   1.465   1.643  1.5181  1.9579 -1.0913
 9413TIP3    H228179   6.326   1.535   1.732 -0.1353  0.5769 -1.8433
 9414TIP3   OH228180   5.562   7.053   2.220  0.5499 -0.0952 -0.4384
 9414TIP3    H128181   5.633   7.116   2.235  0.7317 -0.0929 -1.2814
 9414TIP3    H228182   5.513   7.052   2.302  1.3612  0.1153  0.0600
 9415TIP3   OH228183   7.291   5.116   2.187  0.2303 -0.7673 -0.5004
 9415TIP3    H128184   7.367   5.089   2.240  0.5934 -1.3745 -1.3212
 9415TIP3    H228185   7.231   5.155   2.250  1.6142  0.5699  0.0465
 9416TIP3   OH228186   0.808   0.846   1.682 -0.0403  0.2001 -0.0138
 9416TIP3    H128187   0.716   0.857   1.656  0.2297  0.1682 -0.9999
 9416TIP3    H228188   0.808   0.864   1.776 -1.4023 -1.8711  0.4038
 9417TIP3   OH228189   1.024   1.929   1.815 -0.3432  0.1424  0.2503
 9417TIP3    H128190   1.006   1.889   1.901  1.1434 -0.1930  0.4284
 9417TIP3    H228191   1.008   1.859   1.752  2.1269 -0.7559  0.5534
 9418TIP3   OH228192   8.371   0.363   2.436 -0.7373  0.2216  0.0078
 9418TIP3    H128193   8.302   0.413   2.392 -0.8377 -1.8290 -2.3173
 9418TIP3    H228194   8.335   0.274   2.444  0.8576 -0.3986  0.5972
 9419TIP3   OH228195   7.351   0.352   4.461 -0.0891  0.0029  0.0054
 9419TIP3    H128196   7.390   0.328   4.377 -0.9148 -0.4808 -0.2408
 9419TIP3    H228197   7.308   0.436   4.445  0.6742  0.4512  0.2334
 9420TIP3   OH228198   1.422   0.301   2.047  0.2458  0.2078  0.1365
 9420TIP3    H128199   1.403   0.218   2.091  0.7503 -0.4941 -0.9545
 9420TIP3    H228200   1.434   0.364   2.119  1.3691 -0.9893  1.0092
 9421TIP3   OH228201   6.527   6.992   1.971 -0.8045  0.4136 -0.2521
 9421TIP3    H128202   6.610   6.954   1.998 -0.2168  1.3688 -0.7030
 9421TIP3    H228203   6.539   7.015   1.879 -1.8015 -0.0759 -0.5148
 9422TIP3   OH228204   7.480   0.611   1.156 -0.4271  0.4667 -0.2942
 9422TIP3    H128205   7.423   0.684   1.180 -1.9857 -0.4448 -1.1032
 9422TIP3    H228206   7.428   0.533   1.174  0.8685 -0.4103 -0.3098
 9423TIP3   OH228207   7.696   0.408   2.392  0.2076 -0.0169  0.0317
 9423TIP3    H128208   7.680   0.335   2.332  0.9030 -0.1954  0.0559
 9423TIP3    H228209   7.613   0.455   2.395  0.2382  0.1551 -1.2933
 9424TIP3   OH228210   3.680   7.072   3.961 -0.0283  0.4490  0.0686
 9424TIP3    H128211   3.644   6.984   3.964  0.3411  0.2957  0.0585
 9424TIP3    H228212   3.708   7.083   3.870 -1.7278  1.2450 -0.3704
 9425TIP3   OH228213   0.036   7.833   4.503 -0.1641  0.1722 -0.4026
 9425TIP3    H128214   0.021   7.927   4.513 -2.0601 -0.1847  0.3543
 9425TIP3    H228215   0.020   7.796   4.590  1.2781 -0.7740 -0.5208
 9426TIP3   OH228216   1.016   0.138   2.069  0.0639  0.1687 -0.3100
 9426TIP3    H128217   1.028   0.226   2.033 -1.6617  0.1069 -1.1050
 9426TIP3    H228218   1.036   0.148   2.162 -0.5096  1.5059 -0.3194
 9427TIP3   OH228219   0.148   0.368   2.498  0.1441 -0.0177 -0.4477
 9427TIP3    H128220   0.055   0.384   2.518  0.1584 -0.9054  0.3927
 9427TIP3    H228221   0.150   0.353   2.404 -0.5630  0.0133 -0.4726
 9428TIP3   OH228222   4.604   7.153   1.783 -0.6952 -0.2018 -0.8108
 9428TIP3    H128223   4.654   7.073   1.770  0.7586  0.6382 -0.5337
 9428TIP3    H228224   4.536   7.150   1.715 -0.4386 -1.4826 -1.0301
 9429TIP3   OH228225   8.196   0.262   2.830  0.7476 -0.4583  0.1785
 9429TIP3    H128226   8.226   0.344   2.868  1.9972  0.3525 -2.4710
 9429TIP3    H228227   8.138   0.287   2.759  0.1367 -1.8914  0.1450
 9430TIP3   OH228228   6.403   7.790   4.569 -0.1290 -0.4539 -0.3829
 9430TIP3    H128229   6.472   7.752   4.623  0.0527  1.7480  1.0088
 9430TIP3    H228230   6.445   7.810   4.485  1.3726  2.1943  0.9201
 9431TIP3   OH228231   8.370   0.516   3.940 -0.0181  0.5863  0.4911
 9431TIP3    H128232   8.457   0.551   3.960  0.1863  0.5858 -0.3823
 9431TIP3    H228233   8.376   0.423   3.960  0.0408  0.6721  0.8776
 9432TIP3   OH228234   0.938   1.055   2.043  0.5788 -0.6044  0.2278
 9432TIP3    H128235   0.923   1.111   1.966  0.2335 -0.2848  0.5268
 9432TIP3    H228236   0.861   0.999   2.048  0.1144  0.1012  0.9630
 9433TIP3   OH228237   3.855   7.838   1.256 -0.1714 -0.3083  0.5095
 9433TIP3    H128238   3.803   7.851   1.335 -1.4965  2.0984 -0.7052
 9433TIP3    H228239   3.912   7.915   1.251 -0.1406 -0.4099 -0.9033
 9434TIP3   OH228240   7.508   1.098   1.872 -0.4070  0.0735 -0.2450
 9434TIP3    H128241   7.458   1.128   1.948  0.5581  0.1405  0.3747
 9434TIP3    H228242   7.544   1.013   1.899 -3.3200 -1.8266 -2.0670
 9435TIP3   OH228243   6.052   7.916   3.727  0.3920 -0.0326 -0.2704
 9435TIP3    H128244   6.026   8.007   3.744 -1.1411 -0.3227 -0.9568
 9435TIP3    H228245   6.005   7.865   3.793  0.0541 -0.4640 -0.8406
 9436TIP3   OH228246   7.090   0.509   1.147  0.0688  0.4352 -0.0068
 9436TIP3    H128247   6.997   0.530   1.151  0.3505  1.5579  1.1444
 9436TIP3    H228248   7.133   0.586   1.185  1.5895  0.7258 -2.2155
 9437TIP3   OH228249   7.687   0.654   2.928  0.3281 -0.5800  0.2366
 9437TIP3    H128250   7.628   0.728   2.947  0.2015 -0.9548  1.2960
 9437TIP3    H228251   7.630   0.586   2.893  0.5902  0.1815 -1.7278
 9438TIP3   OH228252   5.565   5.638   1.121  0.0266  0.2054  0.0370
 9438TIP3    H128253   5.632   5.681   1.069  0.0685 -1.3712 -1.2559
 9438TIP3    H228254   5.577   5.673   1.209  2.3904  0.1047 -0.2167
 9439TIP3   OH228255   6.893   1.968   4.795  0.4543  0.4602  0.0777
 9439TIP3    H128256   6.960   2.002   4.736  0.4525 -0.2799 -0.3681
 9439TIP3    H228257   6.825   2.035   4.797  0.8724  0.8834 -0.0544
 9440TIP3   OH228258   7.658   0.821   0.324 -0.5404  0.0113 -0.2310
 9440TIP3    H128259   7.637   0.801   0.415  0.3569 -1.4229 -0.3189
 9440TIP3    H228260   7.701   0.741   0.291  1.7320  1.5153 -1.0634
 9441TIP3   OH228261   6.267   6.384   4.839 -0.0577 -0.3689 -0.1205
 9441TIP3    H128262   6.343   6.366   4.784 -1.1648 -0.5729 -1.6355
 9441TIP3    H228263   6.297   6.367   4.928  1.2457 -1.8677 -0.8150
 9442TIP3   OH228264   0.099   0.265   3.594  0.1296 -0.6354  0.5813
 9442TIP3    H128265   0.036   0.205   3.634 -0.5392 -0.2684  0.0972
 9442TIP3    H228266   0.073   0.269   3.502  0.4884 -0.0060  0.5030
 9443TIP3   OH228267   0.036   0.886   4.310 -0.2075 -0.2608  0.0569
 9443TIP3    H128268   0.098   0.870   4.239 -0.3445  0.3893 -0.2087
 9443TIP3    H228269  -0.044   0.842   4.283 -0.1642 -0.2753 -0.0479
 9444TIP3   OH228270   2.000   0.607   2.029 -0.5662  1.0011  0.1429
 9444TIP3    H128271   1.954   0.524   2.042  0.7534  0.2089 -0.1569
 9444TIP3    H228272   2.086   0.581   1.995  0.4562  2.3949  1.6274
 9445TIP3   OH228273   1.151   1.179   4.374  0.0579 -0.6048  0.6022
 9445TIP3    H128274   1.169   1.088   4.349 -3.2774 -1.1356 -0.0533
 9445TIP3    H228275   1.092   1.172   4.449 -2.9221  0.9786 -1.5304
 9446TIP3   OH228276   8.347   0.447   4.438 -0.2708 -0.3163  0.3230
 9446TIP3    H128277   8.409   0.391   4.392  0.2186 -0.1675  0.7963
 9446TIP3    H228278   8.266   0.396   4.440 -0.0082 -0.7438  0.1975
 9447TIP3   OH228279   0.611   0.280   0.710  0.1049 -0.0498  0.1612
 9447TIP3    H128280   0.599   0.217   0.781  0.6520 -1.3003 -0.8417
 9447TIP3    H228281   0.613   0.365   0.754 -0.3848 -0.7375  1.5566
 9448TIP3   OH228282   6.848   7.383   3.934  0.3029 -0.3533 -0.1355
 9448TIP3    H128283   6.932   7.368   3.977  0.4346  1.8970  0.4445
 9448TIP3    H228284   6.791   7.314   3.968  2.7622 -4.1942 -3.1935
 9449TIP3   OH228285   0.312   0.913   4.629 -0.1061  0.5715  0.0758
 9449TIP3    H128286   0.376   0.982   4.613 -0.0580  1.2052  2.7148
 9449TIP3    H228287   0.346   0.865   4.704 -1.2338 -0.9719 -0.3743
 9450TIP3   OH228288   8.048   0.602   4.701  0.3036 -0.0512  0.2207
 9450TIP3    H128289   8.117   0.666   4.681  0.2749 -0.1867 -0.3100
 9450TIP3    H228290   8.029   0.616   4.794  0.0485  0.9604  0.0272
 9451TIP3   OH228291   1.047   0.003   3.646  0.2264 -0.5378  0.3157
 9451TIP3    H128292   1.129   0.052   3.655  1.7512 -3.2246  1.4115
 9451TIP3    H228293   1.004   0.013   3.731  0.8508 -1.6470  0.7633
 9452TIP3   OH228294   5.601   7.552   4.981  0.2946 -0.1422  0.6696
 9452TIP3    H128295   5.611   7.608   4.904 -0.1017 -0.9692  0.0166
 9452TIP3    H228296   5.675   7.574   5.037  1.5044 -0.7544 -0.6925
 9453TIP3   OH228297   6.585   7.953   3.426  0.3408 -0.3338 -0.0545
 9453TIP3    H128298   6.627   7.994   3.501  2.9533  0.0453 -1.6481
 9453TIP3    H228299   6.657   7.934   3.365 -1.5754 -1.4745 -2.0621
 9454TIP3   OH228300   6.127   0.890   3.158  0.4031  0.1530  0.0480
 9454TIP3    H128301   6.064   0.889   3.230 -0.2653  0.6475 -0.5217
 9454TIP3    H228302   6.168   0.804   3.160  0.7863  0.3522  1.3660
 9455TIP3   OH228303   0.887   0.903   1.106 -0.3528  0.0169  0.3711
 9455TIP3    H128304   0.965   0.888   1.159  0.6251  1.9909 -0.4561
 9455TIP3    H228305   0.908   0.864   1.021 -1.4057 -1.9756  0.9935
 9456TIP3   OH228306   0.211   1.249   3.163 -0.3171 -0.4522 -0.0954
 9456TIP3    H128307   0.249   1.333   3.190 -0.5459 -0.3875  0.0264
 9456TIP3    H228308   0.187   1.262   3.072 -1.5265  0.0318  0.2843
 9457TIP3   OH228309   0.566   0.810   4.549  0.1657 -0.2623  0.3997
 9457TIP3    H128310   0.521   0.807   4.633  1.8424 -0.1229  1.3149
 9457TIP3    H228311   0.564   0.903   4.524  1.1961 -0.0320  1.1405
 9458TIP3   OH228312   7.898   0.477   2.204 -0.0532  0.2917 -0.3372
 9458TIP3    H128313   7.845   0.557   2.207  2.1902  1.7598  2.0783
 9458TIP3    H228314   7.865   0.424   2.276  0.2169  0.1961 -0.2843
 9459TIP3   OH228315   6.041   6.815   2.947 -0.4549 -0.0428 -0.1457
 9459TIP3    H128316   6.095   6.737   2.936  0.2504  0.4479 -0.2151
 9459TIP3    H228317   6.071   6.875   2.878 -2.8753 -0.7435 -1.8678
 9460TIP3   OH228318   7.414   1.232   2.402  0.7208  0.4313 -0.0252
 9460TIP3    H128319   7.358   1.228   2.480 -0.2037  0.1485 -0.6842
 9460TIP3    H228320   7.459   1.316   2.408  1.2665  0.0553  1.2250
 9461TIP3   OH228321   2.689   1.260   2.541 -0.6768  0.4137  0.2224
 9461TIP3    H128322   2.670   1.193   2.607 -1.5581  0.1648 -0.2792
 9461TIP3    H228323   2.603   1.292   2.514 -0.3457  0.1499 -1.1869
 9462TIP3   OH228324   4.649   6.297   2.463  1.4058  0.3108 -0.4332
 9462TIP3    H128325   4.729   6.263   2.423  1.4755  0.9136 -0.8177
 9462TIP3    H228326   4.581   6.285   2.397  2.0786  3.8604 -1.8664
 9463TIP3   OH228327   0.934   2.659   5.272  0.2006 -0.2624  0.4793
 9463TIP3    H128328   0.941   2.570   5.306  1.1587 -0.5770 -0.4857
 9463TIP3    H228329   0.960   2.651   5.180 -1.5365  0.6971 -0.1159
 9464TIP3   OH228330   0.958   0.787   5.336  0.0205  0.3299  0.3325
 9464TIP3    H128331   0.933   0.873   5.369  0.4471 -0.8701  3.9972
 9464TIP3    H228332   1.020   0.806   5.265 -1.0574  3.0269  0.0406
 9465TIP3   OH228333   8.106   0.339   1.385  0.1623 -0.1740  0.5430
 9465TIP3    H128334   8.068   0.306   1.466  0.5894 -0.3971  0.6561
 9465TIP3    H228335   8.096   0.267   1.323 -0.3290  0.0636  0.3451
 9466TIP3   OH228336   0.124   1.119   4.917 -0.1990  0.1531 -0.3639
 9466TIP3    H128337   0.038   1.084   4.896 -0.8292  1.9540 -0.9210
 9466TIP3    H228338   0.106   1.199   4.967  1.1862 -0.5857  1.3868
 9467TIP3   OH228339   7.261   6.764   4.893  0.0355  0.2169  0.2345
 9467TIP3    H128340   7.199   6.781   4.964  0.4800 -4.4812  1.9189
 9467TIP3    H228341   7.347   6.770   4.934  0.3315 -1.5236 -0.0919
 9468TIP3   OH228342   3.794   7.182   4.332  0.0698 -0.5723 -0.3516
 9468TIP3    H128343   3.717   7.158   4.280 -0.9585  0.6811  0.5710
 9468TIP3    H228344   3.805   7.108   4.393  0.0049 -1.0670 -0.9325
 9469TIP3   OH228345   1.513   0.386   1.723  0.4378 -0.0347 -0.2845
 9469TIP3    H128346   1.471   0.315   1.675 -2.6560  0.9768  0.8356
 9469TIP3    H228347   1.529   0.351   1.810  0.1681  0.1883 -0.1434
 9470TIP3   OH228348   7.926   7.843   3.188  0.2405  0.2009  0.0010
 9470TIP3    H128349   7.855   7.871   3.130  0.2078  1.3179  0.5526
 9470TIP3    H228350   8.003   7.888   3.155  0.7373 -1.1598 -0.7091
 9471TIP3   OH228351   4.086   7.379   2.228  0.0889 -0.3046  0.4128
 9471TIP3    H128352   3.993   7.380   2.205 -0.0674  1.9293  1.0030
 9471TIP3    H228353   4.090   7.334   2.312 -0.3123 -1.3369 -0.1111
 9472TIP3   OH228354   5.938   0.889   5.387 -0.2546  0.5787  0.3143
 9472TIP3    H128355   5.970   0.818   5.331  0.8624  0.9627  0.4709
 9472TIP3    H228356   5.844   0.871   5.396 -0.3199  0.1215 -1.1152
 9473TIP3   OH228357   2.671   0.284   2.953 -0.0157  0.6580 -0.2452
 9473TIP3    H128358   2.755   0.300   2.995  1.5086 -1.5590 -2.3667
 9473TIP3    H228359   2.652   0.192   2.971 -1.4312  0.8375 -0.7703
 9474TIP3   OH228360   6.695   7.841   2.674 -0.1834 -0.1701  0.2386
 9474TIP3    H128361   6.611   7.884   2.657 -0.0515  0.8980  2.1178
 9474TIP3    H228362   6.672   7.762   2.723 -0.1730 -0.3235 -0.0093
 9475TIP3   OH228363   5.227   6.930   2.200  0.3608  0.1072 -0.4298
 9475TIP3    H128364   5.225   6.933   2.104 -1.4583  1.3122 -0.3757
 9475TIP3    H228365   5.298   6.868   2.220 -0.2325 -1.3373 -2.5634
 9476TIP3   OH228366   5.908   7.511   6.073 -0.6892 -0.3223 -0.0985
 9476TIP3    H128367   5.829   7.526   6.021 -1.1505 -1.3730  0.2865
 9476TIP3    H228368   5.935   7.422   6.050 -1.2656 -1.0362  1.9316
 9477TIP3   OH228369   6.013   7.849   2.185  0.1831  0.0178  0.1479
 9477TIP3    H128370   5.964   7.891   2.115 -0.9658  0.1918  1.0467
 9477TIP3    H228371   6.017   7.757   2.160  2.0985  0.4852 -1.4725
 9478TIP3   OH228372   7.642   7.430   4.243  0.1543  0.3645 -0.4566
 9478TIP3    H128373   7.662   7.522   4.222 -1.7988  0.7091 -0.9247
 9478TIP3    H228374   7.704   7.380   4.190  1.5728  1.4111  0.1717
 9479TIP3   OH228375   0.472   0.790   3.362  0.0659  0.2123  0.0862
 9479TIP3    H128376   0.468   0.737   3.282 -0.6053  0.4961 -0.0667
 9479TIP3    H228377   0.534   0.743   3.418  0.7850  0.1738 -0.7217
 9480TIP3   OH228378   3.858   6.440   2.574  0.1547 -0.0882 -0.2727
 9480TIP3    H128379   3.946   6.404   2.588 -0.2213 -0.6538  0.6837
 9480TIP3    H228380   3.865   6.532   2.597  0.7884  0.1510 -1.3846
 9481TIP3   OH228381   6.793   0.842   2.809  0.3798 -0.1865 -0.0662
 9481TIP3    H128382   6.775   0.912   2.746 -0.4817  0.7132  1.1607
 9481TIP3    H228383   6.779   0.762   2.759 -3.7680  0.4589 -0.1807
 9482TIP3   OH228384   7.879   1.469   2.724 -0.3561 -0.2424 -0.0877
 9482TIP3    H128385   7.951   1.459   2.661 -1.2945  0.6313 -1.3138
 9482TIP3    H228386   7.878   1.563   2.744 -1.7165 -0.1169 -0.7429
 9483TIP3   OH228387   4.931   7.093   5.677 -0.5355  0.0949 -0.0028
 9483TIP3    H128388   4.839   7.093   5.704 -0.6558  0.1334 -0.4204
 9483TIP3    H228389   4.958   7.184   5.684 -0.3297 -0.0187  0.7982
 9484TIP3   OH228390   6.998   7.511   1.678 -0.0753 -0.1176 -0.2735
 9484TIP3    H128391   7.066   7.505   1.746 -0.0848 -0.3204 -0.2818
 9484TIP3    H228392   6.931   7.568   1.716  0.9806  1.6612 -1.0089
 9485TIP3   OH228393   0.425   0.548   3.269 -0.6835 -0.4965 -0.3431
 9485TIP3    H128394   0.411   0.559   3.363  0.7840 -1.3421 -0.0093
 9485TIP3    H228395   0.409   0.456   3.252 -0.3287 -0.4746 -0.8133
 9486TIP3   OH228396   4.733   7.474   2.268  0.1056 -0.7340  0.5652
 9486TIP3    H128397   4.643   7.481   2.300  0.6917  1.8190  1.7493
 9486TIP3    H228398   4.784   7.449   2.345  0.3125 -3.0386 -0.2927
 9487TIP3   OH228399   6.853   6.039   2.668 -0.1597 -0.2648  0.2274
 9487TIP3    H128400   6.804   6.000   2.740  0.8443 -1.0444  0.4996
 9487TIP3    H228401   6.854   5.972   2.600 -0.5443  0.2252 -0.2701
 9488TIP3   OH228402   6.808   6.888   2.049  0.1729  0.6660 -0.0981
 9488TIP3    H128403   6.809   6.879   2.144 -1.5806 -0.4920 -0.1513
 9488TIP3    H228404   6.853   6.810   2.017 -0.4433  0.3483 -0.2190
 9489TIP3   OH228405   2.290   0.167   4.020 -0.1659 -0.3318  0.2804
 9489TIP3    H128406   2.259   0.076   4.028  0.5052 -0.7230 -1.4187
 9489TIP3    H228407   2.382   0.163   4.045 -0.1279 -0.1238  0.1745
 9490TIP3   OH228408   5.640   7.830   2.054 -0.3350 -0.1602 -0.1254
 9490TIP3    H128409   5.658   7.774   2.129 -0.1246  0.5808  0.3817
 9490TIP3    H228410   5.723   7.876   2.039 -0.0094 -1.1882 -1.5620
 9491TIP3   OH228411   8.471   1.430   2.889 -0.0965 -0.0491  0.1687
 9491TIP3    H128412   8.450   1.446   2.797  0.1021  1.1768  0.3279
 9491TIP3    H228413   8.508   1.342   2.890  1.9831  0.7703 -1.2572
 9492TIP3   OH228414   2.401   0.406   2.405  0.3684 -0.0769 -0.3167
 9492TIP3    H128415   2.370   0.367   2.323  0.8843  0.2246 -0.6488
 9492TIP3    H228416   2.401   0.500   2.389  0.7397 -0.0338 -0.0586
 9493TIP3   OH228417   7.956   2.812   1.868 -0.3464 -0.5796  0.2873
 9493TIP3    H128418   8.028   2.754   1.893 -0.7472 -1.3328 -0.3070
 9493TIP3    H228419   7.995   2.874   1.807  0.3654  0.5299  1.8213
 9494TIP3   OH228420   7.398   1.149   3.512  0.6319 -0.3175 -0.2717
 9494TIP3    H128421   7.484   1.191   3.506  0.6358  0.0815  2.0036
 9494TIP3    H228422   7.416   1.065   3.555 -0.0859 -0.2861  0.0938
 9495TIP3   OH228423   0.638   1.030   3.306  0.2140 -0.2758 -0.3731
 9495TIP3    H128424   0.576   0.960   3.330 -0.4280  0.4076 -0.0012
 9495TIP3    H228425   0.586   1.110   3.311  1.1851  0.3295  0.1074
 9496TIP3   OH228426   7.842   7.064   1.288 -0.1223  0.0079 -0.4216
 9496TIP3    H128427   7.809   7.077   1.377  2.9289  1.2113  0.6045
 9496TIP3    H228428   7.841   7.152   1.249  2.2595  0.1922 -0.1678
 9497TIP3   OH228429   1.984   2.885   2.549 -0.4565  0.1956  0.6717
 9497TIP3    H128430   2.043   2.880   2.474 -0.8533 -1.2740  0.4522
 9497TIP3    H228431   2.007   2.968   2.592 -0.9686  1.5744 -1.6488
 9498TIP3   OH228432   3.434   7.614   2.389  0.2141  0.3451 -0.4465
 9498TIP3    H128433   3.436   7.520   2.404 -1.3153  0.4656  0.6504
 9498TIP3    H228434   3.410   7.623   2.296  0.2987 -0.3389 -0.5325
 9499TIP3   OH228435   0.868   0.145   5.459  0.2181 -0.2442 -0.1883
 9499TIP3    H128436   0.852   0.053   5.437  1.0984 -0.3802 -0.2809
 9499TIP3    H228437   0.956   0.145   5.497  0.9524  0.8086 -1.8125
 9500TIP3   OH228438   8.289   5.411   5.901  0.2492  0.2068  0.3693
 9500TIP3    H128439   8.240   5.405   5.983  0.3113  1.1845  0.4870
 9500TIP3    H228440   8.351   5.483   5.916  1.6633 -0.9544  0.1966
 9501TIP3   OH228441   0.400   6.809   2.258 -0.0504 -0.3355 -0.1349
 9501TIP3    H128442   0.336   6.846   2.319  0.8056  2.0960 -0.6406
 9501TIP3    H228443   0.372   6.719   2.246 -1.8973 -0.0472  1.6270
 9502TIP3   OH228444   1.143   1.136   1.190 -0.1521  0.2989 -0.2540
 9502TIP3    H128445   1.107   1.081   1.259 -0.0814 -1.7302 -1.7736
 9502TIP3    H228446   1.124   1.225   1.217 -1.7864 -0.5475  1.4549
 9503TIP3   OH228447   7.687   7.030   2.636 -0.5125 -0.0497  0.8220
 9503TIP3    H128448   7.632   7.067   2.705 -0.0148  0.7336  0.8097
 9503TIP3    H228449   7.717   7.106   2.586  2.7109 -0.1943  2.3984
 9504TIP3   OH228450   3.255   0.771   1.467  0.4068  0.3443  0.1134
 9504TIP3    H128451   3.277   0.718   1.391  0.8141  0.6949 -0.0165
 9504TIP3    H228452   3.226   0.708   1.533 -1.1517  0.1436 -0.7380
 9505TIP3   OH228453   6.580   7.487   2.526  0.2674 -0.0018  0.0191
 9505TIP3    H128454   6.644   7.536   2.474 -0.0261 -1.0965 -1.4249
 9505TIP3    H228455   6.633   7.426   2.578  0.5328  0.7615  0.6555
 9506TIP3   OH228456   3.805   7.930   4.620  0.0192 -0.6784  0.4105
 9506TIP3    H128457   3.805   8.000   4.555 -0.7224 -2.4131 -1.5258
 9506TIP3    H228458   3.896   7.901   4.625  0.0998 -0.4442  0.2603
 9507TIP3   OH228459   4.324   5.265   6.651  0.1103 -0.2888 -0.6733
 9507TIP3    H128460   4.242   5.308   6.674  0.7230 -0.3483  1.7685
 9507TIP3    H228461   4.392   5.327   6.677  0.9015 -1.2820 -0.3369
 9508TIP3   OH228462   0.654   0.342   2.078  0.3605 -0.0320 -0.1130
 9508TIP3    H128463   0.711   0.391   2.018  0.3159  0.1704  0.0098
 9508TIP3    H228464   0.641   0.401   2.152 -0.2293  0.0190 -0.2613
 9509TIP3   OH228465   8.267   2.019   1.400  0.2234  0.4991 -0.7964
 9509TIP3    H128466   8.227   2.019   1.486 -1.1711 -1.2783 -1.4140
 9509TIP3    H228467   8.361   2.008   1.416  0.4479  3.8223  0.6166
 9510TIP3   OH228468   0.725   0.651   2.716  0.2365 -0.2986 -0.3795
 9510TIP3    H128469   0.707   0.694   2.633 -1.4035  0.5941  0.3958
 9510TIP3    H228470   0.641   0.611   2.740  0.3191  0.5702  1.4541
 9511TIP3   OH228471   8.426   0.837   3.580 -0.1580 -0.4344 -0.3258
 9511TIP3    H128472   8.373   0.817   3.656 -1.7503  0.6284 -1.1281
 9511TIP3    H228473   8.369   0.819   3.505  0.7552  0.2577 -1.2044
 9512TIP3   OH228474   1.232   0.529   3.316  0.0392  0.3407  0.0340
 9512TIP3    H128475   1.323   0.554   3.302  0.5206 -1.4686 -0.2472
 9512TIP3    H228476   1.201   0.501   3.230 -0.3679 -0.3225  0.3935
 9513TIP3   OH228477   1.926   2.090   2.222  0.2789 -0.2825 -0.0706
 9513TIP3    H128478   1.839   2.065   2.255 -0.5840  1.2950 -1.1081
 9513TIP3    H228479   1.975   2.114   2.301  0.2002 -2.3222  0.6505
 9514TIP3   OH228480   1.646   0.860   0.933 -0.5417  0.0320  0.4793
 9514TIP3    H128481   1.694   0.837   1.013 -2.1142 -2.3624  0.7604
 9514TIP3    H228482   1.601   0.780   0.908 -0.8062  1.0230 -2.3251
 9515TIP3   OH228483   1.306   0.140   3.592  0.1397 -0.0034 -0.2477
 9515TIP3    H128484   1.244   0.188   3.537  0.1778 -1.0085 -1.1882
 9515TIP3    H228485   1.380   0.121   3.533  0.2309 -0.9959  0.1878
 9516TIP3   OH228486   1.870   1.714   2.753 -0.1722 -0.0925 -0.3597
 9516TIP3    H128487   1.871   1.801   2.713  0.1972  0.4934  0.8894
 9516TIP3    H228488   1.941   1.716   2.817 -1.2016 -0.7580  0.8370
 9517TIP3   OH228489   8.008   0.650   4.448 -0.6658  0.9486 -0.7977
 9517TIP3    H128490   7.923   0.632   4.409 -1.6946  2.2110  0.7976
 9517TIP3    H228491   7.997   0.628   4.541  1.7307 -2.0200 -1.1622
 9518TIP3   OH228492   3.131   0.638   2.581  0.1485 -0.2473  0.0024
 9518TIP3    H128493   3.072   0.713   2.570  0.6304  0.3974  1.7444
 9518TIP3    H228494   3.077   0.572   2.626  0.0852 -0.5249 -0.4696
 9519TIP3   OH228495   8.129   7.084   2.781  0.3099  0.4721 -0.6398
 9519TIP3    H128496   8.152   7.167   2.738 -1.6398  0.2426 -2.2167
 9519TIP3    H228497   8.073   7.039   2.717  0.8924 -1.8299  0.4163
 9520TIP3   OH228498   8.111   1.907   1.618  0.4663  0.0656 -0.2370
 9520TIP3    H128499   8.047   1.976   1.635 -0.3630 -0.8015  0.2431
 9520TIP3    H228500   8.083   1.867   1.536  0.6418 -0.0420 -0.2456
 9521TIP3   OH228501   7.305   6.575   1.190  0.0670  0.4374  0.1743
 9521TIP3    H128502   7.312   6.611   1.278  0.0141  0.2425  0.2574
 9521TIP3    H228503   7.388   6.597   1.148  0.8042 -1.0061  0.8358
 9522TIP3   OH228504   1.106   6.226   3.571  0.0945 -0.2393 -0.4556
 9522TIP3    H128505   1.012   6.227   3.553  0.1937 -0.3901 -1.0066
 9522TIP3    H228506   1.116   6.278   3.651 -0.4572 -0.2259 -0.3940
 9523TIP3   OH228507   6.969   7.508   3.716  0.1073 -0.1322  0.8698
 9523TIP3    H128508   6.946   7.463   3.798  0.1167 -0.3862  0.7319
 9523TIP3    H228509   6.889   7.501   3.663  0.1311 -0.0440  0.8224
 9524TIP3   OH228510   7.869   7.331   2.944  0.4479  0.2200 -0.0792
 9524TIP3    H128511   7.931   7.331   3.016  0.9755  1.1239 -0.5134
 9524TIP3    H228512   7.785   7.311   2.984  1.0625 -1.2956  0.4682
 9525TIP3   OH228513   2.766   4.828   6.837 -0.1947 -0.7472 -0.1449
 9525TIP3    H128514   2.765   4.740   6.799 -1.2844 -0.5365 -0.6461
 9525TIP3    H228515   2.735   4.815   6.927 -0.9008 -0.8124 -0.3914
 9526TIP3   OH228516   1.771   1.987   3.559  0.0175  0.2637  0.0987
 9526TIP3    H128517   1.861   1.957   3.567  0.2098  1.0429  0.8504
 9526TIP3    H228518   1.725   1.945   3.632 -0.6835 -1.7522 -1.4400
 9527TIP3   OH228519   5.163   6.196   1.226 -0.5832  0.6550 -0.0997
 9527TIP3    H128520   5.171   6.118   1.281 -1.5633  0.8992  0.4144
 9527TIP3    H228521   5.253   6.228   1.216 -0.4915  1.3098  2.4144
 9528TIP3   OH228522   1.083   0.594   3.582  0.2011 -0.3371  0.4063
 9528TIP3    H128523   0.999   0.574   3.540 -0.6964  0.2856  1.8741
 9528TIP3    H228524   1.145   0.536   3.539 -0.9601 -0.7193 -0.7938
 9529TIP3   OH228525   0.038   0.416   0.587 -0.2766  0.4075 -0.4324
 9529TIP3    H128526   0.106   0.398   0.522 -0.8752 -1.6676 -0.5255
 9529TIP3    H228527  -0.017   0.338   0.586 -1.1788  0.9917  1.4765
 9530TIP3   OH228528   6.867   1.251   1.653  0.0636 -0.6360  0.1031
 9530TIP3    H128529   6.798   1.185   1.662  0.8431 -1.6953 -1.3646
 9530TIP3    H228530   6.888   1.276   1.743 -1.6278 -0.9206  0.5996
 9531TIP3   OH228531   0.282   1.108   1.616 -0.6436 -0.1324  0.2843
 9531TIP3    H128532   0.213   1.163   1.652 -1.3296 -1.1890  0.6015
 9531TIP3    H228533   0.358   1.167   1.607 -0.4339  0.1611  3.4788
 9532TIP3   OH228534   7.310   6.688   1.859 -0.0345  0.6498  0.0320
 9532TIP3    H128535   7.231   6.738   1.840  1.1153  2.4725 -0.0337
 9532TIP3    H228536   7.326   6.638   1.779 -0.7986  0.7226 -0.1663
 9533TIP3   OH228537   5.008   5.806   1.574 -0.3394 -0.2833 -0.1084
 9533TIP3    H128538   4.987   5.724   1.618  3.5471 -0.8591  0.8784
 9533TIP3    H228539   4.933   5.863   1.592 -2.5101 -3.1280  0.2968
 9534TIP3   OH228540   7.187   5.033   1.811  0.1931 -0.4326 -0.2936
 9534TIP3    H128541   7.098   5.003   1.830  0.3120  0.6212  1.9762
 9534TIP3    H228542   7.241   4.955   1.824 -0.1031 -0.4768  0.6626
 9535TIP3   OH228543   7.804   7.098   1.584  0.0466 -0.0498  0.5319
 9535TIP3    H128544   7.900   7.104   1.578  0.1145 -1.0176  0.6414
 9535TIP3    H228545   7.785   7.113   1.677  0.1993 -1.2655  0.7635
 9536TIP3   OH228546   3.528   0.560   4.167  0.0293 -0.0768 -0.4143
 9536TIP3    H128547   3.453   0.502   4.157  1.4051 -2.0099  0.1331
 9536TIP3    H228548   3.604   0.501   4.169  1.3415  1.5847  1.7944
 9537TIP3   OH228549   5.834   7.148   5.429  0.2785  0.5878 -0.0045
 9537TIP3    H128550   5.911   7.145   5.373  1.2022  0.1807  1.2594
 9537TIP3    H228551   5.858   7.095   5.505 -1.1428  0.6920  0.5244
 9538TIP3   OH228552   4.907   5.974   2.132  0.8757 -0.2289 -0.3281
 9538TIP3    H128553   4.853   5.977   2.053  0.6220 -0.0551 -0.1486
 9538TIP3    H228554   4.930   5.882   2.142 -2.0720 -0.8314  1.4061
 9539TIP3   OH228555   3.951   4.877   1.018  0.8195  0.2889 -0.1074
 9539TIP3    H128556   3.888   4.872   1.090  0.3990 -0.9093 -0.5474
 9539TIP3    H228557   3.924   4.954   0.967  0.6701  0.6981  0.5862
 9540TIP3   OH228558   4.991   4.632   1.807  0.1088  0.6913 -0.0365
 9540TIP3    H128559   4.956   4.543   1.815  1.1938  0.2643 -0.0562
 9540TIP3    H228560   5.078   4.621   1.769  0.4466  1.7343  0.4134
 9541TIP3   OH228561   7.037   5.051   0.711  0.0014  0.1593 -0.5696
 9541TIP3    H128562   6.993   5.088   0.788  0.1464 -1.8525  0.5121
 9541TIP3    H228563   7.075   5.127   0.667  0.7927  1.2769  1.9007
 9542TIP3   OH228564   5.226   7.108   0.723  0.0891 -0.1541 -0.2063
 9542TIP3    H128565   5.288   7.181   0.733 -1.0625  0.8783 -0.4591
 9542TIP3    H228566   5.256   7.043   0.786  3.5878 -1.2180 -2.8385
 9543TIP3   OH228567   1.338   1.837   5.918  0.9779  0.2630 -0.0986
 9543TIP3    H128568   1.357   1.817   5.826  1.0023 -0.1899  0.0032
 9543TIP3    H228569   1.296   1.923   5.916 -1.2315 -0.7848 -0.7720
 9544TIP3   OH228570   5.885   5.737   0.350  0.1622  0.2398 -0.3397
 9544TIP3    H128571   5.804   5.717   0.302 -1.1106 -0.4330  2.0227
 9544TIP3    H228572   5.897   5.831   0.338 -0.6333  0.2418 -1.2042
 9545TIP3   OH228573   3.629   4.895   0.326 -0.2303 -0.1828  0.6861
 9545TIP3    H128574   3.548   4.878   0.375 -1.3518 -0.7859 -1.3064
 9545TIP3    H228575   3.690   4.829   0.358 -0.9221 -0.5475  1.2974
 9546TIP3   OH228576   3.285   2.380   6.739 -0.1347  0.6733 -0.5022
 9546TIP3    H128577   3.304   2.472   6.717  0.6622  0.2459 -1.6993
 9546TIP3    H228578   3.366   2.348   6.779  0.1494  0.0677 -1.5336
 9547TIP3   OH228579   4.077   6.167   1.585 -0.4983  0.0498  0.2579
 9547TIP3    H128580   4.064   6.139   1.494 -0.3176 -1.4107  0.6610
 9547TIP3    H228581   3.990   6.161   1.625 -0.7311  1.4896 -0.0295
 9548TIP3   OH228582   2.489   1.222   5.778 -0.2732  0.0474 -0.0357
 9548TIP3    H128583   2.528   1.309   5.769 -0.8645  0.6704  2.8707
 9548TIP3    H228584   2.524   1.172   5.704  2.0948  2.0198 -0.2998
 9549TIP3   OH228585   4.567   5.732   0.328  0.0750 -0.4085 -0.0571
 9549TIP3    H128586   4.587   5.701   0.416 -0.6263  0.8416  0.5614
 9549TIP3    H228587   4.474   5.756   0.332  0.7825  2.5527 -0.2517
 9550TIP3   OH228588   1.218   0.189   5.875 -0.2397 -0.7801 -0.1468
 9550TIP3    H128589   1.174   0.122   5.822 -2.1987 -0.0557  0.5031
 9550TIP3    H228590   1.234   0.261   5.814 -2.5070  0.0607  0.2055
 9551TIP3   OH228591   6.055   5.410   0.650  0.3146 -0.2399  0.0108
 9551TIP3    H128592   6.006   5.492   0.643 -0.0593 -0.4281  0.4117
 9551TIP3    H228593   6.019   5.354   0.581 -0.1760 -0.4516  0.4412
 9552TIP3   OH228594   5.056   5.655   0.888  0.4316 -0.1585 -0.0662
 9552TIP3    H128595   5.065   5.568   0.928  0.6782  0.2193  0.7018
 9552TIP3    H228596   5.085   5.716   0.955 -0.4869  0.5816 -0.3196
 9553TIP3   OH228597   5.402   6.160   0.338 -0.0339 -0.2941 -0.5494
 9553TIP3    H128598   5.310   6.157   0.363 -0.1262  2.2384 -0.4151
 9553TIP3    H228599   5.449   6.136   0.418 -0.5234  1.6557  0.3710
 9554TIP3   OH228600   2.759   1.401   6.498 -0.5684 -0.2493  0.3863
 9554TIP3    H128601   2.841   1.354   6.510  0.1650  0.6714 -0.8386
 9554TIP3    H228602   2.700   1.338   6.456 -0.5107 -0.9173  1.2946
 9555TIP3   OH228603   4.348   5.713   0.952 -0.3397  0.2031 -0.3854
 9555TIP3    H128604   4.347   5.769   1.030  1.0199  0.0192 -0.2200
 9555TIP3    H228605   4.395   5.764   0.886  1.0880 -0.8171 -0.1696
 9556TIP3   OH228606   3.148   6.607   0.311  0.1765 -0.7156 -0.0684
 9556TIP3    H128607   3.055   6.608   0.334  0.1686 -1.6888 -0.0467
 9556TIP3    H228608   3.180   6.523   0.342  1.1106 -0.3231  0.0696
 9557TIP3   OH228609   2.505   1.247   6.380 -0.8285 -0.4284 -0.3446
 9557TIP3    H128610   2.474   1.168   6.335  0.7409 -1.4187  0.2640
 9557TIP3    H228611   2.447   1.256   6.456 -1.3953 -0.6579 -0.7558
 9558TIP3   OH228612   0.335   0.902   6.888  0.1877  0.0469 -0.3765
 9558TIP3    H128613   0.257   0.896   6.834 -1.2651 -1.7775  1.8517
 9558TIP3    H228614   0.329   0.989   6.929 -0.7496 -0.1667 -0.0686
 9559TIP3   OH228615   1.779   0.513   5.777 -0.3553  0.5436 -0.0767
 9559TIP3    H128616   1.698   0.543   5.737 -0.2219  1.7963  0.5667
 9559TIP3    H228617   1.760   0.508   5.870  0.4928  1.5190  0.1654
 9560TIP3   OH228618   2.457   2.580   4.744  0.2011 -0.3796  0.3848
 9560TIP3    H128619   2.419   2.666   4.724  0.8360 -0.1737  0.0692
 9560TIP3    H228620   2.417   2.556   4.828 -2.2508 -1.1171 -0.9292
 9561TIP3   OH228621   8.404  -0.028   6.898 -0.0156 -0.0384  0.4246
 9561TIP3    H128622   8.457   0.052   6.893 -0.4081  0.3057  1.6240
 9561TIP3    H228623   8.316   0.003   6.916 -0.2574 -0.7193  0.4106
 9562TIP3   OH228624   2.185   0.511   6.355  0.2724 -0.5941 -0.4210
 9562TIP3    H128625   2.146   0.596   6.375  1.5399  0.4045 -2.0382
 9562TIP3    H228626   2.117   0.465   6.305 -0.8722 -1.0273  1.4968
 9563TIP3   OH228627   2.849   0.540   6.537 -0.0134  0.4459 -0.2529
 9563TIP3    H128628   2.779   0.561   6.475 -1.0298  1.0531  1.0726
 9563TIP3    H228629   2.862   0.621   6.586  1.4835  0.2621 -0.3493
 9564TIP3   OH228630   5.329   5.153   0.708  0.1813  0.4651 -0.3691
 9564TIP3    H128631   5.269   5.095   0.756 -0.7101  1.2968 -0.4580
 9564TIP3    H228632   5.393   5.181   0.774  0.9362 -1.0170 -0.4446
 9565TIP3   OH228633   4.512   5.033   0.764  0.4494 -0.5090  0.3835
 9565TIP3    H128634   4.574   5.106   0.767 -0.5682  0.3014  2.0656
 9565TIP3    H228635   4.467   5.044   0.680 -0.9166  1.8535  1.3689
 9566TIP3   OH228636   0.322   0.298   6.879  0.2654 -0.2393 -0.1240
 9566TIP3    H128637   0.245   0.351   6.899  2.2591  2.5904  0.4337
 9566TIP3    H228638   0.349   0.326   6.792  2.1282  0.7314  0.7201
 9567TIP3   OH228639   3.965   5.413   0.648  0.6175  0.0355  0.6938
 9567TIP3    H128640   4.028   5.343   0.635 -0.8608 -1.1295 -0.3829
 9567TIP3    H228641   4.012   5.478   0.700  2.2402 -1.4167  1.0916
 9568TIP3   OH228642   4.691   4.350   0.383  0.4730  0.5461  0.3592
 9568TIP3    H128643   4.595   4.349   0.379  0.4044 -0.3243  1.7834
 9568TIP3    H228644   4.712   4.434   0.426  0.3303  0.5425  0.4366
 9569TIP3   OH228645   5.559   5.005   2.554  0.4565 -0.1185  0.1366
 9569TIP3    H128646   5.584   5.009   2.646  1.4474 -0.8917 -0.0896
 9569TIP3    H228647   5.641   5.017   2.506 -0.2695  1.7683 -0.6742
 9570TIP3   OH228648   1.401   5.505   0.143  0.2815  0.3107  0.2440
 9570TIP3    H128649   1.374   5.523   0.233 -0.8416  1.4376 -0.3071
 9570TIP3    H228650   1.465   5.434   0.151 -1.6310 -1.3341  1.7469
 9571TIP3   OH228651   3.462   2.048   6.921  0.5008  0.0205  0.3542
 9571TIP3    H128652   3.451   1.953   6.927  0.5528  0.0862  1.7185
 9571TIP3    H228653   3.517   2.061   6.844  1.4873 -1.1418  0.8408
 9572TIP3   OH228654   5.367   2.749   1.225 -0.1014  0.2968  0.4693
 9572TIP3    H128655   5.390   2.657   1.213  2.2998  1.0065 -0.4473
 9572TIP3    H228656   5.276   2.746   1.255 -0.6125 -2.2962 -1.1397
 9573TIP3   OH228657   4.063   0.677   6.757 -0.0255 -0.5108 -0.4195
 9573TIP3    H128658   3.977   0.719   6.764 -0.2208 -0.7599 -1.3345
 9573TIP3    H228659   4.068   0.620   6.834 -1.1719 -1.3942 -0.9859
 9574TIP3   OH228660   6.388   7.220   1.863 -0.7263  0.0244  0.4243
 9574TIP3    H128661   6.387   7.147   1.801  2.0979  0.1318  0.2230
 9574TIP3    H228662   6.299   7.254   1.860 -1.4182 -1.8070 -1.3803
 9575TIP3   OH228663   3.961   1.807   5.011 -0.2550  0.2307 -0.4245
 9575TIP3    H128664   3.962   1.900   5.034 -2.6668  0.0873  0.3688
 9575TIP3    H228665   3.868   1.784   5.009  0.3536 -2.3616  0.2318
 9576TIP3   OH228666   4.010   2.433   6.131 -0.1377 -0.1859 -0.5752
 9576TIP3    H128667   3.946   2.484   6.081  0.5111 -0.2186 -1.4390
 9576TIP3    H228668   4.028   2.356   6.076  0.9521  0.0233 -0.5139
 9577TIP3   OH228669   4.203   5.532   0.042 -0.4164 -0.2896  0.3862
 9577TIP3    H128670   4.273   5.519  -0.022 -0.7468 -1.2107  0.2041
 9577TIP3    H228671   4.247   5.570   0.118  0.1431 -0.0928 -0.0290
 9578TIP3   OH228672   3.155   0.780   5.796 -0.1030 -0.2239 -0.1076
 9578TIP3    H128673   3.075   0.753   5.841  0.2287  1.0184  1.2471
 9578TIP3    H228674   3.197   0.843   5.855  0.2561  1.5949 -2.2161
 9579TIP3   OH228675   7.243   7.089   1.642 -0.0425 -0.4348 -0.0862
 9579TIP3    H128676   7.325   7.101   1.594 -0.3051  0.0667 -0.4181
 9579TIP3    H228677   7.186   7.160   1.610 -0.1523  0.0252  1.1075
 9580TIP3   OH228678   7.494   5.327   1.040 -0.0776 -0.2973  0.2349
 9580TIP3    H128679   7.407   5.363   1.053  1.0755  1.9009  2.4646
 9580TIP3    H228680   7.532   5.379   0.969  0.1736  0.2356  0.7529
 9581TIP3   OH228681   7.044   5.695   0.679  0.4445 -0.2137 -0.0240
 9581TIP3    H128682   7.121   5.679   0.623 -0.1608 -3.8651  0.0515
 9581TIP3    H228683   6.977   5.637   0.643 -1.7397  1.6003  1.0500
 9582TIP3   OH228684   6.295   3.267   1.553  0.0990  0.4336 -0.0930
 9582TIP3    H128685   6.261   3.279   1.464  1.7796 -1.5546 -1.0387
 9582TIP3    H228686   6.373   3.323   1.556  0.9054 -0.6680 -0.3867
 9583TIP3   OH228687   2.430   6.811   5.284 -0.1530  0.2071  0.0029
 9583TIP3    H128688   2.391   6.885   5.238  0.2243  0.7819  0.5960
 9583TIP3    H228689   2.524   6.829   5.284 -0.0024 -0.5600 -0.3519
 9584TIP3   OH228690   2.154   0.422   5.895  0.3400  0.7903  0.1419
 9584TIP3    H128691   2.074   0.396   5.940  1.4229 -0.0926  1.6369
 9584TIP3    H228692   2.145   0.517   5.882 -0.4838  0.8774  1.2732
 9585TIP3   OH228693   4.569   3.789   3.174  0.5948 -0.0430  0.2634
 9585TIP3    H128694   4.534   3.744   3.097  2.0021 -1.6574  0.5410
 9585TIP3    H228695   4.650   3.831   3.143  0.6344  0.1506  0.6225
 9586TIP3   OH228696   3.051   0.800   6.082  0.1516 -0.0477 -0.0579
 9586TIP3    H128697   2.983   0.775   6.144 -0.9787  1.7787 -0.5376
 9586TIP3    H228698   3.063   0.894   6.097  2.4099 -0.2958 -0.1302
 9587TIP3   OH228699   6.644   2.454   0.629 -0.1521 -0.7081  0.3120
 9587TIP3    H128700   6.600   2.538   0.619 -1.8373 -1.7085 -0.9076
 9587TIP3    H228701   6.734   2.470   0.601 -0.8967  0.2989 -1.5783
 9588TIP3   OH228702   6.011   4.875   0.350 -0.0659 -0.1356 -0.1111
 9588TIP3    H128703   5.980   4.787   0.326 -2.9798  0.6438  0.5920
 9588TIP3    H228704   6.005   4.925   0.268  1.5835 -0.5651 -0.5090
 9589TIP3   OH228705   1.992   0.367   6.238  0.2423 -0.5451  0.2251
 9589TIP3    H128706   1.922   0.375   6.174  0.0131 -1.0498  0.4078
 9589TIP3    H228707   1.950   0.328   6.315  0.4066  0.4955  0.8540
 9590TIP3   OH228708   2.978   2.032   5.643  0.1196  0.1739  0.2774
 9590TIP3    H128709   2.953   2.012   5.733 -1.1067  2.1482  0.3959
 9590TIP3    H228710   3.066   2.068   5.650  0.6106 -1.0573  0.5204
 9591TIP3   OH228711   3.798   1.913   5.262 -0.0791  0.4402  0.0980
 9591TIP3    H128712   3.766   1.830   5.225  0.4237 -0.4671  1.6529
 9591TIP3    H228713   3.871   1.887   5.319  2.4353  2.3218 -2.1370
 9592TIP3   OH228714   8.252   5.454   1.505 -0.1863  0.1195  0.6487
 9592TIP3    H128715   8.271   5.548   1.497 -0.0385  0.2286  2.1803
 9592TIP3    H228716   8.333   5.416   1.540  0.2753 -0.8265 -1.3782
 9593TIP3   OH228717   7.304   4.203   0.760  0.1678  0.8300 -0.2168
 9593TIP3    H128718   7.235   4.263   0.731 -1.1264 -0.9920 -1.0026
 9593TIP3    H228719   7.359   4.190   0.683  0.8317  1.5014  0.1358
 9594TIP3   OH228720   3.892   0.555   6.528  0.2230  0.0521  0.5118
 9594TIP3    H128721   3.884   0.648   6.506  1.1160 -0.3020 -1.3906
 9594TIP3    H228722   3.966   0.551   6.588  0.0430  0.5910  0.7744
 9595TIP3   OH228723   4.026   0.970   6.156  0.3164  0.5604 -0.0745
 9595TIP3    H128724   3.978   1.028   6.214  1.3887  1.6165 -0.2151
 9595TIP3    H228725   4.100   0.939   6.209  0.2786  0.0861 -0.2992
 9596TIP3   OH228726   5.448  -0.032   6.828 -0.4125 -0.1086  0.2732
 9596TIP3    H128727   5.520   0.004   6.776 -0.4804 -0.0744  0.1999
 9596TIP3    H228728   5.421   0.041   6.885 -2.2122  0.8063 -1.6495
 9597TIP3   OH228729   3.522   0.021   6.676 -0.4623  0.3170  0.2564
 9597TIP3    H128730   3.486  -0.004   6.591  0.7458 -1.5740  0.2654
 9597TIP3    H228731   3.595   0.079   6.655 -0.2531 -0.0383 -0.0027
 9598TIP3   OH228732   7.809   5.274   0.635  0.2439 -0.9540 -0.5689
 9598TIP3    H128733   7.734   5.216   0.621 -0.4993  0.0201 -0.6389
 9598TIP3    H228734   7.883   5.214   0.646 -0.6767 -1.9554  0.3487
 9599TIP3   OH228735   3.156   2.263   6.539 -0.3960  0.5372  0.2075
 9599TIP3    H128736   3.228   2.236   6.481  0.3181  0.5102  1.0914
 9599TIP3    H228737   3.200   2.305   6.612 -1.3701  1.8591  0.0467
 9600TIP3   OH228738   4.812   4.833   1.740  0.0000 -0.0612  0.5094
 9600TIP3    H128739   4.747   4.764   1.746  0.5203 -0.5948  0.1132
 9600TIP3    H228740   4.893   4.792   1.769 -0.2727  1.2180  3.2126
 9601TIP3   OH228741   6.219   7.832   0.902  0.5370 -0.1417  0.3216
 9601TIP3    H128742   6.209   7.923   0.875 -1.9197 -0.7237 -0.9576
 9601TIP3    H228743   6.305   7.806   0.870  1.4914  1.8754  1.1897
 9602TIP3   OH228744   7.179   3.860   0.124 -0.3811  0.1521  0.2438
 9602TIP3    H128745   7.236   3.787   0.147  0.6534  0.8353 -0.1335
 9602TIP3    H228746   7.133   3.831   0.046 -0.1369 -0.1777  0.2223
 9603TIP3   OH228747   6.390   3.877   1.563 -0.2167  0.2223 -0.3178
 9603TIP3    H128748   6.409   3.969   1.543 -0.7882  0.2051 -0.9490
 9603TIP3    H228749   6.334   3.848   1.492 -0.7413 -0.3742  0.3303
 9604TIP3   OH228750   5.806   2.934   1.591  0.1897 -0.2293  0.4729
 9604TIP3    H128751   5.812   2.879   1.513  3.8500  0.5271  0.1213
 9604TIP3    H228752   5.806   3.023   1.557  0.1250  0.0796  1.2803
 9605TIP3   OH228753   2.392   1.940   6.273 -0.2146 -0.2236  0.1154
 9605TIP3    H128754   2.381   2.035   6.274 -1.4767 -0.3722  2.6450
 9605TIP3    H228755   2.309   1.907   6.237 -0.4086 -0.4227  0.7363
 9606TIP3   OH228756   5.426   7.467   2.080  0.1803 -0.5343  0.1673
 9606TIP3    H128757   5.389   7.382   2.057 -2.5544  0.8690 -0.8951
 9606TIP3    H228758   5.369   7.501   2.149  0.5580  0.9122 -0.1998
 9607TIP3   OH228759   5.412   4.773   0.450  0.7368 -0.5868 -0.1984
 9607TIP3    H128760   5.421   4.703   0.514 -0.7007 -1.6905 -1.1643
 9607TIP3    H228761   5.478   4.838   0.475  1.4767 -1.8734  1.2348
 9608TIP3   OH228762   7.828   4.856   0.392  0.3070 -0.2507  0.3403
 9608TIP3    H128763   7.863   4.768   0.404  1.5851  0.0925 -0.7091
 9608TIP3    H228764   7.776   4.872   0.470 -0.2051 -2.0632  0.3915
 9609TIP3   OH228765   4.228   6.693   0.543 -0.4966 -0.1605 -0.4890
 9609TIP3    H128766   4.236   6.662   0.453  0.0228  2.0012 -1.2135
 9609TIP3    H228767   4.194   6.782   0.535  1.1036  0.6614  1.3466
 9610TIP3   OH228768   2.977   2.904   5.831 -1.1694 -0.4554 -0.2853
 9610TIP3    H128769   3.060   2.866   5.859 -1.5667 -0.3892  0.9921
 9610TIP3    H228770   2.928   2.830   5.795 -0.4988 -0.4626 -1.2242
 9611TIP3   OH228771   6.790   6.317   0.594 -0.0324 -0.0358 -0.0823
 9611TIP3    H128772   6.880   6.296   0.617 -0.0005  0.5803  0.3882
 9611TIP3    H228773   6.762   6.377   0.663 -0.7446 -0.0893 -0.3224
 9612TIP3   OH228774   3.772   5.568   0.539  0.8156 -1.2402 -0.1870
 9612TIP3    H128775   3.844   5.527   0.587 -0.1089 -1.8360  0.6918
 9612TIP3    H228776   3.700   5.571   0.601 -0.0084 -0.8771 -1.1463
 9613TIP3   OH228777   5.813   5.384   2.308  0.3803 -1.0397  0.7317
 9613TIP3    H128778   5.904   5.404   2.286 -0.4543  1.5755 -0.4657
 9613TIP3    H228779   5.783   5.461   2.356 -1.3612 -1.6693  0.6590
 9614TIP3   OH228780   8.442   6.116   1.064  0.3226  0.7480  0.3585
 9614TIP3    H128781   8.433   6.135   0.971  0.0163  0.8000  0.3983
 9614TIP3    H228782   8.435   6.021   1.070 -2.2737  0.9352  0.6136
 9615TIP3   OH228783   6.967   4.262   0.980 -0.7799 -0.3133  0.4546
 9615TIP3    H128784   6.999   4.337   1.031  0.7449 -0.7305  0.1296
 9615TIP3    H228785   6.951   4.298   0.893 -0.4657 -0.2540  0.4185
 9616TIP3   OH228786   6.884   5.151   1.194  0.4050  0.1338  0.4159
 9616TIP3    H128787   6.823   5.212   1.236  0.8782 -0.2076  1.6133
 9616TIP3    H228788   6.864   5.066   1.234  1.0459 -0.1436  0.1442
 9617TIP3   OH228789   1.694   8.016   5.241 -0.1420  0.2037  0.2038
 9617TIP3    H128790   1.686   7.940   5.298 -0.1702 -0.1065 -0.2104
 9617TIP3    H228791   1.784   8.047   5.254 -0.8836  1.5885  2.2323
 9618TIP3   OH228792   5.766   4.128   2.232  0.1196 -0.1290 -0.2897
 9618TIP3    H128793   5.770   4.198   2.167  1.6365  0.6540  0.6135
 9618TIP3    H228794   5.803   4.052   2.189 -0.9058 -0.1958 -1.0584
 9619TIP3   OH228795   6.596   4.876   0.455 -0.4199 -1.2345 -0.6063
 9619TIP3    H128796   6.670   4.895   0.512  0.3967  1.7462 -2.5295
 9619TIP3    H228797   6.628   4.808   0.396  0.8425  0.0493 -1.4345
 9620TIP3   OH228798   4.768   0.260   4.747 -0.2234 -0.0328  0.2929
 9620TIP3    H128799   4.733   0.344   4.716  0.8152  0.6268  0.8918
 9620TIP3    H228800   4.737   0.253   4.837  0.5347  0.1843  0.5720
 9621TIP3   OH228801   0.351   2.939   1.028  0.4243  0.1800 -0.2380
 9621TIP3    H128802   0.387   3.007   0.971 -0.5171 -0.6799 -1.9094
 9621TIP3    H228803   0.264   2.970   1.051  0.3985  0.0335 -0.1386
 9622TIP3   OH228804   6.522   4.576   0.511 -0.2462 -0.5100 -0.5345
 9622TIP3    H128805   6.452   4.616   0.562  0.0862 -0.6951  0.0748
 9622TIP3    H228806   6.527   4.628   0.431 -0.3520  0.1638 -0.1027
 9623TIP3   OH228807   6.187   4.198   1.078  1.0370 -0.2044 -0.2378
 9623TIP3    H128808   6.200   4.127   1.016  1.5589 -0.3732  0.0569
 9623TIP3    H228809   6.276   4.231   1.095  0.8342  0.2746 -0.0946
 9624TIP3   OH228810   3.936   5.785   1.070  0.3482  0.5926 -0.2668
 9624TIP3    H128811   3.872   5.822   1.130  0.7376 -0.0706  0.5698
 9624TIP3    H228812   3.987   5.860   1.040 -0.1297  0.9832 -0.1101
 9625TIP3   OH228813   1.142   5.143   5.140 -0.0200  0.4598 -0.2524
 9625TIP3    H128814   1.055   5.144   5.100 -0.4761  0.1756  0.6895
 9625TIP3    H228815   1.188   5.072   5.097 -0.7236 -0.2603  0.1573
 9626TIP3   OH228816   2.240   2.153   6.393 -0.3088  0.0655  0.1218
 9626TIP3    H128817   2.210   2.244   6.397 -2.5974 -0.6629 -0.2703
 9626TIP3    H228818   2.257   2.130   6.485 -0.3694  0.6736  0.2912
 9627TIP3   OH228819   3.224   1.326   5.706 -0.5337 -0.0629  0.2538
 9627TIP3    H128820   3.166   1.328   5.783 -0.7627  1.1116  0.0539
 9627TIP3    H228821   3.300   1.276   5.736 -0.5781  0.4600  1.2916
 9628TIP3   OH228822   4.924   1.995   6.224 -0.4494  0.0932  0.2050
 9628TIP3    H128823   4.875   1.973   6.144 -0.8047  2.3759 -0.2377
 9628TIP3    H228824   5.004   1.944   6.217 -0.6017  0.0428 -1.4871
 9629TIP3   OH228825   2.462   7.850   5.637 -0.4596  0.0510 -0.7246
 9629TIP3    H128826   2.396   7.840   5.568 -0.6095 -2.5092 -0.2276
 9629TIP3    H228827   2.508   7.767   5.639 -0.5456  0.0257  2.3866
 9630TIP3   OH228828   1.215   0.574   5.456 -0.4900 -0.4998 -0.1721
 9630TIP3    H128829   1.120   0.569   5.459 -0.5213 -1.0542 -1.7871
 9630TIP3    H228830   1.238   0.551   5.366  1.2177 -1.0720  0.3839
 9631TIP3   OH228831   8.288   3.884   0.659 -0.0639  0.5878  0.1095
 9631TIP3    H128832   8.240   3.964   0.637  0.4996  1.0808  0.6465
 9631TIP3    H228833   8.374   3.896   0.620 -0.3191 -0.2381 -0.7389
 9632TIP3   OH228834   5.057   0.154   5.158  0.3802  0.0191 -0.1248
 9632TIP3    H128835   5.115   0.214   5.206  0.2158  0.5725 -0.6132
 9632TIP3    H228836   5.111   0.121   5.087 -0.2750  1.5241 -1.3471
 9633TIP3   OH228837   5.393   1.173   6.810  0.0350  0.2288 -0.0660
 9633TIP3    H128838   5.445   1.186   6.730 -1.0633  0.0200 -0.8176
 9633TIP3    H228839   5.397   1.257   6.855 -1.1892  1.0540 -1.4479
 9634TIP3   OH228840   2.869   0.951   5.758  0.3051  0.1706 -0.2113
 9634TIP3    H128841   2.917   0.869   5.743 -2.1511 -1.1924 -0.9053
 9634TIP3    H228842   2.803   0.953   5.689  0.2491  2.7035 -0.1291
 9635TIP3   OH228843   6.432   2.462   1.718  0.3035  0.4965 -0.3238
 9635TIP3    H128844   6.358   2.510   1.680 -0.6180 -0.0799  0.7269
 9635TIP3    H228845   6.493   2.531   1.746 -0.0155  0.9891 -0.8419
 9636TIP3   OH228846   6.748   7.101   2.466 -0.2522 -0.0752 -0.2942
 9636TIP3    H128847   6.804   7.140   2.399  1.2307  1.4853  1.8062
 9636TIP3    H228848   6.715   7.020   2.425  2.8626 -0.6160 -1.8923
 9637TIP3   OH228849   6.153   6.028   0.561  0.0410  0.5463 -0.0251
 9637TIP3    H128850   6.191   5.942   0.575  0.7201  0.6433 -1.2513
 9637TIP3    H228851   6.224   6.082   0.527 -0.5899  1.3579 -0.0974
 9638TIP3   OH228852   0.146   3.512   0.043  0.2597  0.5540  0.4793
 9638TIP3    H128853   0.142   3.440   0.106  2.7145  0.5118  0.6554
 9638TIP3    H228854   0.152   3.469  -0.042 -2.5740  0.6068  0.2355
 9639TIP3   OH228855   6.745   6.100   3.098 -0.4914  0.1620 -0.6736
 9639TIP3    H128856   6.685   6.109   3.173 -0.3978  0.7345 -0.6656
 9639TIP3    H228857   6.832   6.115   3.135 -0.2246 -1.7134 -0.4793
 9640TIP3   OH228858   7.856   5.334   2.538 -0.2635  0.0931  0.0314
 9640TIP3    H128859   7.841   5.415   2.587 -1.6751  0.3054 -0.7417
 9640TIP3    H228860   7.826   5.353   2.449 -2.1631 -1.7829  0.2265
 9641TIP3   OH228861   2.623   7.041   6.309 -0.7214  0.6191  0.4636
 9641TIP3    H128862   2.685   7.114   6.321 -1.7611  1.4061  1.1968
 9641TIP3    H228863   2.557   7.056   6.376 -1.7406 -0.1791 -0.3625
 9642TIP3   OH228864   2.485   0.320   5.159  0.5750 -0.6415 -0.1982
 9642TIP3    H128865   2.477   0.253   5.228 -0.2041 -0.1101  0.2455
 9642TIP3    H228866   2.558   0.374   5.187  0.4810 -0.6332  0.0344
 9643TIP3   OH228867   2.478   7.430   0.934  0.7260  0.2670  0.3296
 9643TIP3    H128868   2.463   7.525   0.932  2.1615  0.5626  2.0931
 9643TIP3    H228869   2.527   7.412   0.853 -0.5551  0.8276 -0.5912
 9644TIP3   OH228870   3.011   2.996   0.580  0.1987  0.1138 -0.6600
 9644TIP3    H128871   2.996   3.088   0.559  1.2240  1.1571  2.8507
 9644TIP3    H228872   2.958   2.979   0.658  2.8282 -1.1892  0.9383
 9645TIP3   OH228873   7.624   6.372   2.573 -0.0085  0.6033  0.7980
 9645TIP3    H128874   7.588   6.447   2.620  0.0510 -0.1068  1.9961
 9645TIP3    H228875   7.716   6.392   2.561 -0.2876  1.3470 -0.1323
 9646TIP3   OH228876   3.583   1.523   5.105 -0.0182 -0.2833  0.3177
 9646TIP3    H128877   3.589   1.487   5.193 -0.7323 -2.5668 -0.5388
 9646TIP3    H228878   3.500   1.491   5.071  0.1367  0.7640 -1.1230
 9647TIP3   OH228879   5.799   5.172   0.129 -0.7137 -1.0225 -0.5614
 9647TIP3    H128880   5.741   5.208   0.196  0.8856 -0.8158  0.7437
 9647TIP3    H228881   5.781   5.224   0.051 -1.6194 -0.3632  0.0775
 9648TIP3   OH228882   6.275   7.297   0.247  0.2379  0.2372 -0.3457
 9648TIP3    H128883   6.205   7.234   0.229  1.2424 -0.7940 -0.7724
 9648TIP3    H228884   6.317   7.263   0.326 -0.1284  1.1844  0.2546
 9649TIP3   OH228885   3.816   0.111   6.482  0.2919  0.0157 -0.1852
 9649TIP3    H128886   3.879   0.084   6.415  2.7033  0.5394  1.8359
 9649TIP3    H228887   3.773   0.188   6.445  1.2130 -0.0118 -1.3416
 9650TIP3   OH228888   0.959   7.157   6.680 -0.5285 -0.3987 -0.3319
 9650TIP3    H128889   0.877   7.207   6.676  0.3897  1.1706  0.3495
 9650TIP3    H228890   0.954   7.110   6.763 -0.1765  0.7023  0.3260
 9651TIP3   OH228891   0.507   7.946   6.911  0.2246  0.4326  0.1976
 9651TIP3    H128892   0.458   8.026   6.894  0.2455  0.5200  0.5334
 9651TIP3    H228893   0.500   7.895   6.830 -1.4638 -0.1010  0.6578
 9652TIP3   OH228894   6.053   3.713   1.557  0.0860  0.3129 -0.5227
 9652TIP3    H128895   6.101   3.783   1.514  0.9488 -0.2634 -0.5258
 9652TIP3    H228896   6.038   3.648   1.488 -1.5066  0.8928 -0.7326
 9653TIP3   OH228897   6.050   5.090   0.151 -0.5409  0.1311  0.4918
 9653TIP3    H128898   6.084   5.158   0.093  0.1152  1.1146  1.9891
 9653TIP3    H228899   5.961   5.118   0.171 -0.7169 -0.1316  0.0799
 9654TIP3   OH228900   8.017   5.584   0.095  0.0992  0.1369  0.0164
 9654TIP3    H128901   7.931   5.568   0.057 -0.3412  1.5004  0.4484
 9654TIP3    H228902   8.018   5.677   0.117  1.7915  0.2088 -0.2723
 9655TIP3   OH228903   6.647   4.557   1.379  0.4982 -0.5083 -0.4208
 9655TIP3    H128904   6.624   4.594   1.464 -0.9714  0.3180 -1.1434
 9655TIP3    H228905   6.566   4.562   1.328  1.6895  0.3335 -2.3215
 9656TIP3   OH228906   3.899   0.400   6.154  0.0911  0.6183 -0.1420
 9656TIP3    H128907   3.929   0.491   6.148  0.2010  0.7540  1.9963
 9656TIP3    H228908   3.926   0.361   6.071  2.5114  1.8160  0.0077
 9657TIP3   OH228909   7.014   5.510   0.365  0.4581 -0.2178  0.1092
 9657TIP3    H128910   7.090   5.544   0.318  0.3170  0.5714  0.4495
 9657TIP3    H228911   6.979   5.585   0.412  1.5101 -1.3060  2.7331
 9658TIP3   OH228912   6.688   4.016   2.401 -0.0818  0.5327 -0.4743
 9658TIP3    H128913   6.706   4.004   2.308  0.3316 -0.5080 -0.2590
 9658TIP3    H228914   6.597   4.047   2.403  0.4541  2.1926 -1.3184
 9659TIP3   OH228915   0.475   3.866   2.134  0.1471  0.2480  0.0528
 9659TIP3    H128916   0.552   3.917   2.161  0.2606  1.1326 -1.8620
 9659TIP3    H228917   0.436   3.838   2.217  2.3887 -0.0258  1.0773
 9660TIP3   OH228918   6.791   6.187   1.760 -0.3798  0.1971 -0.5269
 9660TIP3    H128919   6.727   6.124   1.726  1.5254 -0.1171 -3.7486
 9660TIP3    H228920   6.739   6.264   1.783 -2.3497 -1.3904  0.4778
 9661TIP3   OH228921   1.378   7.838   2.901 -0.0629 -0.7069  0.0495
 9661TIP3    H128922   1.438   7.912   2.888 -0.4994 -0.6131 -1.4041
 9661TIP3    H228923   1.328   7.832   2.820 -0.2545 -2.4103  0.2763
 9662TIP3   OH228924   7.312   6.027   2.386 -0.2170  0.5507  0.8877
 9662TIP3    H128925   7.349   5.967   2.322 -1.4270 -1.0985  1.7128
 9662TIP3    H228926   7.361   6.108   2.374  0.8359 -0.3274 -0.8322
 9663TIP3   OH228927   3.140   0.299   4.995 -0.3570  0.1953  0.2820
 9663TIP3    H128928   3.115   0.376   5.046  0.3049  0.1650  0.6610
 9663TIP3    H228929   3.231   0.283   5.019 -0.4620 -0.6530  0.1444
 9664TIP3   OH228930   4.322   3.893   0.844  0.0529  0.1450  0.2176
 9664TIP3    H128931   4.323   3.988   0.843 -0.6846  0.1954  2.5159
 9664TIP3    H228932   4.234   3.869   0.817  0.4509  0.0709 -1.0716
 9665TIP3   OH228933   8.201   6.611   2.142  0.1722  0.3540  0.5391
 9665TIP3    H128934   8.228   6.536   2.195  0.9980  1.0563  1.1411
 9665TIP3    H228935   8.109   6.594   2.122 -0.2394  0.1798  2.4170
 9666TIP3   OH228936   6.690   4.312   1.043 -0.2024 -0.9351  0.9615
 9666TIP3    H128937   6.772   4.338   1.085  0.1048  0.7006 -0.5609
 9666TIP3    H228938   6.714   4.298   0.951 -1.7158  0.1542  0.3774
 9667TIP3   OH228939   5.022   5.626   0.006  0.6416  0.2770 -0.0279
 9667TIP3    H128940   4.945   5.586   0.045 -0.1229  1.8115  0.0417
 9667TIP3    H228941   5.084   5.634   0.079  1.1741 -1.6173 -0.2304
 9668TIP3   OH228942   3.199   0.220   6.086  0.2329 -0.1994 -0.2484
 9668TIP3    H128943   3.243   0.136   6.095 -0.8854 -0.7558  0.0123
 9668TIP3    H228944   3.134   0.222   6.156  0.5409  1.0655  0.0267
 9669TIP3   OH228945   1.222   4.566   0.766 -0.0113  0.4553 -0.1277
 9669TIP3    H128946   1.250   4.613   0.688 -2.2853  0.9819 -0.6518
 9669TIP3    H228947   1.244   4.624   0.839  0.8813  0.5509 -0.4731
 9670TIP3   OH228948   2.788   1.828   6.294  0.3153 -0.5906  0.3792
 9670TIP3    H128949   2.770   1.740   6.260 -0.5963  0.2537 -1.3662
 9670TIP3    H228950   2.876   1.848   6.264 -0.1516 -0.2090 -0.7811
 9671TIP3   OH228951   2.839   0.233   5.213  0.4160 -0.1141 -0.2968
 9671TIP3    H128952   2.797   0.218   5.298 -0.1428  0.2849 -0.4980
 9671TIP3    H228953   2.813   0.322   5.190 -0.0405 -0.4871 -1.2301
 9672TIP3   OH228954   3.703   2.774   5.907 -0.3495 -0.8583 -0.1477
 9672TIP3    H128955   3.649   2.847   5.878  2.0480  0.7221 -0.7805
 9672TIP3    H228956   3.763   2.758   5.834  0.2985 -2.3055  0.6724
 9673TIP3   OH228957   7.913   5.146   1.334 -0.5421  0.2353 -0.2814
 9673TIP3    H128958   7.937   5.200   1.258 -0.9361 -1.6583 -1.7934
 9673TIP3    H228959   7.834   5.099   1.306 -0.9735 -0.1253  1.4891
 9674TIP3   OH228960   3.357   0.758   6.009 -0.7634 -0.0412 -0.1034
 9674TIP3    H128961   3.373   0.838   5.959 -0.2312  0.4035  0.7650
 9674TIP3    H228962   3.278   0.777   6.059  0.0314  0.4005  1.0133
 9675TIP3   OH228963   3.893   1.134   6.344  0.0981  0.3223  0.2308
 9675TIP3    H128964   3.874   1.227   6.329 -0.1440  0.5866  2.0502
 9675TIP3    H228965   3.948   1.134   6.423  1.8362 -0.9356 -0.9559
 9676TIP3   OH228966   4.464   1.611   6.892 -0.5782 -0.4798 -0.1682
 9676TIP3    H128967   4.385   1.665   6.893 -0.1889  0.1389 -1.4547
 9676TIP3    H228968   4.535   1.673   6.876 -0.2316 -1.4739 -2.6628
 9677TIP3   OH228969   2.811   2.352   5.772 -0.6454  0.3449  0.1949
 9677TIP3    H128970   2.797   2.269   5.817  0.2248  0.7025  1.1346
 9677TIP3    H228971   2.769   2.340   5.686 -0.7220 -0.9770  0.4066
 9678TIP3   OH228972   0.838   1.696   6.475  0.5272 -0.1443 -0.5382
 9678TIP3    H128973   0.807   1.786   6.472  2.3766  0.5114 -0.6262
 9678TIP3    H228974   0.760   1.643   6.459 -0.4031  1.4630 -1.4452
 9679TIP3   OH228975   4.931   1.931   4.488  0.0347 -0.3203 -0.4326
 9679TIP3    H128976   4.961   1.869   4.554  0.6263  0.0218 -0.3646
 9679TIP3    H228977   4.880   1.880   4.427  0.9005 -0.9614 -0.6271
 9680TIP3   OH228978   5.870   6.545   0.204  0.1434 -0.2971 -0.8043
 9680TIP3    H128979   5.843   6.621   0.154 -0.5321 -1.0735 -1.6502
 9680TIP3    H228980   5.795   6.524   0.260  0.6337  0.1476  0.0356
 9681TIP3   OH228981   1.193   3.699   2.728  0.0213  0.2637 -0.2332
 9681TIP3    H128982   1.174   3.760   2.657  0.9099  0.4142 -0.3574
 9681TIP3    H228983   1.282   3.668   2.710 -0.1069 -0.4315  0.2858
 9682TIP3   OH228984   5.626   4.375   2.533  0.5645 -0.0498 -0.3233
 9682TIP3    H128985   5.624   4.390   2.627  0.2645 -0.1826 -0.3071
 9682TIP3    H228986   5.698   4.430   2.501  0.9344 -0.3221  0.0385
 9683TIP3   OH228987   6.497   6.010   1.882 -0.4691  0.1792  0.2336
 9683TIP3    H128988   6.571   5.998   1.941  0.5323  3.1809 -0.3249
 9683TIP3    H228989   6.533   6.057   1.807 -1.7512 -3.3765 -2.7666
 9684TIP3   OH228990   3.040   1.585   5.963  0.7119 -0.0075 -0.0664
 9684TIP3    H128991   3.115   1.535   5.993  0.6727  0.2050  0.3838
 9684TIP3    H228992   3.006   1.629   6.041 -0.3148 -0.6729 -0.1261
 9685TIP3   OH228993   5.274   2.361   5.881 -0.8802  0.1802 -0.1178
 9685TIP3    H128994   5.325   2.422   5.827  1.1129 -2.0156 -0.8007
 9685TIP3    H228995   5.249   2.291   5.821 -1.2503 -0.7682  1.1216
 9686TIP3   OH228996   1.187   7.559   6.844  0.5023 -0.1744  0.0993
 9686TIP3    H128997   1.184   7.544   6.749 -0.8698 -1.3699  0.3205
 9686TIP3    H228998   1.108   7.609   6.863  0.7899  0.0815  0.6092
 9687TIP3   OH228999   2.307   6.958   5.074  0.3856 -0.2240 -0.2413
 9687TIP3    H129000   2.378   6.931   5.016  0.3709 -1.7804  0.4445
 9687TIP3    H229001   2.251   7.012   5.019  2.4167  1.5613 -0.6233
 9688TIP3   OH229002   0.499   4.001   0.154  0.5074 -0.5600 -0.1956
 9688TIP3    H129003   0.459   4.010   0.240  0.7324  0.2408 -0.1699
 9688TIP3    H229004   0.472   4.079   0.106  0.3928 -0.9938 -0.8475
 9689TIP3   OH229005   3.767   3.904   0.683 -0.6428 -0.5424  0.3616
 9689TIP3    H129006   3.733   3.942   0.603 -0.6331 -0.4985  0.3780
 9689TIP3    H229007   3.692   3.901   0.742 -0.5503 -0.1567  0.5040
 9690TIP3   OH229008   7.256   2.546   0.218  0.3687  0.1878 -0.4397
 9690TIP3    H129009   7.334   2.585   0.178 -0.5315  2.0186 -0.4884
 9690TIP3    H229010   7.193   2.540   0.146  0.7613 -2.2070 -0.6270
 9691TIP3   OH229011   8.452   5.486   2.915 -0.2364 -0.1364  0.3148
 9691TIP3    H129012   8.507   5.517   2.987  0.0286  0.5560 -0.1844
 9691TIP3    H229013   8.439   5.563   2.860  1.4706 -1.2018 -1.6213
 9692TIP3   OH229014   5.606   2.078   6.565  0.3164  0.2149 -0.0508
 9692TIP3    H129015   5.669   2.043   6.502  0.3472 -0.9713  0.6368
 9692TIP3    H229016   5.520   2.050   6.531  0.4102 -1.4925  1.0918
 9693TIP3   OH229017   0.422   5.172   2.080 -0.6976 -0.1320  0.3259
 9693TIP3    H129018   0.366   5.119   2.137  0.8549 -2.3927 -0.1799
 9693TIP3    H229019   0.477   5.108   2.034 -0.2813  1.8077 -1.9501
 9694TIP3   OH229020   6.592   0.047   6.811  0.5892  0.0241  0.2568
 9694TIP3    H129021   6.555   0.017   6.894  0.3030 -0.0572  0.1002
 9694TIP3    H229022   6.544   0.126   6.790 -0.5211 -0.8818 -0.6835
 9695TIP3   OH229023   7.027   7.306   1.180 -0.3144 -0.0354 -0.1118
 9695TIP3    H129024   6.948   7.334   1.226 -0.4603  0.9266 -0.9257
 9695TIP3    H229025   7.097   7.358   1.219 -0.1750 -0.4720  0.2160
 9696TIP3   OH229026   6.500   5.945   0.909 -0.1433 -0.1808 -0.0889
 9696TIP3    H129027   6.572   5.967   0.849 -0.3744 -0.4389 -0.4628
 9696TIP3    H229028   6.531   5.866   0.953 -0.2734 -0.3983 -0.3838
 9697TIP3   OH229029   5.677   5.208   1.867 -0.0840  0.2540 -0.0783
 9697TIP3    H129030   5.753   5.155   1.842 -0.1346  0.4310 -0.5940
 9697TIP3    H229031   5.602   5.162   1.829 -0.5082 -1.3298  2.5513
 9698TIP3   OH229032   2.864   0.663   5.910  0.7129  0.0099 -0.5372
 9698TIP3    H129033   2.908   0.726   5.967 -0.2440  0.2593 -0.0533
 9698TIP3    H229034   2.777   0.700   5.897 -0.1665 -1.6248  0.4869
 9699TIP3   OH229035   7.135   5.676   2.813  0.3655 -0.1523 -0.2101
 9699TIP3    H129036   7.044   5.704   2.826 -0.1133 -2.0701  0.9392
 9699TIP3    H229037   7.175   5.745   2.761 -1.5976  1.0173 -0.2189
 9700TIP3   OH229038   5.154   7.045   1.111 -0.3494 -0.2630  0.0153
 9700TIP3    H129039   5.154   7.102   1.035  2.8189  0.0224  0.1810
 9700TIP3    H229040   5.069   7.062   1.153 -1.2141  1.1754 -2.2153
 9701TIP3   OH229041   4.810   0.656   6.023 -0.4779 -0.3056 -0.1614
 9701TIP3    H129042   4.903   0.661   5.999 -0.6190 -3.1499 -1.5383
 9701TIP3    H229043   4.769   0.729   5.975  0.9616  0.7781  0.2070
 9702TIP3   OH229044   1.819   1.026   5.278 -0.0036  0.0052  0.0172
 9702TIP3    H129045   1.807   0.931   5.281  1.1394 -0.1287  0.7193
 9702TIP3    H229046   1.730   1.061   5.278 -0.4477 -1.0904 -1.6494
 9703TIP3   OH229047   6.476   6.652   1.005 -0.0476 -0.4177  0.5620
 9703TIP3    H129048   6.421   6.692   1.073  0.6943 -0.0200  0.9361
 9703TIP3    H229049   6.538   6.721   0.980 -0.8583 -0.2802 -1.1448
 9704TIP3   OH229050   5.604   1.974   6.283  0.0079 -0.5266  0.1375
 9704TIP3    H129051   5.545   2.004   6.214 -1.0915  0.3978  1.4568
 9704TIP3    H229052   5.690   2.006   6.257 -0.3166 -0.6105 -1.0568
 9705TIP3   OH229053   3.054   1.930   6.364  0.4067 -0.0716  0.4559
 9705TIP3    H129054   3.100   2.003   6.323  1.8006 -1.7829 -1.1148
 9705TIP3    H229055   2.982   1.971   6.412  1.1801  2.3197 -0.3577
 9706TIP3   OH229056   2.400   1.975   5.095  0.6532  0.2856  0.2654
 9706TIP3    H129057   2.493   1.994   5.079  0.3930 -0.4043 -2.2683
 9706TIP3    H229058   2.380   1.902   5.037 -1.7040  1.0545  0.0535
 9707TIP3   OH229059   6.866   5.990   0.089  0.2687 -0.1051  0.2249
 9707TIP3    H129060   6.797   6.051   0.063  0.2559 -0.2184 -0.0088
 9707TIP3    H229061   6.913   6.036   0.158  0.4497  0.3035 -0.1619
 9708TIP3   OH229062   0.936   7.604   6.934  0.0130 -0.9912 -0.1419
 9708TIP3    H129063   0.896   7.657   7.002  0.7032 -1.5492  0.7009
 9708TIP3    H229064   0.875   7.611   6.860  0.4348  1.5214 -0.3010
 9709TIP3   OH229065   4.104   1.485   6.757  0.2757  0.2838 -0.6002
 9709TIP3    H129066   4.027   1.523   6.799  0.4094 -1.2180  1.0407
 9709TIP3    H229067   4.068   1.441   6.679 -0.3568  0.6080 -0.4990
 9710TIP3   OH229068   5.426   2.521   4.863 -0.6442 -0.4074 -0.0970
 9710TIP3    H129069   5.485   2.462   4.818 -1.4913 -1.1302 -0.2688
 9710TIP3    H229070   5.363   2.548   4.796 -2.4813 -2.2252  0.8386
 9711TIP3   OH229071   5.773   1.514   6.534  0.0200 -0.2447 -0.2863
 9711TIP3    H129072   5.695   1.545   6.580  0.3496 -0.6417  0.5441
 9711TIP3    H229073   5.742   1.493   6.446 -0.4207  1.4654 -0.5706
 9712TIP3   OH229074   6.829   3.970   0.246 -0.2561  0.4258 -0.5985
 9712TIP3    H129075   6.904   4.027   0.226 -0.1618  0.0419 -1.3593
 9712TIP3    H229076   6.838   3.897   0.185 -0.8489  0.0133 -0.1933
 9713TIP3   OH229077   5.535   1.666   6.166 -0.1225  0.3496 -0.2386
 9713TIP3    H129078   5.482   1.624   6.099 -0.9495  1.1211 -0.0705
 9713TIP3    H229079   5.485   1.743   6.192 -0.9277 -1.1668  2.9020
 9714TIP3   OH229080   4.767   0.108   6.176  0.0793 -0.2865  0.6628
 9714TIP3    H129081   4.672   0.097   6.164 -0.3256  0.6826  2.8262
 9714TIP3    H229082   4.776   0.193   6.217  1.7947 -1.0395  1.8706
 9715TIP3   OH229083   3.265   1.236   4.948  0.7137  0.2848 -0.2656
 9715TIP3    H129084   3.278   1.142   4.932  2.0881  0.6606 -1.5974
 9715TIP3    H229085   3.294   1.249   5.038  1.4737 -0.4184 -0.3940
 9716TIP3   OH229086   5.753   1.076   6.556  0.0221  0.1250 -0.2314
 9716TIP3    H129087   5.751   1.083   6.461  0.7002 -0.5866 -0.3035
 9716TIP3    H229088   5.685   1.136   6.586 -0.7197 -0.2154 -1.1957
 9717TIP3   OH229089   0.534   4.227   1.010  0.1280  0.2437 -0.4202
 9717TIP3    H129090   0.576   4.310   0.988  0.6913  0.7322  2.3751
 9717TIP3    H229091   0.441   4.242   0.991  0.0520  1.9276  1.1676
 9718TIP3   OH229092   7.321   4.432   2.472  0.5242 -0.0572 -0.7446
 9718TIP3    H129093   7.244   4.489   2.463 -0.4456 -1.2658 -0.2187
 9718TIP3    H229094   7.371   4.472   2.542 -0.4799 -0.2006  0.0715
 9719TIP3   OH229095   0.314   3.865   1.462  0.1418 -0.4827  0.4820
 9719TIP3    H129096   0.401   3.905   1.458 -0.4393  0.7822  0.3293
 9719TIP3    H229097   0.325   3.790   1.520  0.7239  1.2592  2.6961
 9720TIP3   OH229098   3.790   0.105   6.161 -0.2721  0.1415  0.0208
 9720TIP3    H129099   3.837   0.068   6.086  0.9572  0.0562  0.8257
 9720TIP3    H229100   3.805   0.199   6.155  0.4330  0.0684  0.5585
 9721TIP3   OH229101   6.789   1.460   6.021  0.3323  0.4783 -0.3202
 9721TIP3    H129102   6.880   1.484   6.039  1.2412 -2.1943 -1.2130
 9721TIP3    H229103   6.790   1.427   5.931 -1.8206  1.7626 -0.8702
 9722TIP3   OH229104   6.445   2.520   0.327  0.3524  0.0969 -0.1529
 9722TIP3    H129105   6.518   2.460   0.341  0.2377  0.2395  1.1080
 9722TIP3    H229106   6.374   2.464   0.296  0.1349 -0.5038  1.3621
 9723TIP3   OH229107   4.840   0.610   6.613 -0.0534  0.1510 -0.3077
 9723TIP3    H129108   4.847   0.545   6.543  0.1645 -1.1458  0.8906
 9723TIP3    H229109   4.752   0.647   6.602  0.4216  0.8564 -1.9993
 9724TIP3   OH229110   0.888   4.867   0.456  0.2113  0.0745  0.2988
 9724TIP3    H129111   0.916   4.893   0.368  0.0283 -0.2423  0.1475
 9724TIP3    H229112   0.829   4.794   0.442 -2.2376  1.9448  0.4933
 9725TIP3   OH229113   4.739   1.259   6.763  0.3671  0.5387 -0.0739
 9725TIP3    H129114   4.741   1.354   6.759  0.0846  0.5106 -1.1029
 9725TIP3    H229115   4.780   1.231   6.681  0.5874 -0.2257  0.2935
 9726TIP3   OH229116   5.719   5.529   1.605 -0.1809  0.0939 -0.0966
 9726TIP3    H129117   5.709   5.621   1.628 -2.4900 -0.2285  0.3381
 9726TIP3    H229118   5.664   5.482   1.668  1.4253 -1.6401  0.0571
 9727TIP3   OH229119   6.037   3.786   1.830  0.3517  0.0377 -0.0016
 9727TIP3    H129120   6.050   3.762   1.739 -0.9794 -1.0177  0.0815
 9727TIP3    H229121   6.069   3.710   1.880  1.0626  0.6016  0.4149
 9728TIP3   OH229122   8.260   5.723   1.450  0.0771 -0.4850 -0.3827
 9728TIP3    H129123   8.340   5.679   1.420  0.8550  1.1689 -0.8687
 9728TIP3    H229124   8.240   5.785   1.380  0.3666  1.5510  1.2617
 9729TIP3   OH229125   1.218   7.324   6.191  0.5027  0.1975 -0.1988
 9729TIP3    H129126   1.177   7.343   6.107 -0.0708 -3.3252 -0.7956
 9729TIP3    H229127   1.144   7.306   6.250  0.9881 -2.7314 -0.3941
 9730TIP3   OH229128   7.484   0.611   6.666 -0.3899 -1.0326  0.3756
 9730TIP3    H129129   7.562   0.647   6.623 -0.0660 -1.0485  0.9433
 9730TIP3    H229130   7.504   0.615   6.760 -0.8360 -1.5748  0.4991
 9731TIP3   OH229131   3.547   1.171   5.277 -0.6431  0.3943  0.1664
 9731TIP3    H129132   3.611   1.232   5.315 -0.7710 -0.6800  2.1315
 9731TIP3    H229133   3.600   1.113   5.221  0.1166 -0.4557  1.7390
 9732TIP3   OH229134   6.089   3.938   5.500  0.5187 -0.0294 -0.1372
 9732TIP3    H129135   6.114   3.952   5.409  1.7316  1.2554  0.3765
 9732TIP3    H229136   6.171   3.927   5.546 -0.1521 -2.1041  0.5938
 9733TIP3   OH229137   0.963   7.038   0.176  0.2977 -0.0095  0.0484
 9733TIP3    H129138   1.059   7.040   0.168  0.3089 -0.1231  0.1676
 9733TIP3    H229139   0.942   7.114   0.230  0.3782 -0.4329  0.6709
 9734TIP3   OH229140   6.059   1.643   6.634 -0.2148 -0.2617  0.2478
 9734TIP3    H129141   5.989   1.608   6.579 -0.4421 -1.1572  1.0950
 9734TIP3    H229142   6.133   1.655   6.574 -1.1133  0.8271 -0.6837
 9735TIP3   OH229143   7.389   2.843   1.561 -0.4996 -0.3673  0.1586
 9735TIP3    H129144   7.384   2.875   1.651 -2.5031 -1.5455  0.4795
 9735TIP3    H229145   7.450   2.769   1.566  0.2399  0.2347  0.3153
 9736TIP3   OH229146   8.324   2.572   0.994 -0.4073 -0.1679 -0.2863
 9736TIP3    H129147   8.270   2.494   1.008  0.1754 -0.6713 -0.7893
 9736TIP3    H229148   8.405   2.555   1.043  0.1848 -0.3861 -1.3230
 9737TIP3   OH229149   1.091   5.826   0.154 -0.0853  0.1368 -0.1582
 9737TIP3    H129150   1.079   5.754   0.216  3.9552 -0.9836 -0.5264
 9737TIP3    H229151   1.058   5.791   0.071  0.3308 -0.6952  0.0158
 9738TIP3   OH229152   2.807   7.520   6.631 -0.2107  0.0741 -0.2947
 9738TIP3    H129153   2.834   7.601   6.674 -1.6229  0.4240 -0.0514
 9738TIP3    H229154   2.869   7.509   6.559  0.7475  0.7111  0.4214
 9739TIP3   OH229155   3.908   0.898   5.683  0.1025 -0.1386  0.1129
 9739TIP3    H129156   3.844   0.838   5.644  0.0261  0.1885 -0.2676
 9739TIP3    H229157   3.886   0.898   5.776 -1.2371  0.9184 -0.1983
 9740TIP3   OH229158   8.143   4.169   0.059 -0.8836  0.1657 -0.0227
 9740TIP3    H129159   8.173   4.257   0.040  2.1638 -0.6641  0.6892
 9740TIP3    H229160   8.052   4.168   0.030 -0.6775  3.2241 -0.9477
 9741TIP3   OH229161   6.095   1.422   6.788  0.5121  0.4630  0.1127
 9741TIP3    H129162   6.187   1.395   6.791  0.9289  1.9137  3.7182
 9741TIP3    H229163   6.096   1.508   6.746  0.8177  0.4024 -0.0022
 9742TIP3   OH229164   8.475   4.714   0.815  0.4129  0.3416 -0.5456
 9742TIP3    H129165   8.506   4.770   0.886  0.6468 -0.8245  0.2941
 9742TIP3    H229166   8.518   4.748   0.737  0.7419  1.1714 -0.0114
 9743TIP3   OH229167   5.834   2.824   6.508  0.4416  0.3710 -0.2047
 9743TIP3    H129168   5.843   2.736   6.544  1.1098  0.9082  0.9877
 9743TIP3    H229169   5.924   2.850   6.485  0.1866  0.5557 -1.0151
 9744TIP3   OH229170   1.098   4.670   0.514  0.3335 -0.1054  0.3357
 9744TIP3    H129171   1.055   4.751   0.485  1.3047  0.5386  0.6865
 9744TIP3    H229172   1.165   4.653   0.448  1.7544  0.7123  1.5427
 9745TIP3   OH229173   5.893   1.944   6.644  0.4551 -0.1144  0.1337
 9745TIP3    H129174   5.927   1.940   6.555 -0.2008  3.2236 -0.3547
 9745TIP3    H229175   5.808   1.900   6.639  0.1840  0.5280 -1.0272
 9746TIP3   OH229176   5.798   1.171   5.684  0.1847 -0.3891 -0.5168
 9746TIP3    H129177   5.714   1.134   5.709 -0.5594  1.2444 -0.5251
 9746TIP3    H229178   5.777   1.260   5.655  1.5707 -0.8160 -2.9348
 9747TIP3   OH229179   5.531   2.867   5.488 -0.6231 -0.1535  0.2040
 9747TIP3    H129180   5.461   2.866   5.553  0.0674 -0.2646  0.9496
 9747TIP3    H229181   5.572   2.953   5.498  0.2156 -0.6049  0.7101
 9748TIP3   OH229182   3.252   0.765   5.411  0.0600 -0.3743 -0.3497
 9748TIP3    H129183   3.308   0.718   5.473 -0.5530 -0.0531  0.4665
 9748TIP3    H229184   3.311   0.794   5.342  1.0733  0.7295  0.9578
 9749TIP3   OH229185   4.861   1.185   4.426 -0.4966 -0.2231  0.0820
 9749TIP3    H129186   4.956   1.195   4.429 -0.4434 -0.0740 -1.7506
 9749TIP3    H229187   4.847   1.099   4.385 -1.1579  1.1063 -2.5916
 9750TIP3   OH229188   7.211   5.181   2.992  0.3599 -0.1386 -0.0811
 9750TIP3    H129189   7.287   5.123   2.984  0.0550 -0.5498  0.0053
 9750TIP3    H229190   7.231   5.254   2.933  1.4156  0.4029  0.9151
 9751TIP3   OH229191   3.469   2.242   5.157 -0.4584 -0.7047 -0.0123
 9751TIP3    H129192   3.500   2.305   5.092 -0.9963 -0.5807 -0.1497
 9751TIP3    H229193   3.538   2.175   5.159 -0.1925 -0.4479 -0.3361
 9752TIP3   OH229194   2.932   6.068   1.950  0.5885  0.0939  0.8252
 9752TIP3    H129195   3.014   6.039   1.990  0.9283  1.0318  0.8166
 9752TIP3    H229196   2.960   6.125   1.878 -0.0680  0.2620  0.7078
 9753TIP3   OH229197   0.740   6.507   1.776  0.1416 -0.3377  0.5192
 9753TIP3    H129198   0.780   6.510   1.864  0.0677  0.2263  0.5334
 9753TIP3    H229199   0.698   6.592   1.766 -0.2584 -0.5821  0.1219
 9754TIP3   OH229200   6.067   1.770   5.251  0.2281 -0.0461 -0.1917
 9754TIP3    H129201   6.025   1.764   5.165  1.6164 -0.5010 -0.8479
 9754TIP3    H229202   6.102   1.859   5.255 -0.6674  0.2984  0.3161
 9755TIP3   OH229203   7.230   3.562   1.448 -0.1240  0.3081 -0.4522
 9755TIP3    H129204   7.306   3.595   1.399 -0.3787  0.2318 -0.9091
 9755TIP3    H229205   7.156   3.613   1.414 -0.7641 -1.7035 -2.2466
 9756TIP3   OH229206   6.988   0.915   6.418  0.0318 -0.5297  0.3337
 9756TIP3    H129207   7.004   0.849   6.351  2.8134 -0.9575  1.3526
 9756TIP3    H229208   6.988   0.866   6.500  0.7484  0.5196  0.9766
 9757TIP3   OH229209   7.298   1.446   4.925 -0.0803  0.5581  0.5061
 9757TIP3    H129210   7.291   1.440   4.830 -1.3034 -0.4473  0.6432
 9757TIP3    H229211   7.344   1.528   4.940  0.3829  0.5875 -0.9641
 9758TIP3   OH229212   7.950   5.585   1.387  0.3329 -0.4672  0.1426
 9758TIP3    H129213   8.031   5.538   1.408  0.8865  0.9730  1.2999
 9758TIP3    H229214   7.881   5.531   1.427  0.7110 -1.6586 -0.7710
 9759TIP3   OH229215   7.731   5.652   1.040  0.2897 -0.3480  0.7817
 9759TIP3    H129216   7.667   5.710   0.999  0.3723  0.8297  2.2613
 9759TIP3    H229217   7.813   5.702   1.037  0.6017 -0.8452  1.0647
 9760TIP3   OH229218   5.852   1.159   5.123  0.3443 -0.0349 -0.2204
 9760TIP3    H129219   5.948   1.154   5.119  0.5667  2.1696  1.2605
 9760TIP3    H229220   5.826   1.072   5.154  1.8809 -0.6067 -0.4492
 9761TIP3   OH229221   6.854   0.789   4.574 -0.6733 -0.1169 -0.6824
 9761TIP3    H129222   6.896   0.875   4.574 -1.5861  0.3468  0.4450
 9761TIP3    H229223   6.863   0.757   4.484  0.6675  0.6630 -0.8299
 9762TIP3   OH229224   8.148   5.205   2.132 -0.6943 -0.4720 -0.7507
 9762TIP3    H129225   8.125   5.175   2.220  0.5126  0.9044  0.0518
 9762TIP3    H229226   8.101   5.287   2.121 -0.9472 -0.7007 -1.4515
 9763TIP3   OH229227   7.746   5.498   0.024  0.2316  0.6441  0.2579
 9763TIP3    H129228   7.707   5.502  -0.063  0.5833  1.4695  0.1361
 9763TIP3    H229229   7.700   5.425   0.067  0.5742 -0.2527 -0.8593
 9764TIP3   OH229230   8.209   4.038   1.110  0.0408  0.6771 -0.2622
 9764TIP3    H129231   8.280   4.022   1.046 -0.8253 -1.3129 -0.7792
 9764TIP3    H229232   8.130   4.010   1.064 -1.1289  3.1569  0.2168
 9765TIP3   OH229233   6.625   4.450   2.705  0.1777 -0.6286 -0.0747
 9765TIP3    H129234   6.586   4.375   2.659 -0.2507  0.0234 -0.7953
 9765TIP3    H229235   6.576   4.458   2.786  0.5969 -1.4750  0.2688
 9766TIP3   OH229236   6.912   3.413   0.521 -0.2991 -0.4312 -0.2689
 9766TIP3    H129237   6.968   3.476   0.475  0.5987 -1.3083 -0.3848
 9766TIP3    H229238   6.851   3.468   0.570  1.5238  0.5688  0.9459
 9767TIP3   OH229239   0.138   3.248   0.591 -0.1569 -0.3365  0.2266
 9767TIP3    H129240   0.119   3.312   0.660 -0.1664 -2.3769  2.1601
 9767TIP3    H229241   0.052   3.221   0.560 -0.1759 -0.1865  0.1491
 9768TIP3   OH229242   0.359   1.870   1.694  0.1740 -0.3566  0.8410
 9768TIP3    H129243   0.446   1.836   1.674 -0.0454 -1.0503  1.0660
 9768TIP3    H229244   0.305   1.842   1.620  0.0523 -0.2737  0.8994
 9769TIP3   OH229245   7.514   4.176   0.197  0.2149  0.5102  0.1356
 9769TIP3    H129246   7.519   4.086   0.163 -1.1777  1.1357 -1.7790
 9769TIP3    H229247   7.571   4.227   0.140  1.0138  0.8674  1.2291
 9770TIP3   OH229248   6.419   0.652   6.605  0.1995 -0.0423 -0.1892
 9770TIP3    H129249   6.477   0.618   6.674  0.2982  1.3831  0.4378
 9770TIP3    H229250   6.360   0.712   6.651  0.7276  1.4665 -1.4535
 9771TIP3   OH229251   0.664   4.466   0.869 -0.0318  0.0817 -0.2471
 9771TIP3    H129252   0.740   4.507   0.911  0.2638 -0.4198 -0.2799
 9771TIP3    H229253   0.703   4.408   0.803 -0.4450 -0.2906 -0.1572
 9772TIP3   OH229254   4.790   1.295   4.908 -0.0215 -0.8080  0.5111
 9772TIP3    H129255   4.800   1.207   4.943 -2.6439 -0.7275  1.6337
 9772TIP3    H229256   4.727   1.286   4.837  1.7433 -0.2285 -1.1656
 9773TIP3   OH229257   4.463   4.066   5.924  0.7172  0.2807  0.0080
 9773TIP3    H129258   4.484   4.037   5.835  1.6501  0.2217  0.2345
 9773TIP3    H229259   4.398   4.135   5.913 -0.6011 -1.0442 -0.6174
 9774TIP3   OH229260   5.040   2.848   6.337  0.1570  0.0065 -0.6062
 9774TIP3    H129261   5.080   2.761   6.332 -0.6387 -0.4109  0.1258
 9774TIP3    H229262   4.948   2.834   6.315  0.2663  0.8581 -1.6468
 9775TIP3   OH229263   6.813   1.581   5.118  0.5307  0.0237  0.1318
 9775TIP3    H129264   6.723   1.608   5.140 -0.4553 -2.4455 -0.7047
 9775TIP3    H229265   6.841   1.645   5.052 -0.6675  0.7561  0.3030
 9776TIP3   OH229266   6.320   7.979   2.601  0.5210 -0.6212 -0.1172
 9776TIP3    H129267   6.289   7.976   2.510 -0.7906 -0.3535  0.2982
 9776TIP3    H229268   6.247   7.943   2.652  0.1856  1.6488  1.0704
 9777TIP3   OH229269   7.193   5.912   0.170 -0.1940 -0.6026  0.6150
 9777TIP3    H129270   7.142   5.881   0.095  0.2492  0.2980 -0.0744
 9777TIP3    H229271   7.244   5.985   0.135 -0.6603  0.4096  2.0188
 9778TIP3   OH229272   5.897   4.377   5.539 -0.3239  0.0190 -0.4024
 9778TIP3    H129273   5.907   4.284   5.562 -1.1571  0.3208  1.2916
 9778TIP3    H229274   5.987   4.409   5.532  0.0087 -0.1011  2.5794
 9779TIP3   OH229275   4.697   1.536   6.470  0.4136  0.5182 -0.6391
 9779TIP3    H129276   4.741   1.619   6.453 -0.7695  0.8398 -2.2011
 9779TIP3    H229277   4.699   1.489   6.387 -0.0720 -0.4598 -0.1093
 9780TIP3   OH229278   8.264   5.253   0.452 -0.2703 -0.1438  0.1240
 9780TIP3    H129279   8.210   5.173   0.454  1.1737 -1.1242  0.9898
 9780TIP3    H229280   8.208   5.319   0.411 -0.8828 -2.0596 -2.2779
 9781TIP3   OH229281   1.281   4.908   1.237 -0.3431 -0.2050 -0.5564
 9781TIP3    H129282   1.247   4.838   1.292  0.5475 -1.3761 -1.4842
 9781TIP3    H229283   1.216   4.918   1.168 -0.8879  0.4756  0.0447
 9782TIP3   OH229284   2.939   1.302   4.918  0.0168 -0.3457 -0.2784
 9782TIP3    H129285   2.979   1.346   4.993  0.4096 -0.4998 -0.3941
 9782TIP3    H229286   2.869   1.361   4.889 -0.9963 -0.9019  1.0185
 9783TIP3   OH229287   3.191   0.266   0.384  0.0411 -0.6000 -0.0186
 9783TIP3    H129288   3.260   0.299   0.327  0.2359 -0.4873  0.2875
 9783TIP3    H229289   3.114   0.318   0.360  0.3780  0.1668  0.5514
 9784TIP3   OH229290   5.340   1.897   6.549 -0.5042 -0.2744 -0.4959
 9784TIP3    H129291   5.331   1.955   6.624 -2.6765 -1.4710  0.2411
 9784TIP3    H229292   5.315   1.950   6.473  0.6563  0.6405 -0.2337
 9785TIP3   OH229293   0.287   7.147   0.862  0.1445 -0.2511 -0.8485
 9785TIP3    H129294   0.349   7.087   0.819  1.6361  0.1488  0.6993
 9785TIP3    H229295   0.205   7.097   0.865  0.7456 -1.3338 -1.6581
 9786TIP3   OH229296   4.399   0.882   5.182  0.4127  0.1825 -0.1531
 9786TIP3    H129297   4.321   0.937   5.177  0.2048 -0.0753  0.2730
 9786TIP3    H229298   4.447   0.902   5.102  0.1225  0.6633 -0.2089
 9787TIP3   OH229299   7.416   0.706   6.193 -0.2668 -0.1538 -0.6723
 9787TIP3    H129300   7.338   0.654   6.173  0.1508 -0.5080 -1.3754
 9787TIP3    H229301   7.390   0.760   6.268 -1.2161 -0.2072 -0.9593
 9788TIP3   OH229302   5.535   0.756   0.345 -0.1653 -0.1123 -0.2993
 9788TIP3    H129303   5.582   0.736   0.426 -0.4826 -2.4276 -0.6593
 9788TIP3    H229304   5.602   0.757   0.278 -0.3610 -1.6860 -0.5381
 9789TIP3   OH229305   5.983   2.517   6.234  0.8460  0.2941 -0.4597
 9789TIP3    H129306   6.021   2.476   6.311  1.4727  2.4186  0.3940
 9789TIP3    H229307   6.003   2.610   6.244 -2.2043  1.0944 -1.3548
 9790TIP3   OH229308   7.202   0.097   5.672 -0.4309 -0.3023 -0.4989
 9790TIP3    H129309   7.290   0.076   5.642 -0.9651  0.5142 -2.7556
 9790TIP3    H229310   7.195   0.192   5.662 -1.1522 -0.2001  0.8450
 9791TIP3   OH229311   7.166   2.103   6.143  0.3761 -0.2487  0.2688
 9791TIP3    H129312   7.146   2.193   6.117 -0.6728 -0.1785  1.2921
 9791TIP3    H229313   7.161   2.053   6.062  0.5718  0.5396 -0.2411
 9792TIP3   OH229314   2.965   0.349   6.731  0.1656 -0.3093  0.4991
 9792TIP3    H129315   2.887   0.346   6.786 -0.7232 -0.6077 -0.7795
 9792TIP3    H229316   2.941   0.403   6.656  1.3673  0.0633  0.3622
 9793TIP3   OH229317   4.328   0.728   6.699 -0.0826  0.1508 -0.2310
 9793TIP3    H129318   4.239   0.704   6.724 -0.2988  1.9635  0.8243
 9793TIP3    H229319   4.381   0.708   6.776  0.5178 -1.4417 -1.0531
 9794TIP3   OH229320   7.125   5.286   1.206  0.4509 -0.1458  0.0100
 9794TIP3    H129321   7.032   5.265   1.220  0.7130 -0.2933  1.6458
 9794TIP3    H229322   7.124   5.354   1.139 -0.6850 -1.9223 -1.8548
 9795TIP3   OH229323   1.246   7.926   6.744  0.4258  0.3048 -0.2438
 9795TIP3    H129324   1.298   7.846   6.759 -0.2118 -0.2922 -1.1717
 9795TIP3    H229325   1.229   7.925   6.650 -2.3452 -0.1571  0.2436
 9796TIP3   OH229326   6.699   0.637   6.496 -0.1548  0.1088  0.0759
 9796TIP3    H129327   6.694   0.543   6.480 -3.6545  0.2656 -0.2323
 9796TIP3    H229328   6.656   0.649   6.581 -1.2205  1.5440 -0.6344
 9797TIP3   OH229329   7.114   0.775   5.893 -0.8169 -0.5048  0.2153
 9797TIP3    H129330   7.178   0.750   5.827 -1.0941 -0.6510  0.0003
 9797TIP3    H229331   7.139   0.726   5.971 -0.3601 -0.1630  0.2843
 9798TIP3   OH229332   6.570   6.023   0.259  0.3792 -0.1540  0.9391
 9798TIP3    H129333   6.594   6.067   0.177 -0.3547 -1.4420  0.0186
 9798TIP3    H229334   6.601   6.082   0.327  1.6410  0.6080 -0.2584
 9799TIP3   OH229335   3.080   7.266   5.175  0.3488 -0.2664 -0.3071
 9799TIP3    H129336   3.098   7.252   5.268 -0.7148  0.6500  0.0466
 9799TIP3    H229337   3.011   7.332   5.174 -0.5336 -1.1802 -1.7137
 9800TIP3   OH229338   6.543   1.834   6.323 -0.4064  0.8479 -0.1998
 9800TIP3    H129339   6.477   1.785   6.373  1.3746 -1.8001 -0.3420
 9800TIP3    H229340   6.499   1.855   6.241 -1.0063 -1.1953 -0.4345
 9801TIP3   OH229341   7.910   4.272   1.310  0.0151  0.0686 -0.0331
 9801TIP3    H129342   7.823   4.277   1.350 -0.2227 -1.1508 -0.3504
 9801TIP3    H229343   7.908   4.337   1.240 -0.5128  0.3130  0.2080
 9802TIP3   OH229344   7.293   3.629   0.195  0.0869 -0.3370 -0.0118
 9802TIP3    H129345   7.249   3.552   0.158  0.5150 -0.8445  0.5232
 9802TIP3    H229346   7.353   3.593   0.260  1.0075  0.3791 -0.4554
 9803TIP3   OH229347   4.228   1.149   5.764 -0.1628  0.7510 -0.0987
 9803TIP3    H129348   4.169   1.137   5.838  0.7122  0.9552  0.6355
 9803TIP3    H229349   4.170   1.165   5.690 -1.0122  1.8553  0.7831
 9804TIP3   OH229350   4.927   0.422   5.720 -0.0534 -0.3800  0.2623
 9804TIP3    H129351   4.896   0.496   5.669  0.2209 -0.6988 -0.3744
 9804TIP3    H229352   4.847   0.382   5.756 -0.3335 -0.7775 -0.7862
 9805TIP3   OH229353   1.800   3.408   0.489 -0.5775  0.3196  0.0853
 9805TIP3    H129354   1.723   3.427   0.543 -0.6812  2.4095 -0.7570
 9805TIP3    H229355   1.868   3.465   0.526  0.1792 -0.4876 -0.0691
 9806TIP3   OH229356   6.247   0.864   6.673 -0.4352 -0.5434  0.1892
 9806TIP3    H129357   6.181   0.863   6.605 -0.0396 -1.7241 -0.2040
 9806TIP3    H229358   6.301   0.941   6.654 -1.5392  0.2919  0.3810
 9807TIP3   OH229359   6.954   3.816   1.107  0.0919  0.0200 -0.4456
 9807TIP3    H129360   6.867   3.779   1.091  0.1746 -0.3929  0.0413
 9807TIP3    H229361   7.005   3.792   1.029 -0.1293 -0.0583 -0.5662
 9808TIP3   OH229362   5.837   2.165   6.348 -0.2856 -0.0702  0.4137
 9808TIP3    H129363   5.928   2.179   6.322 -0.3141  1.4861  1.0636
 9808TIP3    H229364   5.787   2.222   6.290 -0.4854  2.1996  2.7055
 9809TIP3   OH229365   7.426   0.962   6.460  0.5031 -0.2295  0.2209
 9809TIP3    H129366   7.498   0.931   6.515  1.1096 -0.7359 -0.8473
 9809TIP3    H229367   7.350   0.912   6.490  1.0963 -1.4537 -0.2474
 9810TIP3   OH229368   4.264   0.107   6.731  0.5581 -0.1364  0.6242
 9810TIP3    H129369   4.308   0.048   6.670  0.0547  1.4208 -1.3011
 9810TIP3    H229370   4.193   0.054   6.768  0.1869 -0.7930 -0.9884
 9811TIP3   OH229371   1.840   6.095   1.227  0.2025  0.1630  0.3064
 9811TIP3    H129372   1.793   6.148   1.291  2.2630  0.7931  1.3561
 9811TIP3    H229373   1.887   6.158   1.173 -1.6171 -0.3601 -1.9506
 9812TIP3   OH229374   5.326   2.528   4.210  0.2990  0.2703 -0.3026
 9812TIP3    H129375   5.231   2.544   4.209  0.0430 -1.1168  0.8759
 9812TIP3    H229376   5.336   2.438   4.180  1.1898  0.1568  0.3211
 9813TIP3   OH229377   4.168   4.744   0.037 -0.2761 -0.6699  0.5953
 9813TIP3    H129378   4.074   4.759   0.032  0.0593  2.1570  1.7484
 9813TIP3    H229379   4.195   4.727  -0.053 -1.6691 -0.0812  0.0623
 9814TIP3   OH229380   7.197   5.207   0.200 -0.3201 -0.2698 -0.0663
 9814TIP3    H129381   7.255   5.226   0.274  0.6946 -2.1499 -0.3469
 9814TIP3    H229382   7.198   5.287   0.147  2.7170 -0.5276 -0.5194
 9815TIP3   OH229383   0.410   7.716   3.745  0.2093  0.2144 -0.0846
 9815TIP3    H129384   0.439   7.662   3.672  1.0289 -0.8085  0.9702
 9815TIP3    H229385   0.439   7.805   3.723  1.0640 -0.2035 -0.6866
 9816TIP3   OH229386   0.653   5.590   0.238  0.4177  0.4921  0.2577
 9816TIP3    H129387   0.628   5.503   0.270  1.2408  0.1066 -0.1423
 9816TIP3    H229388   0.740   5.578   0.201  0.2356  1.3329 -0.4638
 9817TIP3   OH229389   5.301   0.948   6.241 -0.3039  0.4795 -0.0729
 9817TIP3    H129390   5.361   0.894   6.188  0.0827 -2.0891  2.8522
 9817TIP3    H229391   5.215   0.909   6.225 -0.4423  0.8245 -0.1640
 9818TIP3   OH229392   3.487   0.640   3.579 -0.0625 -0.8017  0.3248
 9818TIP3    H129393   3.463   0.600   3.663 -0.3760 -0.9498  0.1665
 9818TIP3    H229394   3.410   0.692   3.556  0.3596 -0.0740  0.5518
 9819TIP3   OH229395   8.046   4.844   4.959 -0.0235 -0.1476  0.7124
 9819TIP3    H129396   8.082   4.873   5.043  2.3242 -0.0693 -0.2843
 9819TIP3    H229397   7.955   4.820   4.979  0.0306  1.3247  2.9482
 9820TIP3   OH229398   7.741   7.957   0.379 -0.9767 -0.1318 -0.0272
 9820TIP3    H129399   7.782   7.994   0.457 -1.4281  0.8073 -0.2287
 9820TIP3    H229400   7.812   7.947   0.316 -0.7886  0.0560  0.1553
 9821TIP3   OH229401   5.216   0.279   6.721  0.2089 -0.4559 -0.2767
 9821TIP3    H129402   5.140   0.284   6.663 -0.4413 -1.5644  0.4656
 9821TIP3    H229403   5.291   0.269   6.661 -0.4559 -1.5771 -0.9462
 9822TIP3   OH229404   0.426   5.721   1.354 -0.2199  0.0510  0.6326
 9822TIP3    H129405   0.487   5.782   1.396  0.2095 -0.7390  1.1795
 9822TIP3    H229406   0.345   5.771   1.345 -0.0966  0.4721  1.7435
 9823TIP3   OH229407   2.182   0.640   0.065 -0.6958 -0.3533  0.4053
 9823TIP3    H129408   2.245   0.598   0.123 -0.2856  2.2989  1.9419
 9823TIP3    H229409   2.137   0.567   0.022  2.7749 -2.2966 -0.0865
 9824TIP3   OH229410   0.010   4.159   3.140 -0.0955  0.2906  0.3644
 9824TIP3    H129411   0.035   4.249   3.120 -1.5353  0.8932  1.1642
 9824TIP3    H229412   0.005   4.116   3.055 -0.8827  1.3871 -0.1532
 9825TIP3   OH229413   6.054   2.781   6.203  0.3740 -0.6422 -0.6941
 9825TIP3    H129414   6.137   2.748   6.168  2.0152  0.3400  2.1177
 9825TIP3    H229415   6.066   2.876   6.208 -0.4126 -0.6127  0.9505
 9826TIP3   OH229416   5.443   1.450   6.893  0.0662  0.0948 -0.1022
 9826TIP3    H129417   5.368   1.493   6.935  0.0019 -0.1142  0.0015
 9826TIP3    H229418   5.510   1.447   6.961  1.4435  3.4152 -1.2091
 9827TIP3   OH229419   4.053   1.026   6.588 -0.1250  0.2049  0.1173
 9827TIP3    H129420   3.991   1.065   6.650 -0.8394 -0.2393 -0.3006
 9827TIP3    H229421   4.123   0.990   6.642 -1.0584 -0.7455  0.7115
 9828TIP3   OH229422   0.066   7.103   0.258 -0.2308 -0.0063  0.2294
 9828TIP3    H129423   0.053   7.092   0.164  2.1273 -0.7275 -0.0548
 9828TIP3    H229424   0.058   7.015   0.294 -2.4080  0.4347  0.9228
 9829TIP3   OH229425   5.613   2.039   3.819  0.6259 -0.0685  0.6186
 9829TIP3    H129426   5.674   1.975   3.854 -0.4840 -0.6497  1.5280
 9829TIP3    H229427   5.615   2.111   3.882  4.1556  2.2200 -1.9340
 9830TIP3   OH229428   7.925   2.176   1.857  0.0760  0.7398  0.5303
 9830TIP3    H129429   7.868   2.247   1.887 -1.3511 -0.4962  0.7735
 9830TIP3    H229430   7.891   2.098   1.900  2.2766  0.0419  1.0983
 9831TIP3   OH229431   8.380   5.678   0.838 -0.5426  0.4961 -0.0139
 9831TIP3    H129432   8.368   5.749   0.900 -0.2996 -1.7544  2.7090
 9831TIP3    H229433   8.292   5.660   0.805 -1.0082  0.3584  1.2548
 9832TIP3   OH229434   5.991   1.184   6.850 -0.7312 -0.2359 -0.0934
 9832TIP3    H129435   5.966   1.159   6.761  0.0515 -0.5993 -0.2101
 9832TIP3    H229436   5.994   1.280   6.847 -2.2157 -0.1666 -0.0448
 9833TIP3   OH229437   7.627   6.016   0.584 -0.4452  0.7764 -0.2446
 9833TIP3    H129438   7.595   5.956   0.517 -1.9026  1.0376  0.1937
 9833TIP3    H229439   7.614   6.103   0.546  0.0105  0.8809 -0.1662
 9834TIP3   OH229440   7.340   5.787   1.195  0.1632  0.2682 -0.4646
 9834TIP3    H129441   7.260   5.838   1.180 -0.7477 -1.2021 -0.7042
 9834TIP3    H229442   7.397   5.809   1.122  0.6599  2.5910  0.5680
 9835TIP3   OH229443   0.751   5.965   0.211 -0.0720 -0.5570  0.0236
 9835TIP3    H129444   0.795   5.920   0.283  0.3309 -0.6473 -0.2788
 9835TIP3    H229445   0.664   5.986   0.246  0.0710 -0.7241  0.4876
 9836TIP3   OH229446   7.966   6.843   0.422 -0.0462  0.1370  0.1342
 9836TIP3    H129447   7.969   6.758   0.467 -1.2590 -0.2584 -0.4911
 9836TIP3    H229448   7.888   6.886   0.457 -0.5108  0.1896 -0.9416
 9837TIP3   OH229449   5.949   1.804   4.546 -0.0855 -0.1047 -0.6597
 9837TIP3    H129450   5.920   1.735   4.487 -1.2221 -0.4208  0.2446
 9837TIP3    H229451   5.868   1.850   4.571  0.5842  1.1866 -0.7977
 9838TIP3   OH229452   2.636   0.323   6.288  0.0570  0.1545  0.3050
 9838TIP3    H129453   2.606   0.334   6.198  1.6189 -0.7838 -0.3548
 9838TIP3    H229454   2.576   0.376   6.340  0.4922  2.5292 -1.5217
 9839TIP3   OH229455   4.041   1.830   6.711  0.7334 -0.0900  0.0937
 9839TIP3    H129456   4.048   1.924   6.692 -1.1751 -0.0767 -0.6824
 9839TIP3    H229457   4.080   1.787   6.635  0.4699  0.0662 -0.1329
 9840TIP3   OH229458   5.065   1.388   4.918 -0.4142 -0.3635  0.2012
 9840TIP3    H129459   5.049   1.333   4.842 -1.2683  0.2427 -0.0739
 9840TIP3    H229460   4.980   1.393   4.962 -0.4601  1.0663 -0.0140
 9841TIP3   OH229461   4.957   2.456   4.451  0.4710  0.2002  0.6581
 9841TIP3    H129462   4.914   2.387   4.502  1.7147 -0.7051  0.5080
 9841TIP3    H229463   4.975   2.525   4.515 -0.6712  0.3629  0.8303
 9842TIP3   OH229464   0.869   3.211   6.050  0.1738  0.4235  0.3503
 9842TIP3    H129465   0.821   3.264   6.115 -0.0749  0.5342  0.0789
 9842TIP3    H229466   0.840   3.246   5.966 -0.1759 -0.3037  0.1656
 9843TIP3   OH229467   0.866   6.763   0.089  0.1841 -0.3483 -0.1463
 9843TIP3    H129468   0.923   6.833   0.122  0.6238 -0.0225 -1.5809
 9843TIP3    H229469   0.893   6.685   0.137  0.0862  0.3389  1.0479
 9844TIP3   OH229470   6.147   2.251   5.157  0.2191 -0.3542  0.3114
 9844TIP3    H129471   6.141   2.256   5.062 -0.7983 -1.3330  0.3121
 9844TIP3    H229472   6.177   2.337   5.185  1.9311 -0.4975 -1.0064
 9845TIP3   OH229473   0.448   5.493   0.523 -0.1282  0.1110  0.0397
 9845TIP3    H129474   0.531   5.523   0.560  0.3326  0.8686 -1.5898
 9845TIP3    H229475   0.470   5.411   0.479 -0.5098 -0.3530  0.6994
 9846TIP3   OH229476   1.363   6.267   0.463  0.2859  0.0265 -0.0708
 9846TIP3    H129477   1.411   6.227   0.536  0.3114 -0.8479 -0.5721
 9846TIP3    H229478   1.332   6.351   0.499  0.3182 -0.3834  0.9398
 9847TIP3   OH229479   4.457   1.795   5.611  0.4202 -0.0589 -0.3581
 9847TIP3    H129480   4.435   1.731   5.678 -3.3536  0.2944 -1.1620
 9847TIP3    H229481   4.454   1.745   5.529 -0.8210  0.7175 -0.8080
 9848TIP3   OH229482   6.757   0.470   5.596  0.4087  0.2952 -0.5586
 9848TIP3    H129483   6.776   0.492   5.687 -1.8918 -0.9547  0.2271
 9848TIP3    H229484   6.815   0.397   5.576  1.0950  0.7344 -0.2011
 9849TIP3   OH229485   5.292   1.446   4.456 -0.0568  0.2602  0.1115
 9849TIP3    H129486   5.217   1.492   4.494 -0.7823 -0.8981  0.1374
 9849TIP3    H229487   5.366   1.470   4.510 -0.4459  1.2945  0.1924
 9850TIP3   OH229488   4.027   2.324   6.818 -0.3867 -0.4436  0.0147
 9850TIP3    H129489   4.119   2.347   6.823 -0.5833  0.1439  1.0856
 9850TIP3    H229490   3.980   2.406   6.837 -1.1124 -0.9821  0.6054
 9851TIP3   OH229491   2.188   7.953   0.374  0.0176 -0.5484  0.8952
 9851TIP3    H129492   2.149   7.943   0.461  1.2679 -2.0567  1.3046
 9851TIP3    H229493   2.139   8.025   0.334 -0.9192 -0.1772  2.6467
 9852TIP3   OH229494   1.764   6.095   0.403 -0.4154 -0.3378 -0.4995
 9852TIP3    H129495   1.675   6.073   0.375 -0.5097  0.6348 -1.0010
 9852TIP3    H229496   1.770   6.189   0.390  1.0311 -0.5508 -1.4521
 9853TIP3   OH229497   0.645   4.439   0.111 -0.1728 -0.3566  0.2037
 9853TIP3    H129498   0.673   4.371   0.173 -1.0975 -0.9836 -0.0490
 9853TIP3    H229499   0.560   4.467   0.143 -0.4587 -0.3699 -0.5306
 9854TIP3   OH229500   5.926   1.252   6.349  0.3804  0.1489 -0.1576
 9854TIP3    H129501   5.941   1.341   6.381  0.1589 -0.3388  1.3037
 9854TIP3    H229502   5.975   1.196   6.410 -0.3016 -0.8073 -0.4822
 9855TIP3   OH229503   5.646   0.518   6.605  0.2176  0.2506 -0.3403
 9855TIP3    H129504   5.691   0.584   6.551  1.8917  0.2514  0.9978
 9855TIP3    H229505   5.644   0.440   6.550  0.4835  0.7048 -1.0103
 9856TIP3   OH229506   7.889   3.804   1.855 -0.0489  0.2065  0.0251
 9856TIP3    H129507   7.940   3.824   1.933 -1.1219  0.3172  0.7129
 9856TIP3    H229508   7.949   3.755   1.798  0.2954 -1.1638  1.5465
 9857TIP3   OH229509   3.800   2.912   6.774 -0.2883 -0.8518 -0.2292
 9857TIP3    H129510   3.726   2.958   6.812 -1.0427 -1.6006 -0.7765
 9857TIP3    H229511   3.874   2.971   6.786 -0.8817 -0.2918  0.7224
 9858TIP3   OH229512   7.321   3.097   3.334 -0.3413 -0.3606 -0.3000
 9858TIP3    H129513   7.266   3.166   3.296  0.5563  0.0814 -0.8168
 9858TIP3    H229514   7.383   3.144   3.389 -0.6947 -0.8857  0.5450
 9859TIP3   OH229515   4.823   0.962   6.291 -0.3948 -0.0862  0.4919
 9859TIP3    H129516   4.771   1.020   6.235  0.3363  0.1147  0.0091
 9859TIP3    H229517   4.775   0.879   6.292 -2.0215  0.8393  2.0527
 9860TIP3   OH229518   4.572   2.148   6.485  0.1005 -0.7661  0.3006
 9860TIP3    H129519   4.592   2.235   6.450  0.9329 -0.3494  1.7835
 9860TIP3    H229520   4.595   2.088   6.414 -1.1625  0.2496 -1.0027
 9861TIP3   OH229521   7.242   5.908   0.452 -0.0787  0.3740  0.4473
 9861TIP3    H129522   7.335   5.914   0.433 -0.1183 -1.8033 -0.5503
 9861TIP3    H229523   7.201   5.899   0.365 -1.3457  2.5467  0.7705
 9862TIP3   OH229524   0.989   4.266   0.211 -0.3359 -0.0735 -0.1163
 9862TIP3    H129525   1.046   4.220   0.273 -0.8213 -0.9230 -0.3036
 9862TIP3    H229526   1.029   4.249   0.125  0.0965  0.7567 -0.0923
 9863TIP3   OH229527   0.517   4.768   0.842 -0.5145 -0.2606 -0.6122
 9863TIP3    H129528   0.510   4.731   0.754  0.4174 -1.6910 -0.0944
 9863TIP3    H229529   0.479   4.856   0.834 -1.3913 -0.7663 -2.1982
 9864TIP3   OH229530   0.408   5.689   0.236  0.3196 -0.7474 -0.4016
 9864TIP3    H129531   0.498   5.668   0.211  0.1293 -1.4687 -0.5075
 9864TIP3    H229532   0.415   5.725   0.324  0.8650  0.6410 -1.0085
 9865TIP3   OH229533   3.459   3.154   6.347 -0.1812  0.3095  0.2721
 9865TIP3    H129534   3.536   3.110   6.311 -0.8117  1.0826 -2.1230
 9865TIP3    H229535   3.424   3.092   6.411  2.1471 -0.2357  1.0759
 9866TIP3   OH229536   7.016   3.270   5.988 -0.9041 -0.0396  0.1944
 9866TIP3    H129537   6.947   3.298   5.929 -0.1550  0.9989 -0.1936
 9866TIP3    H229538   7.086   3.334   5.977 -1.1684  0.8051  3.0083
 9867TIP3   OH229539   6.268   4.669   4.975  0.5403  0.0632 -0.1634
 9867TIP3    H129540   6.250   4.577   4.958  1.2397 -0.2703  0.7956
 9867TIP3    H229541   6.342   4.690   4.919 -0.0038  0.2084 -0.8272
 9868TIP3   OH229542   6.815   4.643   1.132 -0.0918 -0.0760  0.4524
 9868TIP3    H129543   6.765   4.585   1.191 -1.2438 -0.0363 -0.4832
 9868TIP3    H229544   6.780   4.625   1.045 -0.3616  1.9530  0.1343
 9869TIP3   OH229545   4.024   1.389   6.192 -0.3919  0.3127 -0.6150
 9869TIP3    H129546   3.937   1.369   6.156 -1.1426  1.6917  0.4181
 9869TIP3    H229547   4.044   1.477   6.159 -1.0188  1.5411  2.1468
 9870TIP3   OH229548   7.296   6.416   0.125  0.5896  0.1653  0.4480
 9870TIP3    H129549   7.390   6.428   0.109  0.0710 -0.2276 -3.3043
 9870TIP3    H229550   7.260   6.504   0.116  0.4115  0.1007  0.5415
 9871TIP3   OH229551   5.183   2.538   6.547  0.1502 -0.1539 -0.0072
 9871TIP3    H129552   5.136   2.470   6.498  0.0241  1.1248 -1.7067
 9871TIP3    H229553   5.113   2.587   6.592  0.1400 -0.3143  0.1543
 9872TIP3   OH229554   6.751   7.294   0.770  0.1465  0.1423 -0.3028
 9872TIP3    H129555   6.806   7.216   0.776 -0.3707 -0.2410 -0.4677
 9872TIP3    H229556   6.812   7.366   0.760  0.6517 -0.1820  0.4463
 9873TIP3   OH229557   4.878   7.804   6.780 -0.1829 -0.2358 -0.7562
 9873TIP3    H129558   4.819   7.759   6.719  0.7221  1.0229 -2.5945
 9873TIP3    H229559   4.824   7.872   6.821 -0.6541 -0.7508 -0.5140
 9874TIP3   OH229560   6.734   1.943   6.772 -0.3579  0.1144  0.4171
 9874TIP3    H129561   6.716   1.973   6.683 -0.2426 -1.5113 -0.1596
 9874TIP3    H229562   6.654   1.964   6.821  0.1068  2.2874  0.2779
 9875TIP3   OH229563   4.683   3.907   6.035  0.4068 -0.1848 -0.2482
 9875TIP3    H129564   4.592   3.900   6.004 -0.0222 -0.2201  0.9922
 9875TIP3    H229565   4.708   3.998   6.017  0.1851 -0.2231 -0.7548
 9876TIP3   OH229566   0.878   6.245   0.459 -0.2467 -0.0708  0.4036
 9876TIP3    H129567   0.803   6.189   0.481 -0.1437 -0.0862  0.7141
 9876TIP3    H229568   0.943   6.184   0.424 -0.0895 -0.1615  0.8538
 9877TIP3   OH229569   1.717   5.390   0.929 -0.2256  0.3227  0.3718
 9877TIP3    H129570   1.717   5.307   0.975  0.2084  0.2880  0.3088
 9877TIP3    H229571   1.750   5.369   0.841  0.3995  0.6585  0.5281
 9878TIP3   OH229572   2.019   3.786   1.158 -0.3162 -0.2657 -0.2261
 9878TIP3    H129573   2.076   3.863   1.154 -1.2925  0.6789  2.8950
 9878TIP3    H229574   2.022   3.750   1.069  3.5551  0.8758 -0.6556
 9879TIP3   OH229575   7.168   0.463   6.420 -0.3426  0.4388  0.5412
 9879TIP3    H129576   7.232   0.434   6.485 -0.2781  0.6097  0.5545
 9879TIP3    H229577   7.089   0.414   6.441  0.2416 -0.9975 -0.4791
 9880TIP3   OH229578   7.616   4.988   0.616 -0.2038 -0.0446 -0.3070
 9880TIP3    H129579   7.626   4.899   0.650 -0.2743  0.2742  0.5722
 9880TIP3    H229580   7.542   5.024   0.665 -0.8813  0.1260 -1.4464
 9881TIP3   OH229581   6.363   1.710   5.808 -0.7225 -0.1571 -0.1657
 9881TIP3    H129582   6.372   1.615   5.822  0.7086  0.0579  0.4008
 9881TIP3    H229583   6.405   1.726   5.723  1.0000  0.2860  0.7531
 9882TIP3   OH229584   3.925   7.358   5.774  0.1007  0.0446 -0.3379
 9882TIP3    H129585   3.948   7.430   5.833 -1.5577 -0.1599  0.5998
 9882TIP3    H229586   3.918   7.399   5.687 -0.8424  1.0282  0.1894
 9883TIP3   OH229587   7.173   0.364   5.659 -0.6242  0.4767 -0.2455
 9883TIP3    H129588   7.160   0.388   5.568 -0.4634 -2.6546 -1.1403
 9883TIP3    H229589   7.085   0.366   5.697 -0.9836 -0.3724 -1.0292
 9884TIP3   OH229590   0.244   1.884   6.377  0.4355  0.3531 -0.2138
 9884TIP3    H129591   0.186   1.943   6.329 -0.5507 -0.0680  0.4486
 9884TIP3    H229592   0.305   1.853   6.310 -0.2886  0.5714 -0.9989
 9885TIP3   OH229593   3.763   4.341   0.665  0.4364  0.0417 -0.3733
 9885TIP3    H129594   3.694   4.380   0.612 -1.2573 -1.4519  0.6481
 9885TIP3    H229595   3.743   4.247   0.664  3.3191 -0.5846 -1.2635
 9886TIP3   OH229596   7.059   0.922   5.036  0.2619 -0.4659  0.6981
 9886TIP3    H129597   6.974   0.892   5.066 -0.5430 -0.0565 -1.0676
 9886TIP3    H229598   7.122   0.872   5.088 -1.0243  0.6724  3.4297
 9887TIP3   OH229599   3.841   7.553   4.794  0.0999  0.3606  0.4356
 9887TIP3    H129600   3.810   7.643   4.803  0.1632  0.5024 -0.7326
 9887TIP3    H229601   3.920   7.550   4.848  1.9956  1.9449 -2.1246
 9888TIP3   OH229602   5.898   0.718   6.881  0.0076  0.4539  0.0086
 9888TIP3    H129603   5.923   0.796   6.931  0.5023  1.2691 -1.5075
 9888TIP3    H229604   5.836   0.750   6.815 -0.4311 -0.5820 -0.0967
 9889TIP3   OH229605   7.604   1.436   4.041 -0.4437  0.8070 -0.0896
 9889TIP3    H129606   7.644   1.378   3.977  0.3336  0.3838  0.7725
 9889TIP3    H229607   7.658   1.515   4.039  0.6143  0.1349  1.2620
 9890TIP3   OH229608   0.315   4.963   0.075 -0.0283 -0.5371  0.0068
 9890TIP3    H129609   0.310   5.051   0.038  0.9531 -0.5289 -0.1261
 9890TIP3    H229610   0.245   4.960   0.140 -0.1668  0.2914 -0.1047
 9891TIP3   OH229611   5.721   2.512   6.420 -0.3029  0.2129  0.0959
 9891TIP3    H129612   5.812   2.522   6.447  0.6863 -0.5114 -2.8165
 9891TIP3    H229613   5.693   2.430   6.460  1.4472 -1.3805 -1.8630
 9892TIP3   OH229614   5.951   1.690   5.736  0.0895 -0.3310  0.5065
 9892TIP3    H129615   5.999   1.640   5.670  1.5277 -0.7706  1.8635
 9892TIP3    H229616   6.017   1.743   5.779 -0.4475 -1.6799  3.0839
 9893TIP3   OH229617   0.490   5.990   0.282  0.2047  0.1501 -0.1272
 9893TIP3    H129618   0.442   5.929   0.339  0.0298  0.3484 -0.0602
 9893TIP3    H229619   0.451   6.075   0.301  0.6059  0.3167 -0.0558
 9894TIP3   OH229620   6.630   0.195   4.538 -0.4770 -0.0867 -0.2031
 9894TIP3    H129621   6.622   0.177   4.632  2.9728  1.2245  0.4211
 9894TIP3    H229622   6.696   0.264   4.532 -0.8733  0.0947 -3.5943
 9895TIP3   OH229623   1.751   4.844   0.167  0.9081 -0.4280 -0.1253
 9895TIP3    H129624   1.725   4.793   0.243 -1.3568 -1.0019 -1.2378
 9895TIP3    H229625   1.846   4.837   0.165  0.9753 -0.6063  2.4873
 9896TIP3   OH229626   6.362   3.071   6.575  0.9987 -0.0391 -0.4601
 9896TIP3    H129627   6.330   3.154   6.608  4.9049  1.7387 -0.8146
 9896TIP3    H229628   6.401   3.028   6.651  0.7039 -0.6656 -0.6598
 9897TIP3   OH229629   8.452   0.892   4.860 -0.0227 -0.0175  0.9129
 9897TIP3    H129630   8.532   0.846   4.885 -0.8308 -0.5565  2.5872
 9897TIP3    H229631   8.434   0.862   4.771  1.2590 -0.4090  0.7750
 9898TIP3   OH229632   7.135   1.928   5.635 -0.5590  0.0778  0.1197
 9898TIP3    H129633   7.189   1.859   5.597 -0.6212 -0.4806  1.0350
 9898TIP3    H229634   7.049   1.916   5.595  0.0156  1.1235 -1.5337
 9899TIP3   OH229635   2.030   5.173   0.360 -0.2346  0.2104 -0.0573
 9899TIP3    H129636   2.035   5.125   0.443  1.2420  0.7372  0.1663
 9899TIP3    H229637   1.984   5.254   0.383  0.2822  0.4122  0.2691
 9900TIP3   OH229638   1.087   5.966   0.735  0.0275 -0.0823 -0.5631
 9900TIP3    H129639   1.106   5.873   0.746  0.4122  0.0880  0.3104
 9900TIP3    H229640   1.036   5.989   0.813  1.1333  0.7398 -0.0506
 9901TIP3   OH229641   0.371   1.399   5.304  0.2691 -0.4823 -0.5661
 9901TIP3    H129642   0.313   1.472   5.328 -0.7228 -1.5608  0.4004
 9901TIP3    H229643   0.449   1.412   5.359 -0.5455 -0.9848  0.7444
 9902TIP3   OH229644   5.883   0.426   6.870 -0.7998  0.4450  0.5140
 9902TIP3    H129645   5.794   0.396   6.884 -0.8527 -0.4886 -1.6223
 9902TIP3    H229646   5.876   0.521   6.865 -1.5598  0.4227  1.1803
 9903TIP3   OH229647   1.898   4.533   0.322  0.3094  0.2606 -0.4873
 9903TIP3    H129648   1.979   4.536   0.373  0.8336  0.9316 -1.3509
 9903TIP3    H229649   1.908   4.455   0.267 -0.0281 -0.1679  0.0574
 9904TIP3   OH229650   5.167   0.469   5.564 -0.0077  0.4697  0.3961
 9904TIP3    H129651   5.103   0.424   5.620 -0.4110  0.1963 -0.2762
 9904TIP3    H229652   5.250   0.427   5.585 -0.3159 -0.3077  0.0780
 9905TIP3   OH229653   5.886   1.596   5.383 -0.3245  0.5415  0.0512
 9905TIP3    H129654   5.832   1.565   5.311  0.6830 -0.8224 -0.1317
 9905TIP3    H229655   5.958   1.643   5.341  1.0224 -1.4439  0.0711
 9906TIP3   OH229656   6.823   1.266   5.812 -0.1081 -0.1678 -0.1844
 9906TIP3    H129657   6.901   1.270   5.757  0.2193  0.3161  0.3118
 9906TIP3    H229658   6.755   1.309   5.760  0.8212  2.6046  0.8020
 9907TIP3   OH229659   6.078   1.655   6.066 -0.0617 -0.1294  0.0606
 9907TIP3    H129660   5.986   1.677   6.080  0.2086  0.0942  1.5563
 9907TIP3    H229661   6.112   1.726   6.011 -0.8542 -0.3780 -0.7585
 9908TIP3   OH229662   0.706   0.654   6.221  0.4460 -0.7618  0.2740
 9908TIP3    H129663   0.750   0.641   6.137  2.0603 -1.3585  1.1922
 9908TIP3    H229664   0.686   0.566   6.251  2.5641 -0.7093  1.9079
 9909TIP3   OH229665   6.884   2.385   4.896  0.3079  0.4496 -0.5427
 9909TIP3    H129666   6.924   2.308   4.936 -0.8184 -0.1840 -0.6161
 9909TIP3    H229667   6.954   2.449   4.892  1.3639 -0.7048 -0.8336
 9910TIP3   OH229668   5.562   0.958   6.054 -0.5560  0.3240  0.1893
 9910TIP3    H129669   5.559   0.896   5.981 -2.4422 -0.9503  1.3092
 9910TIP3    H229670   5.628   0.922   6.113  0.6835  1.1419 -0.6696
 9911TIP3   OH229671   5.660   3.061   6.529 -0.1913 -0.2242  0.4989
 9911TIP3    H129672   5.701   2.981   6.561  0.3734 -0.7978 -1.5791
 9911TIP3    H229673   5.606   3.033   6.456 -2.0512  0.9460  1.3882
 9912TIP3   OH229674   6.301   2.663   6.122  0.6200  0.4439  0.1973
 9912TIP3    H129675   6.316   2.676   6.216 -1.3812  1.4517  0.3949
 9912TIP3    H229676   6.264   2.575   6.115 -0.2397  0.7771  0.4794
 9913TIP3   OH229677   6.039   0.501   6.046  0.6567  0.9169  0.4368
 9913TIP3    H129678   5.990   0.474   6.124  0.8831 -0.8347 -0.0076
 9913TIP3    H229679   6.105   0.433   6.034 -0.6274  0.1025 -2.4111
 9914TIP3   OH229680   0.130   1.690   2.967 -0.1561 -0.0092  0.0671
 9914TIP3    H129681   0.064   1.620   2.964 -0.4098  0.2269  0.1616
 9914TIP3    H229682   0.157   1.701   2.876  0.8956 -1.1943  0.2218
 9915TIP3   OH229683   7.407   3.994   6.235  0.0027 -0.3866  0.1386
 9915TIP3    H129684   7.481   4.037   6.192 -1.2282  2.4398  0.7312
 9915TIP3    H229685   7.376   4.057   6.300 -0.9432 -2.8119  2.1372
 9916TIP3   OH229686   1.334   5.248   0.887 -0.1578 -0.0631  0.0788
 9916TIP3    H129687   1.338   5.156   0.915  1.7544  0.5910  2.1502
 9916TIP3    H229688   1.261   5.285   0.936 -0.4288 -0.3102 -0.1438
 9917TIP3   OH229689   0.463   6.701   0.607  0.0317 -0.3251 -0.3792
 9917TIP3    H129690   0.490   6.691   0.515  0.3062 -0.1166 -0.3198
 9917TIP3    H229691   0.442   6.612   0.635 -0.7788 -0.2958 -0.8733
 9918TIP3   OH229692   6.759   2.385   4.551  0.2576  0.1165  0.1636
 9918TIP3    H129693   6.701   2.372   4.476  0.8874 -0.2727 -0.2645
 9918TIP3    H229694   6.759   2.301   4.597  0.3409  0.1725  0.2672
 9919TIP3   OH229695   6.333   2.691   2.408  0.2208 -0.0041  0.5636
 9919TIP3    H129696   6.408   2.742   2.378 -0.3050  1.3370  1.4749
 9919TIP3    H229697   6.366   2.644   2.485 -0.2571  1.7789  1.9018
 9920TIP3   OH229698   6.229   4.473   5.284  0.1498 -0.3378  0.0981
 9920TIP3    H129699   6.169   4.433   5.221 -0.0378  0.1667 -0.0493
 9920TIP3    H229700   6.172   4.520   5.345  0.4024  0.2276 -0.1018
 9921TIP3   OH229701   6.957   2.009   6.315  0.3621 -0.0267 -0.8317
 9921TIP3    H129702   6.937   2.102   6.323  0.1141 -0.2199  0.9808
 9921TIP3    H229703   7.049   2.006   6.289  0.5827  0.7280 -0.1734
 9922TIP3   OH229704   7.144   4.447   4.216 -0.1032  0.4309 -0.7066
 9922TIP3    H129705   7.197   4.500   4.156 -0.2080  0.5551 -0.6900
 9922TIP3    H229706   7.190   4.363   4.220  0.5202  0.7934 -0.0854
 9923TIP3   OH229707   5.367   1.708   5.694 -0.7635  0.4025 -0.5354
 9923TIP3    H129708   5.380   1.670   5.782  0.4684  0.2174 -0.7812
 9923TIP3    H229709   5.274   1.728   5.690 -0.8123  0.5287  0.8701
 9924TIP3   OH229710   0.293   1.831   3.443  0.3785  0.4182  0.4885
 9924TIP3    H129711   0.240   1.762   3.401  2.0302 -0.4511 -0.2121
 9924TIP3    H229712   0.231   1.902   3.459 -0.8384 -0.2527 -1.0795
 9925TIP3   OH229713   3.294   5.655   0.623  0.0533  0.2736  0.3598
 9925TIP3    H129714   3.226   5.663   0.557  0.2972 -1.7892 -0.1891
 9925TIP3    H229715   3.250   5.675   0.706 -0.8814  0.3278 -0.1448
 9926TIP3   OH229716   0.705   4.284   0.656  0.3880  0.2719  0.0543
 9926TIP3    H129717   0.622   4.287   0.610  0.0849  0.6678  0.6103
 9926TIP3    H229718   0.757   4.219   0.610 -1.0272 -1.6070  1.0433
 9927TIP3   OH229719   7.973   0.854   5.475 -0.1133  0.1425 -0.6677
 9927TIP3    H129720   8.013   0.774   5.508  1.7248  1.6553  0.9118
 9927TIP3    H229721   7.979   0.847   5.380  1.9361 -0.6565 -0.4953
 9928TIP3   OH229722   1.125   0.093   5.492  0.0745 -0.2697 -0.4233
 9928TIP3    H129723   1.165   0.006   5.489  1.3276  0.2069  1.4623
 9928TIP3    H229724   1.196   0.153   5.471  0.4222  0.5749  2.8238
 9929TIP3   OH229725   7.345   4.019   0.330  0.0173 -0.4116 -0.1071
 9929TIP3    H129726   7.414   4.077   0.297  1.1022 -1.1786  0.7412
 9929TIP3    H229727   7.316   3.969   0.254  0.0897  0.2378 -0.5568
 9930TIP3   OH229728   5.570   1.576   5.295  0.0106 -0.1157 -0.1424
 9930TIP3    H129729   5.572   1.645   5.229  2.0926  1.0524  1.0903
 9930TIP3    H229730   5.626   1.507   5.260 -2.6620 -1.6063 -1.7233
 9931TIP3   OH229731   5.704   7.644   5.797  0.5007 -0.8343 -0.3162
 9931TIP3    H129732   5.753   7.700   5.737  2.1345 -1.0188  0.7823
 9931TIP3    H229733   5.657   7.704   5.854 -3.6571 -0.6548 -3.7328
 9932TIP3   OH229734   0.873   4.758   1.633 -1.3694 -0.1606 -0.0663
 9932TIP3    H129735   0.845   4.777   1.543  0.0716 -0.8280 -0.6785
 9932TIP3    H229736   0.824   4.679   1.657 -0.8673 -0.6836 -0.7277
 9933TIP3   OH229737   0.015   2.404   5.079  0.2770 -0.0752  0.2813
 9933TIP3    H129738   0.037   2.496   5.096 -0.4394  0.2188 -0.3399
 9933TIP3    H229739   0.019   2.396   4.984 -1.8354 -0.1196  0.1660
 9934TIP3   OH229740   1.027   2.107   4.076  0.2529 -0.1057 -0.1310
 9934TIP3    H129741   1.018   2.181   4.017  1.8595  0.6077  0.4763
 9934TIP3    H229742   1.069   2.144   4.154 -1.7219 -1.0406  1.4277
 9935TIP3   OH229743   7.279   2.841   6.125 -0.1771  0.7370  0.0292
 9935TIP3    H129744   7.256   2.890   6.045 -0.9058  1.2074  0.5257
 9935TIP3    H229745   7.212   2.866   6.188 -0.5757 -0.9494  0.2816
 9936TIP3   OH229746   1.519   5.011   0.174 -0.1184 -0.2327 -0.3036
 9936TIP3    H129747   1.480   5.012   0.086 -1.2059 -0.9441  0.1599
 9936TIP3    H229748   1.562   4.926   0.180  1.5477  0.5506 -0.8143
 9937TIP3   OH229749   5.636   7.210   5.626  0.3731 -0.5470 -0.2274
 9937TIP3    H129750   5.602   7.297   5.604  1.2156  0.6517  2.8396
 9937TIP3    H229751   5.671   7.176   5.544 -6.2236 -1.0585 -3.1639
 9938TIP3   OH229752   1.359   5.625   0.921 -0.1530  0.0474 -0.0515
 9938TIP3    H129753   1.367   5.675   1.002 -1.4512 -1.6714  1.1646
 9938TIP3    H229754   1.274   5.649   0.886 -0.1462 -0.1952 -0.2349
 9939TIP3   OH229755   7.355   2.384   2.793 -0.1364  0.6414  0.0360
 9939TIP3    H129756   7.334   2.308   2.739 -0.6018  0.7045  0.1293
 9939TIP3    H229757   7.450   2.383   2.800 -0.2034 -0.4823  0.8393
 9940TIP3   OH229758   5.761   2.777   5.749  0.2779 -0.1663 -0.0996
 9940TIP3    H129759   5.770   2.871   5.735 -0.8818 -0.1907 -1.0594
 9940TIP3    H229760   5.810   2.760   5.831 -1.5360  1.6470  1.4021
 9941TIP3   OH229761   7.685   2.926   5.523  0.1652 -0.5581 -0.0090
 9941TIP3    H129762   7.776   2.897   5.534  1.0344  1.4391 -1.4187
 9941TIP3    H229763   7.667   2.914   5.430 -0.3252  0.8219 -0.1149
 9942TIP3   OH229764   1.276   0.209   3.900 -0.5384 -0.2949 -0.6016
 9942TIP3    H129765   1.250   0.293   3.938  1.0432 -0.0673  0.0159
 9942TIP3    H229766   1.193   0.162   3.886 -1.3155  0.6522  0.7106
 9943TIP3   OH229767   6.925   7.881   5.416 -0.5003 -0.1125  0.1470
 9943TIP3    H129768   6.968   7.861   5.332  1.5227 -1.3323  1.4222
 9943TIP3    H229769   6.894   7.795   5.447 -0.7727  0.2569  0.8988
 9944TIP3   OH229770   1.284   4.897   0.339 -0.0755 -0.1048 -0.0667
 9944TIP3    H129771   1.349   4.957   0.303 -1.0074 -0.5636 -2.6508
 9944TIP3    H229772   1.207   4.951   0.357  0.1036 -0.0143  0.4151
 9945TIP3   OH229773   6.288   1.324   4.268  0.4308 -0.0761 -0.0883
 9945TIP3    H129774   6.296   1.290   4.358  0.1660 -0.6188 -0.2645
 9945TIP3    H229775   6.201   1.363   4.265  0.7171  0.5818  0.0985
 9946TIP3   OH229776   5.658   2.574   6.734  0.0803  0.1908  0.0983
 9946TIP3    H129777   5.748   2.581   6.764 -0.2581  1.8274  0.7702
 9946TIP3    H229778   5.662   2.598   6.641  0.0591  2.2820  0.6087
 9947TIP3   OH229779   3.178   6.575   1.268 -0.6190 -0.0104 -0.8366
 9947TIP3    H129780   3.257   6.525   1.291 -0.2094  1.6077  1.3847
 9947TIP3    H229781   3.187   6.591   1.174  0.4603 -1.9502 -1.1062
 9948TIP3   OH229782   1.834   5.736   0.609  0.2508 -0.2498  0.6252
 9948TIP3    H129783   1.904   5.681   0.574  0.0319  0.1613 -0.4874
 9948TIP3    H229784   1.874   5.823   0.618 -0.1580  0.0274 -0.1792
 9949TIP3   OH229785   8.063   0.594   3.634 -1.0257  0.0024  0.1378
 9949TIP3    H129786   8.016   0.652   3.574 -1.1147  0.8589  1.0273
 9949TIP3    H229787   8.105   0.530   3.577 -0.1676  1.4833 -0.9403
 9950TIP3   OH229788   8.241   2.371   4.078 -0.0754 -0.0838 -0.0718
 9950TIP3    H129789   8.202   2.449   4.118 -0.1064 -0.2604  0.2479
 9950TIP3    H229790   8.248   2.308   4.150  0.7150 -0.0854 -0.1471
 9951TIP3   OH229791   7.845   3.158   6.869 -0.0728 -0.6887 -0.1117
 9951TIP3    H129792   7.892   3.111   6.938 -0.3184 -1.3569 -0.3949
 9951TIP3    H229793   7.889   3.133   6.788  0.1577  0.0248 -0.2171
 9952TIP3   OH229794   7.118   1.017   4.259 -0.4097 -0.4972  0.4873
 9952TIP3    H129795   7.141   0.983   4.346  0.6477  0.7868  0.7257
 9952TIP3    H229796   7.026   1.040   4.266 -0.4051 -0.6827  1.1811
 9953TIP3   OH229797   8.363   0.663   4.263  0.4765 -0.2981  0.3052
 9953TIP3    H129798   8.421   0.614   4.204  0.3501 -0.4247  0.2851
 9953TIP3    H229799   8.340   0.600   4.331 -2.1051 -1.1783 -1.3507
 9954TIP3   OH229800   6.327   1.966   5.625  0.3667 -0.2165  0.0736
 9954TIP3    H129801   6.359   1.893   5.573  1.0607  1.6020 -2.1577
 9954TIP3    H229802   6.404   2.001   5.668  0.5080  0.8539 -1.0271
 9955TIP3   OH229803   0.692   6.302   1.619 -0.0884 -0.3641 -0.3050
 9955TIP3    H129804   0.709   6.382   1.670 -1.1434  0.2148 -0.8491
 9955TIP3    H229805   0.603   6.277   1.642  1.1821 -2.9914  1.9917
 9956TIP3   OH229806   6.782   2.127   5.648  0.1609  0.0492  0.0264
 9956TIP3    H129807   6.749   2.209   5.687  1.4363  1.2274 -1.2924
 9956TIP3    H229808   6.777   2.142   5.554  0.3513 -1.4398 -0.2319
 9957TIP3   OH229809   8.004   1.780   5.687 -0.2889  0.4270  0.0612
 9957TIP3    H129810   8.004   1.774   5.782 -1.9538  1.9681  0.1748
 9957TIP3    H229811   8.024   1.871   5.668  0.3165  0.0757 -1.0816
 9958TIP3   OH229812   8.142   2.266   5.209  0.4165  0.9414  0.1259
 9958TIP3    H129813   8.130   2.285   5.116  1.2603  1.1776  0.0645
 9958TIP3    H229814   8.060   2.294   5.250  0.1245  1.0251 -0.5180
 9959TIP3   OH229815   2.767   5.448   1.664  0.6913 -0.0873  0.1246
 9959TIP3    H129816   2.737   5.519   1.721 -1.3916 -0.0758 -0.9387
 9959TIP3    H229817   2.851   5.478   1.630  0.2738  1.4602  0.4193
 9960TIP3   OH229818   7.879   0.977   6.505  0.1380  0.3073 -0.1181
 9960TIP3    H129819   7.818   0.969   6.431 -0.9188  0.3479  0.7316
 9960TIP3    H229820   7.966   0.973   6.465 -0.3946 -2.1214 -1.1100
 9961TIP3   OH229821   4.748   0.726   4.401  0.1005  0.2223  0.1742
 9961TIP3    H129822   4.775   0.686   4.318  1.0534 -2.0919  1.5512
 9961TIP3    H229823   4.810   0.692   4.465 -1.3959  0.9688  2.0625
 9962TIP3   OH229824   6.214   0.558   3.661 -0.3028  0.5204  0.0097
 9962TIP3    H129825   6.295   0.589   3.621 -0.8636  0.6978 -0.9957
 9962TIP3    H229826   6.205   0.610   3.741  0.7811  0.2133  0.3480
 9963TIP3   OH229827   5.786   2.394   4.346  0.4559  0.0332  0.2239
 9963TIP3    H129828   5.703   2.411   4.390 -0.3021 -3.8072  0.4944
 9963TIP3    H229829   5.849   2.451   4.389 -1.0615 -0.7226  3.5704
 9964TIP3   OH229830   4.416   1.614   5.807  0.1084  0.0361 -0.2373
 9964TIP3    H129831   4.500   1.575   5.779  0.6529  0.3943  0.8707
 9964TIP3    H229832   4.363   1.538   5.833  1.0638 -0.0157  1.6328
 9965TIP3   OH229833   6.317   0.934   4.442 -0.9176  0.3401  0.0405
 9965TIP3    H129834   6.299   0.887   4.524 -0.8032 -0.5748 -0.4431
 9965TIP3    H229835   6.289   1.024   4.459 -1.4461  0.0265  0.8897
 9966TIP3   OH229836   6.041   1.327   5.363 -0.0842 -0.1489  0.0730
 9966TIP3    H129837   6.033   1.253   5.423  1.2932 -1.4646 -1.3142
 9966TIP3    H229838   6.129   1.361   5.378  0.7876 -1.3357 -2.0982
 9967TIP3   OH229839   0.980   6.447   0.640 -0.5253  0.2408  0.2190
 9967TIP3    H129840   0.889   6.461   0.665 -0.3725 -0.7841  1.4284
 9967TIP3    H229841   0.978   6.371   0.583 -0.6481  1.4272 -1.3830
 9968TIP3   OH229842   4.405   2.083   5.640  0.5501  0.3436 -0.2606
 9968TIP3    H129843   4.414   1.987   5.644 -4.1606 -0.1853  1.3635
 9968TIP3    H229844   4.439   2.113   5.724  1.0063 -0.0383 -0.3072
 9969TIP3   OH229845   0.459   0.446   4.833 -0.8591  0.1376  0.4488
 9969TIP3    H129846   0.479   0.364   4.790 -2.4678 -0.3080  0.4979
 9969TIP3    H229847   0.527   0.457   4.899 -0.0829 -0.6484 -0.2166
 9970TIP3   OH229848   7.102   2.003   4.556  0.1469 -0.1323 -0.5894
 9970TIP3    H129849   7.158   2.059   4.503  0.3748  1.0394  0.8668
 9970TIP3    H229850   7.160   1.931   4.583  1.1677  1.3522  1.3607
 9971TIP3   OH229851   6.203   1.926   4.963  0.4662  0.7673 -0.0598
 9971TIP3    H129852   6.252   1.981   5.025 -0.2598  2.4880 -0.9801
 9971TIP3    H229853   6.119   1.909   5.006  0.6672  0.4032  0.1962
 9972TIP3   OH229854   0.624   0.380   5.036 -0.7373 -0.0314 -0.2022
 9972TIP3    H129855   0.707   0.427   5.023 -0.8754  0.4558  0.6189
 9972TIP3    H229856   0.600   0.400   5.127 -1.7931 -0.1060 -0.4626
 9973TIP3   OH229857   5.623   1.403   5.681  0.3595  0.3555 -0.0677
 9973TIP3    H129858   5.585   1.450   5.607 -3.3399  0.4384  1.8065
 9973TIP3    H229859   5.663   1.471   5.735 -0.9348  0.8427  0.2914
 9974TIP3   OH229860   7.872   7.966   0.679  0.6319  0.3653 -0.2675
 9974TIP3    H129861   7.942   8.014   0.723  0.8259 -1.0561  1.0084
 9974TIP3    H229862   7.792   8.009   0.709  0.8894  1.3498 -0.9455
 9975TIP3   OH229863   0.646   6.127   0.535 -0.3793 -0.1101 -0.5949
 9975TIP3    H129864   0.618   6.173   0.456 -1.1130 -0.2171 -0.4000
 9975TIP3    H229865   0.569   6.128   0.592 -0.2735 -1.2048 -0.4166
 9976TIP3   OH229866   0.303   2.329   6.371 -0.4097  0.1938 -0.3749
 9976TIP3    H129867   0.362   2.256   6.351  0.0220 -0.1879  2.1876
 9976TIP3    H229868   0.253   2.342   6.290 -0.1563 -2.6188 -1.0415
 9977TIP3   OH229869   7.256   0.109   6.401 -0.1836 -0.0739  0.4667
 9977TIP3    H129870   7.221   0.145   6.483 -0.6831  0.0438  0.2049
 9977TIP3    H229871   7.326   0.050   6.429  0.5599  1.0037  0.9044
 9978TIP3   OH229872   6.832   1.969   3.768  0.6272  0.8435  0.0877
 9978TIP3    H129873   6.902   1.909   3.793  0.2076 -0.4573 -1.7148
 9978TIP3    H229874   6.775   1.973   3.845  1.7914  0.5756  0.9620
 9979TIP3   OH229875   7.690   3.781   4.422 -0.0303  0.4770 -0.1100
 9979TIP3    H129876   7.680   3.868   4.382 -0.2448  0.0719 -0.9635
 9979TIP3    H229877   7.604   3.740   4.413  0.2783 -0.1143 -0.4265
 9980TIP3   OH229878   0.027   1.357   5.326 -0.8937  0.1206 -0.0067
 9980TIP3    H129879   0.068   1.361   5.413 -2.2139 -0.3270  0.6378
 9980TIP3    H229880  -0.063   1.386   5.341 -1.1527 -0.0562 -1.2220
 9981TIP3   OH229881   8.160   0.027   5.731  0.1092  0.0956 -0.2277
 9981TIP3    H129882   8.154  -0.068   5.740 -1.2270 -0.0980 -2.7979
 9981TIP3    H229883   8.128   0.062   5.814 -0.2254 -1.6785  0.3963
 9982TIP3   OH229884   6.241   0.686   6.193 -0.1444  0.1306  0.5347
 9982TIP3    H129885   6.322   0.679   6.244 -0.3191 -1.3331  0.6536
 9982TIP3    H229886   6.193   0.606   6.215 -0.5229 -0.2102 -1.4223
 9983TIP3   OH229887   7.802   1.412   5.801 -0.3412  0.0985  0.3379
 9983TIP3    H129888   7.757   1.478   5.854 -0.4716  0.2933 -0.0128
 9983TIP3    H229889   7.754   1.331   5.817  1.0137 -0.3565  2.3215
 9984TIP3   OH229890   8.309   5.837   0.023 -0.2837 -0.0657 -0.3146
 9984TIP3    H129891   8.227   5.836   0.071  1.0732  2.9824  2.3021
 9984TIP3    H229892   8.287   5.876  -0.062 -1.7277 -0.3516 -0.0828
 9985TIP3   OH229893   6.106   1.662   4.727  0.0518 -0.1130  0.2530
 9985TIP3    H129894   6.102   1.739   4.783 -0.3483  0.5386 -0.6703
 9985TIP3    H229895   6.076   1.692   4.641  5.6049  0.2113 -1.7604
 9986TIP3   OH229896   1.195   5.492   0.582  0.4533  0.2655  0.4615
 9986TIP3    H129897   1.164   5.403   0.565  0.5765 -0.0273  1.6933
 9986TIP3    H229898   1.274   5.500   0.529  0.3784 -0.3311  0.2494
 9987TIP3   OH229899   7.536   0.744   4.861  0.2340  0.4471  0.0571
 9987TIP3    H129900   7.559   0.768   4.771 -0.6172  1.4212  0.0800
 9987TIP3    H229901   7.441   0.737   4.860  0.1572  1.1512  1.0309
 9988TIP3   OH229902   0.757   2.700   3.818 -0.1042 -0.1256 -0.0191
 9988TIP3    H129903   0.769   2.673   3.909  1.2679  1.3311  0.2518
 9988TIP3    H229904   0.713   2.785   3.824  0.6547  0.3252 -0.6642
 9989TIP3   OH229905   8.047   2.115   4.468  0.0630 -0.0181 -0.3367
 9989TIP3    H129906   8.134   2.097   4.503 -0.5529 -2.7712 -0.1176
 9989TIP3    H229907   7.989   2.108   4.545 -0.5445  0.1926 -0.7727
 9990TIP3   OH229908   7.502   2.499   6.927 -0.1113  0.3177 -0.1967
 9990TIP3    H129909   7.502   2.459   6.840 -0.2035  1.5240 -0.7565
 9990TIP3    H229910   7.427   2.459   6.971  1.9074 -2.8623  0.5492
 9991TIP3   OH229911   8.119   6.376   0.958 -0.0339  0.3089  0.5460
 9991TIP3    H129912   8.164   6.426   1.026  1.0425 -0.8788  0.7244
 9991TIP3    H229913   8.084   6.300   1.004 -0.4911  0.2005  0.0221
 9992TIP3   OH229914   8.371   0.549   5.827  0.0535 -0.1230  0.0874
 9992TIP3    H129915   8.355   0.643   5.838  0.5161  0.1709 -1.5288
 9992TIP3    H229916   8.443   0.544   5.763 -2.5529 -1.6177 -2.8523
 9993TIP3   OH229917   6.361   2.146   6.199 -0.6486 -0.4076 -0.0720
 9993TIP3    H129918   6.357   2.117   6.290 -0.4365 -0.3148 -0.0307
 9993TIP3    H229919   6.415   2.080   6.156  1.0926  0.6953  0.3418
 9994TIP3   OH229920   7.263   3.542   4.458 -0.3632 -0.2367 -0.1887
 9994TIP3    H129921   7.353   3.517   4.437 -0.8016 -1.2804 -0.8270
 9994TIP3    H229922   7.226   3.570   4.374 -1.0785 -1.1816 -0.1910
 9995TIP3   OH229923   6.818   0.149   6.951  0.3437 -0.2693 -0.3145
 9995TIP3    H129924   6.737   0.160   6.900  0.9713  0.9798 -1.0518
 9995TIP3    H229925   6.850   0.062   6.925 -0.8387 -0.8495  0.1093
 9996TIP3   OH229926   7.727   3.256   6.551  0.1113  0.0695  0.3212
 9996TIP3    H129927   7.695   3.344   6.571 -1.2849 -0.6843  1.5197
 9996TIP3    H229928   7.813   3.251   6.592 -0.6190  0.2380  1.8879
 9997TIP3   OH229929   0.641   1.748   4.646 -0.6619 -0.4225  0.5133
 9997TIP3    H129930   0.597   1.736   4.562  1.4535 -0.0783 -0.6873
 9997TIP3    H229931   0.690   1.667   4.660  0.0534  0.0395  0.7451
 9998TIP3   OH229932   7.045   2.218   5.042  0.2861  0.4166  0.1415
 9998TIP3    H129933   7.081   2.213   5.130  0.1872  1.6808  0.2578
 9998TIP3    H229934   7.121   2.209   4.984  0.2669 -1.1729  0.3241
 9999TIP3   OH229935   0.619   1.521   6.356  0.5036  0.3033 -0.2023
 9999TIP3    H129936   0.564   1.443   6.357  0.9120  0.0195  0.3309
 9999TIP3    H229937   0.568   1.588   6.402  1.0398 -0.2583  1.2303
10000TIP3   OH229938   0.758   1.092   5.274  0.2613 -0.6891 -0.1445
10000TIP3    H129939   0.663   1.102   5.286  0.0635 -0.1525 -1.9819
10000TIP3    H229940   0.796   1.131   5.353 -1.0596 -1.9660  1.1737
10001TIP3   OH229941   1.773   0.369   6.053  0.0489 -0.3663  0.5434
10001TIP3    H129942   1.692   0.376   6.104 -0.1546  0.8052  0.0721
10001TIP3    H229943   1.754   0.300   5.989 -1.3376  1.3214 -0.9133
10002TIP3   OH229944   1.092   0.302   4.331  0.1313  0.5250 -0.1971
10002TIP3    H129945   1.039   0.377   4.303 -2.9536 -1.4770  0.0458
10002TIP3    H229946   1.106   0.251   4.251  2.7047  1.6017 -0.4661
10003TIP3   OH229947   1.051   1.451   6.391  0.4377 -0.4507  0.0743
10003TIP3    H129948   1.109   1.499   6.332 -0.3767  1.8962  1.0983
10003TIP3    H229949   0.971   1.504   6.393 -0.8550 -2.3834  0.5190
10004TIP3   OH229950   0.794   2.453   6.443 -0.2007  0.1465  0.1961
10004TIP3    H129951   0.700   2.446   6.460 -0.6374 -0.5827 -2.3635
10004TIP3    H229952   0.830   2.368   6.469 -0.3171  0.2805  0.7884
10005TIP3   OH229953   6.788   1.784   6.248  0.1211 -0.0439 -0.2141
10005TIP3    H129954   6.695   1.803   6.262  0.1082 -1.0967  1.2248
10005TIP3    H229955   6.833   1.865   6.272 -0.3869  0.3675 -0.6180
10006TIP3   OH229956   0.070   0.259   2.258  0.6045  0.2243  0.2759
10006TIP3    H129957   0.005   0.231   2.322  0.6832  1.5030  0.9254
10006TIP3    H229958   0.027   0.245   2.173 -0.4392  0.8499  0.6961
10007TIP3   OH229959   7.389   2.292   5.962  0.0511 -0.0494 -0.3177
10007TIP3    H129960   7.352   2.339   5.887 -1.0076 -0.8466 -0.3075
10007TIP3    H229961   7.432   2.360   6.013 -1.0187  0.8444 -0.5636
10008TIP3   OH229962   2.938   2.494   4.829  0.2073 -0.3163  0.2035
10008TIP3    H129963   2.874   2.563   4.811  0.6893 -0.0395 -0.4818
10008TIP3    H229964   2.997   2.497   4.754  0.9470 -0.6550  0.7688
10009TIP3   OH229965   5.462   0.222   6.571 -0.1448 -0.1907 -0.3713
10009TIP3    H129966   5.435   0.145   6.521  2.1622 -0.1969 -1.7199
10009TIP3    H229967   5.501   0.280   6.505  0.2084  1.1318  0.9832
10010TIP3   OH229968   8.162   0.242   4.905  0.7816  0.2416 -0.3752
10010TIP3    H129969   8.143   0.157   4.866  1.8228  0.0114 -0.3839
10010TIP3    H229970   8.250   0.263   4.875  0.1600  1.7855 -1.1930
10011TIP3   OH229971   0.798   5.300   1.563 -0.3569  0.0439 -0.6322
10011TIP3    H129972   0.718   5.276   1.515  0.3298 -1.4717 -1.0569
10011TIP3    H229973   0.779   5.275   1.654 -0.8511  0.9147 -0.4892
10012TIP3   OH229974   3.332   6.540   0.858  0.1036 -0.7297  0.8020
10012TIP3    H129975   3.289   6.463   0.894 -1.1028  0.1260  1.2368
10012TIP3    H229976   3.321   6.607   0.926 -0.1860  0.2464 -0.1913
10013TIP3   OH229977   3.141   7.144   0.741 -0.1802 -0.1536  0.3756
10013TIP3    H129978   3.116   7.159   0.649  1.2967  0.5100  0.0665
10013TIP3    H229979   3.144   7.232   0.779 -1.1220 -0.4508  1.1654
10014TIP3   OH229980   2.508   0.589   0.482 -0.1609 -0.6166  0.1245
10014TIP3    H129981   2.594   0.627   0.499  0.0878 -1.1574  0.0925
10014TIP3    H229982   2.447   0.662   0.492  0.4176  0.0401 -1.0205
10015TIP3   OH229983   8.350   1.100   6.803 -0.2361  0.2359  0.1873
10015TIP3    H129984   8.280   1.099   6.738  2.1286  2.4893 -2.5343
10015TIP3    H229985   8.353   1.191   6.833  2.4959  0.5379 -0.8719
10016TIP3   OH229986   1.053   6.684   0.493 -0.2620  0.4829  0.0704
10016TIP3    H129987   0.973   6.737   0.499 -0.8558 -0.4416  0.4896
10016TIP3    H229988   1.032   6.604   0.542  0.4387 -0.3538 -0.9839
10017TIP3   OH229989   8.229   3.875   5.454  0.0970  0.5971 -0.3468
10017TIP3    H129990   8.207   3.868   5.547 -0.0265 -1.5449 -0.4992
10017TIP3    H229991   8.323   3.857   5.451  0.8187  4.0416 -0.3057
10018TIP3   OH229992   0.091   2.019   5.029  0.0865 -0.4695  0.0312
10018TIP3    H129993   0.019   2.059   5.079 -0.3439  0.6271 -1.4310
10018TIP3    H229994   0.159   2.004   5.094 -1.1593 -0.7905  1.2981
10019TIP3   OH229995   4.355   3.794   5.883 -0.1317 -0.0468  0.1996
10019TIP3    H129996   4.371   3.884   5.910  0.6103  0.1755 -0.9381
10019TIP3    H229997   4.344   3.799   5.788 -0.8217 -1.0506  0.2176
10020TIP3   OH229998   6.218   1.330   5.122  0.1593 -0.2243 -0.3159
10020TIP3    H129999   6.214   1.369   5.034  3.5107 -0.9790 -0.8693
10020TIP3    H230000   6.134   1.352   5.161 -0.1591  2.9470 -2.5484
10021TIP3   OH230001   6.131   1.409   4.859 -0.4766 -0.7865  0.2716
10021TIP3    H130002   6.105   1.325   4.822 -0.3483 -1.1285  0.9624
10021TIP3    H230003   6.116   1.472   4.788 -2.7021 -1.0368  0.5020
10022TIP3   OH230004   0.215   1.304   3.881  0.3725 -0.1143 -0.5145
10022TIP3    H130005   0.188   1.388   3.843  2.3188  0.1928 -1.2807
10022TIP3    H230006   0.159   1.239   3.838  0.1140  0.6100 -1.2843
10023TIP3   OH230007   4.113   1.424   5.831  0.5066 -0.0284 -0.1754
10023TIP3    H130008   4.020   1.429   5.853  0.5395 -1.0592  0.2044
10023TIP3    H230009   4.146   1.351   5.883  1.1271 -0.8360 -1.6758
10024TIP3   OH230010   2.598   5.137   0.753 -0.2392  0.5486  0.2102
10024TIP3    H130011   2.619   5.230   0.753 -0.5378  0.6240  0.9860
10024TIP3    H230012   2.648   5.101   0.680  0.8854  1.0913  0.6884
10025TIP3   OH230013   7.201   7.715   5.510  0.3799 -0.1448 -0.2222
10025TIP3    H130014   7.279   7.709   5.455  3.1814  3.0862  3.1541
10025TIP3    H230015   7.148   7.784   5.468  2.3036  2.0115  0.8151
10026TIP3   OH230016   0.318   0.995   5.698  0.2395 -0.1253 -0.1227
10026TIP3    H130017   0.274   0.996   5.613  3.4806 -0.4676 -1.8691
10026TIP3    H230018   0.310   0.905   5.729 -0.6530 -0.0799 -0.2103
10027TIP3   OH230019   1.329   1.697   3.666  0.0507  0.1810  0.0993
10027TIP3    H130020   1.379   1.753   3.607  0.6910 -0.9765 -0.4757
10027TIP3    H230021   1.263   1.755   3.705  1.0639  1.4399 -0.0543
10028TIP3   OH230022   6.338   1.962   2.671 -0.1942  0.0140  0.0610
10028TIP3    H130023   6.279   1.887   2.680 -0.5965  0.2643 -0.5105
10028TIP3    H230024   6.285   2.030   2.630 -0.2650  1.1404  1.9684
10029TIP3   OH230025   2.464   7.859   0.639  0.5570 -0.2717 -0.2250
10029TIP3    H130026   2.427   7.804   0.570 -0.0711  0.6649 -0.6358
10029TIP3    H230027   2.529   7.914   0.595  1.0159 -0.5111  0.1446
10030TIP3   OH230028   7.662   7.207   0.244 -0.5324 -0.3734 -0.2838
10030TIP3    H130029   7.665   7.190   0.338  0.8807 -0.8575 -0.4193
10030TIP3    H230030   7.569   7.226   0.227 -0.6646  0.4941  1.3307
10031TIP3   OH230031   6.028   3.629   6.193 -0.2821  0.3269  0.0766
10031TIP3    H130032   6.068   3.560   6.247 -0.7791  0.6062  0.8112
10031TIP3    H230033   5.943   3.644   6.234 -1.1334 -0.2383 -1.4455
10032TIP3   OH230034   7.383   7.984   5.014  0.2951  0.0176  0.3146
10032TIP3    H130035   7.448   8.010   5.079  0.1443 -1.5889  1.1329
10032TIP3    H230036   7.415   7.900   4.980 -1.1510 -0.6097  0.4746
10033TIP3   OH230037   6.746   1.731   5.479  0.1011 -0.0325  0.1252
10033TIP3    H130038   6.782   1.762   5.562 -1.3313  0.5228  0.5502
10033TIP3    H230039   6.752   1.807   5.420 -1.3744  0.4158  0.5259
10034TIP3   OH230040   7.591   4.592   6.445  0.4305 -0.0781 -0.6572
10034TIP3    H130041   7.586   4.679   6.406  1.8252 -1.1798 -3.5006
10034TIP3    H230042   7.502   4.575   6.478  0.8160  3.4349  2.4679
10035TIP3   OH230043   0.239   1.834   1.938  0.1226 -0.0272  0.6465
10035TIP3    H130044   0.292   1.852   1.860 -0.1702 -0.6883  0.2916
10035TIP3    H230045   0.208   1.920   1.965 -0.8732  0.0913 -0.7663
10036TIP3   OH230046   3.570   6.483   0.123 -0.0136 -0.5031  0.3455
10036TIP3    H130047   3.626   6.551   0.085 -0.1857  0.0983  1.1552
10036TIP3    H230048   3.498   6.475   0.061 -0.4462  0.6878  0.6840
10037TIP3   OH230049   7.126   7.293   4.725  0.1764  0.5146 -0.3756
10037TIP3    H130050   7.164   7.229   4.785  0.0011  0.7398 -0.0203
10037TIP3    H230051   7.080   7.240   4.659  1.2783  0.2423 -0.9346
10038TIP3   OH230052   0.426   3.027   5.109 -0.2384 -0.2735  0.2513
10038TIP3    H130053   0.383   3.112   5.124  0.9550  0.4133 -0.2075
10038TIP3    H230054   0.499   3.047   5.051  0.6891 -1.4480  0.9905
10039TIP3   OH230055   7.072   1.000   6.865 -0.5472 -0.2062 -0.2800
10039TIP3    H130056   7.121   0.923   6.839 -0.8656 -0.5162  0.0381
10039TIP3    H230057   6.981   0.970   6.871 -0.3350 -0.4061  2.2774
10040TIP3   OH230058   0.325   2.801   4.295 -0.1040 -0.1038  0.6223
10040TIP3    H130059   0.353   2.812   4.386 -1.2519 -0.8878  1.0778
10040TIP3    H230060   0.251   2.740   4.299 -1.8881  1.9165 -0.5563
10041TIP3   OH230061   6.566   1.995   6.101 -0.1832  0.4315 -0.4727
10041TIP3    H130062   6.631   1.968   6.036 -0.2547 -2.4011  0.5844
10041TIP3    H230063   6.613   2.059   6.155  1.4081 -0.7476 -0.4140
10042TIP3   OH230064   0.158   1.767   4.710 -0.9947  0.5664  0.7567
10042TIP3    H130065   0.191   1.756   4.621 -0.7186 -3.0690  1.2420
10042TIP3    H230066   0.065   1.747   4.704 -1.1614  1.1858  1.1519
10043TIP3   OH230067   6.486   3.127   5.980 -0.0054  0.1965 -0.5044
10043TIP3    H130068   6.405   3.078   5.967  0.4122 -0.3779 -0.9859
10043TIP3    H230069   6.555   3.060   5.978  0.5691  0.8005 -1.2086
10044TIP3   OH230070   1.766   1.886   4.179  0.2256  0.1103 -0.4565
10044TIP3    H130071   1.674   1.911   4.178  0.1799  0.0385  0.7119
10044TIP3    H230072   1.781   1.844   4.095 -0.2044  2.2548 -1.6395
10045TIP3   OH230073   5.858   4.985   6.748  0.1959  0.3039  0.2660
10045TIP3    H130074   5.946   4.994   6.784  0.6169 -1.8836 -0.1501
10045TIP3    H230075   5.801   4.981   6.824  0.5122  1.0241  0.5486
10046TIP3   OH230076   1.178   1.572   5.590 -0.4671  0.4205 -0.4467
10046TIP3    H130077   1.235   1.547   5.517  0.3252 -0.2334  0.3849
10046TIP3    H230078   1.210   1.657   5.618 -0.8732  0.7460 -0.9515
10047TIP3   OH230079   6.929   0.575   5.815  0.7954  0.4153 -0.0060
10047TIP3    H130080   6.961   0.494   5.853  0.1002  0.5067  0.7850
10047TIP3    H230081   7.000   0.638   5.827  0.7558  0.3194  0.7289
10048TIP3   OH230082   2.809   1.884   4.004 -0.0411 -0.4623 -0.0690
10048TIP3    H130083   2.718   1.886   4.035  0.6264 -0.4621  1.9030
10048TIP3    H230084   2.822   1.794   3.975 -0.3745 -0.7116  0.5503
10049TIP3   OH230085   0.616   0.788   5.135  0.3276 -0.0653 -0.5586
10049TIP3    H130086   0.643   0.714   5.080  0.9454 -0.7730  0.6814
10049TIP3    H230087   0.681   0.855   5.117  0.0344  0.0298 -1.3299
10050TIP3   OH230088   1.116   2.207   6.714  0.3101  0.5870 -0.4573
10050TIP3    H130089   1.211   2.205   6.715  0.2919 -0.5283 -0.3977
10050TIP3    H230090   1.089   2.123   6.751 -0.6933  0.2807 -1.8375
10051TIP3   OH230091   5.419   7.289   0.782  0.2274  0.1542  0.1554
10051TIP3    H130092   5.514   7.286   0.775  0.2536  1.0602  0.1096
10051TIP3    H230093   5.402   7.328   0.867 -0.1071 -0.4803  0.3815
10052TIP3   OH230094   1.966   3.294   6.842  0.3663  0.8038  0.1202
10052TIP3    H130095   2.036   3.235   6.868 -2.2421 -1.9381  1.2688
10052TIP3    H230096   1.948   3.271   6.751 -0.0115  0.4101  0.2862
10053TIP3   OH230097   6.449   3.555   5.896  0.6978 -0.5461  0.1588
10053TIP3    H130098   6.508   3.558   5.971  1.6448 -0.7623 -0.5783
10053TIP3    H230099   6.364   3.579   5.933  1.3490  0.3836  1.1096
10054TIP3   OH230100   3.935   5.816   2.148  0.7524  0.6139  0.3160
10054TIP3    H130101   4.017   5.826   2.196  0.4799  1.6995  0.5707
10054TIP3    H230102   3.884   5.753   2.199  1.3195  0.1224  0.2868
10055TIP3   OH230103   0.700   1.814   6.126  0.2502 -0.3519  0.3241
10055TIP3    H130104   0.764   1.796   6.195  1.4879  0.8382 -0.4884
10055TIP3    H230105   0.753   1.841   6.051 -1.0657 -1.7165 -1.1355
10056TIP3   OH230106   1.674   3.072   6.909 -0.1918  0.0019  0.0929
10056TIP3    H130107   1.597   3.016   6.902 -0.4205  0.2856  0.3726
10056TIP3    H230108   1.745   3.019   6.871 -0.5337 -0.2292 -0.2225
10057TIP3   OH230109   2.227   6.234   0.056 -0.3963 -0.7858 -0.2669
10057TIP3    H130110   2.248   6.297  -0.013  1.6154 -0.2301  0.8165
10057TIP3    H230111   2.273   6.154   0.031  0.1725 -0.6456  0.3153
10058TIP3   OH230112   1.744   1.413   6.167  0.5280 -0.8449 -0.1257
10058TIP3    H130113   1.733   1.335   6.220  2.0907 -0.1602  1.2806
10058TIP3    H230114   1.831   1.446   6.191  0.4381  0.5945 -1.6523
10059TIP3   OH230115   5.014   6.480   0.882  0.1033 -0.2187  0.5508
10059TIP3    H130116   4.954   6.494   0.809  0.7949 -0.0226  0.0242
10059TIP3    H230117   4.978   6.403   0.928 -0.7161  0.0763  0.4144
10060TIP3   OH230118   3.855   2.055   5.751  0.0081 -0.2030  0.2337
10060TIP3    H130119   3.827   1.966   5.773  0.8375 -0.2517  1.1240
10060TIP3    H230120   3.937   2.067   5.800 -0.0576  1.0237  0.0554
10061TIP3   OH230121   0.183   2.993   6.321 -0.0538  0.0932 -0.2797
10061TIP3    H130122   0.268   2.951   6.333 -0.2854 -0.2780  0.0476
10061TIP3    H230123   0.152   2.962   6.236 -0.7897 -1.3681  0.5202
10062TIP3   OH230124   6.095   4.380   0.862 -0.3793  0.4026  0.0193
10062TIP3    H130125   6.105   4.327   0.942  0.4160 -0.4947 -0.6651
10062TIP3    H230126   6.005   4.365   0.834 -0.7608  0.9652  0.9125
10063TIP3   OH230127   3.269   7.441   0.649  0.1756  0.1326  0.4582
10063TIP3    H130128   3.334   7.510   0.664  1.5497 -1.2028  0.7835
10063TIP3    H230129   3.316   7.359   0.666 -1.5992 -0.8696  0.6810
10064TIP3   OH230130   8.380   0.447   0.359  0.1778  0.1304  0.0057
10064TIP3    H130131   8.430   0.436   0.441  3.3469  1.3679 -1.6494
10064TIP3    H230132   8.380   0.541   0.344  0.0190 -0.1149 -1.6130
10065TIP3   OH230133   0.731   3.278   5.822 -0.1749  0.9105  0.7682
10065TIP3    H130134   0.751   3.203   5.765  2.5582 -0.0187  2.8255
10065TIP3    H230135   0.706   3.348   5.762 -2.2947 -1.4647 -1.2497
10066TIP3   OH230136   1.384   1.769   5.615  0.1317  0.3257 -0.4100
10066TIP3    H130137   1.436   1.721   5.680 -0.9324 -0.6877 -0.2913
10066TIP3    H230138   1.439   1.772   5.537  0.9678  0.5638  0.1875
10067TIP3   OH230139   4.678   5.262   2.264 -0.6515  0.5020  0.1942
10067TIP3    H130140   4.747   5.327   2.276  1.5679 -1.9185  0.9948
10067TIP3    H230141   4.720   5.178   2.281 -3.1672 -1.2779 -1.8323
10068TIP3   OH230142   2.419   1.653   5.798  0.1615 -0.0871  0.1986
10068TIP3    H130143   2.385   1.602   5.872 -0.5112  0.4787  0.2901
10068TIP3    H230144   2.362   1.630   5.725 -0.5118  0.9506  0.3798
10069TIP3   OH230145   1.000   3.933   5.290  0.2114  0.6343 -0.0206
10069TIP3    H130146   1.046   3.887   5.219  1.0161  1.0409  0.2194
10069TIP3    H230147   1.035   3.895   5.370 -0.7221  0.1548  0.1578
10070TIP3   OH230148   1.681   3.833   6.145 -0.6981 -0.1461 -0.0817
10070TIP3    H130149   1.679   3.748   6.102  2.0961 -0.7863  0.9518
10070TIP3    H230150   1.774   3.850   6.160 -1.0357  3.9925 -2.0015
10071TIP3   OH230151   4.119   6.417   0.354 -0.2478 -0.1877  0.3320
10071TIP3    H130152   4.184   6.486   0.337 -0.2968  0.2292  1.8005
10071TIP3    H230153   4.037   6.465   0.369 -0.4287 -0.6042  0.6712
10072TIP3   OH230154   3.913   4.613   0.964  0.2056 -0.4530 -0.3345
10072TIP3    H130155   3.823   4.604   0.933  0.7612 -0.5498 -1.9697
10072TIP3    H230156   3.924   4.706   0.982  0.0239 -0.3288 -0.8762
10073TIP3   OH230157   3.633   7.429   0.963  0.7460 -0.0589  0.3860
10073TIP3    H130158   3.677   7.513   0.976  0.2569  0.4322 -0.9711
10073TIP3    H230159   3.554   7.434   1.017  1.7668 -0.5030  1.9557
10074TIP3   OH230160   0.244   1.021   6.615 -0.0918  0.3151 -0.2742
10074TIP3    H130161   0.188   0.949   6.645  1.0086  0.2397  1.7301
10074TIP3    H230162   0.197   1.100   6.639  0.7414  0.2541  1.6895
10075TIP3   OH230163   6.183   7.539   0.785  0.2718  0.2178 -0.1449
10075TIP3    H130164   6.255   7.599   0.769  0.8720 -0.7988 -1.2903
10075TIP3    H230165   6.150   7.517   0.698 -0.7427 -0.1424  0.3234
10076TIP3   OH230166   6.744   2.618   6.244  0.4312 -0.0710 -0.0406
10076TIP3    H130167   6.794   2.641   6.322  0.3375  1.8329 -0.5147
10076TIP3    H230168   6.684   2.549   6.272  2.3449 -1.4243  0.8682
10077TIP3   OH230169   7.082   6.209   1.761  0.0124 -0.0899  0.1281
10077TIP3    H130170   7.073   6.299   1.730 -0.4899 -0.1838  0.0026
10077TIP3    H230171   6.993   6.174   1.760  0.2654 -0.7438 -0.3134
10078TIP3   OH230172   8.006   1.558   6.653  0.4401  0.0624  0.0046
10078TIP3    H130173   8.000   1.463   6.659  0.6214 -0.0689 -1.7061
10078TIP3    H230174   8.092   1.579   6.689 -0.1619 -0.2876  1.6723
10079TIP3   OH230175   2.416   2.207   5.277  0.1448  0.2814  0.1914
10079TIP3    H130176   2.459   2.263   5.342 -0.4282 -0.0034  0.8265
10079TIP3    H230177   2.488   2.175   5.222  0.9883 -1.4979  2.2484
10080TIP3   OH230178   1.446   2.120   6.313  0.2486 -0.1730 -0.3227
10080TIP3    H130179   1.500   2.074   6.249 -0.3018 -0.6686 -0.4309
10080TIP3    H230180   1.425   2.053   6.378  0.6533  0.2796  0.2885
10081TIP3   OH230181   6.124   7.620   1.986  0.0300  0.2605 -0.1949
10081TIP3    H130182   6.151   7.711   1.989  0.6161  0.0767  0.1605
10081TIP3    H230183   6.139   7.587   2.075 -1.7960  0.2821  0.1345
10082TIP3   OH230184   3.895   0.500   5.423  0.5429  0.5204  0.1148
10082TIP3    H130185   3.808   0.461   5.433 -0.4151  3.0584  2.0991
10082TIP3    H230186   3.952   0.447   5.479 -0.1653  0.2038  0.5371
10083TIP3   OH230187   4.367   5.320   1.036 -1.3536 -0.4987  0.5412
10083TIP3    H130188   4.347   5.350   1.124  1.8521  1.3095  0.7083
10083TIP3    H230189   4.289   5.344   0.985 -1.7402  1.8129  2.1221
10084TIP3   OH230190   2.804   1.701   5.627 -0.4719  0.5749 -0.1053
10084TIP3    H130191   2.849   1.676   5.547 -0.4592  0.8973 -0.2002
10084TIP3    H230192   2.874   1.720   5.690 -0.4808 -1.1899  0.4636
10085TIP3   OH230193   5.920   5.674   2.548 -0.5556  0.1666 -0.6878
10085TIP3    H130194   5.922   5.589   2.591  3.6837 -1.3011 -3.4161
10085TIP3    H230195   5.840   5.673   2.495 -1.3788 -1.4531  0.5758
10086TIP3   OH230196   5.308   6.573   1.022 -0.1095 -0.1118 -0.4603
10086TIP3    H130197   5.229   6.532   1.055  1.2087 -0.7344  2.0180
10086TIP3    H230198   5.322   6.533   0.936 -2.4028 -0.0477 -0.8912
10087TIP3   OH230199   3.130   7.710   0.390 -0.1055 -0.0328  0.5451
10087TIP3    H130200   3.111   7.629   0.437  0.1662 -0.8640 -0.7474
10087TIP3    H230201   3.178   7.682   0.312  0.1781  1.3922  0.1909
10088TIP3   OH230202   7.192   1.712   0.623 -0.5118  0.1665 -0.1661
10088TIP3    H130203   7.252   1.778   0.590 -1.2669  0.3958 -1.0988
10088TIP3    H230204   7.247   1.636   0.640 -0.2494 -0.3211 -2.9967
10089TIP3   OH230205   2.017   3.767   3.819  0.1892 -0.1888  0.3432
10089TIP3    H130206   1.950   3.820   3.775  0.9719 -0.8918 -1.7487
10089TIP3    H230207   1.967   3.699   3.865 -0.7366  1.5062  1.9272
10090TIP3   OH230208   1.231   4.446   4.534  0.9214  0.2562  0.0293
10090TIP3    H130209   1.236   4.505   4.459  0.6176 -1.0081 -1.0203
10090TIP3    H230210   1.318   4.406   4.540  1.5308  1.7527  1.5542
10091TIP3   OH230211   6.840   5.992   0.817 -0.0564  0.7221 -0.4249
10091TIP3    H130212   6.893   6.054   0.868 -0.4409  1.5779 -1.0616
10091TIP3    H230213   6.866   5.906   0.851  0.4521  1.2240  0.4948
10092TIP3   OH230214   0.784   2.126   5.675  0.1640  0.2441  0.2846
10092TIP3    H130215   0.806   2.109   5.584 -0.5846 -0.1996  0.1768
10092TIP3    H230216   0.778   2.039   5.715  0.8873  0.4557  0.8513
10093TIP3   OH230217   0.458   1.712   6.493 -0.3053  0.0835  0.1060
10093TIP3    H130218   0.393   1.747   6.433  1.4717 -0.1334 -2.0115
10093TIP3    H230219   0.496   1.789   6.535  0.6408  0.4721 -1.4150
10094TIP3   OH230220   0.626   1.893   6.614 -0.2098  0.0141 -0.9414
10094TIP3    H130221   0.645   1.986   6.607  1.4975 -0.3446 -1.4770
10094TIP3    H230222   0.605   1.880   6.707 -1.2622  1.0575 -1.0269
10095TIP3   OH230223   3.830   7.408   0.341 -0.0855 -0.1327 -0.6604
10095TIP3    H130224   3.780   7.461   0.279 -0.2489 -0.8521 -1.1539
10095TIP3    H230225   3.869   7.339   0.287 -1.5020 -1.6976  0.2445
10096TIP3   OH230226   0.679   2.885   6.563  0.4576 -0.3253 -0.0533
10096TIP3    H130227   0.701   2.809   6.616  1.1519 -0.6499 -0.8003
10096TIP3    H230228   0.760   2.909   6.518  0.9372  2.4544  2.1228
10097TIP3   OH230229   5.312   6.651   0.505 -0.2506  0.3614 -0.0462
10097TIP3    H130230   5.330   6.736   0.546  2.5028 -0.3707  0.3975
10097TIP3    H230231   5.381   6.594   0.538 -2.4897 -2.2864  0.2676
10098TIP3   OH230232   4.561   5.778   1.748  0.4133 -0.3136 -0.1709
10098TIP3    H130233   4.502   5.711   1.713  0.7998 -0.8157  0.1197
10098TIP3    H230234   4.554   5.851   1.686  0.3775 -0.8227 -0.7729
10099TIP3   OH230235   0.921   2.919   5.780 -0.0349  0.1370  0.5473
10099TIP3    H130236   0.841   2.944   5.734 -0.5475 -1.9165  0.2610
10099TIP3    H230237   0.898   2.924   5.873 -0.3247  0.1101  0.4776
10100TIP3   OH230238   8.026   1.513   5.054  0.1834  0.2386 -0.2726
10100TIP3    H130239   8.111   1.486   5.019 -0.6053  1.0582 -3.0118
10100TIP3    H230240   7.980   1.549   4.978 -2.4734  0.1588  1.2457
10101TIP3   OH230241   4.519   6.632   0.599  0.2232 -0.4894 -0.5709
10101TIP3    H130242   4.538   6.707   0.655 -0.8303 -1.7603  1.5856
10101TIP3    H230243   4.425   6.640   0.580 -0.2961 -2.1403  1.1216
10102TIP3   OH230244   7.821   3.829   6.693  0.4750  0.1754 -0.8518
10102TIP3    H130245   7.801   3.866   6.779 -1.6871  2.2232 -2.1674
10102TIP3    H230246   7.892   3.766   6.710  2.1245  2.6342  1.9588
10103TIP3   OH230247   4.615   6.481   3.255  0.0851 -0.2160 -0.3940
10103TIP3    H130248   4.693   6.508   3.208  0.1842  0.4292  0.1442
10103TIP3    H230249   4.560   6.440   3.188  0.8689 -0.6559 -0.7725
10104TIP3   OH230250   5.562   7.497   2.435  0.2021 -0.3117  0.4144
10104TIP3    H130251   5.473   7.524   2.411 -0.3588 -1.2200  1.3891
10104TIP3    H230252   5.568   7.519   2.528  1.1455  0.1245  0.2463
10105TIP3   OH230253   8.287   1.881   6.634 -0.6181 -0.1676  0.0084
10105TIP3    H130254   8.299   1.891   6.540 -2.5741  1.5678 -0.0956
10105TIP3    H230255   8.320   1.794   6.653  0.4046 -0.2960 -2.1775
10106TIP3   OH230256   0.850   2.867   5.444 -0.4921 -0.4207 -0.1749
10106TIP3    H130257   0.856   2.823   5.359  1.4044 -2.2331  0.8511
10106TIP3    H230258   0.819   2.799   5.504 -0.3071  0.4207  0.8852
10107TIP3   OH230259   4.186   6.195   0.173 -0.0179 -0.4612  0.4731
10107TIP3    H130260   4.184   6.259   0.244 -1.1765 -0.3601  0.3618
10107TIP3    H230261   4.094   6.179   0.153  0.3012 -0.6938 -0.8243
10108TIP3   OH230262   2.165   1.285   4.033  0.3400 -0.0615 -0.1184
10108TIP3    H130263   2.088   1.327   3.996  0.7580  0.7401 -0.0840
10108TIP3    H230264   2.161   1.195   4.000 -1.4013 -0.4581  1.0743
10109TIP3   OH230265   5.719   7.317   1.377  0.4390 -0.8543 -0.3376
10109TIP3    H130266   5.752   7.328   1.466  0.8255  1.7554 -0.7597
10109TIP3    H230267   5.625   7.332   1.383  0.6453  0.5880 -0.5510
10110TIP3   OH230268   2.936   7.101   1.109 -0.7431 -0.2959 -0.0096
10110TIP3    H130269   2.901   7.025   1.155 -0.8280 -1.3182 -1.7352
10110TIP3    H230270   3.009   7.066   1.057  0.0110  1.0265  0.1376
10111TIP3   OH230271   4.424   5.469   0.650 -0.0803 -0.2981 -0.3041
10111TIP3    H130272   4.348   5.516   0.682 -1.2643 -1.8286 -0.8190
10111TIP3    H230273   4.389   5.392   0.606  1.7500 -0.9659 -0.6728
10112TIP3   OH230274   4.847   7.260   1.252  0.4242 -0.1110 -0.1274
10112TIP3    H130275   4.837   7.295   1.340 -0.4011 -0.6826  0.0146
10112TIP3    H230276   4.895   7.178   1.263 -1.0736 -0.9938 -0.0190
10113TIP3   OH230277   2.897   1.135   6.587  0.8157  0.3826  0.2109
10113TIP3    H130278   2.816   1.091   6.613 -0.2951  1.6336 -1.0275
10113TIP3    H230279   2.949   1.066   6.545 -0.5613  0.0582 -1.0012
10114TIP3   OH230280   5.688   5.778   0.744  0.4083  0.4129  0.0375
10114TIP3    H130281   5.743   5.777   0.665 -0.6882 -1.7815 -0.7393
10114TIP3    H230282   5.628   5.705   0.732 -0.1647  0.4087  2.6735
10115TIP3   OH230283   0.829   2.349   5.977 -0.2469  0.3214  0.0461
10115TIP3    H130284   0.770   2.297   6.031  1.8700 -1.9109  0.2871
10115TIP3    H230285   0.828   2.436   6.016 -1.7339 -0.2525  1.3152
10116TIP3   OH230286   2.347   6.111   1.961  0.4687 -0.1423 -0.4556
10116TIP3    H130287   2.396   6.183   2.000 -0.1461 -1.0460  2.0382
10116TIP3    H230288   2.259   6.119   1.997 -0.8296  0.4612 -3.5943
10117TIP3   OH230289   4.039   7.330   0.768 -0.2580  0.0305  0.0110
10117TIP3    H130290   4.016   7.344   0.676  0.3741  0.9121 -0.0186
10117TIP3    H230291   4.122   7.377   0.779  0.0288 -0.6680  0.8524
10118TIP3   OH230292   3.863   6.775   0.618  0.1572 -0.4387  0.3988
10118TIP3    H130293   3.814   6.857   0.634  0.0168 -0.6213  0.9230
10118TIP3    H230294   3.929   6.799   0.554  0.6867  0.3130  1.2027
10119TIP3   OH230295   4.666   7.178   0.194 -0.7456 -0.0429 -0.0864
10119TIP3    H130296   4.619   7.203   0.273 -0.5729  0.0867 -0.0243
10119TIP3    H230297   4.613   7.108   0.156 -0.1743 -0.9565  0.7927
10120TIP3   OH230298   0.138   2.682   6.466  0.5298  0.2208 -0.0059
10120TIP3    H130299   0.156   2.606   6.410 -2.7931 -0.0555 -0.8590
10120TIP3    H230300   0.223   2.706   6.503  1.8569 -3.1316 -0.6954
10121TIP3   OH230301   3.603   6.719   0.388 -0.3178  0.5186 -0.8658
10121TIP3    H130302   3.538   6.789   0.396 -0.1421  0.6950 -0.9941
10121TIP3    H230303   3.563   6.645   0.434 -0.5851  0.6438 -0.8932
10122TIP3   OH230304   4.378   6.327   2.042  0.1974 -0.2220 -0.7027
10122TIP3    H130305   4.371   6.295   2.132  0.5756  0.5571 -0.3899
10122TIP3    H230306   4.363   6.250   1.988  0.0747 -0.7179  0.0284
10123TIP3   OH230307   4.200   5.910   0.037  0.1234  0.5519 -0.1324
10123TIP3    H130308   4.226   6.002   0.030  0.5772  0.6577  2.6323
10123TIP3    H230309   4.108   5.913   0.060  0.3566  0.3195  0.8228
10124TIP3   OH230310   1.577   2.727   6.519 -0.2328  0.4683  0.2979
10124TIP3    H130311   1.542   2.716   6.431 -0.4208 -3.1082  0.7215
10124TIP3    H230312   1.671   2.715   6.509 -0.2727 -0.1020  0.5999
10125TIP3   OH230313   1.926   1.314   5.553  0.5644  0.1923 -0.1890
10125TIP3    H130314   1.869   1.259   5.606  0.6884 -0.7974 -1.0812
10125TIP3    H230315   2.004   1.261   5.538  1.3470  1.1871  0.2335
10126TIP3   OH230316   2.257   1.517   5.982 -0.6108  0.4487 -0.5396
10126TIP3    H130317   2.203   1.456   5.931 -1.3153  1.0474 -0.5087
10126TIP3    H230318   2.315   1.460   6.032 -2.6893 -0.2910  1.0803
10127TIP3   OH230319   2.004   0.696   6.446  0.6029  0.2694  0.5611
10127TIP3    H130320   2.023   0.790   6.445  1.3639  0.1172  0.7278
10127TIP3    H230321   1.908   0.692   6.442  0.6198  1.0129 -1.5430
10128TIP3   OH230322   8.190   3.249   6.425  0.1132  0.3575 -0.2523
10128TIP3    H130323   8.265   3.191   6.443  0.7857  0.9417 -1.1301
10128TIP3    H230324   8.117   3.189   6.410  0.4791 -0.2315  0.2776
10129TIP3   OH230325   0.481   3.300   5.351 -0.3505  0.0288  0.3064
10129TIP3    H130326   0.505   3.207   5.358 -0.0606 -0.0314 -1.2955
10129TIP3    H230327   0.401   3.299   5.297  0.5161  0.8085 -1.0164
10130TIP3   OH230328   0.443   1.841   6.188  0.2597  0.3097 -0.8268
10130TIP3    H130329   0.421   1.759   6.142 -0.9412  0.7705 -1.0838
10130TIP3    H230330   0.538   1.848   6.179  0.3185 -0.8114 -1.2247
10131TIP3   OH230331   4.334   6.195   1.674 -0.5830 -1.1465 -0.4508
10131TIP3    H130332   4.296   6.173   1.759  0.4786 -0.4312  0.2322
10131TIP3    H230333   4.261   6.230   1.623 -1.1844 -1.3643  0.2457
10132TIP3   OH230334   3.528   5.135   1.638 -0.4414 -0.2329 -0.4140
10132TIP3    H130335   3.442   5.094   1.633 -0.5592  0.0182 -0.4444
10132TIP3    H230336   3.546   5.164   1.549  0.4150 -1.8003 -0.7656
10133TIP3   OH230337   3.690   4.446   1.630  0.2066  0.0525  0.4130
10133TIP3    H130338   3.755   4.418   1.566 -1.6156 -1.9377 -0.5959
10133TIP3    H230339   3.701   4.386   1.704 -1.1578 -0.9588 -0.1902
10134TIP3   OH230340   2.094   2.731   5.021 -0.2534 -0.7891  0.4802
10134TIP3    H130341   2.094   2.693   4.933 -0.2700 -1.4225  0.7520
10134TIP3    H230342   2.027   2.681   5.069 -0.5491 -0.1622  0.7304
10135TIP3   OH230343   2.667   5.394   0.703  0.0495  0.2078 -0.1177
10135TIP3    H130344   2.683   5.465   0.765  2.4559 -1.1101  0.8433
10135TIP3    H230345   2.651   5.438   0.619  0.3593  1.9139  0.7155
10136TIP3   OH230346   2.420   3.464   4.778 -0.3284 -0.2515  0.3852
10136TIP3    H130347   2.503   3.502   4.750 -0.3823 -0.8287 -0.5795
10136TIP3    H230348   2.388   3.415   4.702 -1.1133 -0.7755  1.0293
10137TIP3   OH230349   3.381   6.711   1.078  0.3081 -0.2407 -0.0020
10137TIP3    H130350   3.385   6.726   1.172 -3.2224 -0.4517  0.2299
10137TIP3    H230351   3.471   6.690   1.053  1.1558 -0.8661  3.4371
10138TIP3   OH230352   0.151   2.578   5.908  0.1075  0.0429  0.7428
10138TIP3    H130353   0.213   2.630   5.858 -0.8888 -0.5621 -1.1661
10138TIP3    H230354   0.066   2.620   5.895 -0.9155 -2.6038 -1.7504
10139TIP3   OH230355   1.831   4.866   5.581 -0.3096 -0.4840 -0.4284
10139TIP3    H130356   1.914   4.819   5.572 -0.4674 -0.9446  0.5763
10139TIP3    H230357   1.841   4.918   5.661 -0.9583 -0.4778 -0.3468
10140TIP3   OH230358   7.990   3.049   6.429 -0.4708  0.4133 -0.0839
10140TIP3    H130359   8.033   2.979   6.379 -0.0209  0.8638 -0.3270
10140TIP3    H230360   7.907   3.063   6.383 -1.1738 -0.8796  0.7438
10141TIP3   OH230361   0.853   1.973   6.430  0.1516  0.1128 -0.4671
10141TIP3    H130362   0.861   2.026   6.351 -0.3559  1.3953  0.3300
10141TIP3    H230363   0.866   2.035   6.502  0.3863 -0.9982  0.4562
10142TIP3   OH230364   0.585   3.715   6.204  0.5960 -0.6446 -0.2042
10142TIP3    H130365   0.530   3.725   6.282  1.0942 -0.3106  0.1119
10142TIP3    H230366   0.673   3.704   6.239  1.0748  1.2019 -0.7450
10143TIP3   OH230367   0.993   3.803   6.788  0.2421 -0.2284 -0.1047
10143TIP3    H130368   1.088   3.790   6.785  0.7102  2.5317  1.2916
10143TIP3    H230369   0.963   3.743   6.856  1.0236 -1.0063 -0.4430
10144TIP3   OH230370   0.054   2.374   5.739 -0.1740  0.4425  0.0668
10144TIP3    H130371   0.124   2.341   5.794  0.3374  1.6897  0.1662
10144TIP3    H230372   0.048   2.311   5.667 -0.2476 -0.6982  1.0629
10145TIP3   OH230373   1.471   2.132   5.861 -0.1078 -0.4407 -0.1136
10145TIP3    H130374   1.382   2.102   5.875 -0.2426 -0.4156 -0.9071
10145TIP3    H230375   1.525   2.073   5.914 -0.6848  0.3048  1.3385
10146TIP3   OH230376   0.848   0.581   5.933 -0.6255  0.5505 -0.0576
10146TIP3    H130377   0.806   0.646   5.877  0.2113  0.7947 -0.4067
10146TIP3    H230378   0.922   0.549   5.882 -1.4656 -1.2421 -0.2070
10147TIP3   OH230379   0.204   2.581   5.635  0.4608  0.0967 -0.0010
10147TIP3    H130380   0.153   2.521   5.690 -0.6104 -1.3425 -2.4351
10147TIP3    H230381   0.292   2.544   5.635  0.2042 -0.5246 -0.1215
10148TIP3   OH230382   2.778   4.282   5.449 -0.2066  0.0435  0.2407
10148TIP3    H130383   2.726   4.352   5.409  0.4261  0.0680 -0.5513
10148TIP3    H230384   2.795   4.313   5.538  0.2546  1.0159 -0.1685
10149TIP3   OH230385   1.166   1.446   6.082  0.3810 -0.3982 -0.8066
10149TIP3    H130386   1.152   1.526   6.031  0.2783  0.1227  0.0391
10149TIP3    H230387   1.252   1.415   6.055  1.1258  0.8789  0.0403
10150TIP3   OH230388   0.003   2.039   4.779 -0.1309  0.1973 -0.0498
10150TIP3    H130389   0.024   2.030   4.872 -0.2725  0.9442  0.0528
10150TIP3    H230390   0.070   1.987   4.734  1.0007  1.2780  0.3642
10151TIP3   OH230391   4.104   7.626   0.340  0.1907  0.1907 -0.1763
10151TIP3    H130392   4.107   7.625   0.245  2.3378 -1.9631 -0.1382
10151TIP3    H230393   4.022   7.670   0.361 -0.8234 -0.2278 -3.0301
10152TIP3   OH230394   3.307   5.082   1.155 -0.0121  0.4151 -0.4909
10152TIP3    H130395   3.386   5.096   1.102  0.7851 -0.9034  0.2885
10152TIP3    H230396   3.234   5.101   1.096  0.8794  0.6468 -1.5373
10153TIP3   OH230397   2.861   5.009   5.762 -0.0615 -0.0200  0.4988
10153TIP3    H130398   2.825   4.957   5.690  0.3596 -0.3377  0.5113
10153TIP3    H230399   2.826   4.969   5.841 -0.2258  0.0986  0.4871
10154TIP3   OH230400   3.039   3.985   5.819  0.6135  0.0141 -0.1875
10154TIP3    H130401   3.012   3.916   5.759 -0.0436  0.2657 -0.1807
10154TIP3    H230402   3.038   3.944   5.905  1.4022 -0.3028 -0.3280
10155TIP3   OH230403   6.329   6.429   0.786  0.1048  0.5612 -0.3591
10155TIP3    H130404   6.412   6.471   0.809  0.0594  0.3610  0.1684
10155TIP3    H230405   6.316   6.362   0.853 -0.6198  0.7732 -0.2834
10156TIP3   OH230406   4.443   5.099   1.185 -0.3168 -0.2099  0.4095
10156TIP3    H130407   4.402   5.167   1.131  0.7693 -0.2190 -0.4485
10156TIP3    H230408   4.529   5.135   1.207 -0.0141 -1.0123  0.5402
10157TIP3   OH230409   3.092   2.020   6.854  0.8789  0.0597  0.1106
10157TIP3    H130410   3.070   1.968   6.931  1.7877  0.9274  0.9748
10157TIP3    H230411   3.139   2.096   6.889 -1.7318  2.2541 -0.9697
10158TIP3   OH230412   1.696   2.573   6.783 -0.0629  0.0712  0.1454
10158TIP3    H130413   1.770   2.516   6.804 -0.0038  0.6005  1.4410
10158TIP3    H230414   1.722   2.617   6.702  1.6186  1.1963  1.2614
10159TIP3   OH230415   3.241   2.346   5.000 -0.0100  0.4018  0.1100
10159TIP3    H130416   3.269   2.432   4.970  1.6416 -0.0163  0.4105
10159TIP3    H230417   3.322   2.300   5.021 -0.8329 -1.4024 -0.5022
10160TIP3   OH230418   3.652   4.927   0.026  0.2700  0.1584  0.1650
10160TIP3    H130419   3.576   4.878  -0.006 -0.5301  1.1135  0.5822
10160TIP3    H230420   3.662   4.899   0.117  0.6771 -0.2852 -0.0175
10161TIP3   OH230421   4.460   6.762   0.033  0.2137  0.0351 -0.1888
10161TIP3    H130422   4.498   6.693  -0.022  0.7197  0.8469 -0.8553
10161TIP3    H230423   4.503   6.752   0.118 -1.3308 -1.9129  0.4285
10162TIP3   OH230424   6.734   7.643   2.370 -0.6410 -0.2462  0.4934
10162TIP3    H130425   6.756   7.736   2.361  1.6110 -0.9127 -1.4895
10162TIP3    H230426   6.818   7.599   2.367 -1.7958 -2.4561  0.0880
10163TIP3   OH230427   5.692   4.657   0.896 -0.4011  0.5441  0.0623
10163TIP3    H130428   5.772   4.652   0.844 -0.4468 -0.2112  0.0565
10163TIP3    H230429   5.624   4.620   0.839 -0.6437  0.6611  0.2730
10164TIP3   OH230430   0.075   2.989   5.964 -0.7184  0.5255  0.1923
10164TIP3    H130431   0.130   3.067   5.962  2.8582 -1.8238  1.1855
10164TIP3    H230432   0.136   2.918   5.986 -3.4896 -2.8449 -2.4985
10165TIP3   OH230433   1.903   2.955   6.854  0.3501  0.3859  0.2015
10165TIP3    H130434   1.913   2.869   6.897  1.0167  1.0843  1.4906
10165TIP3    H230435   1.993   2.983   6.837  0.1404  1.0176  0.1525
10166TIP3   OH230436   3.303   6.816   0.217  0.6227  0.2804 -0.1944
10166TIP3    H130437   3.294   6.844   0.308 -2.3089  0.9444 -0.6378
10166TIP3    H230438   3.277   6.723   0.218  0.5532  0.2979 -0.3483
10167TIP3   OH230439   5.604   5.221   0.865  0.3847 -0.6123 -0.8102
10167TIP3    H130440   5.598   5.262   0.951 -0.4627  1.0943 -1.6630
10167TIP3    H230441   5.673   5.155   0.875  0.2356 -0.5098  1.1880
10168TIP3   OH230442   2.990   0.770   4.489  0.1121  0.0049 -0.2616
10168TIP3    H130443   2.996   0.675   4.482 -0.1706 -0.1187  1.0189
10168TIP3    H230444   3.062   0.803   4.435  0.2789 -0.9301 -0.6225
10169TIP3   OH230445   3.135   0.813   4.758 -0.3965 -0.7386 -0.1847
10169TIP3    H130446   3.067   0.753   4.788 -1.2730  0.6288  0.6313
10169TIP3    H230447   3.100   0.851   4.677  0.1972 -1.3680 -0.7501
10170TIP3   OH230448   1.396   2.248   4.997  0.3915 -0.4794  0.6051
10170TIP3    H130449   1.312   2.212   4.967  0.5034 -0.1030 -0.1842
10170TIP3    H230450   1.459   2.218   4.931  0.6069  0.5640  0.3403
10171TIP3   OH230451   4.017   0.621   0.477  0.4270  0.2216 -0.1331
10171TIP3    H130452   4.064   0.544   0.511  0.3477 -0.0162 -0.5566
10171TIP3    H230453   3.925   0.601   0.493  0.3099 -0.3721 -1.4427
10172TIP3   OH230454   5.296   7.207   0.396  0.1245 -0.1805  0.4886
10172TIP3    H130455   5.334   7.195   0.483  0.7493 -0.4950  0.1793
10172TIP3    H230456   5.230   7.138   0.389 -1.0644  0.8527  1.3291
10173TIP3   OH230457   4.482   5.988   1.592  0.2620  0.2470  0.0767
10173TIP3    H130458   4.442   6.062   1.637  0.5078  0.1825  0.3980
10173TIP3    H230459   4.490   6.017   1.501  1.2930  0.9946  0.3962
10174TIP3   OH230460   6.935  -0.002   1.196 -0.0968 -0.7652 -0.6138
10174TIP3    H130461   6.966   0.012   1.106  0.9454 -1.8238 -0.4344
10174TIP3    H230462   7.013   0.012   1.250 -1.0272  1.1822  0.2426
10175TIP3   OH230463   1.403   3.314   5.489  0.2972  0.4505  0.2658
10175TIP3    H130464   1.311   3.331   5.469  0.4304  2.0955  0.9762
10175TIP3    H230465   1.447   3.317   5.404 -0.0368  1.5214  0.1190
10176TIP3   OH230466   2.147   0.705   5.832 -0.0417 -0.2928 -0.2154
10176TIP3    H130467   2.225   0.727   5.884 -0.4304 -0.3545  0.4004
10176TIP3    H230468   2.180   0.691   5.743  0.2689  2.4518 -0.5656
10177TIP3   OH230469   2.207   6.503   1.334 -0.0935 -0.4913 -0.0017
10177TIP3    H130470   2.183   6.562   1.263 -0.8548  1.1620  1.5622
10177TIP3    H230471   2.124   6.480   1.375  0.4512  0.0555  1.4568
10178TIP3   OH230472   7.669   4.123   6.605  0.2422  0.1284  0.0839
10178TIP3    H130473   7.673   4.152   6.513  1.2414 -1.0366 -0.2525
10178TIP3    H230474   7.759   4.100   6.627 -0.3458 -1.7359  0.6563
10179TIP3   OH230475   5.257   6.853   1.315 -0.3867 -0.1485  0.0265
10179TIP3    H130476   5.186   6.911   1.286 -2.0346 -1.0380  2.1173
10179TIP3    H230477   5.292   6.897   1.393  1.5211  0.3805 -1.1085
10180TIP3   OH230478   5.860   5.998   0.628 -0.4266  0.3215 -0.2302
10180TIP3    H130479   5.917   5.999   0.551 -0.4841  0.0575 -0.2768
10180TIP3    H230480   5.916   5.968   0.700  0.2157  2.6956  0.3072
10181TIP3   OH230481   1.525   0.383   6.152  0.1629 -0.0946  0.1540
10181TIP3    H130482   1.479   0.299   6.155 -1.0363  0.4526 -1.8178
10181TIP3    H230483   1.471   0.442   6.205 -0.4840  0.1129 -0.7300
10182TIP3   OH230484   2.747   1.553   6.262  0.3568  0.3991 -0.4364
10182TIP3    H130485   2.755   1.508   6.347  1.4984 -0.0313 -0.7662
10182TIP3    H230486   2.738   1.482   6.198  2.7158  0.5838 -1.0212
10183TIP3   OH230487   0.518   2.125   6.870  0.1665  0.1975 -0.0044
10183TIP3    H130488   0.465   2.046   6.875  2.6058 -1.3900  1.4263
10183TIP3    H230489   0.481   2.183   6.936 -0.4774 -0.4690  0.2233
10184TIP3   OH230490   4.818   6.962   0.292  0.5788 -0.1651 -0.1786
10184TIP3    H130491   4.899   6.910   0.289 -0.7709 -2.3396 -0.3060
10184TIP3    H230492   4.844   7.048   0.261  2.9683 -0.6686  0.2997
10185TIP3   OH230493   5.381   2.710   6.494  0.0746  0.2386 -0.1126
10185TIP3    H130494   5.451   2.645   6.488  0.1428  0.4018 -1.1094
10185TIP3    H230495   5.301   2.658   6.498  0.2940  0.0033  2.3865
10186TIP3   OH230496   0.375   4.670   6.721 -0.4037 -0.1879  0.5095
10186TIP3    H130497   0.338   4.582   6.709 -0.3132 -0.2416  0.6271
10186TIP3    H230498   0.454   4.656   6.773 -1.4099  0.1663  2.1767
10187TIP3   OH230499   6.426   4.046   0.646  0.0327 -0.1212 -0.1050
10187TIP3    H130500   6.470   4.121   0.608  0.3848  0.0228  0.5826
10187TIP3    H230501   6.403   3.991   0.571  0.5127  0.2697 -0.5417
10188TIP3   OH230502   3.689   1.765   5.042  0.2842 -0.1541  0.0627
10188TIP3    H130503   3.627   1.809   4.983  1.2357  1.2373  0.0817
10188TIP3    H230504   3.649   1.680   5.059 -1.0762  0.2856 -0.8301
10189TIP3   OH230505   3.455   3.129   5.361  0.6311 -0.2516  0.0219
10189TIP3    H130506   3.471   3.083   5.279  0.5048  0.5418 -0.4449
10189TIP3    H230507   3.440   3.059   5.425 -1.0816 -0.8278 -0.9899
10190TIP3   OH230508   8.071   4.891   6.755  0.6428  0.0028 -0.7466
10190TIP3    H130509   7.999   4.829   6.750  0.8188 -0.2739  0.0483
10190TIP3    H230510   8.131   4.853   6.820  0.3427  1.4232  0.3819
10191TIP3   OH230511   0.814   2.189   6.872  0.1377  0.1417  0.2296
10191TIP3    H130512   0.720   2.174   6.882 -0.0654  1.1733 -0.0871
10191TIP3    H230513   0.820   2.262   6.811  1.1591 -0.1263  0.0039
10192TIP3   OH230514   8.166   0.278   0.674 -0.1171 -0.1773 -0.1382
10192TIP3    H130515   8.243   0.228   0.703 -1.9886 -2.1003  1.7482
10192TIP3    H230516   8.196   0.369   0.670  2.4640 -1.0079 -0.2819
10193TIP3   OH230517   6.683   6.744   0.274 -0.1088  0.7150 -0.0312
10193TIP3    H130518   6.734   6.825   0.273  1.9422 -0.5397  0.2872
10193TIP3    H230519   6.739   6.680   0.231 -1.7602 -0.5311 -0.3820
10194TIP3   OH230520   3.896   7.728   0.125 -0.0814 -0.6035 -0.4964
10194TIP3    H130521   3.859   7.776   0.198 -0.2297 -0.6767 -0.5231
10194TIP3    H230522   3.844   7.647   0.121  2.1290 -2.1721  1.4752
10195TIP3   OH230523   3.251   3.847   6.888 -0.1127  0.1614 -0.0256
10195TIP3    H130524   3.290   3.762   6.867  2.2946  0.7337  1.9790
10195TIP3    H230525   3.279   3.905   6.817  1.2997  0.1480  0.5054
10196TIP3   OH230526   2.068   1.856   6.550 -0.5609  0.0317  0.4536
10196TIP3    H130527   2.028   1.771   6.565  0.1902 -0.5696 -0.8538
10196TIP3    H230528   2.122   1.872   6.627 -0.4078 -0.8409  0.5308
10197TIP3   OH230529   1.374   0.998   6.484  0.3834 -0.4408 -0.5951
10197TIP3    H130530   1.283   1.029   6.483  0.5780  0.3205  1.7488
10197TIP3    H230531   1.387   0.967   6.574  2.3806 -0.7680 -0.9864
10198TIP3   OH230532   2.322   2.634   6.798  0.7471 -0.6713 -0.3914
10198TIP3    H130533   2.330   2.601   6.887 -0.6324  0.5731  0.2169
10198TIP3    H230534   2.391   2.701   6.791 -0.4822  0.7011  0.4442
10199TIP3   OH230535   6.293   6.054   2.073  0.0905  0.2075 -0.2079
10199TIP3    H130536   6.344   6.058   1.992  0.6394 -0.8232  0.0790
10199TIP3    H230537   6.338   5.990   2.127  0.5089  1.8536  1.4668
10200TIP3   OH230538   2.580   3.900   6.010  0.2838 -0.6360 -0.3100
10200TIP3    H130539   2.494   3.887   5.970 -0.2698  0.1268  0.5937
10200TIP3    H230540   2.572   3.983   6.057  1.1864 -1.0686  0.6357
10201TIP3   OH230541   4.198   4.779   5.989 -0.4162  0.1002  0.8539
10201TIP3    H130542   4.205   4.845   5.921 -0.9701  0.4570  1.1385
10201TIP3    H230543   4.268   4.800   6.051  0.1099 -0.2465  0.3847
10202TIP3   OH230544   6.929   4.250   2.388 -0.2468 -0.9149  0.0742
10202TIP3    H130545   6.883   4.328   2.358 -0.1355 -0.9067 -0.0739
10202TIP3    H230546   6.886   4.228   2.471 -0.2988 -0.7160  0.1015
10203TIP3   OH230547   4.499   3.707   1.957 -0.4524  0.8778  0.6427
10203TIP3    H130548   4.545   3.790   1.962  1.9324 -0.3890  0.4146
10203TIP3    H230549   4.520   3.662   2.039 -1.7875  0.5237  0.8092
10204TIP3   OH230550   2.497   3.029   6.790 -0.0526  0.5759 -0.2145
10204TIP3    H130551   2.502   3.091   6.717  0.5646  1.0976  0.2635
10204TIP3    H230552   2.584   2.990   6.794 -0.6372 -0.8578 -0.9593
10205TIP3   OH230553   2.028   2.191   5.278 -0.3385 -0.1915 -0.1169
10205TIP3    H130554   2.022   2.185   5.373 -1.0999  0.0714 -0.1491
10205TIP3    H230555   1.941   2.220   5.249 -0.2502 -0.6859 -0.9236
10206TIP3   OH230556   2.573   1.171   5.513  0.6703 -0.0443 -0.4858
10206TIP3    H130557   2.529   1.091   5.482 -0.9555  0.3802  0.6404
10206TIP3    H230558   2.662   1.143   5.534  0.1356 -1.5692 -0.1751
10207TIP3   OH230559   5.117   2.801   5.136  0.2054 -0.0260 -0.1267
10207TIP3    H130560   5.070   2.725   5.169  1.4218 -0.9629 -0.5355
10207TIP3    H230561   5.114   2.792   5.041 -1.0877  1.3247 -0.2256
10208TIP3   OH230562   7.937   6.176   1.020 -0.2305 -0.3327  0.4916
10208TIP3    H130563   7.870   6.130   0.970  2.9213 -2.2584 -2.1418
10208TIP3    H230564   7.956   6.118   1.094 -0.7206 -0.2666  0.6689
10209TIP3   OH230565   2.863   2.517   5.974 -0.5789  0.0715  0.3558
10209TIP3    H130566   2.842   2.442   5.918  1.0624  0.6297 -1.0360
10209TIP3    H230567   2.803   2.508   6.048 -2.0384 -1.3010 -0.9352
10210TIP3   OH230568   3.310   1.678   5.931  0.4503  0.0483 -0.2088
10210TIP3    H130569   3.322   1.738   6.005  0.5809 -0.6012  0.2984
10210TIP3    H230570   3.334   1.592   5.966 -3.6621 -0.9933  0.2861
10211TIP3   OH230571   4.489   1.945   5.337 -0.6126 -0.1517 -0.0027
10211TIP3    H130572   4.569   1.956   5.285  0.1679  2.1744  1.6158
10211TIP3    H230573   4.517   1.899   5.416 -0.9747  0.1906  0.3279
10212TIP3   OH230574   8.323   2.113   4.172  0.0777  0.3259 -0.0088
10212TIP3    H130575   8.347   2.155   4.090  1.3096  0.7376  0.5555
10212TIP3    H230576   8.389   2.044   4.184  0.4296  0.8418  1.0741
10213TIP3   OH230577   4.496   7.394   0.189 -0.1161 -0.5488 -0.4550
10213TIP3    H130578   4.431   7.344   0.239 -0.0959 -1.1151 -0.9902
10213TIP3    H230579   4.463   7.484   0.190  0.9417 -0.1406  2.3462
10214TIP3   OH230580   3.266   4.984   0.365  0.7087  0.3302 -0.5512
10214TIP3    H130581   3.286   4.891   0.371 -1.0985 -0.1732 -1.9217
10214TIP3    H230582   3.325   5.016   0.296  1.4983  0.2819  0.0835
10215TIP3   OH230583   6.598   5.919   1.293 -0.0392  0.7541  0.1031
10215TIP3    H130584   6.675   5.977   1.297  1.0103 -0.5747 -0.4973
10215TIP3    H230585   6.618   5.850   1.356  0.6010 -1.1692 -2.1490
10216TIP3   OH230586   6.009   4.820   0.851  0.3165 -0.4218  0.7710
10216TIP3    H130587   5.968   4.906   0.863  0.0392 -0.2689 -1.2168
10216TIP3    H230588   5.991   4.774   0.933 -1.0517  0.7961  1.1743
10217TIP3   OH230589   2.900   2.990   4.777  0.0932 -0.5561  0.1816
10217TIP3    H130590   2.841   3.048   4.826  0.5549  1.3943 -1.4943
10217TIP3    H230591   2.940   2.935   4.845 -1.7075 -0.1669  1.6204
10218TIP3   OH230592   3.168   2.504   4.272 -0.0075  0.8400  0.1539
10218TIP3    H130593   3.106   2.570   4.303  1.3294  1.5754  1.3379
10218TIP3    H230594   3.116   2.424   4.264 -1.2650  1.6149  0.3940
10219TIP3   OH230595   3.357   1.097   5.465  0.1620  0.7742  0.2097
10219TIP3    H130596   3.422   1.103   5.395  0.1602 -0.0196  0.1343
10219TIP3    H230597   3.281   1.054   5.425  0.5583 -0.6838  0.9513
10220TIP3   OH230598   0.812   0.394   0.042 -0.2336  0.2433 -0.2300
10220TIP3    H130599   0.857   0.437   0.115  1.7812  1.0371 -1.8753
10220TIP3    H230600   0.873   0.326   0.013 -0.8638  0.1360 -1.3469
10221TIP3   OH230601   3.607   1.073   4.232  0.1310 -0.2831  0.4815
10221TIP3    H130602   3.531   1.122   4.262  1.0701  1.2177  0.4403
10221TIP3    H230603   3.600   0.989   4.277 -0.7502  0.3819  1.6180
10222TIP3   OH230604   3.150   0.387   3.597 -0.0117  0.1161 -0.7303
10222TIP3    H130605   3.162   0.448   3.525 -2.3292  0.1488 -1.1520
10222TIP3    H230606   3.152   0.300   3.556 -0.9770  0.1209 -0.8158
10223TIP3   OH230607   2.734   1.466   4.817 -0.0995  0.3663 -0.2291
10223TIP3    H130608   2.651   1.422   4.798 -0.0185  0.4417 -0.7559
10223TIP3    H230609   2.709   1.558   4.832 -0.1331  0.3564 -0.2237
10224TIP3   OH230610   4.503   4.609   0.174  0.3849 -0.1844  0.5827
10224TIP3    H130611   4.575   4.605   0.111  1.1934  0.6370  1.4313
10224TIP3    H230612   4.461   4.693   0.158 -1.3406 -1.2953 -0.9062
10225TIP3   OH230613   5.137   6.041   1.478  0.1574 -0.3366 -0.1085
10225TIP3    H130614   5.230   6.044   1.501 -0.1362  0.8765  0.9907
10225TIP3    H230615   5.106   5.957   1.512  0.5983 -0.2297  0.5691
10226TIP3   OH230616   4.023   0.276   6.707 -0.8348 -0.2483 -0.3987
10226TIP3    H130617   4.006   0.284   6.613 -2.2435  0.4769 -0.0866
10226TIP3    H230618   4.111   0.238   6.711 -0.0474  1.2783 -2.0119
10227TIP3   OH230619   4.790   7.658   1.391  0.0322  0.4605 -0.7616
10227TIP3    H130620   4.865   7.607   1.360  0.1548 -0.0429  0.3392
10227TIP3    H230621   4.826   7.746   1.407  0.3245  0.2927 -0.4980
10228TIP3   OH230622   6.803   7.510   1.277  0.2605 -0.1514  0.0157
10228TIP3    H130623   6.791   7.539   1.367 -0.9252  1.8155 -0.7420
10228TIP3    H230624   6.731   7.448   1.262 -0.1015  0.2307  0.1491
10229TIP3   OH230625   2.129   3.368   5.681  0.2649 -0.2662 -0.6341
10229TIP3    H130626   2.183   3.329   5.749 -1.1287  0.5670  0.9812
10229TIP3    H230627   2.122   3.300   5.613  1.0175 -1.3847  0.3992
10230TIP3   OH230628   7.138   6.543   0.865  0.4587 -0.0194  0.2414
10230TIP3    H130629   7.101   6.515   0.949 -2.1093 -2.1046 -1.5095
10230TIP3    H230630   7.118   6.636   0.859 -1.6615 -0.4215  0.8118
10231TIP3   OH230631   3.283   2.858   5.815 -0.3106 -0.3315 -0.6241
10231TIP3    H130632   3.366   2.814   5.832 -0.8598 -1.1583 -0.0303
10231TIP3    H230633   3.300   2.950   5.835  0.7429 -0.3341 -1.5062
10232TIP3   OH230634   2.325   2.954   6.538 -0.1920  0.1547 -0.5086
10232TIP3    H130635   2.275   2.911   6.608  1.5255 -1.0865 -0.0208
10232TIP3    H230636   2.293   2.912   6.458  0.7622 -1.4000 -0.1134
10233TIP3   OH230637   2.788   4.867   6.242  0.1171 -0.1278  0.1800
10233TIP3    H130638   2.813   4.811   6.316  1.4253 -0.4345 -0.4772
10233TIP3    H230639   2.710   4.914   6.273  0.0752 -0.9680  1.3979
10234TIP3   OH230640   7.057   2.789   0.271 -0.4597 -0.5694 -0.0706
10234TIP3    H130641   7.110   2.710   0.265 -0.6504 -0.6362 -1.0173
10234TIP3    H230642   7.062   2.814   0.363  1.0011 -0.7138 -0.0935
10235TIP3   OH230643   6.867   5.769   0.418 -0.0868  0.0818 -0.5371
10235TIP3    H130644   6.778   5.766   0.452 -0.2656  0.2147 -0.9866
10235TIP3    H230645   6.898   5.857   0.439  0.2221 -0.2291  0.3237
10236TIP3   OH230646   2.290   2.300   5.036  0.1470  0.0955 -0.7077
10236TIP3    H130647   2.305   2.250   4.956 -0.7874 -0.8310 -0.3090
10236TIP3    H230648   2.303   2.392   5.009  0.4062 -0.2432 -1.7764
10237TIP3   OH230649   2.387   2.558   5.004 -0.8757 -0.3789  0.5018
10237TIP3    H130650   2.456   2.509   5.048 -2.2715 -0.4118  2.7860
10237TIP3    H230651   2.355   2.619   5.071 -1.1199  1.6282 -1.4000
10238TIP3   OH230652   2.569   2.130   6.863  0.3084  0.1007  0.2235
10238TIP3    H130653   2.616   2.126   6.779  0.9120  3.1492  0.3584
10238TIP3    H230654   2.485   2.171   6.842  0.5865  1.1754  1.1252
10239TIP3   OH230655   0.243   7.971   5.490 -0.3957  0.7909  0.0512
10239TIP3    H130656   0.231   7.890   5.440 -0.6773  1.1086 -0.3929
10239TIP3    H230657   0.261   8.038   5.425 -0.4752  1.1505  0.3924
10240TIP3   OH230658   4.166   5.328   6.100 -0.0877 -0.0897 -0.0843
10240TIP3    H130659   4.213   5.333   6.016 -1.3308 -0.4679 -0.8163
10240TIP3    H230660   4.231   5.356   6.165  1.2562 -0.9432 -1.0289
10241TIP3   OH230661   2.594   4.559   6.825  0.3302  0.1899  0.2450
10241TIP3    H130662   2.515   4.588   6.871 -1.1942 -1.5154 -1.2156
10241TIP3    H230663   2.653   4.531   6.895 -0.7592  0.5204  1.3190
10242TIP3   OH230664   5.583   6.751   1.831 -0.0036 -0.3470 -0.1149
10242TIP3    H130665   5.567   6.779   1.921  1.3680 -0.1292  0.0747
10242TIP3    H230666   5.499   6.717   1.801 -0.6998  0.3849  0.9557
10243TIP3   OH230667   1.916   4.072   6.203 -0.5294 -0.1368 -0.7792
10243TIP3    H130668   1.948   4.155   6.236  1.1138 -0.9750 -0.1932
10243TIP3    H230669   1.831   4.092   6.164 -1.4450  1.3090  1.8502
10244TIP3   OH230670   2.858   5.605   5.439  0.4693  0.3036  0.3977
10244TIP3    H130671   2.916   5.531   5.422  0.3432 -0.0244  1.3534
10244TIP3    H230672   2.846   5.605   5.534 -0.3366  0.9418  0.3035
10245TIP3   OH230673   2.478   0.742   6.569  0.1640 -0.1218 -0.0099
10245TIP3    H130674   2.533   0.782   6.636 -0.7092 -0.5119  0.9435
10245TIP3    H230675   2.418   0.812   6.542  0.0959 -0.1524  0.0639
10246TIP3   OH230676   4.767   3.371   6.443 -0.2337  0.2559  0.5772
10246TIP3    H130677   4.854   3.335   6.428  0.1868  0.1214  3.1638
10246TIP3    H230678   4.723   3.364   6.358  2.9836  2.4393 -1.3840
10247TIP3   OH230679   6.799   5.400   0.133 -0.2450 -0.1497  0.3931
10247TIP3    H130680   6.863   5.464   0.103  0.1876 -0.3437  0.8855
10247TIP3    H230681   6.734   5.451   0.181 -0.1763 -0.0159  0.3425
10248TIP3   OH230682   7.732   5.699   0.390  0.0921 -0.2574  0.2981
10248TIP3    H130683   7.674   5.665   0.321  0.3137  0.4931 -0.2764
10248TIP3    H230684   7.782   5.624   0.419  0.5420 -0.4418 -0.9178
10249TIP3   OH230685   8.024   5.209   0.965  0.4231  0.6879 -0.2492
10249TIP3    H130686   8.033   5.183   0.874 -0.5663  0.7341 -0.3557
10249TIP3    H230687   8.000   5.128   1.011 -2.8600  1.4039 -0.6098
10250TIP3   OH230688   3.811   4.203   6.920 -0.3081 -0.2607  0.2120
10250TIP3    H130689   3.756   4.129   6.945 -0.2407 -0.7140 -0.9424
10250TIP3    H230690   3.892   4.164   6.889 -0.3697  0.2721 -0.6564
10251TIP3   OH230691   2.660   1.791   4.494 -0.0141  0.1181  0.4530
10251TIP3    H130692   2.690   1.772   4.583  0.0680  0.6176  0.5354
10251TIP3    H230693   2.739   1.784   4.440  0.4374  2.1779  0.7812
10252TIP3   OH230694   4.519   2.552   6.759 -0.5900  0.0373 -0.1809
10252TIP3    H130695   4.606   2.513   6.755 -0.5962 -0.6198  3.9697
10252TIP3    H230696   4.534   2.646   6.766 -0.2888  0.0697 -1.2115
10253TIP3   OH230697   1.826   3.102   6.645  0.4486 -0.1900  0.9514
10253TIP3    H130698   1.870   3.034   6.698  3.1816  0.8052  0.0587
10253TIP3    H230699   1.832   3.070   6.555 -2.1543 -0.7858  0.9450
10254TIP3   OH230700   6.520   4.673   0.247 -0.0949  0.2202 -0.3587
10254TIP3    H130701   6.467   4.752   0.256  0.1636  0.4270 -0.6485
10254TIP3    H230702   6.456   4.601   0.246 -0.2790  0.3634  0.7108
10255TIP3   OH230703   6.189   6.183   1.152 -0.2997  0.6252  0.1612
10255TIP3    H130704   6.228   6.218   1.232 -0.6609  0.6252  0.3390
10255TIP3    H230705   6.100   6.158   1.178 -0.6143  1.1690 -0.3745
10256TIP3   OH230706   2.944   2.113   6.637  0.0377 -0.0670  0.7719
10256TIP3    H130707   3.008   2.165   6.589 -0.3726 -0.0296  0.2559
10256TIP3    H230708   2.995   2.061   6.699  0.5629 -0.0495  0.3484
10257TIP3   OH230709   2.772   0.271   5.470  0.0891  0.2057  0.3710
10257TIP3    H130710   2.837   0.223   5.521  0.5303  0.1357 -0.2543
10257TIP3    H230711   2.754   0.349   5.523 -1.5849 -1.2331  2.0090
10258TIP3   OH230712   6.790   6.546   0.775  0.1135 -0.2962 -0.4983
10258TIP3    H130713   6.742   6.590   0.705  0.1344  0.0811 -0.2778
10258TIP3    H230714   6.881   6.574   0.763  0.0266  0.2416  0.0278
10259TIP3   OH230715   2.031   0.570   5.168  0.2088  0.1436 -0.1489
10259TIP3    H130716   2.096   0.596   5.233 -0.4702 -0.5592  0.8203
10259TIP3    H230717   1.960   0.633   5.176 -1.4518 -1.9074  2.2253
10260TIP3   OH230718   6.914   6.159   0.282 -0.5832  0.2813 -0.3313
10260TIP3    H130719   6.929   6.112   0.364  0.0464 -1.5535 -1.4690
10260TIP3    H230720   6.839   6.216   0.300 -0.9080 -0.6338  1.2943
10261TIP3   OH230721   5.839   6.592   1.084  0.0597 -0.0888  0.3007
10261TIP3    H130722   5.827   6.686   1.073 -0.0807 -0.0088  1.0786
10261TIP3    H230723   5.930   6.583   1.114  0.1591 -0.2221 -0.0393
10262TIP3   OH230724   3.757   1.363   6.153  0.1754  0.4182  0.1671
10262TIP3    H130725   3.756   1.406   6.239  0.2324  3.1298 -1.1599
10262TIP3    H230726   3.670   1.322   6.146  0.8048 -1.3826  2.2349
10263TIP3   OH230727   8.452   0.933   0.231  0.7031 -0.3462  0.2257
10263TIP3    H130728   8.431   1.011   0.180 -0.0600 -1.8205 -1.7966
10263TIP3    H230729   8.545   0.941   0.252  0.3885  1.5923  0.9373
10264TIP3   OH230730   0.860   2.638   6.659 -0.1188  0.4836  0.5569
10264TIP3    H130731   0.834   2.592   6.579 -0.2536 -0.1716  0.9691
10264TIP3    H230732   0.928   2.582   6.697  1.9476  2.1957 -0.5349
10265TIP3   OH230733   7.293   5.499   1.074 -0.2410 -0.2649 -0.2471
10265TIP3    H130734   7.238   5.526   1.000 -0.2312  1.5115  0.3692
10265TIP3    H230735   7.332   5.580   1.106  0.0416 -1.0569  1.4817
10266TIP3   OH230736   3.274   1.920   5.808 -0.5136  0.5788  0.2709
10266TIP3    H130737   3.312   1.845   5.854 -1.2816 -0.4588 -0.7574
10266TIP3    H230738   3.263   1.987   5.875  0.8609  0.0273  1.0538
10267TIP3   OH230739   3.554   5.658   5.369 -0.2545 -0.1486 -0.4278
10267TIP3    H130740   3.540   5.643   5.462  0.4488  1.2027 -0.0893
10267TIP3    H230741   3.478   5.710   5.341 -0.7293 -0.9979 -0.7284
10268TIP3   OH230742   1.132   2.156   0.628 -0.4991 -0.2758  0.6384
10268TIP3    H130743   1.178   2.232   0.664 -0.0498 -0.4186  0.3648
10268TIP3    H230744   1.041   2.185   0.621 -0.4803 -0.0352  1.2936
10269TIP3   OH230745   7.968   0.714   1.875  0.1016 -0.0711 -0.4103
10269TIP3    H130746   8.033   0.782   1.890  0.3443 -0.8658  2.3697
10269TIP3    H230747   8.019   0.635   1.856 -0.1195 -0.1033 -0.8824
10270TIP3   OH230748   2.204   1.032   4.993  0.4170  0.7149  0.2649
10270TIP3    H130749   2.240   0.962   5.048  1.0266 -0.9084 -2.1546
10270TIP3    H230750   2.276   1.094   4.984  1.4836 -0.7679 -1.6097
10271TIP3   OH230751   2.242   1.776   4.927 -0.0172 -0.2936 -0.5935
10271TIP3    H130752   2.287   1.731   4.855  0.9455 -0.6029  0.1873
10271TIP3    H230753   2.244   1.713   4.999  0.8338  0.7904  0.3398
10272TIP3   OH230754   4.017   2.287   6.358 -0.0346  0.5778  0.1232
10272TIP3    H130755   3.985   2.348   6.424  0.4667  1.4809 -0.4516
10272TIP3    H230756   4.035   2.342   6.282  0.3123 -0.3093 -0.4436
10273TIP3   OH230757   2.838   3.623   5.417 -0.2097 -0.4341  0.3304
10273TIP3    H130758   2.765   3.573   5.381  0.2080 -0.2711 -0.7462
10273TIP3    H230759   2.895   3.641   5.342 -0.8092  2.4738  0.4885
10274TIP3   OH230760   7.590   4.782   0.108  0.9322  0.3267  0.3589
10274TIP3    H130761   7.585   4.742   0.195  0.5974 -0.8080 -0.1617
10274TIP3    H230762   7.570   4.874   0.122 -3.3401 -0.6103  0.9430
10275TIP3   OH230763   2.131   2.076   1.489 -0.2013 -0.5076  0.4173
10275TIP3    H130764   2.094   2.077   1.401 -0.4745 -0.5709  0.5288
10275TIP3    H230765   2.181   2.157   1.496 -0.1809 -0.5025  0.2047
10276TIP3   OH230766   6.618   7.290   1.256  0.2602  0.4573  0.1480
10276TIP3    H130767   6.624   7.269   1.163 -0.1982 -0.0666  0.2360
10276TIP3    H230768   6.540   7.244   1.287  0.2425  0.8648  0.7303
10277TIP3   OH230769   2.064   1.362   5.853  0.1238  0.5003 -0.7575
10277TIP3    H130770   2.010   1.292   5.889 -0.5358  0.1865 -2.3318
10277TIP3    H230771   2.123   1.318   5.792  0.3810  1.1993 -1.0190
10278TIP3   OH230772   2.668   1.465   5.790 -0.3721 -0.5145  0.2141
10278TIP3    H130773   2.757   1.483   5.759  0.1020 -1.1867  1.1879
10278TIP3    H230774   2.615   1.535   5.751  0.1493 -1.5227 -2.4063
10279TIP3   OH230775   3.116   1.539   6.538  0.4030  0.1702 -0.0696
10279TIP3    H130776   3.106   1.600   6.611 -2.0434  0.7310 -0.8151
10279TIP3    H230777   3.164   1.589   6.472 -1.3115  1.2385 -0.5498
10280TIP3   OH230778   5.400   7.729   0.808  0.4547  0.0396  0.0994
10280TIP3    H130779   5.356   7.812   0.789 -1.1192 -1.0635 -1.2319
10280TIP3    H230780   5.453   7.712   0.730  0.6339 -0.2941  0.2947
10281TIP3   OH230781   0.040   7.422   0.977 -0.5973 -0.0356 -0.5644
10281TIP3    H130782  -0.037   7.434   1.033 -0.6423  0.1205 -0.6615
10281TIP3    H230783   0.068   7.333   0.996 -0.9525 -0.1830 -0.7175
10282TIP3   OH230784   6.377   2.427   6.637  0.2811 -0.6570  0.0160
10282TIP3    H130785   6.384   2.346   6.688  1.5799 -0.1687  0.6403
10282TIP3    H230786   6.328   2.486   6.694  1.5565 -0.1776  0.6260
10283TIP3   OH230787   3.282   5.198   6.262  0.3751  0.1360  0.2930
10283TIP3    H130788   3.247   5.114   6.290 -0.0992 -0.0188 -0.7434
10283TIP3    H230789   3.375   5.183   6.250  0.0355 -0.6786 -1.4697
10284TIP3   OH230790   1.566   1.114   0.898  0.4693 -0.4113 -0.3702
10284TIP3    H130791   1.498   1.143   0.959  0.5345  0.0747 -0.5269
10284TIP3    H230792   1.563   1.019   0.903  0.6309 -0.3761  0.5724
10285TIP3   OH230793   6.229   2.003   5.249 -0.6283 -0.2025  0.5410
10285TIP3    H130794   6.231   2.052   5.331 -1.4572 -0.1405  0.5289
10285TIP3    H230795   6.212   2.069   5.182  1.3490 -0.0550  0.1479
10286TIP3   OH230796   0.865   0.023   0.724 -0.2719 -0.4372 -0.4728
10286TIP3    H130797   0.887   0.047   0.814 -0.1094  0.8071 -0.8405
10286TIP3    H230798   0.791  -0.037   0.733 -1.8717  1.6296  0.3824
10287TIP3   OH230799   1.789   1.858   5.806 -0.1015  0.1345 -0.1284
10287TIP3    H130800   1.797   1.803   5.883 -1.7500 -0.0034 -0.0356
10287TIP3    H230801   1.876   1.856   5.766 -0.1177 -2.5364 -0.1296
10288TIP3   OH230802   1.215   2.570   6.317 -0.1828  0.2305  0.2577
10288TIP3    H130803   1.248   2.482   6.300 -0.0452  0.2011  0.6628
10288TIP3    H230804   1.123   2.567   6.291 -1.0795 -0.9872  3.2905
10289TIP3   OH230805   2.550   3.857   6.355  0.2494  0.2721 -0.0838
10289TIP3    H130806   2.629   3.906   6.376  0.7160  0.7873 -2.8242
10289TIP3    H230807   2.581   3.780   6.306 -0.8261 -0.3087  0.1139
10290TIP3   OH230808   7.542   6.270   0.515 -0.0710 -0.0905  0.5140
10290TIP3    H130809   7.541   6.352   0.564 -2.2440  0.3715 -0.2369
10290TIP3    H230810   7.624   6.272   0.466  0.0621  1.4801  0.7903
10291TIP3   OH230811   3.374   1.141   6.598  0.1612 -0.6625  0.0114
10291TIP3    H130812   3.461   1.169   6.569  0.6792 -0.8780  1.3624
10291TIP3    H230813   3.380   1.046   6.602 -0.1379 -0.6754  0.1235
10292TIP3   OH230814   4.373   5.456   5.891  0.4179 -0.1494  0.3530
10292TIP3    H130815   4.415   5.512   5.956 -0.1519 -1.1542  1.6169
10292TIP3    H230816   4.434   5.453   5.817  0.4959  2.0461  0.3133
10293TIP3   OH230817   6.260   7.691   0.303 -0.2223  0.0182 -0.3999
10293TIP3    H130818   6.276   7.645   0.220  0.4864  0.6467 -0.6106
10293TIP3    H230819   6.198   7.760   0.280  1.0701  1.0847 -0.6889
10294TIP3   OH230820   3.347   4.511   6.231 -0.4818  0.3907  0.8475
10294TIP3    H130821   3.347   4.558   6.147 -1.7558 -0.4050  0.3801
10294TIP3    H230822   3.262   4.466   6.233 -0.7932  0.9958  2.8995
10295TIP3   OH230823   2.081   2.775   6.479  0.5641 -0.0012  0.5345
10295TIP3    H130824   2.098   2.759   6.386 -0.4207  0.3346  0.2905
10295TIP3    H230825   2.139   2.714   6.525  0.0220 -1.1669 -0.3159
10296TIP3   OH230826   2.864   3.193   6.585  0.5430  0.0880 -0.0586
10296TIP3    H130827   2.946   3.242   6.575 -1.4634  3.3383 -1.3754
10296TIP3    H230828   2.851   3.150   6.501 -1.0263  2.7975 -1.2660
10297TIP3   OH230829   7.812   1.523   2.436 -0.1337 -0.1463  0.0333
10297TIP3    H130830   7.873   1.454   2.462 -0.4162  0.0654  1.2688
10297TIP3    H230831   7.851   1.561   2.357  0.1721 -1.5101 -0.4830
10298TIP3   OH230832   0.740   3.215   6.705  0.4846 -0.0506  0.7195
10298TIP3    H130833   0.785   3.241   6.624 -1.4858 -0.7185 -0.6366
10298TIP3    H230834   0.808   3.172   6.757  1.0187 -3.0413 -2.2338
10299TIP3   OH230835   1.828   3.089   5.296 -0.1149 -0.0014 -0.5590
10299TIP3    H130836   1.741   3.050   5.297 -0.4626  0.5905 -4.0456
10299TIP3    H230837   1.885   3.021   5.332 -1.1968 -2.5566 -3.4412
10300TIP3   OH230838   7.782   1.670   5.613  0.0433  0.0117  0.4510
10300TIP3    H130839   7.870   1.702   5.632  0.2004 -0.7220  0.9950
10300TIP3    H230840   7.726   1.716   5.676 -0.0988  1.1703 -0.5047
10301TIP3   OH230841   5.826   7.641   2.696  0.0916  0.3422 -0.7421
10301TIP3    H130842   5.768   7.621   2.769  1.1272  1.2082  0.3411
10301TIP3    H230843   5.868   7.723   2.721  0.0882  0.9151 -2.5416
10302TIP3   OH230844   3.232   2.628   4.904 -0.0125 -0.4917  0.5489
10302TIP3    H130845   3.174   2.696   4.936 -0.0810  0.1533 -0.9322
10302TIP3    H230846   3.207   2.615   4.813  1.0505 -1.3835  0.3671
10303TIP3   OH230847   5.545   7.598   0.632 -0.3928 -0.6177  0.4258
10303TIP3    H130848   5.570   7.508   0.656 -1.7650 -1.3937 -0.9172
10303TIP3    H230849   5.610   7.623   0.566 -0.8427 -1.1643 -0.2317
10304TIP3   OH230850   5.693   5.615   2.002 -0.0009  0.4047  0.0229
10304TIP3    H130851   5.763   5.569   1.955  0.9952  2.4755 -0.5826
10304TIP3    H230852   5.738   5.681   2.055 -1.2721 -0.4216  2.2314
10305TIP3   OH230853   0.999   7.885   6.852 -0.3224  0.4311  0.0879
10305TIP3    H130854   1.092   7.894   6.831 -0.1377 -0.5250  0.4602
10305TIP3    H230855   0.954   7.943   6.790  0.6585  2.4378  1.1860
10306TIP3   OH230856   5.999   7.151   1.468  0.0597  0.6551 -0.1532
10306TIP3    H130857   6.075   7.168   1.414 -1.2441  0.2475 -2.1778
10306TIP3    H230858   5.958   7.237   1.480 -1.0762  0.4142 -2.0531
10307TIP3   OH230859   3.262   3.587   6.492  0.2927  0.0687 -0.1438
10307TIP3    H130860   3.291   3.667   6.535  0.3472  0.2411 -0.4946
10307TIP3    H230861   3.342   3.545   6.461  0.1903  0.4451 -0.9381
10308TIP3   OH230862   2.328   2.735   5.657  0.3941  0.3096 -0.1170
10308TIP3    H130863   2.354   2.815   5.611  1.8102 -1.1846 -1.9399
10308TIP3    H230864   2.410   2.701   5.693 -0.5704  1.0245  2.8993
10309TIP3   OH230865   4.270   1.197   6.490  0.1327 -0.5444  0.4097
10309TIP3    H130866   4.310   1.244   6.563 -1.2028 -1.1120  1.5262
10309TIP3    H230867   4.218   1.128   6.531  0.5541 -1.8154 -1.1391
10310TIP3   OH230868   6.982   7.232   0.051 -0.6244 -0.7874 -0.1349
10310TIP3    H130869   7.066   7.278   0.045 -0.9577 -0.1204  0.1588
10310TIP3    H230870   6.934   7.280   0.119 -1.2306 -1.1767 -0.2856
10311TIP3   OH230871   5.398   6.306   1.157 -0.0355  0.0741 -0.6075
10311TIP3    H130872   5.428   6.343   1.240  0.2107  0.9983 -1.1107
10311TIP3    H230873   5.443   6.356   1.090  0.9108 -1.6492 -1.2876
10312TIP3   OH230874   3.549   4.154   4.825 -0.4966  0.4650 -0.3334
10312TIP3    H130875   3.515   4.122   4.741  0.9384  0.2557 -0.8412
10312TIP3    H230876   3.556   4.075   4.879 -0.0639  0.3944 -0.4935
10313TIP3   OH230877   2.416   2.263   6.191 -0.2188  0.5673  0.2321
10313TIP3    H130878   2.439   2.248   6.099 -0.5173 -0.7372  0.3570
10313TIP3    H230879   2.322   2.245   6.196 -0.0698 -0.0299  0.9249
10314TIP3   OH230880   1.260   3.500   6.463  0.0286 -0.2167  0.0587
10314TIP3    H130881   1.338   3.539   6.424  0.2159  0.1429  0.7879
10314TIP3    H230882   1.256   3.412   6.426  2.1343 -1.0980  1.8124
10315TIP3   OH230883   2.042   5.052   6.151 -0.0048  0.5502 -1.1196
10315TIP3    H130884   1.988   5.104   6.091 -1.4427 -0.7906 -1.0186
10315TIP3    H230885   2.106   5.009   6.093  0.1392  1.1275 -1.3964
10316TIP3   OH230886   8.076   7.663   0.316 -0.8724  0.1052  0.0564
10316TIP3    H130887   8.068   7.758   0.329 -1.2696  0.0061  0.5768
10316TIP3    H230888   8.067   7.626   0.404 -0.4659 -0.4021 -0.1107
10317TIP3   OH230889   2.770   4.334   5.015 -0.2672 -0.3483  0.2096
10317TIP3    H130890   2.769   4.288   4.931  1.0517  1.2736 -0.7205
10317TIP3    H230891   2.855   4.313   5.053 -0.7907 -0.9323  1.0934
10318TIP3   OH230892   7.257   7.537   1.064 -0.8237 -0.0800 -0.3145
10318TIP3    H130893   7.164   7.526   1.083 -1.1463  1.2818 -1.0404
10318TIP3    H230894   7.282   7.618   1.108 -0.4331  0.5254 -1.5992
10319TIP3   OH230895   2.182   3.587   6.885 -0.5466  0.4085 -0.0291
10319TIP3    H130896   2.115   3.601   6.951 -0.5293 -0.5480  0.2020
10319TIP3    H230897   2.155   3.640   6.811 -1.9895 -0.5915 -0.2380
10320TIP3   OH230898   5.513   6.197   2.771 -0.0644  0.0249 -0.1577
10320TIP3    H130899   5.572   6.260   2.730  0.3333  0.7740  1.5139
10320TIP3    H230900   5.479   6.242   2.848 -0.8322 -1.3192  0.3140
10321TIP3   OH230901   3.774   1.492   6.794 -0.1040 -0.3662 -0.2251
10321TIP3    H130902   3.795   1.571   6.843  0.7252 -0.6689 -0.0740
10321TIP3    H230903   3.741   1.523   6.710 -0.6802  0.1452  0.1873
10322TIP3   OH230904   4.771   1.542   6.725  0.2622 -0.7203  0.1629
10322TIP3    H130905   4.810   1.628   6.717  0.6348 -1.0473 -1.7680
10322TIP3    H230906   4.729   1.527   6.640 -1.6182 -1.5486  1.2150
10323TIP3   OH230907   2.680   3.133   6.104  0.0807 -0.0097 -0.2604
10323TIP3    H130908   2.710   3.123   6.195  1.8000  1.0274 -0.7042
10323TIP3    H230909   2.753   3.174   6.059 -0.9052 -0.1962 -2.0540
10324TIP3   OH230910   2.931   3.707   5.952 -0.3877 -0.2100 -0.4800
10324TIP3    H130911   2.889   3.735   6.033 -0.8113 -0.8806 -0.4646
10324TIP3    H230912   2.875   3.637   5.919  0.9423 -1.4198 -0.2290
10325TIP3   OH230913   5.717   7.972   1.527  0.8922 -0.2283 -0.3316
10325TIP3    H130914   5.794   7.994   1.474  0.7790 -0.1677 -0.4693
10325TIP3    H230915   5.741   7.890   1.570  1.4243  0.3074  0.4025
10326TIP3   OH230916   2.298   0.956   6.594  0.2532  0.0969 -0.7990
10326TIP3    H130917   2.251   0.955   6.678  2.3448 -0.6024  0.3959
10326TIP3    H230918   2.339   1.042   6.591  1.3901 -0.4237 -0.3984
10327TIP3   OH230919   6.821   7.357   0.219 -0.1979  0.2773  0.1692
10327TIP3    H130920   6.806   7.430   0.279 -1.4528  0.7986 -0.7472
10327TIP3    H230921   6.733   7.328   0.194  0.2513 -2.1332  1.2041
10328TIP3   OH230922   1.135   2.944   4.036 -0.1394 -0.1122  0.4479
10328TIP3    H130923   1.189   3.017   4.064 -0.5364  0.5448 -0.4748
10328TIP3    H230924   1.049   2.983   4.018 -0.4730 -0.8779  0.3608
10329TIP3   OH230925   4.574   4.316   6.902 -0.2212 -0.3370 -0.2330
10329TIP3    H130926   4.594   4.230   6.940 -0.0068 -0.0034  0.4100
10329TIP3    H230927   4.598   4.379   6.970  0.5982  0.2953 -1.0849
10330TIP3   OH230928   2.991   2.472   6.683 -0.2707  0.3557  0.3088
10330TIP3    H130929   3.033   2.387   6.693  0.1680  0.8164  2.8372
10330TIP3    H230930   3.054   2.525   6.635 -0.4124 -0.6469 -0.9898
10331TIP3   OH230931   2.977   0.910   6.450 -0.3441 -0.4205 -0.3069
10331TIP3    H130932   3.018   0.831   6.485 -0.2200 -0.0758  0.3271
10331TIP3    H230933   3.024   0.927   6.368  0.8094  0.0090  0.4493
10332TIP3   OH230934   5.684   1.389   6.138  0.5394  0.2340  0.4828
10332TIP3    H130935   5.657   1.395   6.047 -0.6101 -1.7996  0.6477
10332TIP3    H230936   5.777   1.367   6.134  0.8486  1.6179 -0.1653
10333TIP3   OH230937   4.027   4.437   0.740  0.6413  0.4101  0.1476
10333TIP3    H130938   4.003   4.502   0.806  1.3372  3.1826 -2.2528
10333TIP3    H230939   3.943   4.408   0.704  0.1770 -1.9017  2.8226
10334TIP3   OH230940   3.363   3.995   6.681  0.5698  0.9749  0.5262
10334TIP3    H130941   3.426   3.974   6.611  0.7225  0.9750  0.6639
10334TIP3    H230942   3.387   4.084   6.709  1.6292  0.3042  1.7919
10335TIP3   OH230943   5.976   5.415   0.182  0.3361  0.5667  0.1873
10335TIP3    H130944   5.946   5.370   0.103 -1.5281  0.6094  0.8259
10335TIP3    H230945   6.012   5.498   0.151  2.2007 -0.6077 -0.8387
10336TIP3   OH230946   6.022   3.211   5.345 -0.8571  0.1147 -0.2037
10336TIP3    H130947   6.079   3.161   5.285 -1.6560  2.2515 -2.8626
10336TIP3    H230948   5.962   3.146   5.380 -1.0619 -1.0696 -2.6001
10337TIP3   OH230949   7.844   6.398   0.244 -0.8447 -0.2125  0.1111
10337TIP3    H130950   7.749   6.412   0.244 -0.6561  1.1816 -0.6362
10337TIP3    H230951   7.877   6.459   0.179  0.4213 -1.8979 -0.8575
10338TIP3   OH230952   6.929   7.852   0.803  0.0683  0.5073  0.1204
10338TIP3    H130953   6.965   7.764   0.802 -1.0019  0.0551  0.4665
10338TIP3    H230954   6.889   7.860   0.890  1.3478  1.8265  0.6137
10339TIP3   OH230955   6.494   6.481   0.234 -0.3893  0.5591 -0.4854
10339TIP3    H130956   6.461   6.515   0.317  0.4085 -0.1224  0.1196
10339TIP3    H230957   6.431   6.415   0.209  1.0319 -1.5238  1.2265
10340TIP3   OH230958   0.244   7.463   0.210  0.1364  0.3110 -0.2179
10340TIP3    H130959   0.243   7.426   0.299  0.6837  1.8630  0.4586
10340TIP3    H230960   0.168   7.424   0.167 -0.1616 -0.4254  0.9483
10341TIP3   OH230961   6.864   6.524   0.200  0.2311 -0.0950  0.3703
10341TIP3    H130962   6.919   6.463   0.249  0.3309  1.1669  1.8399
10341TIP3    H230963   6.913   6.540   0.119 -0.4292 -2.9967 -0.6400
10342TIP3   OH230964   6.498   4.839   1.133 -0.4357 -0.1903  0.4347
10342TIP3    H130965   6.459   4.790   1.061 -0.3731  1.7388 -0.9356
10342TIP3    H230966   6.424   4.855   1.193 -0.7455 -0.7015  0.1983
10343TIP3   OH230967   8.027   7.681   2.290 -0.4210 -0.1538 -0.0280
10343TIP3    H130968   8.033   7.597   2.335 -1.9774 -0.8473 -1.0821
10343TIP3    H230969   7.940   7.681   2.250 -0.6014  2.1435  0.2941
10344TIP3   OH230970   3.038   2.371   6.271 -0.0200  0.2875  0.6235
10344TIP3    H130971   3.106   2.425   6.232  0.0445  0.5322  1.0753
10344TIP3    H230972   3.079   2.335   6.350 -0.1859 -0.1247  0.5262
10345TIP3   OH230973   2.376   0.989   5.360 -0.6822 -0.2920  0.0397
10345TIP3    H130974   2.290   1.027   5.380 -0.4335  0.4851 -0.3395
10345TIP3    H230975   2.366   0.954   5.272 -0.7703 -0.6828  0.2061
10346TIP3   OH230976   2.240   5.899   6.082 -0.5608  0.0161 -0.2617
10346TIP3    H130977   2.227   5.939   6.168 -1.0364  0.1636 -0.3986
10346TIP3    H230978   2.314   5.946   6.044 -1.6892  1.3912 -0.7971
10347TIP3   OH230979   0.902   0.527   5.379 -0.1169 -0.0614  0.1526
10347TIP3    H130980   0.842   0.546   5.451 -0.5450 -1.0183  0.0570
10347TIP3    H230981   0.917   0.611   5.338 -0.5064  0.3667  0.8727
10348TIP3   OH230982   4.936   7.853   1.065  0.0913 -0.5346  0.0831
10348TIP3    H130983   4.874   7.800   1.116  0.2606 -1.4831 -0.6775
10348TIP3    H230984   4.911   7.837   0.974  0.0080  0.8780 -0.1611
10349TIP3   OH230985   1.073   0.878   1.306  0.8404 -0.1516 -0.4314
10349TIP3    H130986   1.096   0.786   1.318  0.2659 -0.2333  0.0536
10349TIP3    H230987   1.059   0.911   1.395  1.1237  0.4236 -0.5977
10350TIP3   OH230988   1.185   4.967   5.869  0.4188 -0.0873  0.2351
10350TIP3    H130989   1.270   4.929   5.846  0.3562 -0.5750  0.7787
10350TIP3    H230990   1.123   4.895   5.855  0.0703  0.3333 -0.3743
10351TIP3   OH230991   1.479   3.077   5.609 -0.2911  0.3706  0.1881
10351TIP3    H130992   1.511   3.020   5.540 -0.6826 -2.1442  2.0112
10351TIP3    H230993   1.447   3.155   5.563  3.1466  0.5264 -2.1035
10352TIP3   OH230994   4.675   4.167   6.377 -0.1041 -0.2582 -0.0635
10352TIP3    H130995   4.719   4.088   6.346  0.7274  0.3904 -0.5613
10352TIP3    H230996   4.623   4.197   6.302 -0.2094 -0.1840  0.0395
10353TIP3   OH230997   3.071   5.752   6.225 -0.3110  0.6017  0.3552
10353TIP3    H130998   3.100   5.706   6.304 -0.4279 -1.3341 -0.7079
10353TIP3    H230999   3.079   5.845   6.248  0.6862  0.0810  2.2681
10354TIP3   OH231000   6.556   6.188   2.214 -0.0459  0.0963  0.0637
10354TIP3    H131001   6.575   6.123   2.147  3.0474 -0.3368  1.2984
10354TIP3    H231002   6.600   6.268   2.185 -0.3067  0.4494  0.6188
10355TIP3   OH231003   4.158   3.766   5.272 -0.2749  0.3624 -0.6725
10355TIP3    H131004   4.230   3.707   5.251 -0.2937  0.0699  0.0843
10355TIP3    H231005   4.120   3.787   5.187 -0.3278 -0.7867 -0.9467
10356TIP3   OH231006   2.736   3.190   5.641  0.0170 -0.0643  0.4806
10356TIP3    H131007   2.678   3.114   5.639 -0.5763  0.2987  2.3790
10356TIP3    H231008   2.683   3.259   5.682  0.8028  1.1523 -0.4948
10357TIP3   OH231009   4.821   7.921   1.408 -0.0323 -0.4096  0.2088
10357TIP3    H131010   4.876   7.999   1.397  2.3659 -1.9448  1.0085
10357TIP3    H231011   4.741   7.954   1.449  0.5292  1.7927 -0.4123
10358TIP3   OH231012   1.779   2.921   6.249  0.8867 -0.3626  0.2284
10358TIP3    H131013   1.822   2.873   6.179  1.8548  3.4168 -1.9241
10358TIP3    H231014   1.685   2.914   6.229  0.9881 -1.5697  0.1376
10359TIP3   OH231015   0.297   4.457   0.731 -0.1667  0.1875  0.1139
10359TIP3    H131016   0.327   4.542   0.762  1.9832 -0.5068 -0.0319
10359TIP3    H231017   0.277   4.409   0.811 -0.3787  0.4584  0.2262
10360TIP3   OH231018   0.227   0.866   0.245 -0.3123 -0.1332  0.1372
10360TIP3    H131019   0.220   0.783   0.199 -0.7121 -0.9828  1.6890
10360TIP3    H231020   0.204   0.845   0.336  0.2300  1.5349  0.6779
10361TIP3   OH231021   6.074   1.497   4.290  0.0144 -0.4629  0.4692
10361TIP3    H131022   5.996   1.524   4.338 -1.0099 -1.3010 -0.6796
10361TIP3    H231023   6.145   1.550   4.326 -1.1712  0.6326  1.2103
10362TIP3   OH231024   4.625   1.086   6.072 -0.0573 -0.1072  0.3284
10362TIP3    H131025   4.561   1.087   6.000  1.6972  2.6502 -1.2941
10362TIP3    H231026   4.599   1.160   6.127  0.5803 -0.1714  0.7119
10363TIP3   OH231027   7.652   4.433   1.354  0.0131 -0.1877  0.5200
10363TIP3    H131028   7.612   4.441   1.440  1.4823  0.4715  1.1604
10363TIP3    H231029   7.658   4.523   1.322 -0.4007 -0.4159 -0.2201
10364TIP3   OH231030   6.711   7.611   0.289  0.2648  0.5392  0.1293
10364TIP3    H131031   6.691   7.643   0.201 -0.4309 -0.3495 -0.0320
10364TIP3    H231032   6.639   7.643   0.343  0.0174 -0.0290  0.1320
10365TIP3   OH231033   3.601   3.689   6.287 -0.0674  0.1937  0.0702
10365TIP3    H131034   3.657   3.722   6.358 -0.9280 -0.9708  1.3023
10365TIP3    H231035   3.606   3.594   6.294 -1.3144  0.0742 -0.5153
10366TIP3   OH231036   4.922   2.721   5.946  0.0278  0.0466  0.4419
10366TIP3    H131037   4.910   2.750   5.855 -0.3626 -1.1107  0.1182
10366TIP3    H231038   4.883   2.791   5.998 -2.4179 -0.6403 -0.3847
10367TIP3   OH231039   7.188   0.577   3.573  0.2114  0.0706 -1.1332
10367TIP3    H131040   7.110   0.528   3.545  0.1689 -0.8441  0.5295
10367TIP3    H231041   7.155   0.642   3.634  0.7961 -0.6087 -0.0831
10368TIP3   OH231042   1.314   1.543   5.872 -0.7635  0.2813  0.4837
10368TIP3    H131043   1.223   1.574   5.874 -0.2486  1.8729 -0.2229
10368TIP3    H231044   1.366   1.621   5.891  0.5057 -0.4323 -0.0265
10369TIP3   OH231045   3.165   2.087   6.044 -0.7092  0.2384 -0.0636
10369TIP3    H131046   3.220   2.105   6.120  0.6396  0.6129 -1.1136
10369TIP3    H231047   3.149   2.172   6.004  0.5196 -0.1805 -1.5026
10370TIP3   OH231048   2.818   7.576   6.206  0.0580 -0.3130 -0.4072
10370TIP3    H131049   2.730   7.543   6.225 -0.0337 -0.2907 -0.7829
10370TIP3    H231050   2.863   7.500   6.169 -0.8087  0.5115 -3.3140
10371TIP3   OH231051   3.840   1.903   4.732  0.1100  0.1160  0.3612
10371TIP3    H131052   3.929   1.883   4.761  0.5692  1.8744  0.2179
10371TIP3    H231053   3.810   1.822   4.691  0.9014 -1.1427  2.1803
10372TIP3   OH231054   6.774   4.492   0.608  0.6166  0.2006  0.0650
10372TIP3    H131055   6.836   4.544   0.558  1.7329 -0.6646  0.5036
10372TIP3    H231056   6.688   4.519   0.578  1.2699 -0.5079 -2.5166
10373TIP3   OH231057   6.385   6.818   0.778 -0.0319 -0.1503 -0.2218
10373TIP3    H131058   6.365   6.766   0.855 -0.2355 -0.1647 -0.2831
10373TIP3    H231059   6.306   6.811   0.723 -0.1846  0.4711 -0.0939
10374TIP3   OH231060   3.928   4.386   1.142  0.5057 -0.4773 -0.2885
10374TIP3    H131061   3.932   4.435   1.060 -0.0790 -0.2407 -0.1786
10374TIP3    H231062   3.995   4.318   1.133  0.1237 -0.7454 -1.1531
10375TIP3   OH231063   3.462   0.476   6.630 -0.3400  0.1745  0.1738
10375TIP3    H131064   3.483   0.395   6.675 -0.6434  0.6180  1.1445
10375TIP3    H231065   3.521   0.541   6.668 -0.6065  0.5581 -0.0544
10376TIP3   OH231066   4.875   6.663   0.004 -0.2432  0.0591  0.0588
10376TIP3    H131067   4.969   6.680  -0.007 -0.4153  0.5194 -0.7263
10376TIP3    H231068   4.869   6.618   0.088  0.5008  1.6222  0.9724
10377TIP3   OH231069   1.256   0.247   1.355  0.4200 -0.0858 -0.4511
10377TIP3    H131070   1.277   0.161   1.317  0.0344 -0.3482 -0.0832
10377TIP3    H231071   1.274   0.309   1.285  1.9043 -0.3406 -0.3199
10378TIP3   OH231072   6.879   0.606   0.617  0.3577  0.5470 -0.3691
10378TIP3    H131073   6.877   0.514   0.591  2.1551  0.2151  0.5480
10378TIP3    H231074   6.813   0.614   0.685  0.8659 -0.3006  0.2334
10379TIP3   OH231075   7.448   4.589   2.697 -0.3485  0.8696 -0.3768
10379TIP3    H131076   7.540   4.566   2.703 -0.2105  0.9843 -1.9256
10379TIP3    H231077   7.419   4.597   2.788  1.7224  3.1175  0.1124
10380TIP3   OH231078   1.016   2.663   5.762 -0.2585  0.7272 -0.1200
10380TIP3    H131079   1.001   2.756   5.747 -0.7956  0.3350 -2.1578
10380TIP3    H231080   1.003   2.652   5.856  2.4721  3.1731  0.6257
10381TIP3   OH231081   3.702   4.954   6.756 -0.1234 -0.3958 -0.3646
10381TIP3    H131082   3.798   4.955   6.761 -0.1124 -0.0705 -0.6660
10381TIP3    H231083   3.679   4.861   6.757  0.1421 -0.4625  0.7192
10382TIP3   OH231084   3.248   3.495   5.528  0.2141 -0.2777 -0.1062
10382TIP3    H131085   3.162   3.465   5.498 -0.0941  0.9524 -0.4948
10382TIP3    H231086   3.228   3.558   5.597  0.8104 -0.0567 -0.1397
10383TIP3   OH231087   3.461   1.871   6.127 -0.2274 -0.2097  0.1069
10383TIP3    H131088   3.525   1.934   6.094  0.3512 -0.6501  0.4043
10383TIP3    H231089   3.388   1.925   6.157  0.0983  0.2987 -0.0166
10384TIP3   OH231090   3.208   4.271   5.868  0.6518  0.2853 -0.5031
10384TIP3    H131091   3.238   4.344   5.922  0.2416 -0.1125  0.2551
10384TIP3    H231092   3.284   4.213   5.863  0.1851 -0.4589  0.9759
10385TIP3   OH231093   1.198   5.821   5.549  0.9596  0.1879 -0.0727
10385TIP3    H131094   1.209   5.728   5.529  1.6049  0.6025 -1.7000
10385TIP3    H231095   1.257   5.836   5.623  0.8651 -0.6865  0.1878
10386TIP3   OH231096   8.284   7.549   4.739  0.2061 -0.6376  0.4485
10386TIP3    H131097   8.251   7.543   4.650  0.8189 -3.3067  0.3621
10386TIP3    H231098   8.206   7.554   4.794 -0.1731  2.8307 -0.2725
10387TIP3   OH231099   1.658   5.436   6.496 -0.5741 -0.2736  0.1518
10387TIP3    H131100   1.689   5.424   6.586 -0.0237  1.3878  0.2081
10387TIP3    H231101   1.572   5.394   6.495 -0.6793 -0.1365  1.5220
10388TIP3   OH231102   5.613   6.245   0.788  0.1098 -0.5127 -0.8004
10388TIP3    H131103   5.671   6.271   0.716 -0.6929  0.7647 -1.0146
10388TIP3    H231104   5.540   6.201   0.746 -1.3020  1.9243 -0.9784
10389TIP3   OH231105   3.342   3.626   6.785  0.2156 -0.2944  0.2217
10389TIP3    H131106   3.415   3.616   6.724  1.0217 -1.1973  1.3054
10389TIP3    H231107   3.359   3.560   6.852 -2.5097 -1.7225 -0.4152
10390TIP3   OH231108   5.437   0.765   6.718  1.1042  0.3833 -0.1086
10390TIP3    H131109   5.457   0.825   6.646 -0.7721  1.2415  0.0712
10390TIP3    H231110   5.484   0.801   6.793  1.8645  0.3103 -0.5383
10391TIP3   OH231111   2.764   1.773   5.270 -0.3641  0.0291  0.4609
10391TIP3    H131112   2.755   1.724   5.188 -0.3173  2.9853 -1.3788
10391TIP3    H231113   2.679   1.763   5.314  0.2746 -3.2551  1.0949
10392TIP3   OH231114   2.020   1.566   5.644 -0.4194  0.3143  0.3629
10392TIP3    H131115   2.042   1.577   5.736  0.1327 -1.5162  0.4773
10392TIP3    H231116   1.992   1.475   5.637 -1.8810  0.8503 -1.0005
10393TIP3   OH231117   6.076   3.887   0.904  0.4065 -0.4802 -0.1557
10393TIP3    H131118   6.156   3.940   0.893  0.1363 -0.1682 -0.6573
10393TIP3    H231119   6.005   3.951   0.904  0.2456 -0.6541  1.5104
10394TIP3   OH231120   6.292   5.779   0.021  0.0836  0.0569 -0.3184
10394TIP3    H131121   6.380   5.787   0.057  0.3671  2.1401 -1.4532
10394TIP3    H231122   6.243   5.731   0.088  1.9616 -0.7473  0.4936
10395TIP3   OH231123   3.319   1.713   4.765 -0.0044 -0.4712  0.5046
10395TIP3    H131124   3.297   1.637   4.819  0.4946 -0.3960  0.8176
10395TIP3    H231125   3.246   1.773   4.777  0.3036 -0.2731  1.4397
10396TIP3   OH231126   4.791   6.573   0.721 -0.4486  0.4217 -0.2237
10396TIP3    H131127   4.708   6.530   0.698 -0.3141 -0.5142  1.0117
10396TIP3    H231128   4.768   6.665   0.729 -1.4942  0.0989  0.6333
10397TIP3   OH231129   2.036   1.837   5.611 -0.5749 -0.0195  0.1827
10397TIP3    H131130   2.098   1.832   5.683 -2.4583  0.0074  1.8510
10397TIP3    H231131   2.007   1.747   5.597 -0.9537  0.1087  0.1240
10398TIP3   OH231132   3.476   3.449   6.366 -0.1474 -0.0521  0.3911
10398TIP3    H131133   3.451   3.440   6.274  0.1616  0.0859  0.2913
10398TIP3    H231134   3.486   3.359   6.397 -0.9675 -0.1123  0.4918
10399TIP3   OH231135   2.284   5.190   5.946  0.1998  0.1387  0.3996
10399TIP3    H131136   2.336   5.156   6.018 -1.3636  0.3482  1.6559
10399TIP3    H231137   2.337   5.259   5.908  1.6151 -0.8923  0.4760
10400TIP3   OH231138   5.696   4.365   1.150  0.4256  0.2149 -0.1641
10400TIP3    H131139   5.792   4.368   1.158  0.3255  0.3779  1.0843
10400TIP3    H231140   5.665   4.435   1.207 -0.4169  0.6976 -1.2031
10401TIP3   OH231141   3.488   7.258   0.737 -0.2117 -0.2596  0.2658
10401TIP3    H131142   3.530   7.310   0.806 -0.4197 -0.7408  0.7562
10401TIP3    H231143   3.472   7.173   0.777 -2.9631  0.3666  0.5402
10402TIP3   OH231144   6.237   4.903   0.535  0.0144 -0.5321 -0.0198
10402TIP3    H131145   6.236   4.822   0.585 -1.5426  0.4748  1.6399
10402TIP3    H231146   6.155   4.901   0.485  0.6256 -0.6039 -1.0388
10403TIP3   OH231147   2.218   5.652   6.226 -0.8209 -0.3877 -0.1734
10403TIP3    H131148   2.241   5.729   6.174 -3.1064  1.1226  0.9639
10403TIP3    H231149   2.187   5.588   6.162 -0.5836  0.2703 -0.9623
10404TIP3   OH231150   1.156   7.937   0.235  0.4737 -0.3327  0.3320
10404TIP3    H131151   1.082   7.881   0.256  0.3081  0.0152  0.6678
10404TIP3    H231152   1.124   7.995   0.166  0.1790  0.3715  1.0540
10405TIP3   OH231153   1.325   0.557   0.250  0.2435  0.3371 -0.6381
10405TIP3    H131154   1.369   0.604   0.320 -0.0433  1.0934 -0.9564
10405TIP3    H231155   1.240   0.602   0.240 -0.2410 -0.5684 -0.5988
10406TIP3   OH231156   8.005   0.961   0.623  0.0913  0.0576 -0.6421
10406TIP3    H131157   8.090   0.934   0.591 -0.6628 -0.5098 -2.2055
10406TIP3    H231158   8.010   1.056   0.626  0.6692  0.0446 -1.0592
10407TIP3   OH231159   4.512   3.906   4.794  0.6786 -0.0013 -0.2605
10407TIP3    H131160   4.442   3.965   4.820  0.3926 -0.8817  1.0527
10407TIP3    H231161   4.543   3.940   4.710 -2.3134 -0.4532 -1.6086
10408TIP3   OH231162   1.030   3.245   5.653 -0.3099 -0.0778 -0.0725
10408TIP3    H131163   1.046   3.208   5.740  0.4383  1.8351  0.6239
10408TIP3    H231164   1.021   3.168   5.596 -0.7055 -1.3540  1.6565
10409TIP3   OH231165   2.851   3.491   5.810  0.0853  0.5543  0.4110
10409TIP3    H131166   2.760   3.461   5.810 -0.6291  2.6338 -0.3406
10409TIP3    H231167   2.900   3.419   5.851 -1.5495 -1.5743 -1.2683
10410TIP3   OH231168   1.931   5.053   6.413 -0.0011 -0.4193  0.2802
10410TIP3    H131169   1.940   5.038   6.319  0.9968  0.1868  0.2793
10410TIP3    H231170   1.973   5.138   6.429 -1.2164  0.0497  1.0846
10411TIP3   OH231171   4.384   3.914   5.072 -0.5965  0.3439  0.2064
10411TIP3    H131172   4.333   3.985   5.032  1.1701  0.2767 -2.3086
10411TIP3    H231173   4.432   3.875   4.999  1.7239 -0.7062  2.2261
10412TIP3   OH231174   0.949   1.965   0.310  0.5963  0.6329 -0.1204
10412TIP3    H131175   1.028   1.930   0.351  2.2906  2.2547 -1.8864
10412TIP3    H231176   0.970   2.056   0.290 -2.6616  1.8737  1.7008
10413TIP3   OH231177   4.593   3.173   5.611 -0.6979  0.3012 -0.3006
10413TIP3    H131178   4.522   3.188   5.549 -0.6242 -1.9813 -0.9732
10413TIP3    H231179   4.657   3.242   5.591 -1.1317  0.2155 -2.0456
10414TIP3   OH231180   0.067   6.030   0.469 -0.5020 -0.2254 -0.6911
10414TIP3    H131181  -0.006   6.015   0.409 -0.4837 -1.4707 -0.4153
10414TIP3    H231182   0.087   5.944   0.504  1.4618  0.0229 -1.1685
10415TIP3   OH231183   3.629   1.918   6.361 -0.1773 -0.4365 -0.0913
10415TIP3    H131184   3.611   1.983   6.429 -0.8830  0.1140 -0.8037
10415TIP3    H231185   3.548   1.913   6.311 -0.3331 -2.3098  0.3188
10416TIP3   OH231186   5.049   3.091   5.829 -0.1330 -0.2571  0.1522
10416TIP3    H131187   5.115   3.067   5.894 -1.9059  1.1696  2.5471
10416TIP3    H231188   4.971   3.043   5.855 -0.7537  0.0228 -1.1726
10417TIP3   OH231189   6.092   1.929   6.444 -0.0306 -0.2077  0.0799
10417TIP3    H131190   6.155   1.857   6.449 -1.3416 -1.3381  0.2090
10417TIP3    H231191   6.146   2.008   6.455  1.4445 -1.1382 -0.4057
10418TIP3   OH231192   3.669   5.228   4.798  0.4844 -0.2997  0.4410
10418TIP3    H131193   3.658   5.147   4.848  0.1655 -0.8027 -0.4167
10418TIP3    H231194   3.589   5.234   4.746 -0.0374  1.2252  1.4052
10419TIP3   OH231195   3.908   1.807   0.813  1.3564  0.1065  0.1357
10419TIP3    H131196   3.930   1.764   0.895  0.9797  0.9648  0.6997
10419TIP3    H231197   3.976   1.874   0.801  0.8872  0.6050  0.2298
10420TIP3   OH231198   4.479   1.293   6.667  0.1357  0.1562 -0.3396
10420TIP3    H131199   4.503   1.258   6.582 -0.7759 -1.3538 -0.0062
10420TIP3    H231200   4.556   1.279   6.722  0.3127  0.0592 -0.6139
10421TIP3   OH231201   1.606   1.631   0.145  0.6705 -0.3254 -0.4094
10421TIP3    H131202   1.663   1.687   0.093  0.2600 -1.0801 -1.6991
10421TIP3    H231203   1.626   1.654   0.236  2.2161  0.1993 -0.8684
10422TIP3   OH231204   3.924   5.585   5.329  0.4916 -0.1522  0.1101
10422TIP3    H131205   3.856   5.539   5.281  0.6270  0.3113 -0.5409
10422TIP3    H231206   3.908   5.563   5.421  0.3556 -1.2145 -0.1598
10423TIP3   OH231207   5.686   2.238   4.942 -0.2344  0.4406 -0.3765
10423TIP3    H131208   5.773   2.206   4.917 -0.6612 -0.5410 -0.5911
10423TIP3    H231209   5.638   2.246   4.860 -0.6971 -0.0388 -0.1562
10424TIP3   OH231210   5.754   3.331   5.782  0.7795  0.3251  0.0651
10424TIP3    H131211   5.692   3.403   5.796 -0.3133 -1.0148  2.3992
10424TIP3    H231212   5.823   3.346   5.847 -0.8719 -2.2058  2.5272
10425TIP3   OH231213   7.173   6.547   0.479 -0.1572  0.2655  0.2084
10425TIP3    H131214   7.160   6.458   0.446 -1.8127  0.9509 -1.0103
10425TIP3    H231215   7.251   6.579   0.432 -1.5209  0.6375 -1.8533
10426TIP3   OH231216   1.772   0.055   0.045  0.0224 -0.3834  0.3209
10426TIP3    H131217   1.753   0.002   0.123 -1.9143  0.7863  0.6572
10426TIP3    H231218   1.839   0.004  -0.002  0.7660 -1.3989  2.4138
10427TIP3   OH231219   3.821   5.747   6.178 -0.5736  0.2752  0.0408
10427TIP3    H131220   3.726   5.756   6.176 -0.4613  2.1989  1.6338
10427TIP3    H231221   3.836   5.654   6.196 -2.1365 -0.0619 -0.3268
10428TIP3   OH231222   2.135   0.620   0.802 -0.4843 -0.0768 -0.6214
10428TIP3    H131223   2.193   0.554   0.840  0.1526  0.7673 -0.0890
10428TIP3    H231224   2.174   0.703   0.830 -1.5451  0.5061 -0.8838
10429TIP3   OH231225  -0.003   4.922   1.636  0.0359  0.4272 -0.0120
10429TIP3    H131226   0.078   4.941   1.590 -0.7758 -1.8978 -2.5347
10429TIP3    H231227   0.020   4.854   1.699  0.6469  1.9030  1.3787
10430TIP3   OH231228   3.154   3.302   5.911  0.5242  0.5613 -0.4899
10430TIP3    H131229   3.127   3.357   5.985 -0.3041 -1.0295  0.4411
10430TIP3    H231230   3.073   3.260   5.883  1.2048 -0.4577 -0.9306
10431TIP3   OH231231   4.302   2.193   6.540  0.6647  0.2302  0.8119
10431TIP3    H131232   4.294   2.289   6.541  0.2383  0.2311 -0.9630
10431TIP3    H231233   4.390   2.176   6.508  1.1261  0.0413  2.1908
10432TIP3   OH231234   2.956   6.666   6.580  0.8088  0.5288 -0.1510
10432TIP3    H131235   2.958   6.583   6.531 -0.3085 -0.5031  1.5052
10432TIP3    H231236   2.945   6.733   6.512  0.4804 -0.7779 -1.4234
10433TIP3   OH231237   3.526   3.651   6.580  0.7746 -0.0563 -0.3538
10433TIP3    H131238   3.537   3.586   6.510 -0.1428  0.7031 -1.2147
10433TIP3    H231239   3.611   3.696   6.585  0.9828 -0.4139 -0.6611
10434TIP3   OH231240   5.319   2.888   3.720  0.6396  0.1846  0.4135
10434TIP3    H131241   5.353   2.912   3.634  1.9949  0.6757  1.0638
10434TIP3    H231242   5.224   2.894   3.711  0.7350 -0.4518 -1.2432
10435TIP3   OH231243   3.388   3.199   6.829  0.1107 -0.1003 -0.0532
10435TIP3    H131244   3.325   3.269   6.848  0.2244  0.0996 -0.4144
10435TIP3    H231245   3.335   3.130   6.790 -0.2229 -0.7433  1.4980
10436TIP3   OH231246   1.138   7.092   0.794 -0.0960 -0.3644 -0.7439
10436TIP3    H131247   1.144   7.001   0.825  1.6162  0.3037  0.9530
10436TIP3    H231248   1.062   7.127   0.840  0.0221 -0.5627 -0.3904
10437TIP3   OH231249   6.785   3.347   6.510  0.5505  0.4208 -0.2975
10437TIP3    H131250   6.856   3.378   6.453  0.0326 -3.4073 -3.2613
10437TIP3    H231251   6.821   3.270   6.554 -0.6966  0.4241  0.7706
10438TIP3   OH231252   1.434   1.416   5.662 -0.1824  0.0810  0.6796
10438TIP3    H131253   1.419   1.322   5.672 -0.0408  0.0474  0.5801
10438TIP3    H231254   1.404   1.454   5.744 -2.6258  0.2312 -0.2387
10439TIP3   OH231255   6.002   4.500   4.603 -0.4205  0.3171 -0.3267
10439TIP3    H131256   5.998   4.424   4.545 -0.4750 -0.6129  0.8775
10439TIP3    H231257   6.038   4.570   4.549 -0.3659 -0.5640 -1.4459
10440TIP3   OH231258   6.527   1.699   4.496  0.0685 -0.5104  0.5980
10440TIP3    H131259   6.601   1.662   4.448  0.0750 -1.1091  1.0615
10440TIP3    H231260   6.564   1.767   4.551  0.3708 -1.2845  1.3455
10441TIP3   OH231261   5.776   4.310   6.372  0.2689  0.2198  0.2879
10441TIP3    H131262   5.845   4.272   6.318  1.1176 -1.8725  2.7212
10441TIP3    H231263   5.822   4.363   6.436 -0.3925 -0.6377  1.5046
10442TIP3   OH231264   1.119   7.475   1.820 -0.7904 -0.6526  0.0376
10442TIP3    H131265   1.178   7.454   1.893 -0.8109 -1.3843 -0.1553
10442TIP3    H231266   1.166   7.541   1.770 -0.8021 -0.0923  0.7504
10443TIP3   OH231267   4.364   2.648   5.180 -0.1069  0.2719 -0.2557
10443TIP3    H131268   4.342   2.682   5.267 -0.1181 -1.1100  0.2949
10443TIP3    H231269   4.458   2.630   5.185 -0.3125 -0.8310 -0.1591
10444TIP3   OH231270   6.299   6.284   0.176 -0.2735  0.3815 -0.3042
10444TIP3    H131271   6.212   6.300   0.140 -1.7805 -1.3684  2.3515
10444TIP3    H231272   6.316   6.191   0.159  0.7741  0.5481 -0.2260
10445TIP3   OH231273   3.125   5.684   6.616  0.0278 -0.0513 -0.3324
10445TIP3    H131274   3.179   5.649   6.545  2.1178  0.6953  0.8410
10445TIP3    H231275   3.076   5.756   6.577  2.5999  1.6053 -0.6198
10446TIP3   OH231276   6.542   5.778   0.158 -0.0096  0.2504  0.4691
10446TIP3    H131277   6.569   5.854   0.209 -0.2104  0.5252  0.1700
10446TIP3    H231278   6.616   5.760   0.100 -0.3492  0.8299 -0.1538
10447TIP3   OH231279   1.894   6.611   0.483  0.1797 -0.4291 -0.0355
10447TIP3    H131280   1.968   6.649   0.435  1.2766 -1.5920  0.7249
10447TIP3    H231281   1.851   6.687   0.523 -1.7955  0.7966 -4.1693
10448TIP3   OH231282   2.466   1.589   5.539  0.3424 -0.0777 -0.2219
10448TIP3    H131283   2.439   1.666   5.489 -0.6969 -0.4470 -0.2488
10448TIP3    H231284   2.486   1.523   5.473 -0.5630 -0.4109 -0.1769
10449TIP3   OH231285   5.201   5.429   6.050 -0.0846 -0.5019  0.2524
10449TIP3    H131286   5.222   5.412   6.141 -1.5232 -1.0053  0.4974
10449TIP3    H231287   5.218   5.522   6.038 -0.6716 -0.2664  1.2470
10450TIP3   OH231288   4.270   3.889   6.399 -0.2391 -0.4116  0.0149
10450TIP3    H131289   4.196   3.945   6.372 -0.9822 -1.2890  0.1852
10450TIP3    H231290   4.338   3.907   6.334 -0.5603  0.4875 -0.0873
10451TIP3   OH231291   7.225   6.946   0.070 -0.2576 -0.0935  0.3398
10451TIP3    H131292   7.295   6.977   0.128 -1.2800  1.9893  0.4896
10451TIP3    H231293   7.269   6.923  -0.011  0.5456  1.7243  0.2426
10452TIP3   OH231294   5.106   4.589   6.260 -0.2957  0.6662 -0.7085
10452TIP3    H131295   5.121   4.525   6.329 -1.5847  2.0404  0.9141
10452TIP3    H231296   5.168   4.566   6.192  1.5481 -0.2789  1.2294
10453TIP3   OH231297   5.866   3.654   5.261 -0.2582  0.0149 -0.2759
10453TIP3    H131298   5.805   3.698   5.321  1.8052  1.3588  0.8901
10453TIP3    H231299   5.851   3.697   5.177 -2.1412 -0.8826 -0.4259
10454TIP3   OH231300   3.326   4.140   5.107  0.1159  0.1534 -0.1425
10454TIP3    H131301   3.374   4.068   5.066  0.1267 -0.3417  0.7325
10454TIP3    H231302   3.387   4.213   5.107 -0.4986  0.7090 -2.6783
10455TIP3   OH231303   3.581   2.655   6.895 -0.5540  0.1442  0.4711
10455TIP3    H131304   3.664   2.647   6.942 -0.3336  1.5059  0.3317
10455TIP3    H231305   3.515   2.666   6.964 -0.3578  1.1204  0.5089
10456TIP3   OH231306   4.054   2.565   5.532 -0.2524  0.4145  0.2925
10456TIP3    H131307   4.108   2.643   5.520 -0.1297  0.4555  1.0474
10456TIP3    H231308   4.117   2.493   5.536 -0.3862  0.2399 -0.6961
10457TIP3   OH231309   3.654   1.659   6.198 -0.0864 -0.1715  0.0351
10457TIP3    H131310   3.713   1.692   6.129  0.8160  0.4685  1.0952
10457TIP3    H231311   3.584   1.724   6.201 -0.8957 -0.9481 -1.2490
10458TIP3   OH231312   5.837   2.070   5.765  0.1610  0.2417  0.2060
10458TIP3    H131313   5.905   2.070   5.696 -0.9987  1.1614 -0.9613
10458TIP3    H231314   5.814   2.162   5.775 -0.9172 -0.0718  0.6030
10459TIP3   OH231315   2.276   0.462   1.113 -0.4426  0.3442  0.4438
10459TIP3    H131316   2.302   0.477   1.022 -0.9553  2.8464  0.6942
10459TIP3    H231317   2.360   0.452   1.160 -0.1798 -0.9775 -0.2736
10460TIP3   OH231318   1.830   2.192   6.625 -0.5374  0.0591 -0.2895
10460TIP3    H131319   1.824   2.097   6.636 -1.9514  0.1899  0.0650
10460TIP3    H231320   1.740   2.223   6.627 -0.1491  1.3146 -1.3336
10461TIP3   OH231321   2.797   3.939   6.440 -0.3792  0.1545  0.0682
10461TIP3    H131322   2.744   3.967   6.515 -0.7009 -2.4528  0.8504
10461TIP3    H231323   2.887   3.946   6.470 -0.4208  1.0911 -0.0180
10462TIP3   OH231324   1.560   7.641   0.619  0.1305  0.1861 -0.0482
10462TIP3    H131325   1.616   7.585   0.565  0.8847  0.9702 -0.1009
10462TIP3    H231326   1.621   7.688   0.676 -0.4412  1.2792 -0.3131
10463TIP3   OH231327   1.430   5.087   0.570 -0.2391 -0.3391  0.0966
10463TIP3    H131328   1.513   5.073   0.524  1.2915  0.0353  2.6739
10463TIP3    H231329   1.393   4.999   0.581 -0.3374 -0.4830 -1.3036
10464TIP3   OH231330   5.494   1.230   5.452  0.1264  0.0320  0.5018
10464TIP3    H131331   5.454   1.313   5.478 -0.2371 -0.2403  0.8099
10464TIP3    H231332   5.563   1.255   5.390 -0.0166  0.5589  0.5543
10465TIP3   OH231333   4.076   1.963   6.307  0.0517  0.4031  0.3224
10465TIP3    H131334   4.131   2.041   6.301 -2.2489  2.0058 -0.5503
10465TIP3    H231335   4.120   1.908   6.372  2.9910  1.3364 -0.7682
10466TIP3   OH231336   4.691   1.879   5.772 -0.4355  0.1574  0.1242
10466TIP3    H131337   4.716   1.956   5.722 -1.5114  0.5619  0.1989
10466TIP3    H231338   4.635   1.829   5.713 -0.1347 -0.3287  0.2470
10467TIP3   OH231339   4.244   1.804   6.010  0.3037  0.0269  0.1428
10467TIP3    H131340   4.292   1.748   5.949  1.4964  0.0042  1.0930
10467TIP3    H231341   4.203   1.870   5.954  0.8441 -0.3876 -0.7527
10468TIP3   OH231342   6.456   3.679   5.609  0.5060 -0.6668  0.4649
10468TIP3    H131343   6.365   3.667   5.584  0.2162  2.9435 -0.4925
10468TIP3    H231344   6.458   3.667   5.704 -1.1467  0.2465  0.6147
10469TIP3   OH231345   4.967   4.395   6.938  0.5837  0.2727  0.2462
10469TIP3    H131346   4.975   4.426   6.848 -1.4168 -2.3305 -0.8710
10469TIP3    H231347   4.999   4.305   6.936 -0.9119 -0.3175  1.8181
10470TIP3   OH231348   7.126   7.931   0.252  0.2048 -0.0838  0.6197
10470TIP3    H131349   7.090   8.016   0.227 -0.6449 -0.7689 -0.5291
10470TIP3    H231350   7.185   7.908   0.180  1.0368 -0.1212  1.2994
10471TIP3   OH231351   3.182   1.296   4.443  0.6442 -0.5312 -0.1002
10471TIP3    H131352   3.183   1.351   4.521  1.4040 -1.0014  0.2215
10471TIP3    H231353   3.152   1.354   4.373 -0.8377 -0.3167  0.6912
10472TIP3   OH231354   5.096   2.333   6.121 -0.0539  0.1885 -0.2364
10472TIP3    H131355   5.004   2.321   6.097  0.1480  1.7404 -1.9362
10472TIP3    H231356   5.137   2.249   6.102 -0.9436 -0.2200 -0.3915
10473TIP3   OH231357   7.479   6.104   0.132  0.0202 -0.6971  0.4754
10473TIP3    H131358   7.444   6.183   0.091  2.5915  0.1991 -0.0879
10473TIP3    H231359   7.540   6.068   0.067  0.7572 -1.7422  1.7130
10474TIP3   OH231360   6.670   6.881   1.043  0.2426 -0.1566 -0.4990
10474TIP3    H131361   6.760   6.903   1.067  0.1573  0.2557 -0.5498
10474TIP3    H231362   6.626   6.863   1.126 -0.2299  1.9330 -0.2705
10475TIP3   OH231363   6.497   7.722   0.417  0.1727  0.2837  0.0326
10475TIP3    H131364   6.542   7.806   0.416  0.4979  0.1049 -0.3699
10475TIP3    H231365   6.410   7.741   0.382 -0.0312  0.6075  0.7120
10476TIP3   OH231366   4.166   2.839   5.106 -0.3114 -0.4756 -0.1369
10476TIP3    H131367   4.233   2.775   5.130  0.7025 -0.4118 -2.6394
10476TIP3    H231368   4.091   2.817   5.161  1.1581 -1.6757  1.4404
10477TIP3   OH231369   7.636   6.959   0.475 -0.1484  0.3918  0.0380
10477TIP3    H131370   7.639   6.915   0.560 -0.7436 -0.0202 -0.1421
10477TIP3    H231371   7.670   7.047   0.491 -1.3801  0.7153  0.9541
10478TIP3   OH231372   5.045   1.208   6.568  0.1543  0.0631 -0.6102
10478TIP3    H131373   5.054   1.139   6.632  0.2690 -0.2676 -0.9813
10478TIP3    H231374   5.135   1.229   6.542  0.0588 -0.4809 -1.3817
10479TIP3   OH231375   7.321   7.521   0.805  0.2474 -0.2464 -0.1488
10479TIP3    H131376   7.255   7.559   0.746 -0.8467  0.2122  1.3203
10479TIP3    H231377   7.287   7.540   0.893  2.3728  0.0226  0.6343
10480TIP3   OH231378   4.516   4.912   6.041  0.2421 -0.1331  0.2075
10480TIP3    H131379   4.514   4.963   6.122  1.1418 -0.9192  0.7483
10480TIP3    H231380   4.481   4.826   6.067 -1.2028  0.1823 -0.6704
10481TIP3   OH231381   4.242   1.778   6.901 -0.8597  0.0781 -0.0839
10481TIP3    H131382   4.193   1.807   6.824 -0.3567 -1.4282 -1.0006
10481TIP3    H231383   4.177   1.737   6.957 -1.2065  1.0476  0.2193
10482TIP3   OH231384   0.690   2.648   0.222  0.1334 -0.2784 -0.2411
10482TIP3    H131385   0.628   2.677   0.155  2.2361  2.0305 -1.2684
10482TIP3    H231386   0.776   2.659   0.181  1.4023 -0.2122  2.3437
10483TIP3   OH231387   6.675   2.207   6.264  0.1299 -0.0954 -0.2826
10483TIP3    H131388   6.764   2.210   6.230  1.4552 -1.1611  2.8229
10483TIP3    H231389   6.650   2.298   6.278  0.8736  0.1837 -0.7808
10484TIP3   OH231390   3.574   3.910   5.624  0.3279  0.0467 -0.4390
10484TIP3    H131391   3.649   3.898   5.683 -1.5914  1.3457  2.4122
10484TIP3    H231392   3.505   3.857   5.664 -1.3527  1.8490 -0.9111
10485TIP3   OH231393   2.673   2.575   6.438  0.1136  0.1975  0.1613
10485TIP3    H131394   2.600   2.531   6.482 -0.1757 -1.2215 -1.6785
10485TIP3    H231395   2.715   2.506   6.386  0.7105  1.7233 -1.4256
10486TIP3   OH231396   5.671   3.995   5.721  0.1255 -0.9189 -0.0961
10486TIP3    H131397   5.643   4.083   5.745  2.4029 -0.4998  1.2021
10486TIP3    H231398   5.675   3.947   5.805  0.5760 -1.7405 -0.5760
10487TIP3   OH231399   5.490   2.959   6.355 -0.4324  0.4353  0.1718
10487TIP3    H131400   5.396   2.957   6.337 -0.6811 -0.4453  1.4705
10487TIP3    H231401   5.524   2.879   6.316 -0.4272  0.1732  0.7005
10488TIP3   OH231402   3.736   3.809   5.844 -0.3358 -0.2178  0.0253
10488TIP3    H131403   3.826   3.811   5.877 -0.2136 -1.1441 -0.2130
10488TIP3    H231404   3.692   3.880   5.889 -0.3445 -1.8367  2.6812
10489TIP3   OH231405   4.558   2.365   6.323  0.2230 -0.3103  1.0554
10489TIP3    H131406   4.592   2.436   6.268  0.6542 -0.6103  0.9393
10489TIP3    H231407   4.463   2.372   6.314  0.2313  0.7861  1.6981
10490TIP3   OH231408   3.032   5.293   5.890 -0.2312  0.2661  0.5576
10490TIP3    H131409   2.956   5.268   5.838 -0.8610  0.4047  1.4019
10490TIP3    H231410   3.015   5.256   5.977  0.3981  0.7757  0.9037
10491TIP3   OH231411   5.767   2.335   5.757 -0.0104  0.5283  0.0603
10491TIP3    H131412   5.783   2.366   5.846 -1.5845  0.2320  0.4618
10491TIP3    H231413   5.768   2.415   5.704 -0.0437  0.8199  0.4945
10492TIP3   OH231414   4.584   2.203   6.775 -0.3236 -0.0709 -0.2702
10492TIP3    H131415   4.569   2.204   6.680 -0.5470  2.2775 -0.2227
10492TIP3    H231416   4.633   2.283   6.793 -0.5799 -0.3148  1.6434
10493TIP3   OH231417   3.067   0.721   0.532  0.1589  0.0223 -0.1985
10493TIP3    H131418   3.067   0.737   0.437  2.3261  0.5016 -0.1389
10493TIP3    H231419   3.134   0.654   0.544  1.0651  1.1630  1.1902
10494TIP3   OH231420   4.476   4.876   6.888  0.4019  0.0632  0.1198
10494TIP3    H131421   4.560   4.847   6.852  0.9069 -0.3500  1.6138
10494TIP3    H231422   4.493   4.893   6.980 -0.4048  3.1261 -0.2306
10495TIP3   OH231423   7.100   4.488   6.095  0.1090  0.2484 -0.3070
10495TIP3    H131424   7.156   4.478   6.018  0.3010  1.2941 -0.3185
10495TIP3    H231425   7.148   4.445   6.166 -0.9198 -2.3565 -1.1434
10496TIP3   OH231426   5.258   0.137   4.386 -0.0519 -0.0850 -0.0270
10496TIP3    H131427   5.346   0.146   4.422  0.5080 -1.3910 -1.0007
10496TIP3    H231428   5.236   0.045   4.400 -0.7898 -0.0370 -0.8313
10497TIP3   OH231429   5.162   4.166   5.552  0.0598 -0.3858  0.1557
10497TIP3    H131430   5.192   4.106   5.621 -0.1534 -1.2885 -0.5290
10497TIP3    H231431   5.227   4.236   5.552  1.4008 -1.6020 -0.3434
10498TIP3   OH231432   3.484   2.697   6.638  0.7973  0.3763 -0.4913
10498TIP3    H131433   3.514   2.691   6.729 -0.3236  0.0356 -0.1354
10498TIP3    H231434   3.563   2.683   6.586  0.9317 -2.8180  0.4171
10499TIP3   OH231435   3.843   1.355   4.394 -0.4036  0.4837  0.4530
10499TIP3    H131436   3.924   1.319   4.428 -0.4932  1.8663  2.1683
10499TIP3    H231437   3.790   1.373   4.472 -0.8985  3.0108 -0.4206
10500TIP3   OH231438   5.078   1.895   5.900 -0.2088 -0.5624  0.2028
10500TIP3    H131439   5.076   1.828   5.832 -0.4516 -0.8241  0.4682
10500TIP3    H231440   5.006   1.872   5.959 -0.4643  0.0862  0.1483
10501TIP3   OH231441   0.620   5.310   6.660  0.5234 -0.4710 -0.2293
10501TIP3    H131442   0.555   5.240   6.661  2.3433 -2.2681 -2.1068
10501TIP3    H231443   0.580   5.379   6.607 -0.6546 -0.7331  0.3073
10502TIP3   OH231444   0.385   2.104   1.349  0.3763  0.4109 -0.0529
10502TIP3    H131445   0.396   2.059   1.265 -0.6932 -0.5483  0.3070
10502TIP3    H231446   0.456   2.071   1.404  0.6528  0.5053 -0.3544
10503TIP3   OH231447   2.033   4.313   6.248 -0.0282 -0.2329  0.4477
10503TIP3    H131448   1.968   4.350   6.308  3.1396  2.3741  2.4581
10503TIP3    H231449   2.076   4.389   6.209  1.2596 -1.8747 -1.4465
10504TIP3   OH231450   4.336   2.452   6.542 -0.4222 -0.0618 -0.2989
10504TIP3    H131451   4.266   2.511   6.568  1.2047  1.1893  1.4582
10504TIP3    H231452   4.412   2.481   6.594  2.2007  0.5240 -4.2129
10505TIP3   OH231453   4.521   4.002   4.521 -0.1715  0.2909  0.3991
10505TIP3    H131454   4.617   4.002   4.521 -0.1477 -0.0893  2.4751
10505TIP3    H231455   4.498   4.057   4.446  1.7120  2.5571  1.3806
10506TIP3   OH231456   7.409   3.763   5.967  0.0763  0.0834  0.2860
10506TIP3    H131457   7.458   3.777   6.048  1.3125  3.5541 -0.9619
10506TIP3    H231458   7.320   3.794   5.988  0.8617  2.7601 -0.1746
10507TIP3   OH231459   4.397   3.618   5.174 -0.4453  0.4537  0.2682
10507TIP3    H131460   4.447   3.538   5.180  0.3585  0.9995  0.9203
10507TIP3    H231461   4.395   3.638   5.080 -0.0138  0.0786  0.1775
10508TIP3   OH231462   3.738   3.816   6.555 -0.2632 -0.5792 -0.1178
10508TIP3    H131463   3.816   3.863   6.586  0.0636 -2.0117  1.2855
10508TIP3    H231464   3.673   3.885   6.541  0.9166  0.5206 -0.2781
10509TIP3   OH231465   5.567   2.456   6.160 -0.0993 -0.0786 -0.4982
10509TIP3    H131466   5.512   2.533   6.150  2.1934  1.4833 -1.4907
10509TIP3    H231467   5.640   2.485   6.215 -0.0840 -2.0190  0.5620
10510TIP3   OH231468   8.431   1.140   0.054 -0.0586 -0.0284  0.0655
10510TIP3    H131469   8.512   1.192   0.048  0.5784 -0.6796  2.3981
10510TIP3    H231470   8.369   1.198   0.099  0.1386 -0.6571  1.1745
10511TIP3   OH231471   4.071   4.472   5.004 -0.0935 -0.1829 -0.4614
10511TIP3    H131472   4.163   4.449   4.989 -0.8884 -2.8940 -1.3306
10511TIP3    H231473   4.030   4.464   4.918 -0.7175  3.4004 -0.5940
10512TIP3   OH231474   3.539   2.960   5.183 -0.5755 -0.1905 -0.0218
10512TIP3    H131475   3.573   2.874   5.206 -1.2976 -0.8266 -1.2645
10512TIP3    H231476   3.600   2.994   5.118 -1.3622 -0.5933 -0.9691
10513TIP3   OH231477   3.886   2.709   5.718  0.4203 -0.0565 -0.3488
10513TIP3    H131478   3.933   2.790   5.698 -0.1371 -0.2400 -2.5221
10513TIP3    H231479   3.900   2.653   5.641 -3.4078 -0.0832 -1.1516
10514TIP3   OH231480   5.981   4.289   4.838 -0.3806  0.2118 -0.5575
10514TIP3    H131481   5.982   4.381   4.810 -1.8892  0.2306 -0.5939
10514TIP3    H231482   5.949   4.241   4.761 -0.4530 -0.2304 -0.2506
10515TIP3   OH231483   1.803   6.134   0.671 -0.0479 -0.4542 -0.8428
10515TIP3    H131484   1.715   6.161   0.696 -0.0473 -0.5642 -0.7200
10515TIP3    H231485   1.795   6.102   0.581  0.0305  0.3577 -1.1439
10516TIP3   OH231486   7.507   5.906   0.360  0.1629  0.0437  0.0892
10516TIP3    H131487   7.490   5.951   0.277  2.0235 -0.3486 -0.5332
10516TIP3    H231488   7.518   5.814   0.335  2.9425  0.2404  0.4416
10517TIP3   OH231489   3.421   1.244   4.318  0.3796  0.0497 -0.1286
10517TIP3    H131490   3.463   1.328   4.297  1.0676 -0.3302 -0.2842
10517TIP3    H231491   3.340   1.269   4.363  0.4090  0.8056 -0.4788
10518TIP3   OH231492   6.490   6.763   0.459 -0.1415  0.0240  0.4989
10518TIP3    H131493   6.443   6.844   0.440  0.3045  0.4839  1.3457
10518TIP3    H231494   6.559   6.759   0.393  0.0723  0.5252  0.6913
10519TIP3   OH231495   4.648   2.911   5.591  0.2421  0.1983 -0.3952
10519TIP3    H131496   4.652   3.003   5.619 -2.5253  0.2254  0.0906
10519TIP3    H231497   4.633   2.915   5.497  1.2680  0.2156 -0.5626
10520TIP3   OH231498   1.563   1.636   0.477  0.2772  0.0816 -0.2462
10520TIP3    H131499   1.654   1.622   0.450  0.5839  0.7733  0.4080
10520TIP3    H231500   1.537   1.717   0.434 -0.4327 -0.7512 -1.4050
10521TIP3   OH231501   5.490   2.772   6.845  0.3166 -0.2921 -0.3325
10521TIP3    H131502   5.471   2.834   6.774 -0.5524  0.3794  0.4821
10521TIP3    H231503   5.551   2.709   6.806  0.3001  0.4077 -1.5067
10522TIP3   OH231504   5.950   4.986   6.324 -0.6497  0.0986 -0.7987
10522TIP3    H131505   5.891   4.924   6.367  2.2359 -1.7040  0.6691
10522TIP3    H231506   5.996   4.935   6.258  1.0005  0.9152 -0.2976
10523TIP3   OH231507   3.226   3.832   5.470 -0.0041  0.1161 -0.0025
10523TIP3    H131508   3.158   3.794   5.525  0.8368 -0.4676  0.6427
10523TIP3    H231509   3.240   3.767   5.401 -0.9293  0.7666 -0.8297
10524TIP3   OH231510   2.866   3.164   5.052  0.0507  0.0140  0.1375
10524TIP3    H131511   2.845   3.074   5.075  0.8023 -0.7148 -1.9181
10524TIP3    H231512   2.782   3.202   5.025 -0.2155 -0.1581  0.7251
10525TIP3   OH231513   5.894   7.505   0.727 -0.3017 -0.3050 -0.3614
10525TIP3    H131514   5.944   7.551   0.795  0.4663  0.5558 -1.4993
10525TIP3    H231515   5.902   7.560   0.649 -1.8234 -0.8980 -0.9576
10526TIP3   OH231516   3.400   2.141   3.935 -0.0384 -0.2500  0.5885
10526TIP3    H131517   3.329   2.102   3.986  1.8932  0.2629  3.7983
10526TIP3    H231518   3.356   2.206   3.880 -2.3064 -1.4353  0.9461
10527TIP3   OH231519   8.155   6.492   0.238 -0.0790  0.0856  0.5700
10527TIP3    H131520   8.130   6.536   0.157 -0.6318 -0.3919  0.4769
10527TIP3    H231521   8.102   6.533   0.306  0.0591  0.1829  0.6177
10528TIP3   OH231522   3.557   2.654   6.314 -0.2675  0.3591  0.4956
10528TIP3    H131523   3.576   2.564   6.340  0.6542  0.8254  1.4398
10528TIP3    H231524   3.462   2.663   6.328  0.0127  0.2457  2.6197
10529TIP3   OH231525   2.033   2.532   6.094 -0.3349 -0.5853  1.0164
10529TIP3    H131526   2.105   2.541   6.157  0.2648 -0.2363  0.2915
10529TIP3    H231527   2.045   2.445   6.055 -0.2178 -0.4651  0.7846
10530TIP3   OH231528   3.457   4.419   6.598  0.4688  0.2456 -0.3622
10530TIP3    H131529   3.403   4.484   6.643  0.0396  0.5818 -1.3554
10530TIP3    H231530   3.483   4.358   6.668 -0.0002  0.8813  0.3838
10531TIP3   OH231531   2.289   3.915   5.931 -0.4703 -0.6131 -0.5082
10531TIP3    H131532   2.261   4.003   5.956  0.6336  0.2542 -2.2044
10531TIP3    H231533   2.209   3.862   5.933 -1.5319  0.9131 -1.5146
10532TIP3   OH231534   4.614   4.610   5.090  0.0239 -0.4394 -0.2570
10532TIP3    H131535   4.557   4.604   5.013  2.8138  0.9213 -2.5027
10532TIP3    H231536   4.669   4.686   5.073  1.1637 -0.5017  2.8194
10533TIP3   OH231537   6.504   1.401   4.547 -0.1297  0.1792  0.2406
10533TIP3    H131538   6.433   1.463   4.564  0.0082  0.8757 -1.5548
10533TIP3    H231539   6.565   1.449   4.490  0.7035 -1.1162  0.0123
10534TIP3   OH231540   4.198   3.858   6.734 -0.5468 -0.1514 -0.0347
10534TIP3    H131541   4.265   3.805   6.691  0.5605  0.9392  0.3221
10534TIP3    H231542   4.246   3.932   6.772 -1.3312 -1.5035  3.8636
10535TIP3   OH231543   4.766   2.492   5.069 -0.2799 -0.3559 -0.4109
10535TIP3    H131544   4.693   2.434   5.045 -0.3335 -0.6134  0.3718
10535TIP3    H231545   4.792   2.533   4.987 -1.1571 -0.4439 -0.7375
10536TIP3   OH231546   4.401   2.666   5.827 -0.3245  0.1485 -0.1931
10536TIP3    H131547   4.311   2.634   5.826 -0.1963 -0.2340  0.5083
10536TIP3    H231548   4.441   2.629   5.748 -0.4117 -0.7515  0.1804
10537TIP3   OH231549   3.128   1.643   6.923 -0.3140 -0.2014  0.0104
10537TIP3    H131550   3.143   1.675   6.834  0.4977 -1.4572 -0.3199
10537TIP3    H231551   3.090   1.717   6.969  0.2430  0.7890 -1.1042
10538TIP3   OH231552   0.747   2.758   0.585 -0.0316 -0.1651 -0.0394
10538TIP3    H131553   0.794   2.831   0.545  1.2853 -1.2033 -0.4151
10538TIP3    H231554   0.812   2.713   0.639 -1.0364 -0.5843  0.8690
10539TIP3   OH231555   4.537   2.823   6.732  0.5993 -0.5654 -0.7182
10539TIP3    H131556   4.550   2.915   6.707  0.4688 -0.4244 -0.2600
10539TIP3    H231557   4.512   2.780   6.650  0.0198 -0.0670 -0.8057
10540TIP3   OH231558   2.124   3.314   6.435  0.1221 -0.0256 -0.1595
10540TIP3    H131559   2.084   3.359   6.361 -1.3656 -0.4254  0.3873
10540TIP3    H231560   2.069   3.237   6.449  1.2022 -0.6951  0.4909
10541TIP3   OH231561   5.250   4.191   6.449  0.4257  0.6581  0.0667
10541TIP3    H131562   5.303   4.220   6.375  1.7111 -0.2940  0.6010
10541TIP3    H231563   5.188   4.128   6.412  1.3032 -0.0863 -0.1462
10542TIP3   OH231564   4.797   3.351   5.996  0.0789  0.4102  0.6437
10542TIP3    H131565   4.826   3.272   6.041  0.9693 -0.1335 -0.8601
10542TIP3    H231566   4.878   3.402   5.982 -0.5209  1.7748  1.9146
10543TIP3   OH231567   4.473   3.590   6.309 -0.5329 -0.6496 -0.1589
10543TIP3    H131568   4.475   3.496   6.295 -0.5909 -0.5167 -1.1264
10543TIP3    H231569   4.413   3.623   6.242  1.5223  0.3512 -1.5972
10544TIP3   OH231570   4.331   4.225   6.367  0.0740 -0.0412  0.0591
10544TIP3    H131571   4.260   4.288   6.359  0.6110  0.3453 -1.8266
10544TIP3    H231572   4.401   4.261   6.312  0.7560 -1.7634 -0.2130
10545TIP3   OH231573   4.651   5.108   6.570  0.3943 -0.7554 -0.1617
10545TIP3    H131574   4.595   5.073   6.500 -0.0874  0.8346 -0.5761
10545TIP3    H231575   4.643   5.044   6.641 -0.7631 -1.3034 -0.7707
10546TIP3   OH231576   5.734   1.854   4.788  0.3076  0.4163 -0.0342
10546TIP3    H131577   5.684   1.875   4.709  0.5522  1.7659  0.1646
10546TIP3    H231578   5.704   1.766   4.812 -1.0221  0.6835 -0.6532
10547TIP3   OH231579   0.244   6.804   0.161 -0.3427  0.2946  0.2186
10547TIP3    H131580   0.290   6.721   0.151 -0.3916  0.2485  0.3867
10547TIP3    H231581   0.170   6.783   0.218 -0.0572  0.5742  0.6927
10548TIP3   OH231582   0.306   5.394   2.733  0.4496 -0.2601  0.5210
10548TIP3    H131583   0.378   5.446   2.695 -0.0164 -0.2147 -0.3017
10548TIP3    H231584   0.328   5.303   2.710  0.5255 -0.2994  0.7438
10549TIP3   OH231585   5.592   3.946   6.832 -0.0466  0.1155 -0.3807
10549TIP3    H131586   5.574   3.860   6.869 -1.1971  0.4032 -0.2523
10549TIP3    H231587   5.556   3.943   6.744  0.7841  0.1468 -0.7274
10550TIP3   OH231588   4.211   2.747   6.373 -0.0685  0.1401  0.4387
10550TIP3    H131589   4.194   2.673   6.314 -3.3152  2.0286 -1.1110
10550TIP3    H231590   4.186   2.714   6.460 -1.9152 -0.4874 -0.3020
10551TIP3   OH231591   5.682   1.791   6.485 -0.0827  0.6161  0.4828
10551TIP3    H131592   5.616   1.758   6.545 -0.8808 -1.9984 -1.7325
10551TIP3    H231593   5.636   1.856   6.432  0.2658  1.8984  1.7158
10552TIP3   OH231594   5.838   7.260   1.143  0.4578 -0.1109  0.6237
10552TIP3    H131595   5.811   7.270   1.235  0.1509  1.0623  0.4205
10552TIP3    H231596   5.811   7.342   1.102 -0.4922 -1.1110 -0.7904
10553TIP3   OH231597   5.905   2.394   6.001  0.4686  0.2340  0.4660
10553TIP3    H131598   5.876   2.304   6.018  0.4827  0.4498  1.6810
10553TIP3    H231599   5.930   2.428   6.087  0.7001  1.3237 -0.0210
10554TIP3   OH231600   7.983   7.710   0.726 -0.1355 -0.4051 -0.1511
10554TIP3    H131601   8.076   7.734   0.734 -0.4711  0.6276  0.9870
10554TIP3    H231602   7.939   7.793   0.707 -0.8741 -0.8053 -0.1922
10555TIP3   OH231603   2.689   4.024   6.683 -0.7341 -0.1401  0.1029
10555TIP3    H131604   2.778   4.042   6.713 -0.6923 -0.4586  0.1721
10555TIP3    H231605   2.661   3.948   6.734 -1.2782  0.3333  0.5309
10556TIP3   OH231606   7.494   7.665   0.525  0.3774 -0.0362 -0.0505
10556TIP3    H131607   7.411   7.658   0.478 -0.0924  0.6040  0.6803
10556TIP3    H231608   7.493   7.753   0.563 -0.7463 -1.6457  3.9214
10557TIP3   OH231609   2.240   0.285   2.598 -0.4373  0.0769 -0.9660
10557TIP3    H131610   2.308   0.288   2.531  0.1324  0.4420 -0.3867
10557TIP3    H231611   2.287   0.300   2.680 -1.0640 -0.7229 -0.4474
10558TIP3   OH231612   3.668   2.027   6.083 -0.1531  0.0124  0.3897
10558TIP3    H131613   3.668   2.064   6.171  0.9055 -1.0302  0.8418
10558TIP3    H231614   3.761   2.024   6.058 -0.5810  2.1942 -1.5707
10559TIP3   OH231615   4.927   7.658   3.409 -0.3049  0.4652 -0.1780
10559TIP3    H131616   4.983   7.590   3.448 -0.0774 -0.4611 -2.0438
10559TIP3    H231617   4.845   7.652   3.458 -0.3817 -1.3598 -0.4957
10560TIP3   OH231618   0.573   2.475   0.965 -0.5251  0.1959  0.2609
10560TIP3    H131619   0.555   2.555   0.916  0.4435 -0.9547 -2.0289
10560TIP3    H231620   0.499   2.417   0.945 -0.5295  0.0135  0.8031
10561TIP3   OH231621   5.286   2.860   5.618 -0.5742 -0.4711  0.0922
10561TIP3    H131622   5.202   2.828   5.651  0.1153 -1.5407  0.8927
10561TIP3    H231623   5.343   2.859   5.695  0.2801 -0.1761 -0.5287
10562TIP3   OH231624   3.980   4.527   6.867 -0.5581  0.0979  0.0731
10562TIP3    H131625   4.020   4.468   6.930  0.0788  0.0844 -0.3362
10562TIP3    H231626   3.962   4.607   6.917 -2.1813 -0.7205  0.8294
10563TIP3   OH231627   6.587   3.769   4.723 -0.7810  0.1640  0.1502
10563TIP3    H131628   6.649   3.700   4.701 -0.7509 -0.3932  1.9059
10563TIP3    H231629   6.615   3.844   4.670  0.1612 -0.6918 -0.5732
10564TIP3   OH231630   2.011   6.023   1.734 -0.2219  0.0202  0.2486
10564TIP3    H131631   2.074   6.045   1.665  0.8917 -1.0102  0.9023
10564TIP3    H231632   2.011   5.927   1.736  0.3004  0.0310  2.1368
10565TIP3   OH231633   7.436   3.266   5.195  0.1107 -0.7919 -0.6697
10565TIP3    H131634   7.371   3.320   5.238  0.6681  0.8668 -1.8352
10565TIP3    H231635   7.493   3.236   5.265 -0.7078 -0.5667  0.0939
10566TIP3   OH231636   3.963   3.791   6.088  0.3350  0.6557  0.2001
10566TIP3    H131637   4.000   3.859   6.144  2.7514 -1.2439  0.9941
10566TIP3    H231638   3.934   3.723   6.149  0.7076 -0.3277 -0.7055
10567TIP3   OH231639   3.713   0.311   0.081  0.6753  0.1458  0.0576
10567TIP3    H131640   3.744   0.372   0.014  1.7141 -1.1434 -0.6785
10567TIP3    H231641   3.642   0.357   0.125  0.0015  1.0463 -1.8956
10568TIP3   OH231642   5.103   4.421   6.469 -0.0057 -0.9673 -0.0455
10568TIP3    H131643   5.088   4.455   6.557  0.5437 -0.5868 -0.1006
10568TIP3    H231644   5.142   4.335   6.482 -0.8982 -1.3603  0.0891
10569TIP3   OH231645   7.047   3.592   5.234 -0.1073  0.0077  0.5422
10569TIP3    H131646   7.096   3.520   5.274 -0.6225 -0.6279  0.0370
10569TIP3    H231647   7.088   3.672   5.268  0.6804 -0.5271  0.8341
10570TIP3   OH231648   5.151   3.657   5.735  0.1824 -0.6825  0.0031
10570TIP3    H131649   5.202   3.616   5.665  2.0400  0.4764  0.6466
10570TIP3    H231650   5.121   3.583   5.789  2.4627 -1.3111  0.4610
10571TIP3   OH231651   2.723   4.932   5.985  0.6218  0.1767  0.0525
10571TIP3    H131652   2.642   4.974   5.957  2.3107  2.1972 -1.9454
10571TIP3    H231653   2.721   4.937   6.080 -1.6022  0.1781  0.0224
10572TIP3   OH231654   4.102   3.214   6.140 -0.0078  0.2020  0.2205
10572TIP3    H131655   4.027   3.192   6.195  0.6976  1.2163  1.6006
10572TIP3    H231656   4.088   3.306   6.117  2.0959  1.1632  2.5935
10573TIP3   OH231657   0.237   1.634   5.418 -0.2254 -0.4848  0.3595
10573TIP3    H131658   0.195   1.668   5.339  2.3717  1.1132 -0.4133
10573TIP3    H231659   0.290   1.707   5.450 -1.7369 -0.8879  3.9940
10574TIP3   OH231660   5.396   2.937   6.656  0.1255 -0.5202  0.0837
10574TIP3    H131661   5.392   3.012   6.597 -1.7521 -0.4481  0.2633
10574TIP3    H231662   5.374   2.862   6.601 -2.8480 -0.3018  0.9028
10575TIP3   OH231663   4.554   3.656   6.902  0.7043 -0.0792 -0.0966
10575TIP3    H131664   4.606   3.700   6.834  0.1383 -0.4168 -0.7494
10575TIP3    H231665   4.494   3.599   6.854  1.7451 -1.9325  0.7651
10576TIP3   OH231666   3.307   3.555   4.864  0.1219  0.2789 -0.3924
10576TIP3    H131667   3.252   3.627   4.893  0.1010  0.7538 -1.5671
10576TIP3    H231668   3.270   3.529   4.779  1.6358  0.5647 -1.1599
10577TIP3   OH231669   1.818   7.878   0.958  0.1743 -0.2175 -0.4953
10577TIP3    H131670   1.772   7.795   0.970 -0.9766  0.5408  0.5028
10577TIP3    H231671   1.903   7.864   1.000  0.5980 -1.3899 -1.7005
10578TIP3   OH231672   6.777   2.334   6.686  0.4616  0.3098 -0.2166
10578TIP3    H131673   6.778   2.366   6.777  0.2455 -1.9329  0.5958
10578TIP3    H231674   6.855   2.280   6.679  0.1533 -0.0104 -1.1835
10579TIP3   OH231675   7.263   2.643   5.278 -0.3108 -0.6180 -0.1192
10579TIP3    H131676   7.255   2.735   5.253 -2.5655  0.1818  3.1863
10579TIP3    H231677   7.189   2.599   5.236  0.4260 -0.8376 -1.2109
10580TIP3   OH231678   5.164   3.524   4.760 -0.0800  0.0431  0.3766
10580TIP3    H131679   5.204   3.475   4.832  1.6891  0.6395 -0.1758
10580TIP3    H231680   5.177   3.469   4.683  1.0761  0.9331 -0.0783
10581TIP3   OH231681   7.021   2.879   6.275  0.0033 -0.4519  0.5318
10581TIP3    H131682   6.977   2.948   6.226 -3.0558 -1.4687  1.7700
10581TIP3    H231683   7.054   2.923   6.354 -0.3352 -0.0513  0.4522
10582TIP3   OH231684   4.060   1.552   5.407 -0.2949  0.4116  0.0577
10582TIP3    H131685   4.114   1.476   5.428  0.5947  0.8225 -0.6684
10582TIP3    H231686   4.105   1.593   5.332 -1.3967  0.9845 -0.3042
10583TIP3   OH231687   6.450   4.428   0.867 -0.6185 -0.1466  0.2329
10583TIP3    H131688   6.531   4.377   0.856 -0.0487  0.7042  0.4545
10583TIP3    H231689   6.384   4.379   0.818 -0.0664 -1.0773  0.3964
10584TIP3   OH231690   6.022   4.158   4.596 -0.0168 -0.8053 -0.2079
10584TIP3    H131691   6.018   4.071   4.555 -0.7541 -0.4638 -0.8643
10584TIP3    H231692   6.073   4.211   4.535 -0.1982 -0.5794 -0.1628
10585TIP3   OH231693   4.776   2.365   6.602  0.3206 -0.6354  0.5395
10585TIP3    H131694   4.822   2.434   6.554  2.1435 -0.7766  2.0157
10585TIP3    H231695   4.784   2.288   6.546  0.1031 -0.1695 -0.1471
10586TIP3   OH231696   2.795   2.890   6.043 -0.4628  0.0023  0.0687
10586TIP3    H131697   2.829   2.896   5.954  1.1299 -0.4645  0.6357
10586TIP3    H231698   2.784   2.981   6.072 -2.0621  0.1695 -0.9839
10587TIP3   OH231699   3.061   3.989   6.572  0.2755 -0.0482 -0.5749
10587TIP3    H131700   3.061   4.059   6.507  0.4756  0.4047 -0.0826
10587TIP3    H231701   3.154   3.978   6.595  0.0683  0.6877  0.6100
10588TIP3   OH231702   4.810   6.117   5.136  0.1267  0.5211 -0.3609
10588TIP3    H131703   4.847   6.045   5.188 -1.5007 -1.2751 -1.6110
10588TIP3    H231704   4.715   6.100   5.137 -0.2707  2.5955 -0.7929
10589TIP3   OH231705   1.025   0.137   1.010 -0.4374  0.0391  0.0175
10589TIP3    H131706   1.045   0.150   0.917  1.3558 -1.4787  0.1480
10589TIP3    H231707   1.067   0.053   1.031  1.7583  1.7682  2.9018
10590TIP3   OH231708   3.998   4.607   5.969 -0.3803  0.2756  0.2432
10590TIP3    H131709   4.003   4.586   5.876  0.0428  1.4255  0.0011
10590TIP3    H231710   4.051   4.686   5.979  0.7999 -0.6587  1.7066
10591TIP3   OH231711   6.050   3.572   6.712  0.0235 -0.3494  0.1992
10591TIP3    H131712   5.997   3.583   6.791 -3.4697 -0.8002 -1.9526
10591TIP3    H231713   6.027   3.484   6.680 -0.4711  0.7056 -2.5210
10592TIP3   OH231714   7.443   6.717   0.082 -0.3527  0.1973  0.6395
10592TIP3    H131715   7.472   6.678  -0.000 -0.8885 -2.4189  1.6494
10592TIP3    H231716   7.493   6.798   0.089  0.1118  0.1697 -1.9757
10593TIP3   OH231717   4.709   0.516   5.308 -0.6171 -0.0279 -0.1313
10593TIP3    H131718   4.721   0.515   5.403  0.6426 -1.4834 -0.2748
10593TIP3    H231719   4.615   0.528   5.295 -0.7768  0.2786  1.3012
10594TIP3   OH231720   7.855   2.394   1.435 -0.6849 -0.7097  0.0959
10594TIP3    H131721   7.771   2.421   1.471 -0.8352 -1.0883  0.0263
10594TIP3    H231722   7.834   2.353   1.351 -0.3023  0.5010 -0.6122
10595TIP3   OH231723   1.985   6.438   5.141 -0.4453 -0.3739 -0.1042
10595TIP3    H131724   1.894   6.408   5.138 -0.6738  0.3724 -0.5870
10595TIP3    H231725   2.034   6.360   5.169 -1.3085 -0.5855  0.8393
10596TIP3   OH231726   1.165   4.543   4.921 -0.1069 -0.2688 -0.3528
10596TIP3    H131727   1.253   4.576   4.901  0.0669 -1.1493 -1.0922
10596TIP3    H231728   1.180   4.451   4.946 -0.7357 -0.2096  0.2417
10597TIP3   OH231729   7.728   1.007   0.554  0.3823 -0.0387 -0.7927
10597TIP3    H131730   7.823   1.002   0.555  0.3001 -1.6029  0.2606
10597TIP3    H231731   7.699   0.942   0.617 -1.3519  1.5300  0.0953
10598TIP3   OH231732   5.509   2.880   5.801 -0.0126  0.0333  0.1872
10598TIP3    H131733   5.511   2.925   5.886  0.7907  0.3724 -0.0015
10598TIP3    H231734   5.595   2.840   5.793 -0.9866 -2.2088  0.6896
10599TIP3   OH231735   8.164   5.913   0.478 -0.3375 -0.4520  0.2712
10599TIP3    H131736   8.192   5.990   0.528  1.7017  0.2323 -1.8491
10599TIP3    H231737   8.070   5.925   0.465 -0.0468  1.6294  0.0248
10600TIP3   OH231738   2.881   3.569   6.289  0.0648 -0.5797  0.0171
10600TIP3    H131739   2.835   3.562   6.373 -0.0731 -0.5106 -0.0532
10600TIP3    H231740   2.852   3.653   6.253  1.5395  0.2887  0.7587
10601TIP3   OH231741   7.243   7.144   0.590 -0.2577 -0.2182 -0.5408
10601TIP3    H131742   7.298   7.110   0.660  0.5969  2.5606  0.2187
10601TIP3    H231743   7.290   7.221   0.558 -1.7358 -0.1530 -2.6569
10602TIP3   OH231744   7.349   7.403   0.493 -0.3429  0.2395 -0.5027
10602TIP3    H131745   7.426   7.459   0.498  0.7090 -1.3819  3.1517
10602TIP3    H231746   7.277   7.463   0.471  1.3288  2.3904 -0.2686
10603TIP3   OH231747   5.134   3.952   5.355 -0.4305  0.1539 -0.4115
10603TIP3    H131748   5.086   3.996   5.424 -0.8750 -0.8260 -0.0805
10603TIP3    H231749   5.084   3.872   5.337  1.3846 -1.2212  0.3992
10604TIP3   OH231750   7.778   2.851   5.008 -0.6079  0.1529 -0.1116
10604TIP3    H131751   7.859   2.825   5.052 -0.5150  2.1591  0.9744
10604TIP3    H231752   7.802   2.930   4.958 -2.0439  1.1860  0.7899
10605TIP3   OH231753   6.160   4.992   1.533  0.1135 -0.4473 -0.0306
10605TIP3    H131754   6.208   4.965   1.611 -0.2763 -1.8422 -0.2615
10605TIP3    H231755   6.209   5.067   1.500  0.7183 -0.3189  1.1157
10606TIP3   OH231756   4.412   4.407   6.703 -0.3075 -0.1025 -0.8434
10606TIP3    H131757   4.418   4.331   6.645 -2.2907 -1.1245  0.2037
10606TIP3    H231758   4.476   4.390   6.772  1.6476  0.8424 -2.3873
10607TIP3   OH231759   4.817   2.988   6.626 -0.3763  0.4907  0.5443
10607TIP3    H131760   4.819   3.008   6.720 -0.1597  2.5816  0.1212
10607TIP3    H231761   4.901   2.948   6.608  0.1718  1.4198  0.9793
10608TIP3   OH231762   5.043   0.664   5.395  0.0820 -0.0237 -0.2794
10608TIP3    H131763   4.983   0.690   5.465 -0.1210 -1.4156  0.0867
10608TIP3    H231764   5.084   0.584   5.427  2.1319  0.8775 -0.5462
10609TIP3   OH231765   1.585   6.104   1.062  1.1405 -0.1813 -0.1257
10609TIP3    H131766   1.651   6.055   1.111  1.8190  1.9039  1.1139
10609TIP3    H231767   1.585   6.191   1.102 -2.5681 -0.2005  0.0845
10610TIP3   OH231768   2.983   3.047   5.372  0.0474  0.4140 -0.6451
10610TIP3    H131769   3.014   2.968   5.418 -1.6687 -0.2217 -0.5533
10610TIP3    H231770   3.042   3.116   5.402  0.4899 -0.4829  0.6213
10611TIP3   OH231771   4.104   3.527   6.223 -0.1726  0.0233  0.7782
10611TIP3    H131772   4.122   3.528   6.317  1.3580 -1.4600  0.5328
10611TIP3    H231773   4.179   3.572   6.184  0.1902 -1.1135  0.1395
10612TIP3   OH231774   5.945   1.482   5.078 -0.2125 -0.0343 -0.4058
10612TIP3    H131775   5.998   1.463   5.000  2.7386  0.5238  1.4144
10612TIP3    H231776   5.900   1.399   5.097  0.6427 -0.7680 -1.5011
10613TIP3   OH231777   5.231   2.415   6.827 -0.6411 -0.0039  0.0936
10613TIP3    H131778   5.242   2.500   6.869 -0.9444  0.0918 -0.0150
10613TIP3    H231779   5.236   2.433   6.733  1.7087 -0.4650  0.1034
10614TIP3   OH231780   6.082   0.142   0.256  0.0256 -0.2867  0.1813
10614TIP3    H131781   6.083   0.092   0.174  0.6599 -0.8996  0.5565
10614TIP3    H231782   6.096   0.077   0.324 -1.5606  0.0758  0.8687
10615TIP3   OH231783   8.030   4.126   1.629  0.3489  0.5095  0.3022
10615TIP3    H131784   8.057   4.097   1.541  0.7058  0.3736  0.4561
10615TIP3    H231785   8.033   4.222   1.624  0.4806  0.5013  0.2005
10616TIP3   OH231786   4.403   2.157   3.857  0.3457  0.1052  0.3682
10616TIP3    H131787   4.474   2.219   3.840 -0.2814 -0.0296 -3.1167
10616TIP3    H231788   4.323   2.207   3.841 -0.2490 -0.6511  0.9640
10617TIP3   OH231789   0.287   0.183   0.979 -0.3098 -0.1075 -0.1941
10617TIP3    H131790   0.247   0.177   0.892 -1.3802 -0.5858  0.3331
10617TIP3    H231791   0.285   0.276   1.000 -1.4851 -0.1708 -0.0100
10618TIP3   OH231792   4.717   1.947   6.631 -0.1600  0.0007 -0.5367
10618TIP3    H131793   4.694   1.878   6.568 -1.0907 -1.0684  0.9472
10618TIP3    H231794   4.679   2.027   6.594  0.1834 -0.4344 -1.8466
10619TIP3   OH231795   5.218   6.135   4.683 -0.0291 -0.0743  0.1394
10619TIP3    H131796   5.234   6.062   4.743  0.6194 -1.4073 -1.5837
10619TIP3    H231797   5.303   6.179   4.677  0.8230 -1.9324 -2.2979
10620TIP3   OH231798   5.472   3.323   4.216 -0.0716 -0.2590 -0.1122
10620TIP3    H131799   5.525   3.344   4.293 -1.5687  0.7383  0.6618
10620TIP3    H231800   5.438   3.407   4.187 -3.2062 -1.1333  0.8548
10621TIP3   OH231801   5.009   3.316   5.408  0.1396 -0.1320 -0.2556
10621TIP3    H131802   4.980   3.312   5.499 -2.0282  1.8952 -0.8007
10621TIP3    H231803   5.104   3.326   5.413  0.0036  0.3348  1.7747
10622TIP3   OH231804   3.150   1.071   0.701 -0.2314  1.0256  0.8162
10622TIP3    H131805   3.221   1.127   0.732 -0.9295  1.1412  2.1943
10622TIP3    H231806   3.159   0.991   0.752 -0.5698  0.7105  0.3803
10623TIP3   OH231807   5.478   5.176   5.948  0.4069 -0.1579  0.0963
10623TIP3    H131808   5.518   5.260   5.929  2.6379 -1.2099 -0.0326
10623TIP3    H231809   5.419   5.160   5.874  0.1574  1.1661  0.0052
10624TIP3   OH231810   6.315   3.065   4.234  0.2691  0.0698  0.0958
10624TIP3    H131811   6.340   3.112   4.314  0.0736  0.7886 -0.2702
10624TIP3    H231812   6.398   3.042   4.193  0.3637  3.0661 -1.4794
10625TIP3   OH231813   5.209   3.220   5.163  0.1576  0.0433 -0.1343
10625TIP3    H131814   5.220   3.146   5.223  1.9730  0.3353 -0.0768
10625TIP3    H231815   5.188   3.294   5.220 -0.3432 -0.1482 -0.0699
10626TIP3   OH231816   4.361   4.071   6.818  0.6539  0.3807 -0.0378
10626TIP3    H131817   4.437   4.087   6.874  0.0520  0.1020  0.8581
10626TIP3    H231818   4.396   4.076   6.729  1.9859 -1.0736  0.3897
10627TIP3   OH231819   4.148   2.895   6.676 -0.3912  0.1137  0.5367
10627TIP3    H131820   4.072   2.926   6.726  0.6624 -1.0986  2.9357
10627TIP3    H231821   4.223   2.933   6.721  0.5169  0.3954 -1.1799
10628TIP3   OH231822   0.483   6.572   0.135  0.1876 -1.0747  0.0712
10628TIP3    H131823   0.457   6.601   0.048  0.4312 -1.9793 -0.3095
10628TIP3    H231824   0.554   6.510   0.120 -0.0509 -1.5614  0.8784
10629TIP3   OH231825   0.557   1.858   5.003 -0.2835 -0.2049 -0.3492
10629TIP3    H131826   0.492   1.921   5.036  0.0680 -0.0830  0.1123
10629TIP3    H231827   0.560   1.790   5.069 -0.5224 -0.6118 -0.7577
10630TIP3   OH231828   8.219   2.934   5.280 -0.1277  0.0663  0.6265
10630TIP3    H131829   8.185   2.845   5.273  0.8174 -0.3626  1.4403
10630TIP3    H231830   8.231   2.948   5.374 -0.1647  1.0013  0.4916
10631TIP3   OH231831   3.822   2.945   6.493  0.4703  0.4807  0.3677
10631TIP3    H131832   3.844   3.038   6.498  1.4775  0.2810 -0.1597
10631TIP3    H231833   3.821   2.915   6.584  0.3789  0.9631  0.5233
10632TIP3   OH231834   7.377   2.843   5.476  0.3211  0.1144 -0.2920
10632TIP3    H131835   7.450   2.883   5.430  1.2567 -0.5091  0.6075
10632TIP3    H231836   7.411   2.758   5.504 -0.4881  0.1459  0.8138
10633TIP3   OH231837   0.096   4.910   0.230 -0.0619 -0.3224  0.2205
10633TIP3    H131838   0.021   4.964   0.253  0.0936 -1.1028  2.7883
10633TIP3    H231839   0.057   4.826   0.205 -0.1625  0.0286 -0.7923
10634TIP3   OH231840   6.148   3.377   5.536 -0.1702 -0.1719  0.4626
10634TIP3    H131841   6.242   3.363   5.521  0.2083  1.7482  0.8339
10634TIP3    H231842   6.105   3.305   5.490  1.4932 -1.1737  0.4373
10635TIP3   OH231843   6.320   1.720   5.320 -0.3513  0.2737  0.5230
10635TIP3    H131844   6.258   1.658   5.280  0.6886 -0.4881  0.0848
10635TIP3    H231845   6.287   1.806   5.294 -0.3736 -0.1827 -0.9976
10636TIP3   OH231846   7.098   4.395   4.862  0.1285  0.4949 -0.3006
10636TIP3    H131847   7.164   4.398   4.932  0.0670  0.4532 -0.2392
10636TIP3    H231848   7.118   4.315   4.814  0.3923  0.7135 -0.5505
10637TIP3   OH231849   5.677   5.161   5.317  0.4240 -0.4931 -0.3592
10637TIP3    H131850   5.645   5.090   5.374  1.0961 -1.2245 -0.8879
10637TIP3    H231851   5.626   5.152   5.237  0.2578 -0.1483 -0.2950
10638TIP3   OH231852   0.856   6.141   0.777  0.2320 -0.2255  0.0058
10638TIP3    H131853   0.890   6.101   0.697  0.0344  0.0371 -0.2135
10638TIP3    H231854   0.902   6.097   0.848  0.4713 -0.4018 -0.2575
10639TIP3   OH231855   0.796   7.951   0.153 -0.7462  0.2601  0.1816
10639TIP3    H131856   0.887   7.975   0.134 -0.4684 -0.7673  0.1824
10639TIP3    H231857   0.745   8.028   0.129 -0.3697 -0.7572 -4.2058
10640TIP3   OH231858   1.906   6.166   0.044  0.2336 -0.3931 -0.1422
10640TIP3    H131859   2.001   6.171   0.056  0.1759  0.1606  0.0951
10640TIP3    H231860   1.872   6.242   0.091 -0.4654 -1.5923  1.3066
10641TIP3   OH231861   1.367   1.004   0.167 -0.2876  0.1913  0.3815
10641TIP3    H131862   1.370   0.941   0.095 -2.1960  0.6499 -0.1065
10641TIP3    H231863   1.289   1.056   0.150  1.0104  2.4007  1.0344
10642TIP3   OH231864   6.401   4.252   5.247  0.4241 -0.1569 -0.0943
10642TIP3    H131865   6.477   4.267   5.302 -0.9958  0.2434  1.8148
10642TIP3    H231866   6.354   4.336   5.247  0.1260 -0.3040 -1.5057
10643TIP3   OH231867   5.218   0.757   0.352  0.0748  0.6057 -0.8867
10643TIP3    H131868   5.228   0.848   0.324  2.2426  0.7088  0.0812
10643TIP3    H231869   5.158   0.761   0.426  0.8998  1.3958 -0.2481
10644TIP3   OH231870   8.368   6.133   0.786 -0.5330  0.4554 -0.1352
10644TIP3    H131871   8.350   6.172   0.701 -1.7963  1.9124  0.7690
10644TIP3    H231872   8.292   6.078   0.804  0.6461 -1.4582 -0.8195
10645TIP3   OH231873   5.476   3.200   5.951 -0.1873  0.4272 -0.1194
10645TIP3    H131874   5.488   3.251   6.031  2.2346  0.5857 -0.5282
10645TIP3    H231875   5.491   3.109   5.978  1.9231  0.6060 -0.6058
10646TIP3   OH231876   7.396   4.915   4.618  0.3017 -0.0415  0.1316
10646TIP3    H131877   7.307   4.901   4.650 -0.2642  1.0228 -0.9522
10646TIP3    H231878   7.412   4.841   4.560 -1.8861  2.4885 -3.8945
10647TIP3   OH231879   7.845   3.986   4.678 -0.0483 -0.2390 -0.3010
10647TIP3    H131880   7.900   4.015   4.752 -1.4511 -2.4460  1.6832
10647TIP3    H231881   7.779   4.055   4.669 -1.1083 -0.9027  1.9176
10648TIP3   OH231882   1.566   6.450   0.150  0.4699  0.4409 -0.3758
10648TIP3    H131883   1.624   6.441   0.225  1.0264 -0.3140 -0.8873
10648TIP3    H231884   1.508   6.373   0.155  1.1608 -0.1553 -1.2653
10649TIP3   OH231885   6.988   1.743   4.353  0.2402 -0.1510 -0.8581
10649TIP3    H131886   7.023   1.684   4.286  0.0495 -0.9746 -0.2486
10649TIP3    H231887   7.051   1.815   4.357  2.6359 -2.2652  1.1753
10650TIP3   OH231888   8.112   3.785   4.585  0.5071 -0.0544  0.2638
10650TIP3    H131889   8.185   3.735   4.549 -0.6936 -0.8636 -1.0544
10650TIP3    H231890   8.045   3.720   4.605 -1.3530  1.0337 -2.1512
10651TIP3   OH231891   5.851   4.099   5.546  0.0901 -0.5663  0.4581
10651TIP3    H131892   5.914   4.030   5.524 -0.3256 -0.8533  0.1529
10651TIP3    H231893   5.787   4.056   5.604 -0.8920 -0.7894 -0.7614
10652TIP3   OH231894   6.811   2.116   5.967  0.4688 -0.4066  0.0894
10652TIP3    H131895   6.845   2.027   5.954 -0.6702 -0.7951 -0.2458
10652TIP3    H231896   6.852   2.167   5.897  0.6610 -0.7874 -0.0798
10653TIP3   OH231897   7.578   3.475   6.621 -0.2306  0.3719  0.2104
10653TIP3    H131898   7.504   3.452   6.677 -0.2739  4.7950  2.1374
10653TIP3    H231899   7.540   3.524   6.549  0.6488  1.2681  0.3503
10654TIP3   OH231900   4.167   3.608   5.765  0.7777  0.2659  0.6081
10654TIP3    H131901   4.173   3.645   5.677 -1.9213 -0.2885  0.1405
10654TIP3    H231902   4.258   3.593   5.791  1.5938 -0.2431 -2.3638
10655TIP3   OH231903   5.713   3.347   3.561 -0.3766 -0.4009  0.3144
10655TIP3    H131904   5.640   3.285   3.557  0.4497 -1.3655 -0.0558
10655TIP3    H231905   5.727   3.362   3.654 -2.7553  1.8569  0.3672
10656TIP3   OH231906   0.644   7.776   1.829  0.1140  0.0670 -0.4244
10656TIP3    H131907   0.647   7.763   1.924  1.3533 -2.9361 -0.8116
10656TIP3    H231908   0.734   7.800   1.805  0.1936 -0.8314 -1.0408
10657TIP3   OH231909   6.326   3.495   6.532 -0.4965  0.5754 -0.0666
10657TIP3    H131910   6.315   3.582   6.570  1.3686 -0.2499  2.5137
10657TIP3    H231911   6.410   3.499   6.487  0.3925 -0.3253  1.4582
10658TIP3   OH231912   3.462   0.161   0.048 -0.3825  0.7949 -0.4170
10658TIP3    H131913   3.468   0.256   0.034 -2.2142  1.0920  0.6436
10658TIP3    H231914   3.368   0.143   0.044 -0.3259 -0.4476  2.7551
10659TIP3   OH231915   7.407   4.017   4.198  0.3117 -0.2713  0.8199
10659TIP3    H131916   7.410   3.922   4.189  0.7667 -0.1594 -0.2695
10659TIP3    H231917   7.362   4.047   4.119  0.5020  0.4445  0.9802
10660TIP3   OH231918   1.914   0.874   0.343  0.6487  0.3236  0.7064
10660TIP3    H131919   1.841   0.887   0.283  0.0352  0.3602  1.4556
10660TIP3    H231920   1.925   0.958   0.387  0.8262  0.1729  0.9500
10661TIP3   OH231921   7.316   4.231   5.669 -0.4787  0.1814 -0.0495
10661TIP3    H131922   7.282   4.142   5.658 -0.2320 -0.6676  4.7543
10661TIP3    H231923   7.411   4.220   5.664 -0.4910  0.5039 -1.1624
10662TIP3   OH231924   0.665   1.015   1.434  0.4031  0.2671 -0.3462
10662TIP3    H131925   0.666   0.965   1.352  1.3525  2.3341 -1.6185
10662TIP3    H231926   0.626   0.955   1.497  0.7699 -1.8042 -2.0206
10663TIP3   OH231927   8.313   0.959   5.460 -0.3865  0.5572  0.4715
10663TIP3    H131928   8.328   0.958   5.555 -0.4489 -1.7605  0.4738
10663TIP3    H231929   8.310   0.867   5.435 -1.2674  1.1408 -1.6621
10664TIP3   OH231930   7.115   3.366   4.684  0.2006  0.1352 -0.3689
10664TIP3    H131931   7.111   3.318   4.767 -1.0657  0.8985  0.0305
10664TIP3    H231932   7.141   3.454   4.708  0.3336  0.2311 -0.8488
10665TIP3   OH231933   0.405   6.998   0.643 -0.2591 -0.4426  0.5404
10665TIP3    H131934   0.437   6.908   0.645 -0.4266 -0.5389 -0.5047
10665TIP3    H231935   0.381   7.012   0.551  1.7253  1.3465  0.2529
10666TIP3   OH231936   1.306   1.700   1.981 -0.0855  0.4601  0.0999
10666TIP3    H131937   1.347   1.642   2.045 -0.4182 -0.5651 -0.6112
10666TIP3    H231938   1.216   1.668   1.975 -0.3263  1.1850 -0.1452
10667TIP3   OH231939   6.991   1.371   6.284 -0.5276  0.0898 -0.1967
10667TIP3    H131940   7.033   1.354   6.200 -1.7655  1.1133 -1.0394
10667TIP3    H231941   7.018   1.297   6.340 -0.5763 -1.1667 -1.8099
10668TIP3   OH231942   5.658   4.408   5.634  0.6720  1.0243  0.1390
10668TIP3    H131943   5.749   4.404   5.606  0.6367 -2.3450  0.2906
10668TIP3    H231944   5.657   4.367   5.720 -0.9489  1.0817  0.1700
10669TIP3   OH231945   7.677   4.858   4.089  0.2535  0.3480 -0.1029
10669TIP3    H131946   7.687   4.784   4.148  0.5764  0.7561  0.3584
10669TIP3    H231947   7.647   4.820   4.006 -0.4821 -0.1858  0.4115
10670TIP3   OH231948   6.214   3.650   5.459  0.0678 -0.1786  0.0455
10670TIP3    H131949   6.206   3.602   5.377 -0.9416  0.3676 -0.1804
10670TIP3    H231950   6.155   3.605   5.520  1.5702 -1.2005  0.7712
10671TIP3   OH231951   6.753   4.717   4.768  0.2355  0.6555 -0.0063
10671TIP3    H131952   6.764   4.690   4.677  0.9622 -1.6855  0.7417
10671TIP3    H231953   6.810   4.793   4.777 -0.7113  1.6188 -1.7801
10672TIP3   OH231954   3.881   4.831   4.359  0.3372  0.1568  0.0883
10672TIP3    H131955   3.959   4.793   4.398  0.0578  1.2515  1.7301
10672TIP3    H231956   3.808   4.787   4.403  0.0109  2.2111  1.6707
10673TIP3   OH231957   8.026   3.447   4.264 -0.1701 -0.6888  0.1093
10673TIP3    H131958   7.973   3.514   4.222  0.8443  1.1947  1.7194
10673TIP3    H231959   8.113   3.486   4.269  0.5987 -2.4277  0.4377
10674TIP3   OH231960   0.202   7.646  -0.025 -0.7066 -0.1242 -0.0723
10674TIP3    H131961   0.122   7.683   0.012  0.4125  0.1650  2.0995
10674TIP3    H231962   0.217   7.566   0.025 -0.2039 -0.7296 -1.1778
10675TIP3   OH231963   7.307   2.820   4.621  0.1947  0.5790  0.4699
10675TIP3    H131964   7.262   2.856   4.698 -0.3024 -1.6410  1.2531
10675TIP3    H231965   7.315   2.727   4.640  1.5171  0.2822 -1.4827
10676TIP3   OH231966   2.304   5.542   0.700 -0.3591 -0.5604  0.3851
10676TIP3    H131967   2.348   5.627   0.699  3.6819 -2.5053 -0.3615
10676TIP3    H231968   2.292   5.521   0.792 -1.7204  0.9375  0.5625
10677TIP3   OH231969   0.254   3.489   6.367 -0.1166  0.1370 -0.1075
10677TIP3    H131970   0.278   3.485   6.275  1.4613  0.3718  0.2812
10677TIP3    H231971   0.219   3.402   6.386 -0.5585  0.1245 -0.9478
10678TIP3   OH231972   7.141   2.535   4.908  0.2279 -0.3368 -0.2135
10678TIP3    H131973   7.108   2.624   4.924  3.7879  0.7337  1.6785
10678TIP3    H231974   7.111   2.484   4.983  2.1345  0.4427  1.1040
10679TIP3   OH231975   7.648   3.591   4.142 -0.1330  0.1799 -0.1835
10679TIP3    H131976   7.672   3.593   4.049  0.7566 -0.2799  0.0401
10679TIP3    H231977   7.723   3.630   4.187  0.3441 -1.5297  0.5426
10680TIP3   OH231978   3.149   6.929   1.017  0.0391 -0.0399 -0.6338
10680TIP3    H131979   3.213   6.872   1.061 -0.5837 -1.4412 -1.5009
10680TIP3    H231980   3.106   6.872   0.954 -0.3204  1.5150 -1.8191
10681TIP3   OH231981   5.965   0.984   4.619  0.2031  0.4738  0.4616
10681TIP3    H131982   5.871   0.966   4.622  0.2135  0.5269  1.3017
10681TIP3    H231983   5.979   1.028   4.536 -0.4006 -0.1930 -0.0017
10682TIP3   OH231984   6.918   2.823   3.407  0.2029 -0.7937  0.5122
10682TIP3    H131985   6.885   2.866   3.486 -0.7656 -0.6091  0.0162
10682TIP3    H231986   6.919   2.730   3.429  1.2593 -0.6227  1.2128
10683TIP3   OH231987   6.896   3.715   6.710 -0.0469  0.2958 -0.3950
10683TIP3    H131988   6.925   3.655   6.641 -0.3557  0.0842 -0.3399
10683TIP3    H231989   6.975   3.731   6.761 -0.2442 -1.1441  0.4028
10684TIP3   OH231990   7.393   1.920   5.063  0.3187  0.0757 -0.1475
10684TIP3    H131991   7.363   1.936   4.973  0.7646  1.5080 -0.0609
10684TIP3    H231992   7.416   1.827   5.065 -1.1106 -0.3047 -1.0973
10685TIP3   OH231993   1.925   0.613   0.632  0.1215  0.7800  0.3512
10685TIP3    H131994   2.000   0.608   0.691 -0.0921  2.1073  0.7481
10685TIP3    H231995   1.961   0.595   0.546  0.5193 -0.7018  0.8068
10686TIP3   OH231996   8.264   1.891   5.194 -0.6261 -0.5937 -0.0212
10686TIP3    H131997   8.199   1.904   5.262  0.3637  0.8238  0.6748
10686TIP3    H231998   8.336   1.949   5.218  0.3696 -1.2044 -1.4537
10687TIP3   OH231999   6.863   2.893   4.720 -0.4063 -0.0088 -0.2413
10687TIP3    H132000   6.923   2.944   4.666  0.4530  0.5912  1.2619
10687TIP3    H232001   6.859   2.807   4.678  0.5982  0.3128 -1.0026
10688TIP3   OH232002   3.119   1.412   1.449  0.1817  0.0182  0.0734
10688TIP3    H132003   3.071   1.330   1.436 -0.8008  0.5008  0.5648
10688TIP3    H232004   3.179   1.417   1.374  0.8793 -1.5761  0.5005
10689TIP3   OH232005   4.614   3.370   6.197  0.1624  0.2087  0.3638
10689TIP3    H132006   4.543   3.306   6.199  3.1943 -3.2552  1.8242
10689TIP3    H232007   4.650   3.363   6.108  0.7536 -0.4289  0.6503
10690TIP3   OH232008   6.492   3.674   6.855  0.1532  0.6417  0.0354
10690TIP3    H132009   6.424   3.720   6.905 -1.1194 -1.2295  0.0960
10690TIP3    H232010   6.484   3.708   6.766 -0.2865  1.0712  0.2378
10691TIP3   OH232011   1.881   7.670   0.065 -0.1592 -0.7148 -0.2148
10691TIP3    H132012   1.956   7.611   0.076  1.2034  0.9684 -0.3709
10691TIP3    H232013   1.905   7.727  -0.008 -0.3970  1.6252  1.4661
10692TIP3   OH232014   6.622   0.663   4.689 -0.2959 -0.4227 -0.0503
10692TIP3    H132015   6.610   0.745   4.737 -0.8034  0.5913 -1.8543
10692TIP3    H232016   6.690   0.683   4.624  0.1534 -1.6682  0.0142
10693TIP3   OH232017   5.713   3.808   5.523  0.1661 -0.1983  0.0829
10693TIP3    H132018   5.698   3.866   5.598 -1.4158 -0.3265 -0.1142
10693TIP3    H232019   5.641   3.745   5.528  0.3559 -0.5247 -1.2451
10694TIP3   OH232020   6.960   1.960   5.056  0.3455  0.0575  0.5130
10694TIP3    H132021   6.920   1.926   4.976  0.2252 -2.0376  1.4213
10694TIP3    H232022   6.987   2.049   5.034 -1.3139  0.1344 -1.2909
10695TIP3   OH232023   7.325   4.748   5.930 -0.2978 -0.5193 -0.7794
10695TIP3    H132024   7.356   4.790   5.850  0.3506  0.7876  0.1220
10695TIP3    H232025   7.294   4.662   5.903 -1.6059  0.5205 -2.6833
10696TIP3   OH232026   0.028   0.160   0.495  0.3154 -0.4605  0.7494
10696TIP3    H132027  -0.025   0.080   0.499  0.3205 -0.5683 -0.8114
10696TIP3    H232028   0.094   0.141   0.427  0.4669  0.7813  0.5440
10697TIP3   OH232029   5.342   3.311   5.741  0.3197 -0.1690 -0.1256
10697TIP3    H132030   5.265   3.255   5.729 -0.0953  0.7903 -2.1573
10697TIP3    H232031   5.405   3.256   5.786 -0.5373 -1.8756 -0.9786
10698TIP3   OH232032   5.827   3.127   6.119  0.0896 -0.1949  0.0695
10698TIP3    H132033   5.849   3.215   6.090 -2.4893  0.0430 -1.2624
10698TIP3    H232034   5.897   3.072   6.083 -0.3485  0.7799 -2.3599
10699TIP3   OH232035   5.530   1.256   6.588 -0.0758 -0.5234 -0.2066
10699TIP3    H132036   5.560   1.332   6.538  1.4602  0.0232  1.5051
10699TIP3    H232037   5.458   1.220   6.536 -2.0662  3.1715 -0.1911
10700TIP3   OH232038   5.729   2.914   5.240 -0.1445  0.6245 -0.5226
10700TIP3    H132039   5.697   2.853   5.307 -1.2019 -0.9630 -2.4501
10700TIP3    H232040   5.653   2.969   5.220 -0.1924  0.2506 -1.3559
10701TIP3   OH232041   6.713   4.140   5.640 -0.3170  0.1056 -0.1344
10701TIP3    H132042   6.686   4.150   5.731 -3.4085  0.5489 -1.0241
10701TIP3    H232043   6.686   4.052   5.616  0.0959  0.1361 -0.7371
10702TIP3   OH232044   0.001   2.372   6.633 -0.0245 -0.0587 -0.6138
10702TIP3    H132045   0.096   2.363   6.622 -0.1053 -0.1914 -1.2299
10702TIP3    H232046  -0.036   2.310   6.571 -0.5264  0.6582 -1.0433
10703TIP3   OH232047   1.507   6.687   0.019 -0.0603 -0.0245 -0.1109
10703TIP3    H132048   1.548   6.605   0.046 -2.2606 -1.2428 -0.4126
10703TIP3    H232049   1.446   6.708   0.089 -0.7625  0.4525 -0.8574
10704TIP3   OH232050   6.750   2.982   5.531 -0.3992 -0.2201  0.0553
10704TIP3    H132051   6.657   2.967   5.547 -0.6622  1.4592  0.1340
10704TIP3    H232052   6.776   2.908   5.475 -2.0131 -0.1701 -0.8045
10705TIP3   OH232053   4.312   4.319   6.005  0.2944 -0.3085  0.0077
10705TIP3    H132054   4.316   4.404   5.960 -0.7163 -0.4329 -0.3346
10705TIP3    H232055   4.266   4.337   6.086 -0.5079 -0.6568 -0.3689
10706TIP3   OH232056   5.196   2.534   5.423  0.0478 -0.3885  0.0681
10706TIP3    H132057   5.270   2.583   5.388 -0.6939  0.9171  0.2888
10706TIP3    H232058   5.180   2.465   5.358 -0.0605  0.7960 -1.1995
10707TIP3   OH232059   2.617   7.144   0.704  0.0782 -0.1052  0.2977
10707TIP3    H132060   2.586   7.069   0.755  1.0684  0.0100  1.0653
10707TIP3    H232061   2.679   7.188   0.761  1.5639 -0.2525 -1.1790
10708TIP3   OH232062   6.403   3.784   6.584  0.1387 -0.3530  0.3074
10708TIP3    H132063   6.468   3.796   6.515 -0.8425  0.4880 -0.4800
10708TIP3    H232064   6.326   3.832   6.554 -0.1507  0.4286  2.1965
10709TIP3   OH232065   5.822   0.082   0.788 -0.8590 -0.1436 -0.2587
10709TIP3    H132066   5.775   0.164   0.769 -2.7162 -0.7812  1.4185
10709TIP3    H232067   5.779   0.017   0.732  1.6217  0.2706 -2.7391
10710TIP3   OH232068   7.029   2.479   5.200  0.6665 -0.3862 -0.2579
10710TIP3    H132069   7.035   2.396   5.248 -2.0605  0.4143  1.6320
10710TIP3    H232070   6.935   2.499   5.201  1.1350  2.0108 -1.9352
10711TIP3   OH232071   5.944   1.943   6.174  0.1020 -0.2730 -0.0747
10711TIP3    H132072   5.968   1.939   6.267 -0.5032  0.7338  0.1344
10711TIP3    H232073   5.927   1.852   6.150  1.6188 -0.7096  0.4318
10712TIP3   OH232074   6.404   4.132   5.770 -0.3799  0.2562 -0.4764
10712TIP3    H132075   6.348   4.094   5.837 -0.0187 -1.5910 -1.1965
10712TIP3    H232076   6.486   4.151   5.815 -0.8488  0.9690  0.0839
10713TIP3   OH232077   8.203   3.567   5.317  0.9808  0.1809 -0.6878
10713TIP3    H132078   8.123   3.604   5.356  0.7353 -1.7284  0.6560
10713TIP3    H232079   8.264   3.560   5.390  2.1569  0.9710 -1.5782
10714TIP3   OH232080   5.397   3.462   6.370  0.0585  0.6518  0.0298
10714TIP3    H132081   5.457   3.389   6.352 -0.5388  0.3656 -0.8149
10714TIP3    H232082   5.334   3.426   6.433  1.2972  1.2270  1.6383
10715TIP3   OH232083   6.154   3.740   4.206 -0.4469 -0.7077 -0.1198
10715TIP3    H132084   6.065   3.713   4.228  0.0562 -0.2338  2.7389
10715TIP3    H232085   6.147   3.833   4.187 -0.2027 -0.0149  2.8610
10716TIP3   OH232086   6.059   3.615   3.454  0.1599 -0.2340  0.0036
10716TIP3    H132087   6.033   3.565   3.531 -1.4154 -0.4383 -0.6292
10716TIP3    H232088   5.989   3.681   3.444  0.3192 -0.2499 -1.2686
10717TIP3   OH232089   6.092   4.893   4.989  0.6851 -0.3351 -0.3667
10717TIP3    H132090   6.016   4.841   5.015  0.3700  0.1227 -0.3728
10717TIP3    H232091   6.142   4.835   4.931  0.4914 -0.7400 -0.1347
10718TIP3   OH232092   7.820   4.329   4.885  0.4861 -0.1597  0.0395
10718TIP3    H132093   7.783   4.397   4.940 -0.5628 -1.9081  1.5458
10718TIP3    H232094   7.895   4.371   4.842 -2.5653  3.1853 -2.3469
10719TIP3   OH232095   8.427   4.134   4.402  0.3143  0.8556  0.4121
10719TIP3    H132096   8.491   4.169   4.465 -1.4496 -0.5027  3.0202
10719TIP3    H232097   8.368   4.207   4.386  0.5531  1.1054  0.6497
10720TIP3   OH232098   6.057   0.890   0.907  0.0748  0.1106  0.4869
10720TIP3    H132099   6.137   0.896   0.959 -0.7277 -1.1578  1.9123
10720TIP3    H232100   6.080   0.834   0.834  0.3137 -0.7946  1.2504
10721TIP3   OH232101   7.987   4.099   4.919 -0.0224 -0.4745  0.5040
10721TIP3    H132102   7.902   4.133   4.949 -1.3675 -0.7803 -2.7308
10721TIP3    H232103   8.020   4.167   4.860  0.7695 -1.5021 -0.2599
10722TIP3   OH232104   6.067   3.062   6.261  0.1764 -0.4456 -0.2198
10722TIP3    H132105   6.000   3.126   6.280 -1.5739 -2.7182  1.6158
10722TIP3    H232106   6.149   3.103   6.289 -1.0014  0.6926  1.6090
10723TIP3   OH232107   0.241   3.270   4.928 -0.5719 -0.3603  0.0562
10723TIP3    H132108   0.177   3.214   4.882  1.3706 -2.9757  0.4288
10723TIP3    H232109   0.317   3.272   4.870 -0.5325  1.7712  0.1544
10724TIP3   OH232110   4.232   6.106   5.738  0.1377  0.6067  0.3820
10724TIP3    H132111   4.207   6.035   5.679  0.1131  0.3017  0.7603
10724TIP3    H232112   4.245   6.181   5.680  0.8222  0.1299 -0.0912
10725TIP3   OH232113   7.255   2.148   5.508  0.2595 -0.4331  0.1996
10725TIP3    H132114   7.227   2.065   5.547  0.1209 -0.7865 -0.6569
10725TIP3    H232115   7.284   2.125   5.420 -0.2068  0.4927 -0.1994
10726TIP3   OH232116   8.094   4.311   6.214  0.2269  0.0073 -0.4135
10726TIP3    H132117   8.072   4.359   6.294  2.0924 -1.0845  0.7995
10726TIP3    H232118   8.155   4.369   6.168 -0.3157  0.3359 -0.7303
10727TIP3   OH232119   7.055   5.934   5.298 -0.4544 -0.2516  0.0185
10727TIP3    H132120   6.992   5.928   5.369  0.7539  1.2822  1.2426
10727TIP3    H232121   7.077   6.027   5.293  1.9796 -0.8162 -0.1704
10728TIP3   OH232122   6.968   3.136   4.088  0.0480  0.1166  0.4426
10728TIP3    H132123   6.916   3.169   4.162  0.4789 -0.9657  1.2332
10728TIP3    H232124   7.013   3.059   4.123  2.8072  1.4880  0.0004
10729TIP3   OH232125   2.867   5.021   0.923 -0.6681 -0.4280 -0.3446
10729TIP3    H132126   2.891   4.932   0.948  0.8055  0.2340  0.6473
10729TIP3    H232127   2.842   5.013   0.831 -0.1094 -1.7946 -0.3989
10730TIP3   OH232128   7.318   2.154   5.228  0.4332  0.0901  0.5918
10730TIP3    H132129   7.329   2.059   5.237  1.6844  0.1539 -0.1737
10730TIP3    H232130   7.351   2.174   5.141 -0.1855  1.1861  0.5973
10731TIP3   OH232131   6.636   4.186   6.168  0.1230  0.0808 -0.0513
10731TIP3    H132132   6.714   4.197   6.222  0.3601 -0.1553 -0.3498
10731TIP3    H232133   6.623   4.092   6.162 -1.0357  0.1385  1.2316
10732TIP3   OH232134   7.677   1.632   5.955  0.3019 -0.9060  0.8705
10732TIP3    H132135   7.637   1.640   6.041  0.0786 -0.8455  0.7602
10732TIP3    H232136   7.628   1.693   5.900  2.0170  0.9046  1.2750
10733TIP3   OH232137   6.725   3.856   6.347 -0.6255 -0.3548 -0.2817
10733TIP3    H132138   6.638   3.866   6.311 -0.6067  1.6414  0.1894
10733TIP3    H232139   6.718   3.890   6.436  0.9253  1.0055 -0.6581
10734TIP3   OH232140   6.419   1.784   4.820  0.2104  0.1119 -0.1624
10734TIP3    H132141   6.348   1.842   4.848  0.7596  1.0185 -0.6173
10734TIP3    H232142   6.482   1.842   4.778  0.5626 -0.8786 -1.0289
10735TIP3   OH232143   4.072   3.658   4.930 -0.4003  0.3208  0.0464
10735TIP3    H132144   4.083   3.568   4.899 -1.2349 -0.9190  3.1312
10735TIP3    H232145   4.160   3.695   4.927  0.8228 -2.1288  3.0627
10736TIP3   OH232146   7.382   2.147   4.516 -0.0632  0.5404 -0.1730
10736TIP3    H132147   7.463   2.187   4.547  0.2538 -0.1017 -0.1726
10736TIP3    H232148   7.399   2.128   4.424  0.1068 -0.4178  0.0548
10737TIP3   OH232149   2.729   0.383   0.482 -0.3100 -0.0585 -0.6020
10737TIP3    H132150   2.640   0.419   0.481 -0.2184  0.5606  3.5172
10737TIP3    H232151   2.716   0.289   0.496 -0.3538  0.3288  2.2725
10738TIP3   OH232152   7.717   1.163   5.824  0.3533 -0.3338 -0.6528
10738TIP3    H132153   7.751   1.093   5.768  0.0542 -0.8015 -0.2519
10738TIP3    H232154   7.626   1.139   5.840  0.1218  0.3705 -0.8656
10739TIP3   OH232155   3.915   3.920   6.717 -0.5284  0.2091  0.4574
10739TIP3    H132156   3.899   3.894   6.807  1.4746  0.3868  0.8897
10739TIP3    H232157   4.011   3.929   6.711 -0.6127  0.0051 -1.7181
10740TIP3   OH232158   4.422   0.238   2.006  0.8041 -0.1697  0.7969
10740TIP3    H132159   4.414   0.286   2.089 -2.7690 -0.4289  0.6789
10740TIP3    H232160   4.334   0.240   1.969  1.2297 -4.2807 -0.6425
10741TIP3   OH232161   7.428   4.688   4.440 -0.4460 -0.1116  0.3643
10741TIP3    H132162   7.413   4.612   4.497  0.6927 -0.5616  0.0914
10741TIP3    H232163   7.347   4.698   4.391 -0.2072 -1.9149 -0.4526
10742TIP3   OH232164   0.327   5.294   5.907 -0.2719 -0.5286  0.4678
10742TIP3    H132165   0.247   5.282   5.855 -0.8444  0.7921  1.0365
10742TIP3    H232166   0.349   5.206   5.937 -0.9345 -1.0498 -0.5485
10743TIP3   OH232167   5.875   4.577   5.123 -0.3432 -0.7539  0.2157
10743TIP3    H132168   5.908   4.587   5.034  1.6628 -0.6426  0.9358
10743TIP3    H232169   5.869   4.666   5.157 -0.2857 -0.8464  0.4729
10744TIP3   OH232170   3.505   1.142   0.326  0.1853 -0.2913 -0.3615
10744TIP3    H132171   3.521   1.154   0.419  0.6386 -0.9112 -0.3611
10744TIP3    H232172   3.482   1.230   0.294 -0.1506 -0.1145  0.3615
10745TIP3   OH232173   1.124   7.066   2.595 -0.2188  0.6689  0.4235
10745TIP3    H132174   1.033   7.083   2.620 -0.5430  0.4167 -0.5341
10745TIP3    H232175   1.116   7.009   2.518  0.6948  2.4956 -1.0699
10746TIP3   OH232176   8.418   5.319   5.336 -0.4117 -0.0072  0.0281
10746TIP3    H132177   8.470   5.361   5.268 -0.5741 -1.2399 -0.8800
10746TIP3    H232178   8.387   5.391   5.391 -0.0449  0.9810 -1.0403
10747TIP3   OH232179   7.198   4.676   6.420  0.1134 -0.4290  0.2909
10747TIP3    H132180   7.237   4.665   6.333  1.6388  4.6078  0.1639
10747TIP3    H232181   7.258   4.633   6.480  0.8897 -0.9228 -0.8362
10748TIP3   OH232182   1.970   0.593   0.339  0.3538 -0.7368 -0.0934
10748TIP3    H132183   1.986   0.686   0.323  0.0399 -0.4033  1.3692
10748TIP3    H232184   1.917   0.564   0.265 -2.4815  1.0998  1.1151
10749TIP3   OH232185   5.542   3.562   5.528 -0.2114 -0.2886  0.2102
10749TIP3    H132186   5.524   3.548   5.621 -2.6713  0.1113 -0.1715
10749TIP3    H232187   5.468   3.614   5.497  1.2003  0.6378 -1.7160
10750TIP3   OH232188   7.787   4.461   6.663  0.1438  0.5830  0.0608
10750TIP3    H132189   7.707   4.483   6.615  0.5067  1.7876 -0.0119
10750TIP3    H232190   7.758   4.404   6.734 -1.0182  2.4610  1.1087
10751TIP3   OH232191   4.482   4.253   3.504  0.0853  0.1295  0.4485
10751TIP3    H132192   4.536   4.224   3.431 -0.1954  0.5856  0.0479
10751TIP3    H232193   4.431   4.176   3.529 -4.3086  1.3317 -3.8231
10752TIP3   OH232194   2.946   7.894   0.629  0.3961  0.3903 -0.1546
10752TIP3    H132195   2.899   7.818   0.663 -1.5795  0.7903 -1.8756
10752TIP3    H232196   3.021   7.857   0.582  1.2726 -0.3028  1.7450
10753TIP3   OH232197   6.648   2.564   3.059  0.4979 -0.0554 -0.5474
10753TIP3    H132198   6.667   2.516   2.979  1.4991  0.7768 -0.8208
10753TIP3    H232199   6.590   2.635   3.031 -1.7651 -1.6105  0.0095
10754TIP3   OH232200   5.213   2.045   6.357  0.3102 -0.6960 -0.0237
10754TIP3    H132201   5.243   2.135   6.344  0.8863 -0.8429  0.2564
10754TIP3    H232202   5.191   2.015   6.269 -2.4477  0.5751  0.1630
10755TIP3   OH232203   3.931   7.637   0.915  0.6501  0.0166  0.3998
10755TIP3    H132204   3.872   7.666   0.845  0.8295  0.2434  0.3407
10755TIP3    H232205   4.013   7.616   0.871  0.2724 -1.3654  0.3421
10756TIP3   OH232206   2.514   7.729   0.898  0.2013 -0.2009 -0.2496
10756TIP3    H132207   2.587   7.774   0.940  0.7307 -0.1155 -1.2584
10756TIP3    H232208   2.495   7.781   0.820 -1.5503  0.3059  0.4847
10757TIP3   OH232209   6.227   0.240   1.061  0.1663  0.2518 -0.0013
10757TIP3    H132210   6.177   0.312   1.097 -0.0438  0.3159 -0.4137
10757TIP3    H232211   6.317   0.255   1.090  0.4012  1.5122 -1.3491
10758TIP3   OH232212   5.910   0.353   0.324  0.0117  1.0848  0.3608
10758TIP3    H132213   5.959   0.423   0.281 -0.5423  0.0160 -2.1405
10758TIP3    H232214   5.960   0.274   0.305 -1.1206  0.3695  0.2974
10759TIP3   OH232215   4.211   4.307   5.701  0.1971 -0.1257 -0.0157
10759TIP3    H132216   4.189   4.358   5.779  1.2952 -0.5603  0.6002
10759TIP3    H232217   4.302   4.330   5.683  0.5087 -1.3959 -0.0944
10760TIP3   OH232218   4.159   3.222   6.448  0.4967 -0.2908  0.4781
10760TIP3    H132219   4.120   3.225   6.360  0.1488 -2.7769  0.5103
10760TIP3    H232220   4.095   3.173   6.500  0.2515  2.0130  2.3664
10761TIP3   OH232221   4.846   0.371   1.130 -0.5405  0.0949  1.4108
10761TIP3    H132222   4.874   0.390   1.041  0.5348  0.8394  1.8868
10761TIP3    H232223   4.920   0.323   1.168 -1.5593 -1.4678  1.4833
10762TIP3   OH232224   6.884   3.016   6.879 -0.6007  0.0721 -0.5262
10762TIP3    H132225   6.859   2.924   6.885 -1.4155  0.4060  1.6119
10762TIP3    H232226   6.806   3.060   6.843 -0.6794  0.1222 -0.2932
10763TIP3   OH232227   2.188   6.755   2.098  0.1177 -0.5318 -0.2140
10763TIP3    H132228   2.119   6.788   2.156 -0.1364 -0.3692 -0.6048
10763TIP3    H232229   2.196   6.662   2.121 -0.3653 -0.5956 -0.2988
10764TIP3   OH232230   6.330   2.088   6.473  0.1957 -0.0618 -0.1899
10764TIP3    H132231   6.284   2.119   6.551  0.8844  0.4162  0.0348
10764TIP3    H232232   6.423   2.094   6.496  0.4134  0.3624 -1.1372
10765TIP3   OH232233   5.990   4.193   5.874 -0.1055  0.0957  1.1890
10765TIP3    H132234   6.019   4.102   5.874  0.0583  0.1468  1.1139
10765TIP3    H232235   6.068   4.242   5.847 -0.4645  0.1687  0.2688
10766TIP3   OH232236   0.632   6.874   1.171 -0.3856  0.4587 -0.8317
10766TIP3    H132237   0.558   6.821   1.140  0.5934 -0.7076 -1.2089
10766TIP3    H232238   0.663   6.921   1.094 -0.3278  0.4450 -0.8168
10767TIP3   OH232239   0.301   4.812   6.484 -0.1402 -0.6737  0.2401
10767TIP3    H132240   0.222   4.865   6.486 -0.4924 -1.1382 -0.8942
10767TIP3    H232241   0.317   4.788   6.575 -0.7611  0.2181  0.5858
10768TIP3   OH232242   6.360   2.795   4.960  0.5256 -0.1707  0.0277
10768TIP3    H132243   6.418   2.826   4.890 -0.0454  0.7638 -0.0413
10768TIP3    H232244   6.321   2.874   4.996 -0.6420 -0.7796  0.1318
10769TIP3   OH232245   6.448   4.357   5.579  0.8670  0.3545  0.2336
10769TIP3    H132246   6.497   4.315   5.508 -4.1913 -2.5294 -1.8062
10769TIP3    H232247   6.431   4.286   5.641 -0.5842  1.2760  0.9174
10770TIP3   OH232248   5.335   3.475   6.810  0.0931  0.0855  0.4223
10770TIP3    H132249   5.391   3.436   6.743 -0.5884  0.7635 -0.5618
10770TIP3    H232250   5.290   3.401   6.851  3.1198 -0.6895  2.5968
10771TIP3   OH232251   7.122   2.996   6.537 -0.2210 -0.4920  0.2272
10771TIP3    H132252   7.197   2.936   6.542  0.3031 -0.0704 -1.9624
10771TIP3    H232253   7.136   3.057   6.609  0.6749 -1.4017  0.8403
10772TIP3   OH232254   5.248   3.847   5.001 -0.2288  0.9264  0.1359
10772TIP3    H132255   5.226   3.910   4.933 -0.9591  1.4486  0.8398
10772TIP3    H232256   5.173   3.788   5.004  0.3214  0.1929 -0.3169
10773TIP3   OH232257   0.463   4.983   5.226  0.1728  0.1523 -0.0578
10773TIP3    H132258   0.425   4.971   5.139  0.2043 -0.6276  0.0355
10773TIP3    H232259   0.390   4.971   5.287  0.6195 -1.7823  0.1439
10774TIP3   OH232260   7.991   0.607   3.985 -0.3938 -0.3992  0.4201
10774TIP3    H132261   7.965   0.563   3.904 -1.3419  2.0108 -0.6638
10774TIP3    H232262   7.908   0.640   4.021  0.2945  0.6238  1.0782
10775TIP3   OH232263   8.017   3.869   5.990 -0.2631  0.1737  0.9247
10775TIP3    H132264   7.992   3.888   6.080 -0.6355  0.5391  0.7465
10775TIP3    H232265   8.111   3.850   5.994 -0.0716  1.1970  1.2393
10776TIP3   OH232266   4.012   3.473   5.960  0.6100  0.0417 -0.0054
10776TIP3    H132267   4.022   3.546   5.900 -0.9608  0.4583  0.2352
10776TIP3    H232268   4.036   3.509   6.046 -1.6059  0.6795  0.3539
10777TIP3   OH232269   5.015   3.300   6.342 -0.4920 -0.4356 -0.3043
10777TIP3    H132270   5.062   3.356   6.280  0.0897 -1.2782 -0.6251
10777TIP3    H232271   5.075   3.289   6.415 -1.8125  1.9544  1.2340
10778TIP3   OH232272   5.144   4.855   5.377 -0.2116  0.3566 -0.2943
10778TIP3    H132273   5.123   4.918   5.308  0.3232  0.9472  0.0754
10778TIP3    H232274   5.066   4.799   5.383 -1.2376  1.8019  0.2804
10779TIP3   OH232275   6.326   3.205   3.738  0.1428  0.2711  0.3565
10779TIP3    H132276   6.240   3.166   3.753 -0.0066  1.0561  1.6029
10779TIP3    H232277   6.362   3.218   3.826  1.5106  0.0003 -0.1520
10780TIP3   OH232278   0.707   1.507   4.426  0.0635 -0.3442 -0.4695
10780TIP3    H132279   0.692   1.533   4.335 -1.0354 -0.1347 -0.2362
10780TIP3    H232280   0.799   1.483   4.430  0.5856  1.5163 -1.1880
10781TIP3   OH232281   4.493   4.530   5.359 -0.1555 -0.2733 -0.4602
10781TIP3    H132282   4.449   4.520   5.275 -0.0526 -0.5842 -0.4768
10781TIP3    H232283   4.525   4.620   5.358  0.1189 -0.3740 -0.8891
10782TIP3   OH232284   6.990   3.396   5.577  0.3787 -0.9551 -0.0224
10782TIP3    H132285   6.987   3.304   5.550  0.3039 -0.7912 -0.5804
10782TIP3    H232286   7.056   3.398   5.646  0.2362 -1.4639  0.1368
10783TIP3   OH232287   7.738   2.766   6.191  0.3423  0.2922  0.3693
10783TIP3    H132288   7.779   2.839   6.144  2.8551 -1.0909  0.3200
10783TIP3    H232289   7.679   2.726   6.127 -1.1320  2.2989  0.4279
10784TIP3   OH232290   7.240   2.208   4.016  0.5568  0.2200 -0.4722
10784TIP3    H132291   7.304   2.222   3.946 -0.3346  0.1468 -1.2980
10784TIP3    H232292   7.155   2.220   3.974  0.0049 -0.2326  0.5059
10785TIP3   OH232293   0.005   2.647   6.716  0.2868 -0.1794  0.3090
10785TIP3    H132294   0.052   2.659   6.633 -1.2002 -1.6260 -0.7529
10785TIP3    H232295   0.007   2.553   6.732  0.7073  0.1076  2.0188
10786TIP3   OH232296   7.493   3.605   5.738  0.6074 -0.1338 -0.2717
10786TIP3    H132297   7.489   3.620   5.833 -0.6663 -1.2234 -0.1471
10786TIP3    H232298   7.421   3.655   5.703 -0.1171 -1.2862 -0.4534
10787TIP3   OH232299   3.278   6.346   0.117 -0.2127 -0.0439  0.2965
10787TIP3    H132300   3.313   6.369   0.203  0.4527 -0.4758  0.1412
10787TIP3    H232301   3.183   6.353   0.127 -0.1066  0.6014  0.8672
10788TIP3   OH232302   5.718   3.380   6.961 -0.7809 -0.5882  0.4078
10788TIP3    H132303   5.631   3.371   6.922  0.1553  0.3188 -1.9508
10788TIP3    H232304   5.771   3.314   6.918  0.7378  1.6989 -1.3408
10789TIP3   OH232305   5.797   3.356   5.497 -0.1354  0.5870 -0.1834
10789TIP3    H132306   5.794   3.266   5.530  1.4437  0.5765 -0.0096
10789TIP3    H232307   5.768   3.410   5.570 -0.7022  0.2532 -0.1586
10790TIP3   OH232308   7.546   2.527   3.982  0.6276  0.1991  0.0397
10790TIP3    H132309   7.614   2.468   4.013  2.2939  1.2840 -1.4437
10790TIP3    H232310   7.544   2.514   3.887 -0.2484  1.1931 -0.0913
10791TIP3   OH232311   7.245   0.761   6.500  0.2579 -0.0251  0.0948
10791TIP3    H132312   7.150   0.755   6.506  0.1701  0.0411 -1.1734
10791TIP3    H232313   7.275   0.670   6.499  0.3927 -0.0608  2.9558
10792TIP3   OH232314   3.944   4.907   6.450  0.4924  0.3595  0.0627
10792TIP3    H132315   4.011   4.870   6.392  1.5001  0.0988  1.3578
10792TIP3    H232316   3.988   4.915   6.534 -1.9473 -2.5333  1.7192
10793TIP3   OH232317   0.054   3.156   6.911  0.0407  0.3233 -0.3038
10793TIP3    H132318   0.024   3.174   7.000 -0.5645  1.1388 -0.6723
10793TIP3    H232319   0.034   3.063   6.897  1.2970 -0.1464  0.8594
10794TIP3   OH232320   2.970   0.911   4.185  0.1445 -0.3716 -0.2121
10794TIP3    H132321   3.008   0.928   4.271 -1.2018  0.6795  0.1985
10794TIP3    H232322   2.960   0.998   4.146 -1.4714 -0.6368 -0.4382
10795TIP3   OH232323   7.106   2.772   4.406 -0.0197 -0.1578 -0.1258
10795TIP3    H132324   7.137   2.706   4.344 -0.3295  0.0224 -0.4728
10795TIP3    H232325   7.175   2.777   4.472 -0.1284 -1.0552  0.0692
10796TIP3   OH232326   6.333   1.113   5.873  0.4250 -0.0621  0.5306
10796TIP3    H132327   6.345   1.029   5.917  0.9500  0.0075  0.5150
10796TIP3    H232328   6.238   1.126   5.872  0.2536 -1.3144 -0.7049
10797TIP3   OH232329   6.519   2.545   4.616 -0.1663 -0.4210  0.4241
10797TIP3    H132330   6.489   2.486   4.547 -0.7705 -1.0168  1.1748
10797TIP3    H232331   6.613   2.551   4.604 -0.0627 -1.7283  0.4623
10798TIP3   OH232332   1.022   6.122   0.091 -0.0277  0.0558  0.6152
10798TIP3    H132333   1.089   6.061   0.123  0.9309 -1.0640 -3.2455
10798TIP3    H232334   0.942   6.070   0.084  0.8571 -0.9985 -2.9507
10799TIP3   OH232335   3.642   1.871   0.848  0.4662 -0.0409 -0.0977
10799TIP3    H132336   3.595   1.792   0.874 -0.4265  0.1212 -1.1245
10799TIP3    H232337   3.728   1.840   0.821 -0.2343 -0.8302 -1.5251
10800TIP3   OH232338   3.720   2.340   6.050 -0.1187 -0.1919 -0.2511
10800TIP3    H132339   3.635   2.300   6.030  0.8871 -2.0137 -0.9810
10800TIP3    H232340   3.779   2.307   5.983  0.6308  3.0718 -1.2805
10801TIP3   OH232341   6.929   3.652   5.618  0.4592  0.0116 -0.6250
10801TIP3    H132342   6.937   3.557   5.610  0.6382 -0.0869  0.5901
10801TIP3    H232343   6.911   3.683   5.529 -0.2954 -1.2300 -0.9101
10802TIP3   OH232344   8.294   4.488   6.636 -0.1971 -0.0757 -0.3564
10802TIP3    H132345   8.324   4.410   6.589  1.0109 -0.1773  0.5504
10802TIP3    H232346   8.359   4.555   6.615  0.1291 -0.0091  0.8145
10803TIP3   OH232347   5.619   6.516   5.120 -0.5612 -0.0544  0.0812
10803TIP3    H132348   5.581   6.593   5.078 -1.5831 -1.5442 -1.8129
10803TIP3    H232349   5.620   6.449   5.051  0.6635 -1.6255  1.5682
10804TIP3   OH232350   6.822   4.664   4.510 -0.2827  0.4147 -0.1368
10804TIP3    H132351   6.880   4.589   4.495  0.4845  1.0416 -0.3652
10804TIP3    H232352   6.819   4.709   4.425 -0.7263  0.6483  0.0024
10805TIP3   OH232353   7.157   4.016   5.615 -0.4308  0.0163  0.4689
10805TIP3    H132354   7.112   3.984   5.536 -1.2176  0.2419  0.8209
10805TIP3    H232355   7.094   4.003   5.685 -0.0977  0.7306  0.9031
10806TIP3   OH232356   6.387   4.052   4.707  0.3328  0.5004  0.0232
10806TIP3    H132357   6.306   4.093   4.739 -0.4389 -1.9634  1.3182
10806TIP3    H232358   6.457   4.105   4.745 -0.6356  0.4299  1.9859
10807TIP3   OH232359   7.712   3.833   5.178 -1.1207  0.0080  0.0303
10807TIP3    H132360   7.662   3.765   5.222 -0.7716  0.4097  1.0677
10807TIP3    H232361   7.800   3.828   5.216 -0.7816  0.2861 -0.6988
10808TIP3   OH232362   0.044   7.639   1.200  0.6254 -0.4389  0.7691
10808TIP3    H132363   0.107   7.656   1.270  0.9870  0.4151  0.2384
10808TIP3    H232364   0.083   7.678   1.122  0.1152 -1.1848  0.1358
10809TIP3   OH232365   6.949   2.947   5.938 -0.3574 -0.3883 -0.1601
10809TIP3    H132366   7.012   2.979   5.874 -0.5259 -2.7778 -1.5790
10809TIP3    H232367   6.973   2.992   6.019  2.3000 -0.2082 -0.9809
10810TIP3   OH232368   0.716   1.287   5.001 -0.2837 -0.1324 -0.6309
10810TIP3    H132369   0.624   1.281   5.025 -0.6318 -0.8101 -2.1102
10810TIP3    H232370   0.719   1.357   4.936  0.2470 -0.1244 -0.5971
10811TIP3   OH232371   6.674   1.264   3.809 -0.0773 -0.2685 -0.1480
10811TIP3    H132372   6.761   1.237   3.780 -0.0958 -0.8224  0.3031
10811TIP3    H232373   6.654   1.341   3.756  0.7405 -0.0640 -0.1570
10812TIP3   OH232374   1.138   4.103   0.376  0.5125 -0.1682  0.6259
10812TIP3    H132375   1.209   4.160   0.406  0.4124 -0.2154  0.9584
10812TIP3    H232376   1.175   4.015   0.379  0.7028 -0.1101  0.0045
10813TIP3   OH232377   0.390   7.790   0.827  0.1968  0.1637 -0.2242
10813TIP3    H132378   0.384   7.711   0.774 -0.6112 -0.3159  0.5634
10813TIP3    H232379   0.427   7.856   0.768  1.9846 -1.0943 -0.5371
10814TIP3   OH232380   5.715   1.707   5.596  0.0818  0.6418  0.0596
10814TIP3    H132381   5.713   1.661   5.512  0.1480  1.5291 -0.4415
10814TIP3    H232382   5.802   1.688   5.631 -0.6463 -1.3403  0.8649
10815TIP3   OH232383   7.968   2.395   6.792  0.4865  0.1371 -0.6347
10815TIP3    H132384   7.972   2.489   6.776  0.7441  0.1996 -0.2063
10815TIP3    H232385   8.045   2.360   6.748 -0.5625 -0.0959 -2.3184
10816TIP3   OH232386   5.579   7.964   5.268  0.0296  0.0007  0.0677
10816TIP3    H132387   5.533   7.957   5.185 -0.5088 -0.3748  0.3919
10816TIP3    H232388   5.526   7.912   5.329 -0.6314  1.8464  1.1040
10817TIP3   OH232389   7.506   4.323   5.190 -0.5751 -0.0376  0.2914
10817TIP3    H132390   7.558   4.294   5.265 -1.0986 -1.2074  0.1953
10817TIP3    H232391   7.501   4.247   5.132 -1.1979  0.4941 -0.3690
10818TIP3   OH232392   5.983   1.308   6.086  0.6097 -0.1922  0.2767
10818TIP3    H132393   6.065   1.357   6.078  0.0162  0.8490  0.4598
10818TIP3    H232394   5.980   1.281   6.178  1.3042 -1.2339 -0.0011
10819TIP3   OH232395   7.151   2.127   5.829  0.4993  0.9595 -0.2307
10819TIP3    H132396   7.140   2.061   5.760 -0.3861  0.5444  0.2937
10819TIP3    H232397   7.120   2.209   5.790 -1.0401  0.5154  0.0099
10820TIP3   OH232398   6.631   4.549   6.869 -0.3519 -0.7556 -0.4640
10820TIP3    H132399   6.707   4.526   6.924  0.5294  2.5019 -0.2354
10820TIP3    H232400   6.648   4.505   6.786  1.7984 -0.1100 -0.3980
10821TIP3   OH232401   5.692   4.472   5.273 -0.1588  0.4524 -0.0741
10821TIP3    H132402   5.750   4.513   5.208 -0.2589  1.7035  0.6067
10821TIP3    H232403   5.744   4.402   5.311  0.8125  1.3518  0.2935
10822TIP3   OH232404   6.311   3.225   6.313  0.3746  0.5448 -0.3873
10822TIP3    H132405   6.398   3.229   6.274  0.1541  0.4281 -0.9005
10822TIP3    H232406   6.327   3.214   6.407  0.9127 -0.3762 -0.5740
10823TIP3   OH232407   1.444   5.114   1.150 -0.0488  0.1812  0.0043
10823TIP3    H132408   1.466   5.077   1.065  0.1081  1.4880 -0.5471
10823TIP3    H232409   1.388   5.049   1.192 -0.1630 -0.4496 -1.1175
10824TIP3   OH232410   0.760   1.415   0.388  0.1821  0.3305 -0.5179
10824TIP3    H132411   0.676   1.386   0.352  0.1211  2.3539 -2.0948
10824TIP3    H232412   0.818   1.419   0.312  1.3387  0.2534  0.3556
10825TIP3   OH232413   3.099   5.718   0.433 -0.6201 -0.0366  0.0636
10825TIP3    H132414   3.119   5.811   0.423 -0.3562 -0.1792 -0.7484
10825TIP3    H232415   3.053   5.694   0.353 -4.0220  0.2527  1.8376
10826TIP3   OH232416   4.850   0.101   1.800 -0.1118  0.0174  0.0191
10826TIP3    H132417   4.864   0.188   1.762  0.6138 -0.2080 -0.2465
10826TIP3    H232418   4.757   0.100   1.823 -0.6482  0.0816 -1.9886
10827TIP3   OH232419   6.979   4.520   6.346  0.4444  0.5280  0.4418
10827TIP3    H132420   7.003   4.512   6.254 -1.5883 -1.6817  0.0565
10827TIP3    H232421   7.052   4.568   6.386  1.3438  1.5312 -2.2855
10828TIP3   OH232422   7.704   2.404   6.088 -0.0728 -0.0421 -0.0177
10828TIP3    H132423   7.656   2.478   6.052 -0.4068 -1.0685 -1.7347
10828TIP3    H232424   7.792   2.439   6.106 -0.7392  1.2086  0.8850
10829TIP3   OH232425   2.512   5.497   1.036 -0.5028 -0.2197 -0.6089
10829TIP3    H132426   2.541   5.484   1.126 -2.3012 -0.1662 -0.0045
10829TIP3    H232427   2.591   5.527   0.990  0.1537  0.9570  1.2098
10830TIP3   OH232428   6.673   3.409   3.899  0.0627  0.2022 -0.5624
10830TIP3    H132429   6.742   3.476   3.901  0.4304 -0.1532 -1.4310
10830TIP3    H232430   6.597   3.453   3.860  0.2016  0.2120 -0.8216
10831TIP3   OH232431   2.878   4.318   3.934 -0.2073 -0.4152 -0.1776
10831TIP3    H132432   2.903   4.240   3.884 -0.6876 -0.5247 -0.2522
10831TIP3    H232433   2.786   4.332   3.911 -0.1442  0.1277 -0.1036
10832TIP3   OH232434   1.238   3.585   4.064  0.5260 -0.2125  0.3333
10832TIP3    H132435   1.314   3.640   4.084  0.4487 -0.1126  0.3506
10832TIP3    H232436   1.176   3.644   4.022  1.3117 -0.7823 -1.6492
10833TIP3   OH232437   5.556   3.243   6.314 -0.1506 -0.1260  0.2289
10833TIP3    H132438   5.525   3.152   6.317 -0.0861 -0.1122  1.8863
10833TIP3    H232439   5.649   3.237   6.335  0.4091  0.1020 -2.0473
10834TIP3   OH232440  -0.026   3.134   6.441  0.0184 -0.0786  0.1117
10834TIP3    H132441   0.059   3.094   6.423  0.2559  0.1906  0.6332
10834TIP3    H232442  -0.006   3.227   6.453 -0.5038  0.1796 -0.9119
10835TIP3   OH232443   8.063   3.936   6.871  0.3449 -0.1412 -0.1638
10835TIP3    H132444   8.031   3.941   6.961  0.7674 -1.0341  0.0476
10835TIP3    H232445   8.115   3.855   6.869  0.5221 -0.0085 -1.1501
10836TIP3   OH232446   7.311   2.567   6.054  0.0735 -0.4055  0.0317
10836TIP3    H132447   7.235   2.527   6.096  1.3492  0.0382  2.8107
10836TIP3    H232448   7.313   2.657   6.087  1.7783 -0.3873 -0.0742
10837TIP3   OH232449   0.404   3.473   5.848  0.0225 -0.7659  0.3345
10837TIP3    H132450   0.451   3.520   5.779 -0.6219  0.2543  0.5820
10837TIP3    H232451   0.346   3.413   5.800 -2.3039  1.7250 -0.1334
10838TIP3   OH232452   6.181   3.296   6.024  0.3994 -0.0480 -0.1700
10838TIP3    H132453   6.196   3.355   5.950 -0.6905  0.6745  0.1734
10838TIP3    H232454   6.241   3.328   6.091 -1.1722  1.5891  0.5049
10839TIP3   OH232455   8.236   4.848   5.814  0.0365  0.2293  0.0453
10839TIP3    H132456   8.267   4.921   5.868 -0.7919  2.0434 -1.8689
10839TIP3    H232457   8.162   4.812   5.862 -2.1006  3.2450 -0.8988
10840TIP3   OH232458   1.706   4.127   4.746 -0.2242 -0.2351 -0.1791
10840TIP3    H132459   1.627   4.171   4.777  0.8823  0.0647  2.3291
10840TIP3    H232460   1.677   4.038   4.724 -0.6779 -1.2481  4.0782
10841TIP3   OH232461   1.631   1.996   4.632  0.4327 -0.3274 -0.3944
10841TIP3    H132462   1.629   1.916   4.684 -0.4163 -0.6235 -0.8691
10841TIP3    H232463   1.610   1.966   4.543 -0.4373  0.4990 -0.4692
10842TIP3   OH232464   6.712   6.119   5.079 -0.6421  0.2516  0.0703
10842TIP3    H132465   6.690   6.085   5.166 -0.0549  2.3995  1.1202
10842TIP3    H232466   6.672   6.206   5.077  1.1176  1.0741 -0.9723
10843TIP3   OH232467   3.202   0.088   0.028 -0.0469  0.4865 -0.4346
10843TIP3    H132468   3.111   0.117   0.028  0.0503  0.8619 -2.3067
10843TIP3    H232469   3.200   0.003  -0.017  0.2884 -0.3504  1.0946
10844TIP3   OH232470   6.206   4.354   5.796  0.0413 -0.4867 -0.3088
10844TIP3    H132471   6.219   4.445   5.771  2.5788 -0.0859  2.2874
10844TIP3    H232472   6.218   4.305   5.714 -0.3692  1.4045 -1.5242
10845TIP3   OH232473   7.752   4.165   5.291 -0.4483  0.2349 -0.0043
10845TIP3    H132474   7.826   4.104   5.290 -1.4467 -0.9873 -1.5219
10845TIP3    H232475   7.692   4.130   5.357 -1.2890 -0.7771 -1.2867
10846TIP3   OH232476   1.003   1.142   4.619 -0.4630  0.4780 -0.4263
10846TIP3    H132477   1.020   1.125   4.712  0.5135 -0.2529 -0.7238
10846TIP3    H232478   0.933   1.080   4.596 -0.0330 -0.0133 -0.4130
10847TIP3   OH232479   0.918   2.952   6.075  0.7335  0.1732 -0.0544
10847TIP3    H132480   0.838   2.911   6.108  2.0835 -0.9092  2.0135
10847TIP3    H232481   0.897   3.045   6.071 -0.4652 -0.0339  0.9902
10848TIP3   OH232482   8.435   3.981   4.734  0.0215 -0.5983 -0.0480
10848TIP3    H132483   8.475   4.043   4.796  1.7070 -0.7146 -0.9844
10848TIP3    H232484   8.507   3.957   4.675 -0.1405 -4.7975  1.3218
10849TIP3   OH232485   0.371   4.050   6.944 -0.5179 -0.0549  0.2323
10849TIP3    H132486   0.326   3.970   6.916  0.5963 -0.8028  0.5244
10849TIP3    H232487   0.403   4.089   6.863 -1.3431  0.2641  0.0598
10850TIP3   OH232488   6.741   4.602   5.247 -0.2289  0.4523  0.2675
10850TIP3    H132489   6.699   4.677   5.205 -0.7947 -1.0219 -1.8875
10850TIP3    H232490   6.699   4.596   5.333 -2.5251  0.6431 -0.7990
10851TIP3   OH232491   1.526   1.944   4.317 -0.2413  0.9017 -0.0339
10851TIP3    H132492   1.562   2.033   4.321 -0.9012  1.1615  0.1590
10851TIP3    H232493   1.467   1.939   4.392  0.6447 -0.0784  0.6085
10852TIP3   OH232494   0.314   4.851   4.768  0.0192 -0.3890  0.1765
10852TIP3    H132495   0.231   4.853   4.719 -1.0526 -0.7355  1.9564
10852TIP3    H232496   0.371   4.910   4.720 -1.1245 -0.4630 -1.3173
10853TIP3   OH232497   0.048   2.682   5.054 -0.1950  0.0979  0.1846
10853TIP3    H132498   0.131   2.726   5.038  0.3258 -0.4541  1.3065
10853TIP3    H232499   0.004   2.735   5.120 -0.1857 -0.2825  0.5018
10854TIP3   OH232500   7.932   6.058   3.570 -0.2786  0.1668  0.2478
10854TIP3    H132501   7.989   6.124   3.530  0.4541  0.0709  1.1235
10854TIP3    H232502   7.964   5.974   3.538 -0.2563  0.1469  0.3206
10855TIP3   OH232503   5.926   6.525   4.902 -0.5245 -0.3475 -0.7375
10855TIP3    H132504   5.928   6.461   4.973 -0.0323 -0.2747 -0.6839
10855TIP3    H232505   5.917   6.610   4.946  2.1003 -0.1004 -0.6332
10856TIP3   OH232506   7.096   1.502   5.657 -0.5472  0.1290  0.0870
10856TIP3    H132507   7.042   1.433   5.618  0.9579 -1.5028  0.7989
10856TIP3    H232508   7.179   1.497   5.611 -0.4468  1.5615  0.0861
10857TIP3   OH232509   6.144   3.413   6.336 -0.1591 -0.0003 -0.0473
10857TIP3    H132510   6.186   3.329   6.319  1.2076  1.1743 -2.8797
10857TIP3    H232511   6.185   3.445   6.416  1.3508 -0.7797 -0.4869
10858TIP3   OH232512   0.872   4.301   6.242 -0.0130 -0.4299 -0.2185
10858TIP3    H132513   0.960   4.267   6.228 -0.0087 -0.1876 -0.8055
10858TIP3    H232514   0.862   4.303   6.337  1.3167  1.2913 -0.0845
10859TIP3   OH232515   7.963   2.080   4.965 -0.3727 -0.4927  0.0407
10859TIP3    H132516   8.047   2.121   4.944 -1.4102  0.5325 -2.2604
10859TIP3    H232517   7.975   1.988   4.945 -0.1205 -0.1703 -1.3279
10860TIP3   OH232518   0.991   3.074   3.654  0.6646  0.2253 -0.1342
10860TIP3    H132519   0.985   2.982   3.679  1.3341  0.6039  1.4866
10860TIP3    H232520   0.900   3.102   3.644  0.4756 -1.0348 -2.3166
10861TIP3   OH232521   6.471   0.645   3.600 -0.2381  0.3698 -0.0768
10861TIP3    H132522   6.558   0.623   3.634 -0.6320 -1.1366 -0.0034
10861TIP3    H232523   6.449   0.728   3.640  2.1332  1.8911 -1.8108
10862TIP3   OH232524   0.147   3.050   5.335  0.3086 -0.5556  0.0758
10862TIP3    H132525   0.103   2.981   5.285 -0.6383  0.1883 -0.1236
10862TIP3    H232526   0.209   3.088   5.274  0.2950 -0.7172 -0.0389
10863TIP3   OH232527   7.163   3.056   6.936  0.2703 -0.3341  0.3780
10863TIP3    H132528   7.072   3.054   6.907 -0.1162  0.2380  1.5106
10863TIP3    H232529   7.206   2.987   6.886 -0.6435 -0.1915 -0.6261
10864TIP3   OH232530   0.257   2.256   3.647  0.0653  0.1596  0.2281
10864TIP3    H132531   0.207   2.275   3.568  0.7512  0.8290 -0.0527
10864TIP3    H232532   0.325   2.194   3.619  2.9726  3.6088 -0.6811
10865TIP3   OH232533   7.159   2.471   6.560 -0.6604 -0.1475  0.4626
10865TIP3    H132534   7.231   2.525   6.591 -2.1790  0.8442  2.4264
10865TIP3    H232535   7.182   2.382   6.585 -0.3428  0.2332  1.5346
10866TIP3   OH232536   7.403   2.921   6.382 -0.3239  0.7893  0.0542
10866TIP3    H132537   7.452   2.977   6.323 -1.9885  1.7646 -0.4308
10866TIP3    H232538   7.418   2.832   6.349  1.9480  0.9507  0.5532
10867TIP3   OH232539   6.607   2.371   4.841  0.1877 -0.4203  0.3220
10867TIP3    H132540   6.695   2.384   4.876 -0.1894 -0.2373  1.2256
10867TIP3    H232541   6.597   2.437   4.773  0.6540 -0.2744  0.3992
10868TIP3   OH232542   2.585   5.726   0.471 -0.2514  0.5938  0.3112
10868TIP3    H132543   2.577   5.631   0.469 -1.1107  0.6820 -1.0879
10868TIP3    H232544   2.663   5.745   0.420 -1.9345  0.8011 -2.2783
10869TIP3   OH232545   1.197   3.334   4.158 -0.1812 -1.3564 -0.1982
10869TIP3    H132546   1.153   3.324   4.242  0.5591 -1.8309  0.1417
10869TIP3    H232547   1.200   3.428   4.142 -2.4253 -1.3771 -0.8236
10870TIP3   OH232548   1.009   3.703   3.498 -1.0436 -0.1661  0.0088
10870TIP3    H132549   1.004   3.611   3.525  0.2207 -0.3946 -0.5021
10870TIP3    H232550   1.042   3.748   3.576 -1.8360 -0.1130  0.3177
10871TIP3   OH232551   8.081   2.689   5.279 -0.3026  0.3546  0.0217
10871TIP3    H132552   7.988   2.694   5.255 -0.4194 -0.6511  0.2281
10871TIP3    H232553   8.083   2.633   5.356  0.8043 -2.7248 -2.1359
10872TIP3   OH232554   0.291   2.797   5.049  0.3350  0.0246 -0.7550
10872TIP3    H132555   0.317   2.884   5.079 -0.1045 -0.5788  1.4776
10872TIP3    H232556   0.361   2.739   5.080 -0.2122 -0.6470 -0.7675
10873TIP3   OH232557   6.107   2.182   6.264 -0.3869 -0.4923  0.3882
10873TIP3    H132558   6.113   2.087   6.263 -0.7882 -0.5170  0.4569
10873TIP3    H232559   6.195   2.211   6.291 -0.5824 -0.8731  1.4766
10874TIP3   OH232560   1.940   5.525   0.110 -0.2114 -0.1031  0.2774
10874TIP3    H132561   1.936   5.595   0.044 -1.2979  0.0361  0.4945
10874TIP3    H232562   1.881   5.457   0.077  0.3549 -0.6513  0.3887
10875TIP3   OH232563   7.467   3.494   5.009 -0.5530 -0.0684  0.6900
10875TIP3    H132564   7.560   3.485   4.989 -0.9660  0.2471 -1.4782
10875TIP3    H232565   7.441   3.407   5.042  0.1969 -0.5598 -0.0164
10876TIP3   OH232566   1.760   1.694   4.781 -0.2829  0.5282 -0.1171
10876TIP3    H132567   1.745   1.708   4.874  1.0249  0.6425  0.0909
10876TIP3    H232568   1.675   1.670   4.746 -1.1317  2.0949  0.8115
10877TIP3   OH232569   0.705   3.716   3.857 -0.2397  0.8871  0.3550
10877TIP3    H132570   0.769   3.661   3.811 -0.4789  0.8009  0.1297
10877TIP3    H232571   0.755   3.793   3.883  0.7330 -0.4830  2.7825
10878TIP3   OH232572   0.195   5.782   5.832  0.4116 -0.3172  0.2768
10878TIP3    H132573   0.195   5.830   5.749  0.6748 -0.1466  0.3784
10878TIP3    H232574   0.245   5.702   5.813  2.7714  0.9493  1.0009
10879TIP3   OH232575   5.721   2.494   5.096  0.4920 -0.2682  0.3824
10879TIP3    H132576   5.712   2.400   5.085 -2.2477 -0.0220  0.1436
10879TIP3    H232577   5.631   2.525   5.111  1.1128  2.5325 -1.3893
10880TIP3   OH232578   0.030   2.796   5.549 -0.3988 -0.1922  0.0857
10880TIP3    H132579  -0.044   2.777   5.606 -0.9596 -3.7958 -1.6973
10880TIP3    H232580   0.090   2.722   5.562  0.4514  0.0256 -2.3131
10881TIP3   OH232581   0.695   3.491   4.906  0.5695 -0.0112  0.1295
10881TIP3    H132582   0.774   3.440   4.927  0.4516  0.2758  1.2573
10881TIP3    H232583   0.686   3.553   4.978 -0.7852 -0.1395  0.0799
10882TIP3   OH232584   7.648   2.506   4.654  0.1872  0.2496 -0.0435
10882TIP3    H132585   7.578   2.494   4.589 -0.3239 -0.6125  0.6571
10882TIP3    H232586   7.605   2.545   4.730  0.3542 -0.7757  0.5859
10883TIP3   OH232587   7.214   4.147   3.075 -0.0442  0.6001 -0.4895
10883TIP3    H132588   7.132   4.193   3.057 -0.5482 -0.5578 -1.1702
10883TIP3    H232589   7.251   4.129   2.989  0.3434  0.0821 -0.2128
10884TIP3   OH232590   8.139   3.590   4.902  0.4188  0.3328  0.7887
10884TIP3    H132591   8.221   3.580   4.854 -0.5752  0.0260 -0.8639
10884TIP3    H232592   8.112   3.501   4.922 -0.1246  0.3874  0.2935
10885TIP3   OH232593   0.149   3.324   3.977  0.1379 -0.9462 -0.1333
10885TIP3    H132594   0.178   3.288   4.061  0.3417  1.5376  0.8928
10885TIP3    H232595   0.057   3.300   3.971  0.3445 -1.8976  0.3650
10886TIP3   OH232596   0.685   2.162   5.161  0.2772 -0.5898 -0.5650
10886TIP3    H132597   0.760   2.155   5.102  0.8636  1.7025 -0.1695
10886TIP3    H232598   0.717   2.217   5.233 -1.9736  1.0320 -0.7475
10887TIP3   OH232599   1.061   2.411   5.094 -0.0685 -0.2522  0.1816
10887TIP3    H132600   1.112   2.398   5.174 -1.3590 -0.9142  0.9164
10887TIP3    H232601   1.116   2.468   5.040  0.5277  0.7945  1.8326
10888TIP3   OH232602   1.202   3.020   3.410 -0.2162  0.0988  0.1069
10888TIP3    H132603   1.139   3.074   3.458 -0.1373 -1.3936  1.9204
10888TIP3    H232604   1.278   3.014   3.469  0.3452 -0.7982 -0.7021
10889TIP3   OH232605   1.792   6.391   0.358 -0.3797 -0.0903  0.1912
10889TIP3    H132606   1.877   6.385   0.314 -0.1354 -2.8685  0.9557
10889TIP3    H232607   1.787   6.482   0.388  0.9993  0.8964 -2.4408
10890TIP3   OH232608   6.609   3.111   4.327 -0.6299 -0.5175  0.1942
10890TIP3    H132609   6.562   3.078   4.404 -0.2025 -0.4472  0.4850
10890TIP3    H232610   6.697   3.130   4.359 -0.4542 -0.4821 -0.3140
10891TIP3   OH232611   7.153   4.693   2.748 -0.0988 -0.2682 -0.4590
10891TIP3    H132612   7.171   4.694   2.654  1.1174 -0.6157 -0.2429
10891TIP3    H232613   7.237   4.714   2.788 -0.1523 -2.0662  0.6154
10892TIP3   OH232614   5.425   7.469   3.807 -0.3811  0.3235 -0.1880
10892TIP3    H132615   5.497   7.443   3.750 -0.2025 -1.2335  0.7089
10892TIP3    H232616   5.379   7.537   3.759  1.3099  0.8734 -1.0482
10893TIP3   OH232617   1.474   3.097   4.356  0.4002  1.0265  0.0502
10893TIP3    H132618   1.514   3.011   4.356  0.0317  0.8523  1.1517
10893TIP3    H232619   1.470   3.123   4.448  0.1243  2.0355 -0.2320
10894TIP3   OH232620   7.191   4.276   6.932 -0.7860 -0.2496 -0.3606
10894TIP3    H132621   7.196   4.184   6.959  0.2662  0.0970  0.6688
10894TIP3    H232622   7.098   4.291   6.916 -0.9774 -1.4674 -0.4495
10895TIP3   OH232623   8.161   2.409   4.671  0.0569  0.0182  0.1553
10895TIP3    H132624   8.108   2.340   4.711 -1.2844  2.0447  2.0252
10895TIP3    H232625   8.108   2.488   4.682  1.6757  1.4035 -1.7043
10896TIP3   OH232626   4.561   7.826   0.688 -0.0349  0.3166  0.1141
10896TIP3    H132627   4.552   7.910   0.643 -0.3263  0.5844  0.6666
10896TIP3    H232628   4.473   7.788   0.687 -0.0670  0.3765  0.5602
10897TIP3   OH232629   7.170   3.898   3.975 -0.2208 -0.2017  0.1400
10897TIP3    H132630   7.135   3.845   3.904  0.4011 -0.7761  0.2554
10897TIP3    H232631   7.194   3.981   3.934 -1.1628 -0.0172 -0.0495
10898TIP3   OH232632   7.551   2.886   5.267 -0.2397 -0.0960  0.3338
10898TIP3    H132633   7.582   2.826   5.199  0.9983 -0.6281  1.3640
10898TIP3    H232634   7.511   2.958   5.218 -1.2281 -1.4665 -0.9233
10899TIP3   OH232635   0.608   1.396   5.437 -0.2703  0.3445 -0.6596
10899TIP3    H132636   0.698   1.427   5.446 -0.4861  0.3391  2.2623
10899TIP3    H232637   0.615   1.301   5.449 -0.8968  0.6131  2.5233
10900TIP3   OH232638   7.198   3.811   5.072  0.1447  0.5594 -0.3658
10900TIP3    H132639   7.203   3.902   5.101  0.5469  0.2112  0.6758
10900TIP3    H232640   7.242   3.810   4.987  0.7608  1.1912 -0.0564
10901TIP3   OH232641   1.189   3.853   3.976 -0.4524 -0.3244 -0.3930
10901TIP3    H132642   1.141   3.915   4.032  1.3602 -0.7646  1.7373
10901TIP3    H232643   1.271   3.898   3.957 -0.0800 -1.1564 -0.7330
10902TIP3   OH232644   0.685   7.134   0.094 -0.2418 -0.9799  0.1357
10902TIP3    H132645   0.771   7.103   0.122  0.5119  0.1820 -0.8889
10902TIP3    H232646   0.642   7.056   0.057  0.8283 -1.2794 -0.4761
10903TIP3   OH232647   7.924   2.526   5.703 -0.2101  0.7466  0.1779
10903TIP3    H132648   7.891   2.605   5.747  0.2745  0.7694  0.5023
10903TIP3    H232649   7.960   2.472   5.774 -2.6125 -0.8254  0.2880
10904TIP3   OH232650   7.785   3.709   5.631  0.5479 -0.0237  0.5760
10904TIP3    H132651   7.698   3.672   5.650  1.1465 -0.2023  3.1991
10904TIP3    H232652   7.778   3.800   5.659  0.6120  0.5272 -1.1491
10905TIP3   OH232653   6.918   4.260   6.844  0.0937  0.2932  0.2848
10905TIP3    H132654   6.931   4.178   6.797 -0.3547 -0.2863  1.1635
10905TIP3    H232655   6.887   4.321   6.778 -0.7103 -0.5580 -0.1383
10906TIP3   OH232656   4.147   7.852   0.100 -0.4413  0.4104  0.1641
10906TIP3    H132657   4.134   7.941   0.067  1.2176 -0.1006 -2.0115
10906TIP3    H232658   4.059   7.816   0.105 -0.9725  1.4887 -1.0228
10907TIP3   OH232659   0.231   4.323   4.799  0.7064  0.5991 -0.5073
10907TIP3    H132660   0.295   4.254   4.818 -0.6261 -0.2360  1.0165
10907TIP3    H232661   0.282   4.391   4.754  2.4787 -0.4166 -0.0814
10908TIP3   OH232662   7.578   5.894   4.382 -0.3578  0.7091 -0.1439
10908TIP3    H132663   7.553   5.907   4.290  1.4696 -2.2336 -1.1252
10908TIP3    H232664   7.673   5.882   4.379 -0.0670  2.0818  2.3531
10909TIP3   OH232665   7.341   4.865   4.214  0.0648  0.0332  0.1555
10909TIP3    H132666   7.379   4.940   4.169  0.4833  0.2315  0.8499
10909TIP3    H232667   7.416   4.811   4.239 -0.0489  0.7863  2.1735
10910TIP3   OH232668   6.596   2.972   4.842 -0.4692 -0.2434  0.8598
10910TIP3    H132669   6.541   3.048   4.825 -0.2918  0.0040  1.3792
10910TIP3    H232670   6.671   2.983   4.784  0.9071  1.4183  2.8739
10911TIP3   OH232671   7.728   1.811   5.009 -0.8147 -0.1134 -0.4341
10911TIP3    H132672   7.706   1.859   5.088  0.0538  0.7270 -0.6915
10911TIP3    H232673   7.815   1.775   5.025 -1.3968 -1.5164 -0.2949
10912TIP3   OH232674   3.756   0.509   0.459 -0.3682  0.0873  0.1474
10912TIP3    H132675   3.694   0.539   0.393  0.0077  0.1273 -0.1855
10912TIP3    H232676   3.701   0.488   0.535 -0.6157  1.9446  0.5187
10913TIP3   OH232677   6.085   2.957   6.513  0.2226  0.1434  0.9479
10913TIP3    H132678   6.076   3.000   6.428 -0.2324 -0.8158  0.5047
10913TIP3    H232679   6.174   2.978   6.541  1.0567 -1.1650 -0.6619
10914TIP3   OH232680   8.097   2.517   5.487 -0.6701 -0.0010  0.2967
10914TIP3    H132681   8.060   2.541   5.572 -0.3950 -0.0623  0.4349
10914TIP3    H232682   8.119   2.424   5.495 -1.8596 -0.3332 -0.2903
10915TIP3   OH232683   0.120   5.565   0.775 -0.5265 -0.8121  0.8095
10915TIP3    H132684   0.054   5.617   0.820  0.1507 -0.7527  1.7601
10915TIP3    H232685   0.072   5.519   0.706 -1.0037  1.5778 -0.4960
10916TIP3   OH232686   6.542   3.301   6.200  0.1768  0.0230  0.0201
10916TIP3    H132687   6.636   3.317   6.190  0.6505 -1.3161  2.0214
10916TIP3    H232688   6.520   3.239   6.131  0.6647  0.6347 -0.6966
10917TIP3   OH232689   0.918   4.315   4.790  0.2402 -0.0938  0.5611
10917TIP3    H132690   0.984   4.296   4.723 -0.2203  0.7536 -0.1337
10917TIP3    H232691   0.969   4.328   4.870  0.7604 -1.5608  0.4798
10918TIP3   OH232692   1.023   3.478   5.513 -0.4348 -0.4934 -0.1873
10918TIP3    H132693   0.930   3.501   5.511 -0.2340  0.5332  1.2202
10918TIP3    H232694   1.026   3.395   5.562 -0.6454 -0.7079 -0.5394
10919TIP3   OH232695   7.522   3.720   5.436 -0.9408  0.2845 -0.0995
10919TIP3    H132696   7.482   3.698   5.352  1.4453  1.6784 -1.6579
10919TIP3    H232697   7.558   3.637   5.467  1.6238  0.4762 -2.4012
10920TIP3   OH232698   0.785   3.977   6.440  0.2140  0.4322 -0.2788
10920TIP3    H132699   0.821   3.983   6.351  2.1449 -0.2810  0.4387
10920TIP3    H232700   0.806   3.889   6.468 -1.1292  0.3845  0.6022
10921TIP3   OH232701   7.213   5.774   5.436  0.2488  0.0435 -0.0614
10921TIP3    H132702   7.179   5.860   5.411  0.7113 -0.3139 -2.0060
10921TIP3    H232703   7.273   5.792   5.508 -0.1570  1.2764 -0.0148
10922TIP3   OH232704   7.968   4.039   6.207 -0.3478  0.6032 -0.4955
10922TIP3    H132705   7.958   4.124   6.164  1.3865  0.5245 -1.0931
10922TIP3    H232706   8.039   4.052   6.270 -0.3200 -0.2978 -0.3330
10923TIP3   OH232707   6.568   3.489   6.403  0.2538  0.3121  0.3395
10923TIP3    H132708   6.545   3.428   6.333 -0.2380 -0.0731  0.8361
10923TIP3    H232709   6.653   3.459   6.434  0.4038  0.3937  0.0095
10924TIP3   OH232710   0.964   2.890   5.081  0.1693 -0.0121 -0.7849
10924TIP3    H132711   1.018   2.945   5.137  0.4912 -0.3050 -0.8064
10924TIP3    H232712   1.027   2.835   5.034 -0.1635 -0.6270 -0.5215
10925TIP3   OH232713   7.177   3.172   4.461  0.0880  0.2094  0.0050
10925TIP3    H132714   7.209   3.251   4.505 -2.6821  1.7062 -0.5454
10925TIP3    H232715   7.255   3.119   4.446  1.7491  1.9517  2.1476
10926TIP3   OH232716   6.072   2.980   3.382  0.0452  0.1963 -0.4691
10926TIP3    H132717   6.117   3.027   3.311 -0.7957 -1.0187 -1.8282
10926TIP3    H232718   5.998   3.036   3.404  1.4721  1.5907  0.9069
10927TIP3   OH232719   1.874   1.984   4.856  0.4929  0.1438  0.4508
10927TIP3    H132720   1.879   1.893   4.826 -1.4016 -0.1765  1.0317
10927TIP3    H232721   1.856   2.035   4.777  2.1733  0.1059  0.0247
10928TIP3   OH232722   6.600   4.421   4.333 -0.4847 -0.5229 -0.1955
10928TIP3    H132723   6.515   4.391   4.298  0.2150 -2.1604 -0.5566
10928TIP3    H232724   6.612   4.368   4.412 -0.0237  0.0635  0.1236
10929TIP3   OH232725   8.045   3.337   5.245  0.0580  0.1924 -0.9455
10929TIP3    H132726   8.110   3.407   5.237 -0.3039  0.7098  0.3949
10929TIP3    H232727   7.961   3.383   5.247 -0.1848 -0.2816 -0.1328
10930TIP3   OH232728   1.671   4.651   4.948  0.5289  0.2380  0.3872
10930TIP3    H132729   1.709   4.600   4.877 -1.2819 -0.1371 -0.3259
10930TIP3    H232730   1.745   4.699   4.985  1.3699  1.0866 -2.2926
10931TIP3   OH232731   3.979   5.821   0.651  0.3533 -0.4028  0.2633
10931TIP3    H132732   3.893   5.806   0.692 -0.2434  0.5056 -0.6315
10931TIP3    H232733   3.958   5.863   0.568  1.7579  1.4685  0.8241
10932TIP3   OH232734   7.915   6.404   5.004  0.4800  0.6582  0.1006
10932TIP3    H132735   7.897   6.409   5.097  1.5525 -3.2813  0.5980
10932TIP3    H232736   8.007   6.380   4.998  0.5312  1.2475 -1.9919
10933TIP3   OH232737   0.762   4.929   5.123 -0.1544 -0.5528  0.0467
10933TIP3    H132738   0.667   4.927   5.139 -0.2004 -1.9816 -0.3231
10933TIP3    H232739   0.783   4.839   5.097  1.7879 -0.9742  2.8676
10934TIP3   OH232740   0.357   5.482   5.056 -0.0527  0.0331  0.6108
10934TIP3    H132741   0.378   5.572   5.030 -0.8210 -0.4954 -1.9493
10934TIP3    H232742   0.440   5.436   5.050  0.3861  0.5921  2.1267
10935TIP3   OH232743   6.395   0.466   0.354 -0.1902 -0.1224 -0.2657
10935TIP3    H132744   6.401   0.408   0.430 -0.3095  1.6417  1.1279
10935TIP3    H232745   6.319   0.522   0.373 -0.3401  0.2080 -1.7784
10936TIP3   OH232746   1.486   4.013   6.192 -0.2802 -0.3588 -0.4798
10936TIP3    H132747   1.412   3.969   6.235  0.5143 -0.9662  0.2772
10936TIP3    H232748   1.547   3.942   6.172 -0.4192 -0.0186 -2.1855
10937TIP3   OH232749   5.480   1.523   0.801  0.0673  0.1903 -0.0330
10937TIP3    H132750   5.550   1.531   0.865 -0.9366 -0.2104  1.1410
10937TIP3    H232751   5.503   1.446   0.749  0.0108 -0.5423  0.9986
10938TIP3   OH232752   7.345   0.812   0.192 -0.0584  0.3597  0.1428
10938TIP3    H132753   7.318   0.884   0.135  0.8660 -0.3338 -1.2066
10938TIP3    H232754   7.425   0.843   0.234 -0.3466  0.5987  0.5142
10939TIP3   OH232755   0.271   0.562   0.749 -0.0054 -0.6488 -0.0407
10939TIP3    H132756   0.301   0.498   0.813  1.0205  0.5932  0.7486
10939TIP3    H232757   0.350   0.608   0.722 -0.9687  1.6325  0.9177
10940TIP3   OH232758   1.519   3.668   5.801  0.3844  0.4732 -0.0082
10940TIP3    H132759   1.494   3.595   5.744  1.7359  0.0923 -0.1217
10940TIP3    H232760   1.463   3.659   5.877 -0.0246 -0.2030 -0.3842
10941TIP3   OH232761   2.337   5.079   5.387 -0.3947  0.0665 -0.6209
10941TIP3    H132762   2.364   5.109   5.300  0.0690 -2.2481 -1.3259
10941TIP3    H232763   2.243   5.100   5.392  0.0136  2.0251 -0.8576
10942TIP3   OH232764   0.136   1.979   5.437  0.7954  0.3514 -0.0965
10942TIP3    H132765   0.093   1.896   5.415  0.1278  0.4306  0.8981
10942TIP3    H232766   0.228   1.966   5.413  0.4625 -0.2492 -1.0779
10943TIP3   OH232767   7.179   0.588   0.892 -0.6093 -0.9457 -0.6611
10943TIP3    H132768   7.112   0.644   0.852 -0.1814 -0.2643 -0.4326
10943TIP3    H232769   7.138   0.556   0.972 -0.3068  0.2791 -0.0101
10944TIP3   OH232770   0.217   4.376   5.675 -0.8962  0.2286 -0.0740
10944TIP3    H132771   0.288   4.347   5.617 -0.7795  0.5750 -0.1075
10944TIP3    H232772   0.173   4.446   5.626 -1.1649  0.1212  0.0111
10945TIP3   OH232773   3.649   7.216   0.515 -0.0098 -0.4429  0.4237
10945TIP3    H132774   3.598   7.239   0.592 -0.2996 -0.7264  0.3182
10945TIP3    H232775   3.686   7.299   0.485 -2.2887  0.1453 -0.8456
10946TIP3   OH232776   5.672   0.243   0.201 -0.4976  0.3351 -0.2429
10946TIP3    H132777   5.710   0.315   0.251  0.7472 -0.6139  0.2172
10946TIP3    H232778   5.680   0.167   0.258  3.0685 -1.2618 -2.6612
10947TIP3   OH232779   4.096   6.935   0.442 -0.7254  0.1194  0.5515
10947TIP3    H132780   4.014   6.964   0.404 -0.4515  0.8666  0.5231
10947TIP3    H232781   4.098   6.974   0.530  0.0254  0.8898  0.2033
10948TIP3   OH232782   0.877   0.511   1.589 -0.0419 -0.2709 -0.2378
10948TIP3    H132783   0.863   0.604   1.608 -0.6726 -0.3435 -0.3416
10948TIP3    H232784   0.800   0.468   1.624 -0.3194 -0.6254 -1.2751
10949TIP3   OH232785   1.345   2.338   6.192  0.1758 -0.1403  1.0132
10949TIP3    H132786   1.399   2.267   6.226 -0.5871 -0.8161  0.8022
10949TIP3    H232787   1.300   2.302   6.116 -1.1253  0.1973  1.6054
10950TIP3   OH232788   6.172   1.375   2.504  0.4934 -0.4434 -0.2168
10950TIP3    H132789   6.220   1.388   2.586 -0.0976  1.8707 -0.1841
10950TIP3    H232790   6.236   1.338   2.444  2.0285  1.5092  0.1746
10951TIP3   OH232791   3.038   2.777   6.748  0.1839 -0.1899 -0.8999
10951TIP3    H132792   3.036   2.756   6.655 -1.5190 -0.6570 -0.7647
10951TIP3    H232793   2.957   2.741   6.783  1.0509 -0.4916  0.8699
10952TIP3   OH232794   8.078   4.267   4.507 -0.3049 -0.3619 -0.1407
10952TIP3    H132795   8.137   4.209   4.555 -0.7555 -0.3190  0.4705
10952TIP3    H232796   8.083   4.237   4.416  0.7165 -0.2993 -0.1032
10953TIP3   OH232797   7.834   5.213   6.296 -0.0068  0.4089 -0.0142
10953TIP3    H132798   7.746   5.179   6.284 -0.1407  0.4772  0.7492
10953TIP3    H232799   7.830   5.260   6.379 -0.2270  3.5902 -1.7589
10954TIP3   OH232800   6.575   0.112   1.906 -0.2065 -0.1015 -0.1221
10954TIP3    H132801   6.574   0.197   1.950 -1.4831 -0.3369  0.3257
10954TIP3    H232802   6.605   0.132   1.817 -0.3795  0.8079  0.0149
10955TIP3   OH232803   0.322   1.571   5.696  0.6938 -0.4138 -0.2208
10955TIP3    H132804   0.254   1.583   5.630  0.3830  0.9500  0.3356
10955TIP3    H232805   0.373   1.496   5.664 -0.5086 -0.8849 -1.1018
10956TIP3   OH232806   6.563   7.290   0.128  0.4298  0.0423 -0.5926
10956TIP3    H132807   6.543   7.208   0.083 -1.1892 -0.0025  0.1521
10956TIP3    H232808   6.504   7.290   0.203  1.3698  1.2658  0.1513
10957TIP3   OH232809   2.602   3.339   5.840  0.3695  0.1269 -0.2093
10957TIP3    H132810   2.531   3.402   5.823  0.2598 -0.4019 -1.7681
10957TIP3    H232811   2.560   3.267   5.888  0.5118  1.2437  1.6610
10958TIP3   OH232812   8.005   1.232   0.195  0.0449  0.2227  0.1587
10958TIP3    H132813   7.957   1.244   0.277 -0.4673 -2.8356  0.3527
10958TIP3    H232814   7.936   1.212   0.130  0.8490 -2.5848  0.1059
10959TIP3   OH232815   5.034   6.033   0.108 -0.4628 -0.0082 -0.2658
10959TIP3    H132816   5.010   6.120   0.076 -0.9119  0.6463  1.7594
10959TIP3    H232817   5.074   6.050   0.193  1.2245 -1.6472 -0.7316
10960TIP3   OH232818   8.346   4.460   6.328 -0.5943 -0.2983 -0.3101
10960TIP3    H132819   8.411   4.519   6.366 -0.5970 -0.2647 -0.3559
10960TIP3    H232820   8.264   4.483   6.373 -0.7361  0.2186 -0.8357
10961TIP3   OH232821   3.101   5.668   5.220  0.1026  0.1258  0.3223
10961TIP3    H132822   3.103   5.649   5.126 -0.5934  1.9428 -0.0819
10961TIP3    H232823   3.098   5.582   5.262 -0.6607 -0.6875 -1.3475
10962TIP3   OH232824   1.610   3.042   5.059 -0.0118 -0.5956  0.0941
10962TIP3    H132825   1.704   3.035   5.045 -0.0209 -0.0624 -0.2496
10962TIP3    H232826   1.581   3.106   4.994 -0.7042 -1.1996 -0.1915
10963TIP3   OH232827   2.763   3.629   6.529  0.2923  0.4203  0.4060
10963TIP3    H132828   2.760   3.724   6.531 -2.0947  0.3340  1.9439
10963TIP3    H232829   2.711   3.601   6.604 -0.1811 -2.1197 -0.8037
10964TIP3   OH232830   7.076   0.663   1.400  0.4970 -0.0468 -0.0706
10964TIP3    H132831   6.999   0.636   1.350  0.7892 -0.7754 -0.1242
10964TIP3    H232832   7.111   0.582   1.437 -0.6379  0.6712  2.6486
10965TIP3   OH232833   7.396   0.150   0.891 -0.6030 -0.0667 -0.0253
10965TIP3    H132834   7.419   0.243   0.882 -0.6240  0.1050  1.5622
10965TIP3    H232835   7.337   0.133   0.817 -1.8271  1.5904  0.5190
10966TIP3   OH232836   6.205   1.141   0.707  0.3113 -0.4673 -0.2325
10966TIP3    H132837   6.275   1.079   0.687  0.2994 -1.1940  1.8782
10966TIP3    H232838   6.125   1.089   0.695  0.1544  0.0602 -1.5819
10967TIP3   OH232839   1.799   0.279   0.293 -0.2693 -0.6504  0.4059
10967TIP3    H132840   1.873   0.338   0.306 -0.8159 -0.6539  4.0713
10967TIP3    H232841   1.837   0.202   0.251  0.8579  1.3208 -2.3342
10968TIP3   OH232842   6.743   2.556   0.107  0.0646 -0.2251  0.0710
10968TIP3    H132843   6.797   2.480   0.130 -1.0915 -0.6295  1.5551
10968TIP3    H232844   6.745   2.611   0.185 -1.4439 -0.1229  0.0461
10969TIP3   OH232845   3.439   7.500   1.828 -0.2932 -0.2452  0.1027
10969TIP3    H132846   3.362   7.549   1.800  0.4368 -0.5859 -2.6799
10969TIP3    H232847   3.424   7.411   1.797  1.4997 -0.1576 -1.1542
10970TIP3   OH232848   2.230   4.764   5.110  0.1715 -0.0320 -0.2250
10970TIP3    H132849   2.202   4.696   5.170 -1.0856  0.4567 -0.2546
10970TIP3    H232850   2.323   4.777   5.130  0.4700 -1.8660 -0.3502
10971TIP3   OH232851   2.631   3.318   6.668 -0.3159 -0.4651 -0.4599
10971TIP3    H132852   2.701   3.282   6.614 -0.3067 -1.3459  0.1257
10971TIP3    H232853   2.551   3.297   6.619 -0.3881 -2.2087  0.3636
10972TIP3   OH232854   2.662   5.181   4.982  0.1069  0.5613 -0.0052
10972TIP3    H132855   2.642   5.272   5.003 -3.1638  0.1848 -1.1469
10972TIP3    H232856   2.677   5.180   4.887  1.0101  0.0465  0.1347
10973TIP3   OH232857   1.845   3.675   6.487 -0.2105  0.3712  0.0119
10973TIP3    H132858   1.933   3.701   6.513 -0.5327 -0.1038  1.5905
10973TIP3    H232859   1.859   3.600   6.429  0.4233  0.1520  0.4375
10974TIP3   OH232860   2.912   3.180   5.853 -0.0271  0.2828  0.5495
10974TIP3    H132861   2.855   3.213   5.783 -0.1038 -1.2570 -0.1290
10974TIP3    H232862   2.928   3.089   5.830  1.1425  0.1641  1.7790
10975TIP3   OH232863   5.155   7.527   0.262  0.5703  0.8700 -0.1967
10975TIP3    H132864   5.160   7.542   0.357  0.0816  0.9128 -0.1773
10975TIP3    H232865   5.238   7.485   0.241  1.3066  2.1863  0.0047
10976TIP3   OH232866   2.658   2.776   5.840 -0.4336 -0.6377  0.0378
10976TIP3    H132867   2.729   2.759   5.901  0.0923  0.4096 -0.2644
10976TIP3    H232868   2.600   2.701   5.848  0.6361 -1.4323  0.3935
10977TIP3   OH232869   1.368   4.205   4.241  0.2608  0.5087  0.1762
10977TIP3    H132870   1.280   4.241   4.233 -0.1193 -0.4190  0.1243
10977TIP3    H232871   1.388   4.209   4.334 -0.6967 -1.2663  0.4816
10978TIP3   OH232872   5.249   6.986   1.554  0.0584  0.5771  0.1799
10978TIP3    H132873   5.194   6.910   1.571  1.9532 -1.6625 -3.1972
10978TIP3    H232874   5.292   7.004   1.638 -1.2279 -1.3896  1.2945
10979TIP3   OH232875   5.521   1.076   0.378 -0.3799  0.4875 -0.0821
10979TIP3    H132876   5.601   1.099   0.332 -0.4201  1.6167  0.3830
10979TIP3    H232877   5.518   0.981   0.376  1.7475  0.3555  1.1794
10980TIP3   OH232878   1.052   3.387   6.829 -0.1955  0.5085  0.0549
10980TIP3    H132879   1.034   3.302   6.787 -1.5295  1.1804 -0.7839
10980TIP3    H232880   1.089   3.364   6.914  1.0672 -0.9081 -0.8435
10981TIP3   OH232881   1.849   6.319   3.868 -0.2992  0.3270 -0.4023
10981TIP3    H132882   1.925   6.372   3.844  0.2208  0.7746  2.1335
10981TIP3    H232883   1.820   6.280   3.785  1.4238  1.7901 -1.7319
10982TIP3   OH232884   8.203   2.051   0.121 -0.0030  0.5773 -0.5268
10982TIP3    H132885   8.255   2.059   0.202  1.4068 -0.3694 -1.3212
10982TIP3    H232886   8.155   2.134   0.116  1.6557  1.6091  0.0792
10983TIP3   OH232887   5.787   7.682   1.687  0.1883  0.3013 -0.0073
10983TIP3    H132888   5.844   7.662   1.613 -0.2627  1.3175 -0.6442
10983TIP3    H232889   5.831   7.644   1.763 -0.4523 -2.7424 -1.1016
10984TIP3   OH232890   7.984   0.151   1.567  0.4236 -0.2104  0.3747
10984TIP3    H132891   8.042   0.169   1.641 -1.2506 -1.0219  1.9352
10984TIP3    H232892   7.976   0.055   1.566 -0.0917 -0.1589 -0.4476
10985TIP3   OH232893   2.098   5.188   6.936  0.1640  0.6235 -0.2634
10985TIP3    H132894   2.060   5.100   6.948 -3.1865  2.0922  0.4644
10985TIP3    H232895   2.143   5.182   6.852  0.0417 -1.8272 -0.2114
10986TIP3   OH232896   0.570   2.440   4.874 -0.1007 -0.4530 -0.2547
10986TIP3    H132897   0.559   2.346   4.859  1.6161 -0.9698  1.5982
10986TIP3    H232898   0.656   2.448   4.915  0.2155  2.0482 -1.3624
10987TIP3   OH232899   1.499   3.945   5.778 -0.5252  0.0478  0.0394
10987TIP3    H132900   1.561   3.877   5.805  2.1104  1.5091 -2.0819
10987TIP3    H232901   1.473   3.921   5.690 -1.0170  0.8173 -0.0344
10988TIP3   OH232902   4.467   7.917   1.294 -0.4526  0.4300 -0.0250
10988TIP3    H132903   4.511   7.842   1.256  0.3592  0.4201  0.9101
10988TIP3    H232904   4.510   7.993   1.254  0.9211  0.4324  1.4015
10989TIP3   OH232905   4.691   7.829   0.210  0.3660  0.2257 -0.0489
10989TIP3    H132906   4.721   7.919   0.194  0.8358  0.1158  0.1955
10989TIP3    H232907   4.758   7.775   0.168 -0.0392 -0.0048 -0.3933
10990TIP3   OH232908   1.285   3.221   6.463  0.6780 -0.1363 -0.1501
10990TIP3    H132909   1.374   3.247   6.442  0.7006  1.0110  1.2955
10990TIP3    H232910   1.278   3.232   6.558 -1.3696  0.9555 -0.3870
10991TIP3   OH232911   0.226   0.716   1.807 -0.0017  0.4516 -0.2211
10991TIP3    H132912   0.147   0.769   1.807  0.9437  1.9027  0.4592
10991TIP3    H232913   0.222   0.668   1.889 -0.3043  0.3338 -0.3042
10992TIP3   OH232914   5.712   7.579   0.425  0.0002 -0.9404 -0.2807
10992TIP3    H132915   5.793   7.590   0.375  0.3494  0.0974  0.5023
10992TIP3    H232916   5.675   7.496   0.393  1.2810 -1.3347 -0.7526
10993TIP3   OH232917   4.071   7.509   4.905  0.4068  0.2086  0.0242
10993TIP3    H132918   4.145   7.569   4.910  0.4930  0.3362 -2.0447
10993TIP3    H232919   4.111   7.423   4.892  0.2339  0.1309  0.0018
10994TIP3   OH232920   4.161   5.611   0.750  0.2419 -0.5623 -0.3407
10994TIP3    H132921   4.102   5.685   0.734  2.7943  1.1385 -2.1404
10994TIP3    H232922   4.217   5.639   0.821 -0.0643 -1.5751  0.3197
10995TIP3   OH232923   4.229   7.196   1.019 -0.3937  0.2011 -0.4736
10995TIP3    H132924   4.236   7.158   1.106  0.8709 -0.1472 -0.7173
10995TIP3    H232925   4.156   7.257   1.025  0.6163  1.2741  1.2448
10996TIP3   OH232926   8.050   4.972   6.004  0.1590 -0.1925 -0.2649
10996TIP3    H132927   8.036   4.957   6.097  0.1980  0.4875 -0.1488
10996TIP3    H232928   8.022   5.063   5.989  0.1682 -0.2902 -0.9076
10997TIP3   OH232929   5.283   0.094   0.285  0.0700 -0.1881  0.2993
10997TIP3    H132930   5.264   0.010   0.243  0.4609 -1.4323  2.5255
10997TIP3    H232931   5.328   0.145   0.218  2.5650 -2.8751 -0.1445
10998TIP3   OH232932   0.780   3.503   6.398  0.0460 -0.0306 -0.2371
10998TIP3    H132933   0.734   3.499   6.482  1.6854  2.1202  0.8034
10998TIP3    H232934   0.872   3.499   6.421  0.5202  0.9589 -1.9171
10999TIP3   OH232935   7.745   2.731   6.478 -0.0656 -0.2812  0.1536
10999TIP3    H132936   7.754   2.637   6.462 -2.2616 -0.4716 -0.1011
10999TIP3    H232937   7.755   2.771   6.392  0.4221 -0.3216  0.1926
11000TIP3   OH232938   2.351   5.371   4.981  0.5081  0.0537 -0.2429
11000TIP3    H132939   2.298   5.424   5.040 -1.4030 -0.5337 -1.3708
11000TIP3    H232940   2.349   5.283   5.019 -0.2509 -0.1997 -0.8391
11001TIP3   OH232941   7.615   0.300   1.951 -0.6515  0.5883 -0.6502
11001TIP3    H132942   7.540   0.256   1.912 -0.7558 -0.7502  1.0001
11001TIP3    H232943   7.608   0.282   2.045  2.0397 -0.0880 -0.5161
11002TIP3   OH232944   8.381   2.603   5.905 -0.3071  0.3714  0.1031
11002TIP3    H132945   8.375   2.599   5.810  0.1484 -0.2316  0.0953
11002TIP3    H232946   8.357   2.514   5.934 -1.7698  0.9086  0.6212
11003TIP3   OH232947   3.972   4.739   5.066 -0.0479  0.0691  0.1773
11003TIP3    H132948   4.037   4.765   5.131  0.1513 -2.3087  0.9640
11003TIP3    H232949   3.994   4.649   5.045 -3.7620 -1.2031  1.3127
11004TIP3   OH232950   3.372   7.448   1.071  0.0317  0.8661  0.1162
11004TIP3    H132951   3.342   7.474   1.159  0.4792  1.5931  0.0637
11004TIP3    H232952   3.346   7.356   1.063 -0.6233  0.9864  0.7433
11005TIP3   OH232953   1.581   2.977   5.362  0.0384  0.0876 -1.0149
11005TIP3    H132954   1.556   3.005   5.275 -2.3440  1.8498  0.1786
11005TIP3    H232955   1.522   2.904   5.382  0.9328 -0.6586 -1.0698
11006TIP3   OH232956   4.642   7.336   0.558 -0.2445  0.4861  0.1250
11006TIP3    H132957   4.697   7.322   0.636  0.1790 -0.1518 -0.2846
11006TIP3    H232958   4.693   7.396   0.503 -0.1343  0.2068 -0.0769
11007TIP3   OH232959   0.118   4.478   6.484  0.4016 -0.0201  0.0365
11007TIP3    H132960   0.158   4.457   6.568  0.0333  1.5905  0.6261
11007TIP3    H232961   0.170   4.429   6.420  1.0730 -0.7598  1.1299
11008TIP3   OH232962   2.082   4.435   6.691 -0.7645 -0.0665 -0.3004
11008TIP3    H132963   2.026   4.455   6.616 -1.5258 -1.8702 -0.2500
11008TIP3    H232964   2.156   4.387   6.654 -0.8377 -0.4250  0.0061
11009TIP3   OH232965   3.209   7.360   2.469 -0.1591 -0.2584  0.1897
11009TIP3    H132966   3.237   7.356   2.378  0.9969 -0.6424  0.5494
11009TIP3    H232967   3.119   7.392   2.465 -0.3580 -0.9309 -1.1273
11010TIP3   OH232968   2.346   2.026   3.699 -0.0420 -0.2494  0.0036
11010TIP3    H132969   2.365   1.950   3.644  0.1583 -0.4637  0.3630
11010TIP3    H232970   2.312   1.989   3.780 -1.4788  0.1197 -0.4218
11011TIP3   OH232971   6.759   1.204   1.040  0.2614 -0.3041 -0.4220
11011TIP3    H132972   6.842   1.252   1.033 -0.0582  0.2471 -0.4780
11011TIP3    H232973   6.785   1.115   1.064  0.8881 -0.2095 -0.7380
11012TIP3   OH232974   2.574   3.844   6.867  0.1056  0.0360 -0.1453
11012TIP3    H132975   2.530   3.898   6.931  0.1263  0.7387 -0.7181
11012TIP3    H232976   2.527   3.761   6.868 -1.6445  1.0004 -1.2258
11013TIP3   OH232977   8.364   0.181   0.808 -0.5541  0.0842  0.5478
11013TIP3    H132978   8.435   0.132   0.850 -1.6531 -2.3956 -0.3642
11013TIP3    H232979   8.330   0.238   0.876  1.7114  0.6341  1.2540
11014TIP3   OH232980   2.111   4.050   6.616  0.1227  0.3933  0.4749
11014TIP3    H132981   2.183   4.022   6.559 -1.1693 -0.7273 -0.6525
11014TIP3    H232982   2.152   4.105   6.682  1.7411  1.3789 -1.2891
11015TIP3   OH232983   3.498   6.078   0.699 -1.0432  0.0633  0.0395
11015TIP3    H132984   3.581   6.063   0.745 -1.1884  0.8817  0.5734
11015TIP3    H232985   3.433   6.084   0.768 -1.7263 -1.6251 -0.4300
11016TIP3   OH232986   0.407   2.817   6.320 -0.0570 -0.1317 -0.0674
11016TIP3    H132987   0.407   2.787   6.411  0.7766  0.4685  0.1352
11016TIP3    H232988   0.499   2.817   6.295 -0.3560 -1.1214 -1.1951
11017TIP3   OH232989   1.850   2.769   6.021 -0.6923 -0.1314  0.4064
11017TIP3    H132990   1.909   2.701   6.053 -0.5023 -0.2491 -0.1913
11017TIP3    H232991   1.906   2.829   5.972 -1.0136 -0.0611  0.1233
11018TIP3   OH232992   0.710   3.971   6.951 -0.0613  0.4009  0.0753
11018TIP3    H132993   0.656   3.980   6.872 -1.2954  0.7958  0.9442
11018TIP3    H232994   0.771   4.045   6.946 -2.1487  2.2329  1.0144
11019TIP3   OH232995   2.041   3.759   5.920 -0.3080  0.2422 -0.0068
11019TIP3    H132996   1.948   3.763   5.898  0.4430  0.4395 -3.2710
11019TIP3    H232997   2.086   3.763   5.836  2.6261 -1.4399  1.4158
11020TIP3   OH232998   7.701   0.902   0.071 -0.4398  0.3891  0.2067
11020TIP3    H132999   7.693   0.870   0.161 -0.2582  0.1061  0.1198
11020TIP3    H233000   7.754   0.836   0.026 -2.2498 -0.5133 -0.6393
11021TIP3   OH233001   6.290   2.265   0.381  0.2731 -0.0826 -0.2321
11021TIP3    H133002   6.293   2.175   0.411  2.0184  0.0600  0.0680
11021TIP3    H233003   6.230   2.309   0.441 -0.9485 -1.1372 -0.6733
11022TIP3   OH233004   6.705   0.418   0.280 -0.3291  0.4625  0.3390
11022TIP3    H133005   6.719   0.489   0.217  0.0241  0.3931  0.3418
11022TIP3    H233006   6.610   0.419   0.296 -0.4480  0.3140 -0.3792
11023TIP3   OH233007   5.328   0.697   2.229 -0.1433  0.3000  0.3290
11023TIP3    H133008   5.416   0.702   2.267 -0.0098  1.8083 -0.1076
11023TIP3    H233009   5.343   0.683   2.135 -0.4375 -1.9724  0.6004
11024TIP3   OH233010   6.823   1.498   1.550 -0.1369 -0.3390  0.0535
11024TIP3    H133011   6.733   1.517   1.574 -0.7231 -0.7285 -1.7878
11024TIP3    H233012   6.836   1.406   1.575 -0.5279 -0.5409 -0.4813
11025TIP3   OH233013   5.193   1.465   0.672 -0.1038  0.2213 -0.9936
11025TIP3    H133014   5.227   1.480   0.584  0.4139 -0.3871 -0.9009
11025TIP3    H233015   5.266   1.487   0.730  0.0040 -0.6868 -0.7755
11026TIP3   OH233016   5.292   6.167   0.888 -0.1989  0.0103  0.4576
11026TIP3    H133017   5.338   6.191   0.969 -1.3786  0.1077  1.1179
11026TIP3    H233018   5.328   6.081   0.865 -0.6031 -0.5017  1.6759
11027TIP3   OH233019   2.034   2.926   5.870  0.0168 -0.2094  0.0689
11027TIP3    H133020   2.073   2.947   5.785 -0.2183 -1.6388 -0.4124
11027TIP3    H233021   2.104   2.883   5.919  0.2783  0.9919  0.7673
11028TIP3   OH233022   5.676   7.353   0.699  0.5391 -0.9891  0.0787
11028TIP3    H133023   5.749   7.411   0.718 -0.0758  0.3519 -1.5060
11028TIP3    H233024   5.717   7.277   0.657  1.1459 -0.7673  0.2563
11029TIP3   OH233025   5.924   1.713   0.467  0.1300 -0.2167  0.2732
11029TIP3    H133026   5.992   1.760   0.514 -0.3908 -0.3077  1.1227
11029TIP3    H233027   5.843   1.732   0.515 -0.2387 -1.1528  0.0343
11030TIP3   OH233028   1.081   2.979   5.516 -0.2633  0.1982  0.6341
11030TIP3    H133029   0.986   2.975   5.504  0.0444 -0.6327 -1.7776
11030TIP3    H233030   1.108   2.888   5.528  0.4588  0.2044 -0.8026
11031TIP3   OH233031   1.685   4.294   6.472 -0.3403 -0.0951 -0.6091
11031TIP3    H133032   1.724   4.246   6.545  0.0881  2.1431  0.6736
11031TIP3    H233033   1.743   4.369   6.458 -1.4018  0.4848 -2.0704
11032TIP3   OH233034   5.270   1.015   0.286 -0.3755 -0.0909  0.0052
11032TIP3    H133035   5.210   1.086   0.264 -0.0420 -0.0012 -0.6475
11032TIP3    H233036   5.345   1.058   0.326 -1.2337 -0.3099  1.8754
11033TIP3   OH233037   6.637   5.045   6.740  0.1798  0.8880  0.3098
11033TIP3    H133038   6.580   5.056   6.816  1.0496  1.5555  0.8816
11033TIP3    H233039   6.642   4.950   6.727  0.3129  0.7546  1.3109
11034TIP3   OH233040   1.030   4.057   5.797  0.2111 -0.1826  0.3734
11034TIP3    H133041   0.993   3.971   5.779  0.3454 -0.5241  1.6757
11034TIP3    H233042   0.999   4.112   5.725  0.6195 -1.4528 -0.7884
11035TIP3   OH233043   0.319   3.185   6.860 -0.5140 -0.2983  0.0502
11035TIP3    H133044   0.228   3.157   6.851 -0.6283  0.2918 -0.6987
11035TIP3    H233045   0.315   3.280   6.863 -0.0720 -0.3275  1.8737
11036TIP3   OH233046   0.301   2.850   6.062  0.1456 -0.2917 -0.3815
11036TIP3    H133047   0.355   2.839   6.140 -2.4455 -0.1543  1.4789
11036TIP3    H233048   0.357   2.901   6.002  1.5921  1.0128  1.9840
11037TIP3   OH233049   4.881   6.610   0.300  0.4064  0.4784 -0.3030
11037TIP3    H133050   4.947   6.672   0.331  1.2231 -0.2620 -0.5424
11037TIP3    H233051   4.875   6.545   0.370  1.3436 -0.5101 -1.1305
11038TIP3   OH233052   3.755   6.811   1.550  0.0576 -0.1448  0.0604
11038TIP3    H133053   3.692   6.794   1.480 -0.4309 -0.2537  0.5298
11038TIP3    H233054   3.712   6.780   1.630  1.1636 -1.2749  0.2238
11039TIP3   OH233055   7.151   1.481   5.372  0.2706 -0.0414  0.4798
11039TIP3    H133056   7.187   1.393   5.384  0.4177  0.0541  0.7387
11039TIP3    H233057   7.056   1.469   5.383  0.2941 -0.1630  0.5568
11040TIP3   OH233058   0.780   4.274   6.546 -0.5823  0.0923 -0.7253
11040TIP3    H133059   0.784   4.179   6.558  0.1407 -0.0794 -2.1717
11040TIP3    H233060   0.807   4.310   6.630  1.4802 -1.0059 -0.8815
11041TIP3   OH233061   6.195   0.636   0.458  0.4124 -0.6861 -0.1768
11041TIP3    H133062   6.237   0.661   0.540  0.1638  1.5584 -0.7257
11041TIP3    H233063   6.148   0.555   0.480 -1.1709  0.8611  2.3782
11042TIP3   OH233064   6.031   0.624   0.119 -0.0726  0.0164 -0.4340
11042TIP3    H133065   6.086   0.546   0.115  0.1673  0.0271  1.6798
11042TIP3    H233066   6.085   0.694   0.084  0.6018 -0.3258 -0.0850
11043TIP3   OH233067   5.170   6.946   0.071 -0.2534 -0.9419 -1.2425
11043TIP3    H133068   5.240   6.996   0.029 -0.7155  0.7199 -0.0966
11043TIP3    H233069   5.213   6.901   0.144 -0.3919  0.1907 -0.4528
11044TIP3   OH233070   1.917   2.639   5.437  0.3310  0.0768 -0.0323
11044TIP3    H133071   1.985   2.599   5.491 -0.1391 -0.1966  0.3475
11044TIP3    H233072   1.853   2.673   5.499 -0.4711 -0.6972 -0.4215
11045TIP3   OH233073   2.663   2.091   6.609 -0.0001  0.6385 -0.8055
11045TIP3    H133074   2.758   2.083   6.616 -0.0927 -0.5753 -0.7328
11045TIP3    H233075   2.635   2.006   6.574 -1.0136  1.1519 -1.2513
11046TIP3   OH233076   2.325   3.221   5.797 -0.1435 -0.2160  0.4172
11046TIP3    H133077   2.386   3.228   5.724 -0.2136 -0.0155  0.3796
11046TIP3    H233078   2.349   3.139   5.840 -1.5344 -1.4915 -1.1612
11047TIP3   OH233079   1.319   4.190   6.471  0.2246 -0.0894  0.3806
11047TIP3    H133080   1.250   4.241   6.514  0.9926  1.2019  0.1090
11047TIP3    H233081   1.400   4.220   6.512  0.7532 -0.5518 -0.3167
11048TIP3   OH233082   4.503   6.899   0.720 -0.3330 -0.0635 -0.1973
11048TIP3    H133083   4.562   6.910   0.646  1.1594 -0.9253  0.8363
11048TIP3    H233084   4.447   6.977   0.718  1.3948  1.1862 -0.7005
11049TIP3   OH233085   0.766   6.509   4.384  0.1446 -0.5478 -0.6544
11049TIP3    H133086   0.848   6.549   4.412 -0.2105 -0.3559  0.1296
11049TIP3    H233087   0.763   6.523   4.290  1.1737 -0.8580 -0.7339
11050TIP3   OH233088   6.552   0.074   1.419 -0.4184 -0.4703 -0.1698
11050TIP3    H133089   6.501   0.124   1.355 -0.4281  0.5875  0.6529
11050TIP3    H233090   6.511  -0.013   1.420  0.0474 -0.7270 -2.1327
11051TIP3   OH233091   6.468   4.942   5.895  0.1047  0.3616  0.0193
11051TIP3    H133092   6.508   4.976   5.975 -0.7596  1.6075 -0.0705
11051TIP3    H233093   6.528   4.965   5.825  1.4469 -1.7517  0.4215
11052TIP3   OH233094   6.427   1.050   1.446 -0.4609  0.1427 -0.5426
11052TIP3    H133095   6.353   0.991   1.434 -1.5308  1.2913  0.3838
11052TIP3    H233096   6.416   1.086   1.534  2.1181 -0.9618  0.3021
11053TIP3   OH233097   7.813   2.051   1.055 -0.4005 -0.3219 -0.5967
11053TIP3    H133098   7.902   2.026   1.030 -0.1560 -0.2029  0.1398
11053TIP3    H233099   7.805   2.025   1.147 -1.6547 -1.7549 -1.0799
11054TIP3   OH233100   1.278   4.107   6.906  0.0164 -0.0888 -0.2437
11054TIP3    H133101   1.249   4.198   6.900 -0.3426 -0.2471 -0.9879
11054TIP3    H233102   1.344   4.098   6.837 -0.1927 -0.4810 -0.3972
11055TIP3   OH233103   4.892   5.438   2.337  0.5507 -0.5287  0.0557
11055TIP3    H133104   4.861   5.517   2.383 -1.8069 -1.8676  0.8243
11055TIP3    H233105   4.980   5.462   2.307  0.1383  2.1842  0.8099
11056TIP3   OH233106   4.947   0.161   0.661  0.4045  0.3762 -0.0019
11056TIP3    H133107   5.021   0.208   0.700  0.4512  1.5694 -1.4904
11056TIP3    H233108   4.966   0.069   0.678  1.9276  0.7027  0.1750
11057TIP3   OH233109   1.629   3.437   6.811  0.8081  0.2341  0.0136
11057TIP3    H133110   1.536   3.415   6.811  1.1826 -1.4444 -0.9254
11057TIP3    H233111   1.638   3.503   6.743  0.3004  0.4107  0.1168
11058TIP3   OH233112   1.492   5.082   6.580  0.0506  1.0211  0.2275
11058TIP3    H133113   1.513   5.028   6.503  0.6729  1.9351 -0.2456
11058TIP3    H233114   1.427   5.145   6.549 -0.1393  1.0120  0.6018
11059TIP3   OH233115   8.281   0.519   0.680 -0.1564  0.0233  0.2578
11059TIP3    H133116   8.358   0.527   0.623  0.4589 -1.6028  0.8241
11059TIP3    H233117   8.259   0.609   0.703  1.1989  0.5443 -0.4167
11060TIP3   OH233118   0.640   3.685   4.366  0.0428  0.1590 -0.0249
11060TIP3    H133119   0.584   3.681   4.288 -0.9882  0.2581  0.6950
11060TIP3    H233120   0.677   3.773   4.366 -1.3926  0.7842  0.5607
11061TIP3   OH233121   3.775   6.686   3.098 -0.2832  0.1615  0.1510
11061TIP3    H133122   3.697   6.655   3.145  1.4739 -2.4311  1.4322
11061TIP3    H233123   3.809   6.757   3.153 -1.3083  0.8106 -0.0387
11062TIP3   OH233124   1.118   3.511   5.799 -0.4794  0.4683  0.2703
11062TIP3    H133125   1.202   3.495   5.757  0.0944  4.5548 -0.3222
11062TIP3    H233126   1.053   3.483   5.735  0.4222  0.8889 -0.8453
11063TIP3   OH233127   7.994   1.779   0.355 -0.1615 -0.4657  0.0807
11063TIP3    H133128   7.985   1.743   0.267  0.9233  0.4843 -0.4416
11063TIP3    H233129   7.974   1.872   0.345 -0.4782 -0.4351  0.9243
11064TIP3   OH233130   2.819   3.043   6.374  0.1213 -0.0088 -0.4318
11064TIP3    H133131   2.890   2.980   6.366 -1.0335 -1.4628  0.4769
11064TIP3    H233132   2.741   2.989   6.390 -0.9329  1.6299  0.0558
11065TIP3   OH233133   7.066   0.926   0.314  0.0467  0.0494 -0.3110
11065TIP3    H133134   7.123   0.906   0.241 -1.7449  1.4295 -2.1467
11065TIP3    H233135   7.087   1.017   0.338 -2.2541  1.0407 -1.8928
11066TIP3   OH233136   5.253   7.436   1.273  0.0068  0.3630  0.4828
11066TIP3    H133137   5.263   7.343   1.295  2.8211  0.2799 -1.0471
11066TIP3    H233138   5.166   7.441   1.232  0.3046 -1.7940 -0.4651
11067TIP3   OH233139   4.868   7.862   0.810 -0.3912  0.1488 -0.1700
11067TIP3    H133140   4.885   7.815   0.728  1.6464  0.0320  0.2871
11067TIP3    H233141   4.857   7.953   0.783 -0.4591  0.0011 -0.6508
11068TIP3   OH233142   5.153   6.612   0.132 -0.3918 -0.2299  0.3388
11068TIP3    H133143   5.246   6.634   0.138 -0.4472  1.1142 -2.5695
11068TIP3    H233144   5.109   6.682   0.181 -0.1178  2.4478 -2.9891
11069TIP3   OH233145   1.706   4.335   5.392 -0.2964  0.4956 -0.3217
11069TIP3    H133146   1.643   4.387   5.342 -1.3614 -1.2554 -0.8412
11069TIP3    H233147   1.676   4.340   5.482 -1.2033 -0.3406 -0.5710
11070TIP3   OH233148   6.144   7.515   2.246 -0.1880 -0.1794  0.4240
11070TIP3    H133149   6.071   7.512   2.308 -1.1023 -0.2609 -0.6482
11070TIP3    H233150   6.158   7.423   2.221  0.1026 -0.1344  0.4246
11071TIP3   OH233151   5.623   0.150   1.247 -0.2567  0.4151  0.0838
11071TIP3    H133152   5.568   0.187   1.178  1.5484  1.8983 -0.5868
11071TIP3    H233153   5.595   0.058   1.253 -2.2789  0.9553 -0.7373
11072TIP3   OH233154   5.673   1.760   0.864 -0.2717 -0.2299  0.5430
11072TIP3    H133155   5.696   1.669   0.884  0.3722  0.0456  1.0848
11072TIP3    H233156   5.589   1.774   0.908 -0.5957 -0.7005  0.0765
11073TIP3   OH233157   6.425   1.634   1.270 -0.4613 -0.0148 -0.1907
11073TIP3    H133158   6.508   1.678   1.253 -0.0454 -0.6264  0.2547
11073TIP3    H233159   6.395   1.604   1.184  0.7304 -1.4920 -0.0900
11074TIP3   OH233160   0.913   4.242   5.620  0.0264  0.1222  0.4554
11074TIP3    H133161   0.832   4.234   5.570 -0.7107 -0.2036  1.6720
11074TIP3    H233162   0.969   4.297   5.566 -0.6619 -0.4117 -0.8213
11075TIP3   OH233163   1.092   4.436   5.486  0.1900  0.0682  0.1237
11075TIP3    H133164   1.158   4.422   5.553  2.6230  0.4333 -2.0920
11075TIP3    H233165   1.074   4.530   5.489  0.9861  0.2370 -0.3521
11076TIP3   OH233166   1.363   5.052   6.208 -0.2811  0.3357 -0.3458
11076TIP3    H133167   1.418   4.988   6.252 -2.3936 -2.7748 -2.0433
11076TIP3    H233168   1.414   5.080   6.132  0.5680  0.4604  0.2741
11077TIP3   OH233169   1.933   2.103   6.055  0.5194  0.4533  0.0735
11077TIP3    H133170   1.851   2.147   6.078 -0.7726 -1.0715 -1.5172
11077TIP3    H233171   1.914   2.010   6.068  2.5057  0.1811  1.1956
11078TIP3   OH233172   4.288   6.617   0.295 -0.0983 -0.3467  0.1417
11078TIP3    H133173   4.269   6.701   0.252  0.6676 -0.0562  0.3614
11078TIP3    H233174   4.359   6.579   0.244  0.1885 -0.4273  0.5919
11079TIP3   OH233175   1.561   3.901   4.648  0.1326  0.4602  0.9377
11079TIP3    H133176   1.476   3.924   4.685  0.2118  0.2589  1.2455
11079TIP3    H233177   1.558   3.806   4.640 -0.4781  0.6006 -1.0067
11080TIP3   OH233178   2.533   4.227   6.938 -0.3103  0.6592  0.1203
11080TIP3    H133179   2.607   4.284   6.959  1.0093 -0.2251 -1.9059
11080TIP3    H233180   2.549   4.202   6.847 -0.4048 -3.5863  1.1825
11081TIP3   OH233181   1.275   4.983   4.662  0.3172 -0.5878 -0.0895
11081TIP3    H133182   1.348   4.985   4.723 -0.3969  0.8475  0.7403
11081TIP3    H233183   1.313   4.952   4.579  1.4857 -1.5454  0.8007
11082TIP3   OH233184   5.944   6.009   0.353 -0.7486  0.0302  0.3108
11082TIP3    H133185   6.025   6.026   0.399 -0.5103 -0.5869  0.1250
11082TIP3    H233186   5.914   6.095   0.324  0.5695  0.1088 -0.8433
11083TIP3   OH233187   1.001   2.298   6.275  0.5437  0.1597 -0.2024
11083TIP3    H133188   0.979   2.213   6.237  2.1902 -0.7504  0.8506
11083TIP3    H233189   0.946   2.360   6.227  0.4524 -1.3038 -2.0496
11084TIP3   OH233190   1.851   1.480   5.351 -0.1723  0.7008 -0.6919
11084TIP3    H133191   1.756   1.469   5.354  0.0083 -0.7228  0.5699
11084TIP3    H233192   1.880   1.459   5.440  1.4094  0.2380 -1.3004
11085TIP3   OH233193   2.255   5.967   6.694 -0.3697  0.5957  0.1440
11085TIP3    H133194   2.198   6.022   6.747 -1.4009 -0.2451 -0.0903
11085TIP3    H233195   2.201   5.938   6.621  0.5115  0.2369 -0.3824
11086TIP3   OH233196   0.149   0.269   0.139  0.0523 -0.3469 -0.6793
11086TIP3    H133197   0.143   0.221   0.222 -1.7876  2.4700  0.8873
11086TIP3    H233198   0.242   0.285   0.127  0.3175 -0.6356  0.9318
11087TIP3   OH233199   0.642   1.072   0.175  0.1040  0.5487  0.3479
11087TIP3    H133200   0.586   1.016   0.227  0.0983 -0.0154 -0.2612
11087TIP3    H233201   0.612   1.161   0.194  0.3789  0.3713  1.6211
11088TIP3   OH233202   1.761   4.021   5.395 -0.2787 -0.3083 -0.0175
11088TIP3    H133203   1.797   4.110   5.399  1.1029 -0.8295 -0.3408
11088TIP3    H233204   1.826   3.967   5.441 -0.0772 -1.4600 -1.6187
11089TIP3   OH233205   1.557   3.234   4.866  0.4294 -0.2296  0.9168
11089TIP3    H133206   1.491   3.290   4.907  0.1998  0.9074 -0.9502
11089TIP3    H233207   1.622   3.295   4.831  0.4735 -1.1275 -0.6338
11090TIP3   OH233208   2.170   4.649   6.892  0.7422  0.1403  0.0784
11090TIP3    H133209   2.256   4.681   6.865  1.2384 -0.8036  0.4981
11090TIP3    H233210   2.148   4.583   6.826  0.3537  0.3526 -0.0053
11091TIP3   OH233211   8.278   0.031   0.485  0.0674 -0.0192 -0.3220
11091TIP3    H133212   8.245  -0.001   0.401 -2.7734 -0.1407  0.7539
11091TIP3    H233213   8.238   0.118   0.493  0.7177  0.1822  0.6709
11092TIP3   OH233214   1.616   3.656   5.381 -0.7765  0.4711 -0.5360
11092TIP3    H133215   1.646   3.633   5.469 -1.0634  2.3851  0.0850
11092TIP3    H233216   1.570   3.578   5.350 -0.4562 -0.3064  0.9044
11093TIP3   OH233217   8.410   4.951   5.274  0.3143 -0.2996  0.0373
11093TIP3    H133218   8.360   4.892   5.331  0.3047  0.0841  0.4309
11093TIP3    H233219   8.343   5.000   5.226  0.3211 -0.5840 -0.2594
11094TIP3   OH233220   6.791   1.225   2.970 -0.3664 -0.3785 -0.3864
11094TIP3    H133221   6.856   1.155   2.977 -1.0273 -0.8773  0.8710
11094TIP3    H233222   6.843   1.303   2.949  0.3646 -1.2489 -1.8936
11095TIP3   OH233223   7.709   1.219   1.731 -0.0780  0.6620 -0.2856
11095TIP3    H133224   7.678   1.310   1.734 -0.2929  0.5375  1.7043
11095TIP3    H233225   7.643   1.169   1.780  0.3180 -0.4814 -0.9083
11096TIP3   OH233226   8.337   1.584   0.418 -0.1664 -0.7226 -0.1627
11096TIP3    H133227   8.327   1.676   0.445 -1.5502 -0.6718 -0.7867
11096TIP3    H233228   8.311   1.584   0.326 -1.2577 -1.9340  0.1414
11097TIP3   OH233229   4.672   6.549   2.054  0.1736  0.3467 -0.0527
11097TIP3    H133230   4.598   6.610   2.055 -0.9254 -0.9499 -0.9883
11097TIP3    H233231   4.724   6.576   1.977 -0.6966 -0.3386 -0.8889
11098TIP3   OH233232   5.926   5.782   5.506 -0.7897 -0.2730 -0.5678
11098TIP3    H133233   5.974   5.860   5.532  0.4651 -1.3946  0.5661
11098TIP3    H233234   5.847   5.783   5.559 -0.4627 -0.1137 -0.0836
11099TIP3   OH233235   5.393   1.359   1.703  0.7852 -0.3468 -0.1062
11099TIP3    H133236   5.376   1.406   1.622 -0.5719 -1.2388 -0.3612
11099TIP3    H233237   5.383   1.266   1.680  1.1372 -0.6404  0.8920
11100TIP3   OH233238   7.379   3.650   5.213 -0.0764 -0.4316 -0.4053
11100TIP3    H133239   7.303   3.690   5.170 -0.5323 -1.3482 -0.4548
11100TIP3    H233240   7.414   3.589   5.148  2.2184  1.8078 -1.3366
11101TIP3   OH233241   1.327   5.319   5.586  0.0529 -0.5277 -0.0690
11101TIP3    H133242   1.303   5.245   5.530  0.7835 -0.5377 -0.3757
11101TIP3    H233243   1.289   5.298   5.671 -1.5662 -0.2390 -0.7084
11102TIP3   OH233244   5.737   1.730   0.076  0.7138 -0.2624 -0.1522
11102TIP3    H133245   5.664   1.725   0.137  0.1097  0.8145 -0.7819
11102TIP3    H233246   5.812   1.697   0.125 -0.0750 -0.8313  0.6793
11103TIP3   OH233247   0.984   4.725   5.964  0.2835  0.5839 -0.0203
11103TIP3    H133248   0.896   4.686   5.963 -0.2157  1.6923 -0.8966
11103TIP3    H233249   1.002   4.744   6.056 -0.1264 -0.2492  0.2326
11104TIP3   OH233250   0.675   3.088   6.348 -0.2163 -0.3279  0.1264
11104TIP3    H133251   0.665   3.021   6.281 -0.4412  0.4152 -0.5959
11104TIP3    H233252   0.602   3.074   6.408  0.2379 -1.2708  0.4638
11105TIP3   OH233253   6.071   7.925   0.448 -0.5102 -0.8680 -0.1436
11105TIP3    H133254   6.152   7.923   0.499 -0.7516  0.3389  0.3134
11105TIP3    H233255   6.008   7.876   0.501 -0.0169 -2.0759 -0.6438
11106TIP3   OH233256   2.899   3.923   5.362 -0.0184 -0.2306  0.4740
11106TIP3    H133257   2.959   3.989   5.327 -0.5917  1.1024  1.9578
11106TIP3    H233258   2.917   3.845   5.309  0.8326  1.0219 -1.1614
11107TIP3   OH233259   1.206   3.059   5.835  0.2797  0.1896 -0.0906
11107TIP3    H133260   1.166   2.981   5.872  2.6998 -0.7871  0.5721
11107TIP3    H233261   1.226   3.036   5.745 -1.5026  1.0113 -0.7102
11108TIP3   OH233262   1.001   3.482   6.579 -0.2972  0.0682  0.2286
11108TIP3    H133263   1.018   3.454   6.669 -2.4358 -0.9479  0.3683
11108TIP3    H233264   1.087   3.488   6.539  0.5804 -1.3373  1.8180
11109TIP3   OH233265   5.621   5.284   0.331  0.3772  0.4153 -0.4831
11109TIP3    H133266   5.638   5.375   0.357 -1.7989  1.1899 -1.6599
11109TIP3    H233267   5.539   5.261   0.373  0.4665 -0.7225 -0.9057
11110TIP3   OH233268   4.307   6.077   0.998  0.7896  0.2618 -0.6180
11110TIP3    H133269   4.241   6.087   1.066 -0.0682  0.7441 -1.5139
11110TIP3    H233270   4.257   6.068   0.917  1.8030 -0.2250 -1.1953
11111TIP3   OH233271   5.823   7.048   0.648  0.1076 -0.2910  0.1135
11111TIP3    H133272   5.765   6.972   0.644  0.1008 -0.3889  1.7818
11111TIP3    H233273   5.891   7.029   0.583 -1.7374 -0.1306 -1.9484
11112TIP3   OH233274   7.727   4.091   5.036 -0.1454  0.0849  0.4531
11112TIP3    H133275   7.718   4.004   5.073 -0.3370  0.2908  0.8938
11112TIP3    H233276   7.733   4.149   5.112  1.4472  0.3080  0.1719
11113TIP3   OH233277   5.461   6.340   0.146  0.9348 -0.5460  0.4541
11113TIP3    H133278   5.414   6.285   0.208 -3.1154  1.6224 -0.5453
11113TIP3    H233279   5.445   6.300   0.061  1.0981  0.0811  0.1214
11114TIP3   OH233280   2.289   6.341   5.995  0.1977  0.1695  1.0427
11114TIP3    H133281   2.329   6.287   6.063  1.3896 -0.1921  0.0619
11114TIP3    H233282   2.360   6.395   5.962 -0.3745  0.3222  0.0553
11115TIP3   OH233283   6.639   1.905   1.951 -0.4380  0.5165  0.1494
11115TIP3    H133284   6.644   1.854   2.032 -1.1754  0.5239  0.2026
11115TIP3    H233285   6.615   1.841   1.884 -3.2811  1.0927  0.5449
11116TIP3   OH233286   7.279   0.777   1.192 -0.2858 -0.3798  0.0404
11116TIP3    H133287   7.224   0.785   1.269 -0.6663 -0.3200 -0.2375
11116TIP3    H233288   7.259   0.855   1.139  1.6238  0.7619  0.9311
11117TIP3   OH233289   6.647   3.598   1.955  0.0103  0.1284  0.4006
11117TIP3    H133290   6.620   3.535   1.888  0.5360 -0.6498  0.9185
11117TIP3    H233291   6.723   3.643   1.917 -0.0505  0.0972  0.2413
11118TIP3   OH233292   4.736   0.212   5.809  0.0429 -0.2626 -0.0377
11118TIP3    H133293   4.675   0.161   5.756  0.6629 -1.7314  0.6317
11118TIP3    H233294   4.794   0.147   5.848  2.2252  1.1210 -0.8786
11119TIP3   OH233295   1.175   4.702   5.617  0.6728  0.4451 -0.0198
11119TIP3    H133296   1.081   4.720   5.610  0.1687 -2.1041 -0.1876
11119TIP3    H233297   1.209   4.717   5.529  0.7622  2.9822  0.3986
11120TIP3   OH233298   1.255   1.329   1.479  0.3242 -0.1102  0.4234
11120TIP3    H133299   1.188   1.362   1.419  0.9320  1.8233  0.7554
11120TIP3    H233300   1.286   1.248   1.439  0.2729  0.8094 -1.5618
11121TIP3   OH233301   2.327   2.619   6.516 -0.0706  0.2317 -0.0367
11121TIP3    H133302   2.333   2.623   6.612 -1.8898  1.1067  0.0668
11121TIP3    H233303   2.348   2.528   6.495  1.2848  0.2626  1.1010
11122TIP3   OH233304   2.685   6.444   6.896 -0.1710  0.3956  0.0881
11122TIP3    H133305   2.611   6.500   6.875 -0.6914 -0.0238  0.7547
11122TIP3    H233306   2.761   6.490   6.862 -0.7900  0.5599 -1.1193
11123TIP3   OH233307   2.440   3.595   6.911  0.1533 -0.5965  0.3417
11123TIP3    H133308   2.347   3.614   6.896 -0.8210 -5.0051  0.1850
11123TIP3    H233309   2.441   3.542   6.991  2.3667 -2.1289 -0.6679
11124TIP3   OH233310   0.228   0.083   0.332  0.5542 -0.3845  0.0069
11124TIP3    H133311   0.287   0.025   0.379 -1.5894 -2.1927  0.5490
11124TIP3    H233312   0.206   0.035   0.252 -2.5075 -1.1158  1.2146
11125TIP3   OH233313   3.077   4.400   6.379  0.2139  0.1515 -0.1761
11125TIP3    H133314   3.126   4.319   6.363 -0.6725 -0.3365 -0.4749
11125TIP3    H233315   2.986   4.371   6.388 -0.1556  1.1470 -0.6402
11126TIP3   OH233316   4.940   7.174   0.688  0.3769  0.1397 -0.0377
11126TIP3    H133317   5.021   7.211   0.722  0.1549 -1.4495  2.3311
11126TIP3    H233318   4.871   7.225   0.731  0.1060  0.9613 -1.4320
11127TIP3   OH233319   7.768   0.196   1.068 -0.6514 -0.6440 -0.3510
11127TIP3    H133320   7.835   0.129   1.054  0.4688  0.4228 -0.2431
11127TIP3    H233321   7.784   0.228   1.157 -2.2431 -1.3945  0.2115
11128TIP3   OH233322   3.192   4.884   5.202  0.0365  0.5504  0.3192
11128TIP3    H133323   3.113   4.855   5.247 -1.3166 -0.4009 -2.5326
11128TIP3    H233324   3.227   4.805   5.161  0.1951  1.6559 -1.7656
11129TIP3   OH233325   6.612   1.228   0.656 -0.7279 -0.0367 -0.5184
11129TIP3    H133326   6.649   1.149   0.619  0.5874 -0.3436  1.3911
11129TIP3    H233327   6.528   1.201   0.693  0.3048 -0.8677  1.2983
11130TIP3   OH233328   1.060   1.618   5.894  0.2638 -0.3464 -0.2063
11130TIP3    H133329   1.034   1.710   5.909  0.0098 -0.4707  0.1225
11130TIP3    H233330   1.001   1.588   5.824  0.3776 -0.2469 -0.3461
11131TIP3   OH233331   3.562   2.980   5.752  0.3296 -0.0316  0.0787
11131TIP3    H133332   3.475   3.022   5.755  0.2186 -0.2339 -0.3023
11131TIP3    H233333   3.623   3.053   5.763  0.0693 -0.1884  2.8968
11132TIP3   OH233334   1.485   5.044   4.799  0.4055  0.2455 -0.4516
11132TIP3    H133335   1.531   5.120   4.762  0.6122  0.0939 -0.5091
11132TIP3    H233336   1.518   5.038   4.889 -0.2992  0.7769 -0.1581
11133TIP3   OH233337   3.232   2.618   6.218 -0.3325 -0.1539 -0.5994
11133TIP3    H133338   3.248   2.543   6.160 -0.8248 -0.9651  0.3054
11133TIP3    H233339   3.166   2.670   6.172 -1.6977 -1.4773 -0.1736
11134TIP3   OH233340   1.247   7.465   6.572 -0.0975  0.2765 -0.1233
11134TIP3    H133341   1.220   7.535   6.513 -3.2777 -1.9016 -1.4467
11134TIP3    H233342   1.315   7.418   6.524 -0.9653 -0.0382 -1.0744
11135TIP3   OH233343   2.754   6.098   5.951 -0.2363 -0.3231 -0.4169
11135TIP3    H133344   2.735   6.103   6.044 -0.0593 -2.3663 -0.2450
11135TIP3    H233345   2.840   6.056   5.946  0.3799  1.0031 -1.4656
11136TIP3   OH233346   2.652   4.854   4.471 -0.0900  0.2266  0.0931
11136TIP3    H133347   2.566   4.825   4.502 -0.6676  0.4570 -1.2315
11136TIP3    H233348   2.690   4.775   4.432 -0.2601  0.4445 -0.5142
11137TIP3   OH233349   2.150   5.599   6.472  0.1549 -0.4595 -0.0679
11137TIP3    H133350   2.134   5.631   6.383  0.2571  1.0684  0.4548
11137TIP3    H233351   2.244   5.583   6.476  0.1598 -0.4622 -0.2062
11138TIP3   OH233352   8.254   1.068   0.874  0.3723 -0.3326  0.5660
11138TIP3    H133353   8.308   1.081   0.952  1.3514 -0.8228 -0.0147
11138TIP3    H233354   8.164   1.085   0.903  0.8690  0.8298  1.4752
11139TIP3   OH233355   7.444   2.325   1.308 -0.2775  0.4045  0.3400
11139TIP3    H133356   7.431   2.367   1.393  0.2653  0.6384  0.3136
11139TIP3    H233357   7.502   2.385   1.261 -0.0421 -0.0441  0.0502
11140TIP3   OH233358   2.983   4.914   4.328  0.0377 -0.3931  1.0389
11140TIP3    H133359   3.067   4.895   4.287  1.7175 -0.3561  4.2848
11140TIP3    H233360   2.975   5.009   4.324 -0.4394 -0.4739 -0.2961
11141TIP3   OH233361   2.294   4.354   5.125  0.5476 -0.1555 -0.1113
11141TIP3    H133362   2.375   4.404   5.126  0.2491  0.3473 -0.8971
11141TIP3    H233363   2.322   4.262   5.127  1.1164  0.0272  0.2263
11142TIP3   OH233364   6.017   4.741   6.819  0.4893  0.7992  0.5715
11142TIP3    H133365   5.944   4.758   6.759  0.1232 -1.3412  0.3893
11142TIP3    H233366   6.091   4.720   6.762  0.6337  0.6255  0.8232
11143TIP3   OH233367   2.213   1.261   5.658 -0.6436 -0.0135 -0.3344
11143TIP3    H133368   2.250   1.288   5.574 -2.5803  1.4424 -0.7512
11143TIP3    H233369   2.288   1.230   5.709  0.5073 -1.3474 -2.7454
11144TIP3   OH233370   4.186   7.208   0.282 -0.1440  0.3488 -0.7130
11144TIP3    H133371   4.142   7.229   0.364 -0.4108 -0.5461 -0.6178
11144TIP3    H233372   4.120   7.163   0.230 -0.1818  1.5147 -1.6937
11145TIP3   OH233373   4.532   6.355   4.559 -0.0061  0.3735 -0.1303
11145TIP3    H133374   4.510   6.426   4.498 -0.5194 -0.9132 -1.4727
11145TIP3    H233375   4.467   6.287   4.542  0.2469 -0.2818  1.4021
11146TIP3   OH233376   0.309   1.817   1.162 -0.5005 -0.2675  0.2023
11146TIP3    H133377   0.389   1.847   1.118 -0.6827 -0.0656  0.0041
11146TIP3    H233378   0.339   1.771   1.240 -0.2418  1.0226  0.8705
11147TIP3   OH233379   4.576   2.977   5.330 -0.3040 -0.0502  0.2491
11147TIP3    H133380   4.638   3.038   5.291  0.4732 -2.0864 -1.7819
11147TIP3    H233381   4.499   2.982   5.273 -0.5988 -0.2476  0.6294
11148TIP3   OH233382   5.120   6.325   0.078  0.3214  0.2104 -0.1582
11148TIP3    H133383   5.159   6.333  -0.009  0.7159  0.1777  0.0146
11148TIP3    H233384   5.132   6.411   0.119  2.9548 -0.6410  1.0244
11149TIP3   OH233385   2.904   2.675   5.700  0.5538  0.0023  0.4867
11149TIP3    H133386   2.873   2.599   5.750 -0.5899  1.1228  1.5212
11149TIP3    H233387   2.826   2.707   5.656  0.0768  3.0365  3.3347
11150TIP3   OH233388   3.680   2.996   6.275  0.1403 -0.6327 -0.0590
11150TIP3    H133389   3.724   2.968   6.356 -2.9485 -0.8073  1.6307
11150TIP3    H233390   3.682   2.919   6.219  1.3664 -0.8433  0.2668
11151TIP3   OH233391   2.033   5.059   4.858 -0.1955 -0.1759 -0.1544
11151TIP3    H133392   2.011   5.063   4.766 -0.0179 -1.8432 -0.2871
11151TIP3    H233393   2.055   5.150   4.882 -1.4561  0.4698 -1.4204
11152TIP3   OH233394   6.659   0.641   0.762  0.2191 -0.2399 -1.0815
11152TIP3    H133395   6.651   0.610   0.853  1.3928 -1.2101 -1.2946
11152TIP3    H233396   6.591   0.708   0.754  0.6638  0.4757  0.7684
11153TIP3   OH233397   7.941   0.693   0.191 -0.3487 -0.3815  0.1381
11153TIP3    H133398   8.024   0.690   0.142 -0.5499 -1.0725 -0.1656
11153TIP3    H233399   7.893   0.616   0.161 -0.0000 -1.4831  2.2782
11154TIP3   OH233400   0.826   1.737   0.244  0.2953  0.1399 -0.7345
11154TIP3    H133401   0.880   1.812   0.268  0.9816 -0.0775 -1.5550
11154TIP3    H233402   0.810   1.748   0.150  1.0686 -1.1489 -1.0292
11155TIP3   OH233403   7.707   4.524   3.814 -0.0306  0.2831 -0.3342
11155TIP3    H133404   7.759   4.461   3.863  0.8505  1.5937  0.4359
11155TIP3    H233405   7.705   4.489   3.725  0.7003 -0.6688  0.0146
11156TIP3   OH233406   2.388   2.326   6.741  0.4532  0.1793 -0.2217
11156TIP3    H133407   2.314   2.273   6.713  0.6084 -0.9728  1.4521
11156TIP3    H233408   2.392   2.398   6.678 -1.3912 -0.3512 -0.9637
11157TIP3   OH233409   5.796   0.284   5.345  0.5982  0.5665  0.1481
11157TIP3    H133410   5.756   0.238   5.419 -1.6210 -0.4385 -1.6124
11157TIP3    H233411   5.874   0.233   5.324  1.9919  1.6063  2.5872
11158TIP3   OH233412   0.655   1.498   1.060 -0.0912 -0.4902 -0.5498
11158TIP3    H133413   0.668   1.466   0.971 -0.7016 -0.1726 -0.7631
11158TIP3    H233414   0.562   1.481   1.078 -0.5722  1.5922 -0.8714
11159TIP3   OH233415   5.425   4.525   5.301 -0.1936  0.5011  0.1652
11159TIP3    H133416   5.515   4.499   5.280  0.6498  2.8608  0.6672
11159TIP3    H233417   5.398   4.579   5.226 -1.2702 -0.3496 -0.0681
11160TIP3   OH233418   3.794   4.695   6.299  0.5520 -0.2707 -0.1303
11160TIP3    H133419   3.838   4.779   6.313  1.0073 -0.5306  0.0030
11160TIP3    H233420   3.718   4.699   6.357  0.2746  0.2742 -0.5298
11161TIP3   OH233421   2.436   6.204   6.195 -0.4786  0.8464 -0.0463
11161TIP3    H133422   2.370   6.192   6.263  0.0961 -4.0151 -0.1365
11161TIP3    H233423   2.516   6.227   6.243 -0.5187 -0.6803  0.7841
11162TIP3   OH233424   3.976   7.870   0.521  0.2861 -0.4333  0.1697
11162TIP3    H133425   3.936   7.956   0.511  0.2222 -0.8338 -3.5787
11162TIP3    H233426   4.070   7.889   0.529  0.1801  0.0004  0.4578
11163TIP3   OH233427   5.182   7.877   0.459 -0.2325  0.3546  0.3533
11163TIP3    H133428   5.112   7.874   0.394 -0.3076  0.6018  0.4219
11163TIP3    H233429   5.217   7.788   0.461 -1.7046 -0.2134  1.5735
11164TIP3   OH233430   2.584   5.379   5.598 -0.0245  0.0357 -0.0411
11164TIP3    H133431   2.646   5.308   5.581 -2.0470 -2.0644  0.9303
11164TIP3    H233432   2.498   5.339   5.582 -1.4107  1.2242  3.9168
11165TIP3   OH233433   2.474   5.716   4.679  0.2288 -0.0635 -0.1000
11165TIP3    H133434   2.463   5.621   4.677  0.8200 -0.1677  0.9567
11165TIP3    H233435   2.485   5.736   4.772  1.3780  0.8754 -0.4259
11166TIP3   OH233436   1.618   5.616   6.050 -0.2755 -0.3464  0.1331
11166TIP3    H133437   1.540   5.606   6.105  0.5525  2.5514  1.9272
11166TIP3    H233438   1.687   5.573   6.100 -0.0655 -0.1105  0.0407
11167TIP3   OH233439   1.223   5.063   6.852 -0.5680 -0.9165 -0.3107
11167TIP3    H133440   1.295   5.022   6.901 -0.2147  0.3349  0.2440
11167TIP3    H233441   1.249   5.055   6.761  2.2592  2.9847  0.0161
11168TIP3   OH233442   1.318   2.858   5.367  0.1253  0.0053  0.5124
11168TIP3    H133443   1.260   2.927   5.400 -1.5746 -0.2768 -1.7517
11168TIP3    H233444   1.278   2.777   5.398  0.9571 -0.0642  1.4117
11169TIP3   OH233445   3.709   4.288   5.364  0.2093  0.7370 -0.4991
11169TIP3    H133446   3.659   4.365   5.389  0.4423  0.9532 -0.6891
11169TIP3    H233447   3.793   4.323   5.333  0.9256  0.3130  0.9065
11170TIP3   OH233448   5.719   7.620   1.305  0.4161 -0.1409  0.0602
11170TIP3    H133449   5.713   7.532   1.267 -1.1187 -0.1488  0.2763
11170TIP3    H233450   5.667   7.615   1.385 -0.2260  1.1436 -0.2694
11171TIP3   OH233451   1.549   6.490   6.279  0.0324  0.2262 -0.5103
11171TIP3    H133452   1.580   6.430   6.211 -0.2480 -1.2467  0.6322
11171TIP3    H233453   1.627   6.506   6.333  0.4131  1.9086 -1.5359
11172TIP3   OH233454   0.034   1.226   1.701 -0.3300  0.2420  0.4831
11172TIP3    H133455  -0.036   1.181   1.750  0.2165 -0.4078  0.6867
11172TIP3    H233456   0.003   1.227   1.611 -1.2317  1.2128  0.7876
11173TIP3   OH233457   6.490   8.003   0.084  0.4239  1.0669 -0.0620
11173TIP3    H133458   6.475   7.940   0.014  1.2241  1.4922 -0.6130
11173TIP3    H233459   6.569   7.972   0.129  0.0814  0.9587  0.4793
11174TIP3   OH233460   6.785   1.483   2.435  0.3028  0.4023  0.2754
11174TIP3    H133461   6.750   1.432   2.362  0.0955 -0.2023  0.7951
11174TIP3    H233462   6.880   1.478   2.424  0.2865 -0.2263  0.4131
11175TIP3   OH233463   2.596   3.611   4.318 -0.2926  0.9062 -0.0384
11175TIP3    H133464   2.514   3.626   4.366 -0.6150  1.0450 -0.6211
11175TIP3    H233465   2.575   3.634   4.227  0.6860  1.9887 -0.0080
11176TIP3   OH233466   2.510   4.424   6.296 -0.2075 -0.3117  0.7849
11176TIP3    H133467   2.457   4.349   6.269 -1.9547  0.2242  2.6064
11176TIP3    H233468   2.462   4.462   6.369  1.5101  1.6137  0.9520
11177TIP3   OH233469   0.210   1.239   1.273 -0.1290 -0.0617 -0.1976
11177TIP3    H133470   0.139   1.209   1.216 -0.4473  0.0559  0.1342
11177TIP3    H233471   0.167   1.297   1.336  0.3441  0.4170 -0.3140
11178TIP3   OH233472   3.547   3.611   5.900  0.6056  0.4989 -0.1881
11178TIP3    H133473   3.502   3.694   5.912  1.2154  1.0518 -1.5934
11178TIP3    H233474   3.629   3.634   5.856  0.5043 -0.9030 -1.1436
11179TIP3   OH233475   3.138   5.553   5.941 -0.2937 -0.0134 -0.5052
11179TIP3    H133476   3.101   5.468   5.917  0.5323 -0.3307 -0.6743
11179TIP3    H233477   3.159   5.545   6.034 -1.5251  0.4905 -0.1772
11180TIP3   OH233478   0.483   0.950   0.930  0.6085 -0.0613 -0.3723
11180TIP3    H133479   0.536   0.894   0.874 -1.1415 -1.4235 -0.7136
11180TIP3    H233480   0.403   0.964   0.881  0.1718  1.0204  0.6188
11181TIP3   OH233481   1.645   3.591   6.045 -0.1853 -0.1061  0.2797
11181TIP3    H133482   1.644   3.501   6.078  0.4380 -0.2639 -0.1242
11181TIP3    H233483   1.646   3.581   5.950  0.9884  0.3097  0.2399
11182TIP3   OH233484   0.138   2.065   0.796  0.0712 -0.5853 -0.2696
11182TIP3    H133485   0.118   2.104   0.881 -1.0762 -0.3629 -0.6305
11182TIP3    H233486   0.232   2.081   0.783  0.0948  0.0121  0.6230
11183TIP3   OH233487   3.114   4.403   5.656  0.6961 -0.0254 -0.3757
11183TIP3    H133488   3.198   4.446   5.642  1.0552 -0.7726 -0.5425
11183TIP3    H233489   3.127   4.349   5.734 -0.1411  1.1502  0.6049
11184TIP3   OH233490   2.549   4.149   6.448  0.0591  0.7250  0.0283
11184TIP3    H133491   2.630   4.199   6.438  0.7245 -0.5146 -1.0987
11184TIP3    H233492   2.550   4.120   6.540  1.6726 -0.5069 -0.3335
11185TIP3   OH233493   1.788   5.681   5.132 -0.2992  0.2166  0.3336
11185TIP3    H133494   1.833   5.766   5.129 -2.3908  1.3603  0.3282
11185TIP3    H233495   1.789   5.657   5.224 -1.5583  1.2893  0.6398
11186TIP3   OH233496   3.859   4.033   5.540 -0.3045  0.3172  0.6257
11186TIP3    H133497   3.910   3.958   5.512 -1.5073 -0.0347 -0.7091
11186TIP3    H233498   3.923   4.094   5.577  0.7089 -1.2355  1.4412
11187TIP3   OH233499   7.852   4.708   6.766 -0.1389 -0.4945  0.4510
11187TIP3    H133500   7.831   4.623   6.727 -0.5551  0.4626 -1.4335
11187TIP3    H233501   7.773   4.731   6.815 -0.3872 -0.7470  0.1770
11188TIP3   OH233502   5.066   6.731   0.788 -0.1286 -0.1385  0.3190
11188TIP3    H133503   4.977   6.767   0.781 -0.0855 -0.1032 -0.0596
11188TIP3    H233504   5.054   6.646   0.831 -0.3143 -0.0116  0.5224
11189TIP3   OH233505   0.204   0.612   0.187 -0.6326  0.3248  0.1490
11189TIP3    H133506   0.230   0.581   0.273 -0.3892  1.4108  0.4697
11189TIP3    H233507   0.247   0.552   0.126  0.9262  0.8435  0.7196
11190TIP3   OH233508   3.027   4.310   5.142 -0.1640  0.5165 -0.1825
11190TIP3    H133509   3.040   4.346   5.229  2.5137  0.2973 -0.4603
11190TIP3    H233510   3.001   4.219   5.158  0.2104  0.5083  0.3963
11191TIP3   OH233511   1.010   6.265   6.543 -0.0978  0.1528  0.0756
11191TIP3    H133512   1.041   6.333   6.483  0.1594  0.5013  0.5971
11191TIP3    H233513   1.088   6.234   6.588 -0.2931 -0.0779  0.2597
11192TIP3   OH233514   1.033   3.704   6.007 -0.0511 -0.4506 -0.5148
11192TIP3    H133515   1.108   3.734   6.059  0.3414  0.1897 -1.4315
11192TIP3    H233516   1.061   3.620   5.971  0.3938 -0.0076 -1.2063
11193TIP3   OH233517   0.677   3.670   2.568  0.3573  0.4868  0.4161
11193TIP3    H133518   0.637   3.620   2.497  0.4142  0.0581  0.6867
11193TIP3    H233519   0.640   3.632   2.648  1.0996  0.2693  0.6548
11194TIP3   OH233520   7.405   1.338   0.121 -0.3143  0.0643  0.0258
11194TIP3    H133521   7.423   1.245   0.104 -2.1260 -0.0432 -1.4565
11194TIP3    H233522   7.462   1.385   0.060 -0.5269 -0.1132 -0.3127
11195TIP3   OH233523   0.565   0.675   1.826  0.1284 -0.0086  0.4069
11195TIP3    H133524   0.590   0.751   1.879 -1.0109  0.2731  0.5523
11195TIP3    H233525   0.483   0.645   1.864 -0.1888 -0.4037 -0.5774
11196TIP3   OH233526   0.966   4.726   4.962  0.2311  0.2396 -0.3744
11196TIP3    H133527   1.006   4.639   4.960 -0.7754 -0.2435 -0.0347
11196TIP3    H233528   0.973   4.758   4.872  0.0149 -0.4763 -0.6501
11197TIP3   OH233529   5.621   7.898   1.259 -0.0731 -0.1930  0.0361
11197TIP3    H133530   5.661   7.812   1.247  2.5075  0.7807  1.2791
11197TIP3    H233531   5.622   7.912   1.354 -1.1075  0.9021 -0.1016
11198TIP3   OH233532   3.911   4.397   5.757 -0.3246  0.3227 -0.0494
11198TIP3    H133533   3.965   4.326   5.792 -1.5507 -0.9334 -0.6451
11198TIP3    H233534   3.959   4.429   5.681  0.7871  0.9120  0.8832
11199TIP3   OH233535   6.437   2.293   1.495  0.5072  0.2256  0.1404
11199TIP3    H133536   6.402   2.218   1.543 -1.0667  1.2022  0.5435
11199TIP3    H233537   6.442   2.363   1.561 -1.1275  1.4120 -0.9572
11200TIP3   OH233538   1.750   5.439   6.770  0.1286 -0.0821 -0.1687
11200TIP3    H133539   1.755   5.402   6.858 -0.3888 -1.6062 -0.7560
11200TIP3    H233540   1.840   5.465   6.750  0.1993  0.4884  0.9022
11201TIP3   OH233541   1.311   5.043   5.505  0.3471  0.2566 -0.4491
11201TIP3    H133542   1.373   5.000   5.564  1.4850 -0.2523 -1.9631
11201TIP3    H233543   1.226   5.032   5.546  0.9900 -0.9868  0.5806
11202TIP3   OH233544   1.620   4.917   6.104 -0.3459 -0.1309 -0.6111
11202TIP3    H133545   1.596   4.828   6.079 -0.5681 -0.2710  0.0797
11202TIP3    H233546   1.633   4.912   6.199 -0.8459  0.6772 -0.4959
11203TIP3   OH233547   1.926   4.946   6.643  0.2245  0.1811  0.3936
11203TIP3    H133548   2.020   4.966   6.647  0.4533 -0.9296  0.6645
11203TIP3    H233549   1.905   4.951   6.550  0.8781 -0.9720  0.1689
11204TIP3   OH233550   3.076   4.691   6.673  0.1759  0.6236 -0.0571
11204TIP3    H133551   3.103   4.712   6.584 -1.5748  1.2362 -0.4650
11204TIP3    H233552   2.982   4.675   6.667 -0.0853  1.2840  1.7763
11205TIP3   OH233553   2.448   4.919   6.474 -0.2662  0.5632  0.4505
11205TIP3    H133554   2.389   4.979   6.429  0.0974 -0.8205 -1.9596
11205TIP3    H233555   2.532   4.965   6.478  0.0360  0.2020 -1.4688
11206TIP3   OH233556   3.522   3.887   6.106 -0.3461 -0.5432  0.1109
11206TIP3    H133557   3.580   3.814   6.128  0.0844 -0.2801 -0.1334
11206TIP3    H233558   3.443   3.873   6.159 -0.3864 -1.3466 -0.1636
11207TIP3   OH233559   3.298   6.921   6.636 -0.5188 -0.3355 -0.1095
11207TIP3    H133560   3.345   6.838   6.645  1.9123  0.8005 -1.7204
11207TIP3    H233561   3.213   6.906   6.678  0.7043 -2.9457  1.5397
11208TIP3   OH233562   0.548   4.137   5.652 -0.5041  0.3356  0.4548
11208TIP3    H133563   0.568   4.223   5.688 -0.6064  0.6835 -0.3058
11208TIP3    H233564   0.567   4.145   5.558 -1.4001 -0.1905  0.2197
11209TIP3   OH233565   1.913   5.803   6.202 -0.4335  0.1670 -0.1640
11209TIP3    H133566   1.993   5.829   6.248 -1.8281 -1.4405  3.3211
11209TIP3    H233567   1.865   5.885   6.190  0.8643  0.8780 -0.5849
11210TIP3   OH233568   2.707   5.233   4.684 -0.1349 -0.3222 -0.3076
11210TIP3    H133569   2.666   5.210   4.600  2.2383  1.4057 -1.9899
11210TIP3    H233570   2.664   5.315   4.710 -1.9963 -1.6714  1.0219
11211TIP3   OH233571   3.560   7.840   0.749  0.0642 -0.5757 -0.1772
11211TIP3    H133572   3.537   7.922   0.706  2.0167 -0.0892 -0.3306
11211TIP3    H233573   3.569   7.863   0.842 -1.3885 -1.0585  0.1075
11212TIP3   OH233574   2.549   5.460   4.780  0.5654  0.5460 -0.3026
11212TIP3    H133575   2.606   5.480   4.854  0.3548  2.4193 -0.6153
11212TIP3    H233576   2.460   5.465   4.816  0.4969  0.5643 -0.4728
11213TIP3   OH233577   7.319   6.403   3.484 -0.4841  0.1943  0.1200
11213TIP3    H133578   7.413   6.390   3.497 -0.7500  0.5885  2.6715
11213TIP3    H233579   7.303   6.377   3.393  2.5738  2.8602 -1.2764
11214TIP3   OH233580   2.307   3.951   6.440 -0.2614  0.2405 -0.3845
11214TIP3    H133581   2.397   3.922   6.420 -0.2922 -1.9017  2.2971
11214TIP3    H233582   2.253   3.873   6.424 -1.3633  0.9256 -0.0111
11215TIP3   OH233583   1.932   3.907   4.998  0.1641 -0.2556 -0.0220
11215TIP3    H133584   1.856   3.963   4.978  0.8475  0.8713  0.4855
11215TIP3    H233585   1.898   3.842   5.059 -0.8616 -0.9746 -1.3011
11216TIP3   OH233586   2.447   5.427   5.871  0.0774 -0.1020 -0.0449
11216TIP3    H133587   2.491   5.399   5.791  0.7437  0.4999  0.0999
11216TIP3    H233588   2.519   5.444   5.932 -0.4224 -0.5114  0.6631
11217TIP3   OH233589   5.376   4.380   4.302  0.3961  0.1958  0.1537
11217TIP3    H133590   5.405   4.315   4.238  0.1715  0.3838 -0.1363
11217TIP3    H233591   5.456   4.428   4.325  0.6377 -0.4373  0.6619
11218TIP3   OH233592   4.432   7.150   0.400  0.0704  0.4888  0.0675
11218TIP3    H133593   4.349   7.138   0.354  0.4240  1.4632 -0.8658
11218TIP3    H233594   4.423   7.234   0.445  0.5802  0.6683 -0.1523
11219TIP3   OH233595   2.161   5.815   5.043  0.5976 -0.1092  0.1358
11219TIP3    H133596   2.095   5.836   4.977 -0.8347 -2.7450  0.6631
11219TIP3    H233597   2.116   5.827   5.127  1.7628  1.1340  0.6084
11220TIP3   OH233598   5.654   1.833   0.593 -0.6527 -0.1446 -0.7567
11220TIP3    H133599   5.645   1.805   0.684 -2.7298 -1.1752 -1.2544
11220TIP3    H233600   5.601   1.913   0.587 -0.7426 -0.2332 -1.1330
11221TIP3   OH233601   5.255   7.941   0.737 -0.3919 -0.0210 -0.4807
11221TIP3    H133602   5.199   7.934   0.660  2.4535 -1.8111 -2.4487
11221TIP3    H233603   5.322   8.005   0.714 -0.8063  1.1305  1.3696
11222TIP3   OH233604   2.463   3.614   5.941 -0.5832  0.1285  0.1862
11222TIP3    H133605   2.426   3.637   5.855  0.1167  1.1927  0.1553
11222TIP3    H233606   2.513   3.691   5.966 -0.6126 -0.2628  1.4671
11223TIP3   OH233607   1.277   5.231   5.848  0.7587 -0.0961  0.0818
11223TIP3    H133608   1.228   5.151   5.870 -0.6468  0.8914  0.5956
11223TIP3    H233609   1.354   5.228   5.906  0.0403 -0.4229  1.0475
11224TIP3   OH233610   0.177   0.131   0.738  0.6586 -0.7405 -0.0613
11224TIP3    H133611   0.193   0.056   0.679  0.4131 -1.2178  0.4763
11224TIP3    H233612   0.088   0.159   0.717  0.4248 -1.1609  0.3531
11225TIP3   OH233613   6.076   6.174   0.795 -0.0631  0.3324  0.0168
11225TIP3    H133614   6.111   6.161   0.707  0.6874 -0.2259  0.3853
11225TIP3    H233615   6.154   6.173   0.852 -0.7464 -1.7153  0.9492
11226TIP3   OH233616   2.843   1.390   4.549  0.2065  0.1105  0.4036
11226TIP3    H133617   2.776   1.412   4.614  0.1601  0.1985  0.3276
11226TIP3    H233618   2.923   1.430   4.583  0.1074  0.4571  0.2309
11227TIP3   OH233619   5.613   6.525   1.623 -0.4691  0.1566  0.6014
11227TIP3    H133620   5.631   6.448   1.677 -1.4296 -0.2421  0.3575
11227TIP3    H233621   5.700   6.563   1.607  0.0278 -0.9316  0.6338
11228TIP3   OH233622   3.832   3.435   5.523  0.1605 -0.1177  0.3194
11228TIP3    H133623   3.821   3.524   5.558  2.4160 -0.2087  1.3690
11228TIP3    H233624   3.743   3.399   5.521 -0.9579  2.5906 -1.3477
11229TIP3   OH233625   2.846   5.541   5.743  0.0709  0.5589  0.0867
11229TIP3    H133626   2.901   5.507   5.814 -0.5963  0.3926  0.5222
11229TIP3    H233627   2.802   5.464   5.707 -0.1232  0.7378 -0.0606
11230TIP3   OH233628   2.645   5.109   4.438  0.3856  0.0107  0.3018
11230TIP3    H133629   2.601   5.118   4.353  0.6176  0.5127  0.2306
11230TIP3    H233630   2.650   5.015   4.453  0.0376 -0.0692 -0.0842
11231TIP3   OH233631   2.727   2.681   4.816 -0.1270  0.3918  0.3505
11231TIP3    H133632   2.732   2.752   4.880 -2.0899  0.6678  0.2347
11231TIP3    H233633   2.633   2.670   4.800  0.3376  0.4351 -2.6194
11232TIP3   OH233634   7.636   7.064   0.788 -0.3107 -0.0755  0.7155
11232TIP3    H133635   7.588   7.132   0.740  0.2470  0.6493  1.1716
11232TIP3    H233636   7.643   7.098   0.877  1.7186  0.1944  0.4839
11233TIP3   OH233637   3.670   5.127   5.630 -0.2958  0.7302  0.2421
11233TIP3    H133638   3.622   5.061   5.680  0.3618 -0.2249 -0.3539
11233TIP3    H233639   3.713   5.077   5.560 -1.7434  2.1320 -1.7008
11234TIP3   OH233640   7.355   0.110   0.381 -0.8686 -0.0825 -0.0803
11234TIP3    H133641   7.297   0.034   0.378 -1.1873  0.0112  2.5513
11234TIP3    H233642   7.443   0.074   0.391 -0.6234 -0.1799 -2.4321
11235TIP3   OH233643   3.837   2.450   5.084  0.2000 -0.2664  0.0258
11235TIP3    H133644   3.746   2.428   5.104  0.4661 -0.5288  0.9665
11235TIP3    H233645   3.865   2.503   5.158  0.1106  1.8002 -1.3789
11236TIP3   OH233646   0.194   2.360   0.387  0.4126  0.2748  0.1294
11236TIP3    H133647   0.224   2.332   0.301 -0.1522  1.0879 -0.3372
11236TIP3    H233648   0.274   2.385   0.434  0.7192 -0.1884 -0.1451
11237TIP3   OH233649   2.594   2.862   6.437 -0.5270  0.7120  0.1415
11237TIP3    H133650   2.504   2.874   6.465 -0.5149 -0.0241  0.4967
11237TIP3    H233651   2.609   2.768   6.441  0.3276  0.8474  0.3074
11238TIP3   OH233652   1.179   3.482   4.846  0.0547  0.9747  0.4648
11238TIP3    H133653   1.141   3.552   4.793  0.5100  1.8074  1.2313
11238TIP3    H233654   1.238   3.436   4.786 -2.3507 -0.5224 -0.8156
11239TIP3   OH233655   6.459   1.426   1.456 -0.0669 -0.6356  0.0041
11239TIP3    H133656   6.492   1.376   1.382  0.8383  0.0141 -0.0345
11239TIP3    H233657   6.434   1.510   1.419  1.7722  0.2260  0.6782
11240TIP3   OH233658   1.205   1.763   0.812 -0.0533  0.3758 -0.0244
11240TIP3    H133659   1.159   1.792   0.734  0.2753  3.3033  0.8067
11240TIP3    H233660   1.289   1.729   0.780 -0.7877 -0.4642 -1.0958
11241TIP3   OH233661   3.843   6.717   6.770  0.1427 -0.1795  0.7933
11241TIP3    H133662   3.807   6.628   6.766  0.2255 -0.1148 -1.9142
11241TIP3    H233663   3.932   6.708   6.736  0.8212  0.6474  2.2795
11242TIP3   OH233664   6.745   1.110   0.413 -0.2447 -0.1874 -0.2069
11242TIP3    H133665   6.816   1.053   0.442 -1.0803 -1.2300 -0.1443
11242TIP3    H233666   6.782   1.161   0.341  0.7253 -0.3134  0.2063
11243TIP3   OH233667   4.045   4.948   4.133 -0.6178  0.7335 -0.2200
11243TIP3    H133668   3.964   4.907   4.163 -0.7913  1.0433 -0.2638
11243TIP3    H233669   4.076   4.997   4.209  0.5742 -0.9657  0.4377
11244TIP3   OH233670   3.517   5.280   5.408  0.0763  0.2348  0.2589
11244TIP3    H133671   3.525   5.190   5.377  0.3099  0.1732  0.4961
11244TIP3    H233672   3.568   5.282   5.489  0.5383  0.7223 -0.0422
11245TIP3   OH233673   1.073   3.761   5.498 -0.5871 -0.1144  0.0796
11245TIP3    H133674   1.049   3.779   5.589 -3.5790  1.0214 -0.8791
11245TIP3    H233675   1.066   3.666   5.490  0.3335 -0.2936  1.1771
11246TIP3   OH233676   2.539   5.471   6.861  0.7841  0.0387  0.4020
11246TIP3    H133677   2.605   5.487   6.929 -0.3940 -0.3469  1.6581
11246TIP3    H233678   2.542   5.549   6.805  1.9137  0.2615  0.7678
11247TIP3   OH233679   2.346   3.768   4.128  0.3243  0.5025 -0.2312
11247TIP3    H133680   2.313   3.689   4.171 -0.7584  0.2983 -1.3927
11247TIP3    H233681   2.437   3.747   4.106  0.7327  0.4208  1.4571
11248TIP3   OH233682   1.494   5.554   6.837 -0.6385  0.6129  0.5316
11248TIP3    H133683   1.506   5.559   6.932 -0.7594  2.1653  0.4735
11248TIP3    H233684   1.580   5.527   6.804 -0.6731 -0.2155  1.0861
11249TIP3   OH233685   4.034   2.944   6.302  0.2543  0.1253 -0.3473
11249TIP3    H133686   3.951   2.898   6.301 -0.4406  1.3645 -0.4335
11249TIP3    H233687   4.097   2.880   6.334 -0.2750 -1.5814 -2.6451
11250TIP3   OH233688   2.455   5.436   6.228  0.0348 -0.3398 -0.1425
11250TIP3    H133689   2.409   5.518   6.244  1.4561  0.5899 -0.6288
11250TIP3    H233690   2.518   5.458   6.159 -0.6715 -2.2571 -1.4221
11251TIP3   OH233691   1.621   2.499   0.736  0.3113  0.1018 -0.8784
11251TIP3    H133692   1.667   2.450   0.668  1.4951  2.7720 -2.0566
11251TIP3    H233693   1.545   2.536   0.692  0.6307  1.1653 -0.5437
11252TIP3   OH233694   2.324   7.097   6.844  0.7551  0.0753  0.5667
11252TIP3    H133695   2.390   7.151   6.889 -0.3881  0.5372  1.7160
11252TIP3    H233696   2.297   7.149   6.769  1.8997 -0.2433 -0.0908
11253TIP3   OH233697   2.071   1.934   6.289  0.0797  0.2104 -0.3495
11253TIP3    H133698   2.047   1.908   6.377 -0.4710 -1.0579 -0.8578
11253TIP3    H233699   2.117   2.017   6.300 -1.3302  0.8446  0.9855
11254TIP3   OH233700   3.353   3.129   5.820  0.2956  0.0261  0.0216
11254TIP3    H133701   3.263   3.136   5.853  0.2174  1.3655 -0.4601
11254TIP3    H233702   3.380   3.219   5.803  1.7376 -0.3678  0.1423
11255TIP3   OH233703   2.098   5.190   5.720 -0.1374 -0.0733  0.2525
11255TIP3    H133704   2.104   5.285   5.730 -0.8705 -0.1621  1.7189
11255TIP3    H233705   2.149   5.155   5.793 -0.2561 -0.8017 -0.0051
11256TIP3   OH233706   1.522   6.092   6.490 -0.2030 -0.4946 -0.2388
11256TIP3    H133707   1.512   6.004   6.525 -1.0856 -0.4729 -0.4197
11256TIP3    H233708   1.520   6.149   6.567 -1.4757 -0.5015 -0.2406
11257TIP3   OH233709   7.777   1.835   2.461 -0.2791 -0.4234  0.3305
11257TIP3    H133710   7.791   1.925   2.490  1.7141  0.0345 -1.9220
11257TIP3    H233711   7.836   1.783   2.517  0.9879  0.0648 -0.5272
11258TIP3   OH233712   1.833   3.471   6.306  0.2225 -0.2312  0.1658
11258TIP3    H133713   1.793   3.424   6.233 -1.0131 -0.8200  1.1904
11258TIP3    H233714   1.925   3.479   6.282  0.5164 -3.3742  0.0339
11259TIP3   OH233715   7.901   0.404   0.448  0.3536  0.1146  1.1667
11259TIP3    H133716   7.995   0.408   0.431 -0.0100 -1.1474 -1.3427
11259TIP3    H233717   7.886   0.314   0.475 -0.3791 -0.0981  0.0390
11260TIP3   OH233718   4.905   7.638   0.197 -0.6371  0.1530  0.6758
11260TIP3    H133719   4.948   7.717   0.232 -0.2626  0.2454  0.0094
11260TIP3    H233720   4.975   7.572   0.195 -0.2646  0.6003 -1.3919
11261TIP3   OH233721   0.674   1.702   3.402 -0.0935  0.4622  0.6330
11261TIP3    H133722   0.719   1.787   3.400  0.0464  0.3845  0.3965
11261TIP3    H233723   0.739   1.641   3.367  0.2226  0.0546  1.9067
11262TIP3   OH233724   2.895   1.195   1.083  0.7555 -0.3555 -0.3995
11262TIP3    H133725   2.914   1.217   0.991 -1.7005 -0.5392 -0.9872
11262TIP3    H233726   2.865   1.105   1.080 -1.2134  0.2641  0.3160
11263TIP3   OH233727   1.675   4.509   5.621  1.0070 -0.2389 -0.1034
11263TIP3    H133728   1.630   4.570   5.563  0.4915 -0.9947 -0.5016
11263TIP3    H233729   1.606   4.450   5.653  1.4739 -0.5294  0.3890
11264TIP3   OH233730   7.751   2.372   1.889 -0.5797  0.5592  0.0062
11264TIP3    H133731   7.775   2.388   1.981 -0.7166  0.1779  0.1088
11264TIP3    H233732   7.751   2.459   1.849  0.2935  0.6381  0.1722
11265TIP3   OH233733   7.145   0.995   0.035  0.1789  0.1413  1.0449
11265TIP3    H133734   7.208   0.997  -0.037  1.0863 -2.0649  1.7145
11265TIP3    H233735   7.146   1.084   0.071  0.2481  1.0755 -1.1818
11266TIP3   OH233736   1.458   6.501   4.206  0.3094 -0.0269 -0.0432
11266TIP3    H133737   1.507   6.420   4.219 -0.7493 -0.5805  0.5687
11266TIP3    H233738   1.376   6.474   4.164 -1.0346  0.3918  2.1629
11267TIP3   OH233739   6.461   0.789   0.109 -0.1804  0.5875  0.2137
11267TIP3    H133740   6.542   0.837   0.096  0.5431 -0.1743  1.8048
11267TIP3    H233741   6.416   0.835   0.179 -1.5354  1.5011 -1.2265
11268TIP3   OH233742   0.161   5.310   6.509  0.6344 -0.2790  0.2607
11268TIP3    H133743   0.191   5.333   6.596 -0.3315  1.2282  0.2190
11268TIP3    H233744   0.228   5.345   6.450  0.6745 -0.2080  0.3477
11269TIP3   OH233745   0.470   4.091   6.358 -0.0847 -0.2113  0.4420
11269TIP3    H133746   0.522   4.011   6.359  2.3629  1.3045 -0.6718
11269TIP3    H233747   0.477   4.123   6.268 -2.4748  0.3466  0.4264
11270TIP3   OH233748   8.183   2.565   0.352 -0.4313 -0.1439  0.3498
11270TIP3    H133749   8.109   2.506   0.363  0.1928 -0.7632  1.2647
11270TIP3    H233750   8.249   2.513   0.306  0.3182 -0.3477  1.6290
11271TIP3   OH233751   1.650   2.266   0.946  0.1176  0.6694 -0.6761
11271TIP3    H133752   1.612   2.220   0.871  1.4023  0.0880 -0.9711
11271TIP3    H233753   1.647   2.358   0.922 -1.2813  0.6581 -0.6131
11272TIP3   OH233754   3.763   6.457   6.815  0.3161 -0.0276  0.0109
11272TIP3    H133755   3.695   6.415   6.869 -1.2012  1.9341 -0.2757
11272TIP3    H233756   3.774   6.398   6.741 -0.6410 -0.6881  0.3693
11273TIP3   OH233757   2.727   3.575   6.836 -0.2840 -0.1354 -0.5396
11273TIP3    H133758   2.717   3.620   6.920 -0.9031  1.8404 -1.6317
11273TIP3    H233759   2.639   3.550   6.811  0.0338 -1.8254 -0.0497
11274TIP3   OH233760   3.743   4.306   4.971  0.6247  0.7965 -0.1586
11274TIP3    H133761   3.803   4.328   4.900  0.9861  0.5158  0.0587
11274TIP3    H233762   3.674   4.254   4.930 -0.1659  2.2124 -0.6524
11275TIP3   OH233763   3.507   4.648   6.431  0.0444 -0.0628 -0.4821
11275TIP3    H133764   3.441   4.645   6.362 -0.6010 -0.8372  0.1479
11275TIP3    H233765   3.499   4.563   6.475  0.5340  0.3621  0.4479
11276TIP3   OH233766   3.845   6.051   6.229 -0.2034  0.4864 -0.4953
11276TIP3    H133767   3.890   5.966   6.227 -2.4375 -0.7319 -0.0430
11276TIP3    H233768   3.823   6.069   6.138  0.1259  0.5200 -0.5705
11277TIP3   OH233769   5.889   7.625   0.160  0.2391 -0.1328 -0.5037
11277TIP3    H133770   5.876   7.720   0.168 -2.1587 -0.3968 -0.6577
11277TIP3    H233771   5.885   7.608   0.066  0.1529 -0.4414 -0.4437
11278TIP3   OH233772   3.240   4.931   4.182  0.2793  0.3286 -0.3338
11278TIP3    H133773   3.291   4.851   4.172  0.3131  0.5654 -2.3516
11278TIP3    H233774   3.264   4.964   4.269  0.8862 -1.3949  0.1791
11279TIP3   OH233775   1.679   4.226   6.218 -0.7107  0.3918  0.4254
11279TIP3    H133776   1.632   4.143   6.216  1.5436 -0.9723  1.6405
11279TIP3    H233777   1.681   4.250   6.310  0.9558  0.4064  0.4023
11280TIP3   OH233778   7.336   0.562   0.365  0.0679 -0.6321 -0.4000
11280TIP3    H133779   7.373   0.543   0.451  0.2975  0.6466 -0.2104
11280TIP3    H233780   7.358   0.653   0.349 -0.7207 -0.6164 -1.4467
11281TIP3   OH233781   0.442   1.621   3.242  0.1327 -0.6249  0.0848
11281TIP3    H133782   0.504   1.568   3.291  2.0904 -0.7214 -2.3976
11281TIP3    H233783   0.459   1.711   3.270  0.4076 -0.7902  0.4483
11282TIP3   OH233784   1.273   5.909   6.643  0.2999  0.3703 -0.0687
11282TIP3    H133785   1.344   5.881   6.701 -0.3521  0.4073  0.7660
11282TIP3    H233786   1.285   5.857   6.563  1.0493  0.1142  0.2065
11283TIP3   OH233787   0.915   0.304   1.178  1.1183  0.2822 -0.4126
11283TIP3    H133788   0.895   0.353   1.098 -0.3851 -0.7009 -0.6526
11283TIP3    H233789   0.975   0.236   1.149 -1.5166 -1.7652 -1.2771
11284TIP3   OH233790   3.727   3.011   4.985  0.4827  0.6850  0.1782
11284TIP3    H133791   3.734   2.916   4.977  0.1111  0.5086  1.7159
11284TIP3    H233792   3.806   3.044   4.942  1.4584 -0.4030  1.0818
11285TIP3   OH233793   3.238   1.025   5.953 -0.0269  0.8335  0.0280
11285TIP3    H133794   3.299   1.062   5.889  1.1439  0.1662  0.7460
11285TIP3    H233795   3.182   1.098   5.979  2.6135  2.2451  1.8705
11286TIP3   OH233796   5.428   7.404   0.233 -0.1206 -0.3071  0.0368
11286TIP3    H133797   5.404   7.338   0.298  1.4402  0.6600  1.6329
11286TIP3    H233798   5.494   7.361   0.179  0.8410 -0.0940  1.0297
11287TIP3   OH233799   1.325   6.023   4.973  0.5689 -0.3153  0.0585
11287TIP3    H133800   1.299   5.958   5.039  0.6343 -2.8523 -2.3639
11287TIP3    H233801   1.242   6.067   4.950 -0.0626 -1.9411 -0.8199
11288TIP3   OH233802   5.062   5.197   5.946  0.7610 -0.5368 -0.1255
11288TIP3    H133803   5.148   5.217   5.984  0.2756  0.1518  0.6367
11288TIP3    H233804   5.060   5.248   5.865  0.8962 -0.1884  0.0860
11289TIP3   OH233805   3.601   4.219   5.655 -0.2891  0.1022 -0.6584
11289TIP3    H133806   3.621   4.312   5.645 -2.0167  0.3301 -2.5347
11289TIP3    H233807   3.550   4.213   5.735  1.8767  0.4005  0.7685
11290TIP3   OH233808   1.841   5.323   3.936 -0.4785  0.0341  0.3999
11290TIP3    H133809   1.871   5.233   3.924 -1.6001 -0.2688 -0.2375
11290TIP3    H233810   1.916   5.377   3.910 -1.0793 -0.6805 -2.9855
11291TIP3   OH233811   4.354   7.168   0.785  0.3112 -0.2588  0.0026
11291TIP3    H133812   4.289   7.178   0.855  1.7997 -0.9989  1.5160
11291TIP3    H233813   4.380   7.258   0.765 -1.2823  0.0576 -0.7372
11292TIP3   OH233814   1.322   1.603   0.321 -0.1082 -0.0485  0.0158
11292TIP3    H133815   1.415   1.606   0.301 -0.5704 -1.1141 -2.5346
11292TIP3    H233816   1.292   1.693   0.308  0.4688  0.1929  0.3610
11293TIP3   OH233817   2.883   5.577   4.975 -0.0966 -0.5826  0.1175
11293TIP3    H133818   2.883   5.649   4.912  3.0201 -0.0933  0.5918
11293TIP3    H233819   2.940   5.510   4.936  1.8736 -0.2819  2.3158
11294TIP3   OH233820   0.047   4.033   6.315 -0.8623  0.2349  0.0781
11294TIP3    H133821  -0.039   3.992   6.302 -2.1920  2.7809  0.5494
11294TIP3    H233822   0.043   4.069   6.404  2.0641 -2.6892  1.5166
11295TIP3   OH233823   8.372   1.133   1.112  0.0875 -0.7630  0.4159
11295TIP3    H133824   8.405   1.193   1.045 -0.0350 -1.1792 -0.0210
11295TIP3    H233825   8.386   1.179   1.195  0.4526 -0.3406  0.1209
11296TIP3   OH233826   1.278   1.057   0.792 -0.0737 -0.0832 -0.2270
11296TIP3    H133827   1.312   1.070   0.703 -1.2436 -0.3325 -0.7342
11296TIP3    H233828   1.217   1.129   0.805 -1.6349 -1.3068 -0.5256
11297TIP3   OH233829   0.104   4.845   6.173  0.3215  0.1717 -0.5348
11297TIP3    H133830   0.094   4.889   6.089 -0.7731 -0.2148 -0.6226
11297TIP3    H233831   0.128   4.755   6.150 -2.3174 -0.5715 -0.5375
11298TIP3   OH233832   2.535   6.486   5.971 -0.1093 -0.3020 -0.1045
11298TIP3    H133833   2.555   6.580   5.972 -0.4246 -0.2364  1.2170
11298TIP3    H233834   2.621   6.444   5.966  0.2389  0.0299  2.3193
11299TIP3   OH233835   6.186   1.395   0.618  0.4151  0.1961 -0.6069
11299TIP3    H133836   6.268   1.442   0.637  0.5461 -0.1191 -0.3887
11299TIP3    H233837   6.210   1.303   0.625  0.0905  0.1021 -0.7616
11300TIP3   OH233838   0.851   3.908   4.345 -0.3933 -0.2337  0.1041
11300TIP3    H133839   0.923   3.948   4.394  0.3511 -1.2525 -0.1551
11300TIP3    H233840   0.825   3.976   4.282  0.0486  0.2995  0.4913
11301TIP3   OH233841   8.403   1.517   0.123  0.4402 -0.1195  0.3518
11301TIP3    H133842   8.349   1.449   0.163  2.1498 -1.1835  0.9083
11301TIP3    H233843   8.493   1.485   0.133  1.2175  1.8863 -0.0395
11302TIP3   OH233844   3.291   5.477   5.706 -0.3852  0.0342  0.3463
11302TIP3    H133845   3.227   5.493   5.775 -1.8525  0.4528 -1.0877
11302TIP3    H233846   3.255   5.521   5.628  1.1225 -0.6041 -0.7444
11303TIP3   OH233847   7.552   2.195   0.106  0.1813 -0.3400  0.0135
11303TIP3    H133848   7.642   2.202   0.073  0.7861  0.6199  1.8026
11303TIP3    H233849   7.548   2.259   0.177 -1.5924 -1.1587  0.6614
11304TIP3   OH233850   3.254   6.919   5.304  0.0063 -0.0208 -0.1506
11304TIP3    H133851   3.261   6.970   5.385  0.6392 -1.9570  1.0396
11304TIP3    H233852   3.161   6.924   5.280 -0.7258 -1.7435  2.2264
11305TIP3   OH233853   0.101   5.016   6.428 -0.4717  0.0762 -0.0294
11305TIP3    H133854   0.106   5.111   6.440 -1.4655 -0.1001  2.0358
11305TIP3    H233855   0.099   5.003   6.333 -1.8667  2.1979 -0.3060
11306TIP3   OH233856   1.866   6.158   5.378 -0.4398 -0.4425 -0.0382
11306TIP3    H133857   1.950   6.163   5.424  0.5950  0.5047 -1.9958
11306TIP3    H233858   1.800   6.165   5.448  1.0989  1.1209  1.2997
11307TIP3   OH233859   2.414   5.065   5.082  0.3424  0.4374  0.9253
11307TIP3    H133860   2.435   4.974   5.103 -0.1787 -0.1660 -1.0581
11307TIP3    H233861   2.489   5.097   5.032 -0.3156  0.4682 -0.0695
11308TIP3   OH233862   4.147   2.556   5.836  0.0306 -0.4135 -0.3545
11308TIP3    H133863   4.096   2.619   5.886  1.7957  1.2987 -0.6548
11308TIP3    H233864   4.099   2.546   5.754 -0.5959  0.0187 -0.0462
11309TIP3   OH233865   2.326   3.591   6.227  0.4924  0.4200  0.3698
11309TIP3    H133866   2.388   3.544   6.282 -0.3508 -2.7417 -1.2524
11309TIP3    H233867   2.370   3.601   6.143 -0.5216 -0.2932 -0.2600
11310TIP3   OH233868   0.623   0.571   0.067  0.0999  0.3905  0.3047
11310TIP3    H133869   0.633   0.598   0.158 -0.2495 -0.2615  0.5366
11310TIP3    H233870   0.697   0.513   0.051  0.0948  0.4106  0.2086
11311TIP3   OH233871   0.283   0.474   0.423  0.0239  0.3939 -0.0265
11311TIP3    H133872   0.358   0.531   0.444 -0.1320  0.3191  0.7607
11311TIP3    H233873   0.318   0.385   0.431 -0.9710  0.2509  3.7672
11312TIP3   OH233874   3.277   2.350   5.346  0.4699  0.6089 -0.1233
11312TIP3    H133875   3.298   2.434   5.306 -1.9555  0.5685 -1.5623
11312TIP3    H233876   3.352   2.294   5.328  0.9930  1.7203 -1.3668
11313TIP3   OH233877   7.270   7.995   0.518 -0.2345  0.3906 -0.2900
11313TIP3    H133878   7.240   7.904   0.521  0.7815  0.0795  0.6613
11313TIP3    H233879   7.340   7.995   0.453  0.1377  0.3776  0.1096
11314TIP3   OH233880   2.219   3.642   5.682 -0.2299  0.1872 -0.2729
11314TIP3    H133881   2.216   3.546   5.683 -2.7721  0.2269  1.4962
11314TIP3    H233882   2.221   3.666   5.590  0.1825 -1.5557 -0.7297
11315TIP3   OH233883   0.093   7.037   0.626  0.4790  0.2490  0.5114
11315TIP3    H133884   0.039   7.021   0.703  0.6216 -0.1761  0.5202
11315TIP3    H233885   0.173   6.987   0.641  0.9436  0.9906  0.5634
11316TIP3   OH233886   2.204   5.540   5.422 -0.2148 -0.2104  0.0579
11316TIP3    H133887   2.232   5.524   5.512  0.3105  0.3911  0.0062
11316TIP3    H233888   2.111   5.516   5.421 -0.2606 -0.0730  0.7973
11317TIP3   OH233889   1.888   3.551   5.658  0.3555  0.3977 -0.1860
11317TIP3    H133890   1.838   3.496   5.719  0.2148 -0.1322 -0.7769
11317TIP3    H233891   1.977   3.514   5.660  0.4755  0.6963  0.0780
11318TIP3   OH233892   1.493   3.578   6.267  0.2614  0.3587  0.0929
11318TIP3    H133893   1.525   3.597   6.179  1.4011  1.4931  0.7348
11318TIP3    H233894   1.572   3.568   6.320 -0.4019  1.7184  1.4030
11319TIP3   OH233895   2.531   3.361   3.661 -0.4797  0.1283 -0.0628
11319TIP3    H133896   2.472   3.416   3.610 -2.0991 -0.4002  1.2071
11319TIP3    H233897   2.477   3.288   3.692  0.0887  1.0937  3.4547
11320TIP3   OH233898   1.034   6.548   5.511 -0.1176  0.5270 -0.4109
11320TIP3    H133899   1.060   6.517   5.598 -0.5063  1.2726 -0.0317
11320TIP3    H233900   1.080   6.489   5.451  0.7726  0.4977  0.2831
11321TIP3   OH233901   0.073   0.367   1.323  0.4539 -0.2663 -0.2605
11321TIP3    H133902   0.042   0.302   1.260 -0.1606 -0.9680  0.7406
11321TIP3    H233903   0.019   0.444   1.306 -0.0907 -0.6380 -0.2248
11322TIP3   OH233904   4.878   7.200   1.550 -0.5021 -0.0297  0.0283
11322TIP3    H133905   4.913   7.174   1.635  0.9549  0.2520 -0.4734
11322TIP3    H233906   4.786   7.175   1.554 -0.0484 -1.6252  1.0218
11323TIP3   OH233907   0.759   5.598   4.959  0.2495  0.1917  0.1273
11323TIP3    H133908   0.699   5.552   5.018  0.4934 -1.4255 -0.8626
11323TIP3    H233909   0.834   5.539   4.950  0.2530  0.4509 -1.7433
11324TIP3   OH233910   4.256   4.580   6.577  0.4260  0.3685 -0.7354
11324TIP3    H133911   4.188   4.624   6.628  0.2703 -1.1820  0.4378
11324TIP3    H233912   4.297   4.520   6.639  1.2589 -0.4451 -2.0590
11325TIP3   OH233913   8.364   1.240   0.674 -0.2694  0.1103 -0.5177
11325TIP3    H133914   8.344   1.190   0.595 -1.2155 -0.3574  0.0154
11325TIP3    H233915   8.334   1.185   0.746  1.0348  0.3124  0.2055
11326TIP3   OH233916   5.563   5.925   5.335  0.3865 -0.1332 -0.2526
11326TIP3    H133917   5.653   5.903   5.313  1.0715  1.3761  0.9614
11326TIP3    H233918   5.539   5.864   5.405 -0.7507 -2.8657 -2.9463
11327TIP3   OH233919   4.292   2.918   6.142  0.2905 -0.6884  0.2426
11327TIP3    H133920   4.281   2.824   6.156  1.5385 -0.4607  3.0135
11327TIP3    H233921   4.215   2.958   6.183 -0.7665 -0.4932 -1.8121
11328TIP3   OH233922   2.164   3.053   6.828 -0.6552  0.5331 -0.2882
11328TIP3    H133923   2.226   3.122   6.805 -0.4913  1.0567  1.6299
11328TIP3    H233924   2.199   3.015   6.908 -1.3219 -1.0789 -0.7378
11329TIP3   OH233925   1.938   3.730   1.453 -0.5457 -0.2457 -0.0702
11329TIP3    H133926   1.925   3.745   1.360 -2.2194  1.7111  0.4565
11329TIP3    H233927   1.853   3.696   1.484 -0.3452  0.1787  0.9507
11330TIP3   OH233928   4.621   6.453   5.600 -0.0779  0.1053  0.2847
11330TIP3    H133929   4.634   6.396   5.524  1.3193  3.3323 -1.9665
11330TIP3    H233930   4.530   6.480   5.595 -0.3394 -0.7089  0.5274
11331TIP3   OH233931   2.247   4.306   6.443  0.4356  0.3715 -0.2286
11331TIP3    H133932   2.176   4.325   6.381 -0.0902 -0.0827  0.2341
11331TIP3    H233933   2.289   4.227   6.407 -0.2201 -0.2202  0.2857
11332TIP3   OH233934   3.026   6.029   5.927  0.2086  0.6288  0.0805
11332TIP3    H133935   3.062   5.970   5.862 -1.3820 -0.7385  0.3882
11332TIP3    H233936   3.093   6.034   5.996  0.1207 -1.3061  0.3304
11333TIP3   OH233937   5.455   3.917   6.588  0.3160  0.3849  0.1018
11333TIP3    H133938   5.459   3.921   6.493 -0.9297  2.6942  0.1129
11333TIP3    H233939   5.435   3.825   6.607 -0.7983  0.1773 -1.9177
11334TIP3   OH233940   4.405   3.500   6.742 -0.0144  0.0388  0.2779
11334TIP3    H133941   4.479   3.452   6.706  0.8591  2.3102 -1.0490
11334TIP3    H233942   4.399   3.579   6.688 -3.3245 -0.0383  0.4172
11335TIP3   OH233943   0.864   7.460   1.547 -0.2237  0.6507 -0.1924
11335TIP3    H133944   0.815   7.379   1.563  0.5930  0.4164  1.1246
11335TIP3    H233945   0.800   7.518   1.505 -1.4142  0.0630  0.7721
11336TIP3   OH233946   1.914   2.776   0.414  0.6454  0.5527  0.0225
11336TIP3    H133947   2.007   2.769   0.391  0.6568  1.6918 -0.3192
11336TIP3    H233948   1.874   2.819   0.338 -0.5552 -1.8132 -0.7380
11337TIP3   OH233949   5.812   5.962   5.076 -0.3670  0.2440  0.1807
11337TIP3    H133950   5.810   5.897   5.146  0.5947  0.0258  0.0167
11337TIP3    H233951   5.828   5.911   4.996 -1.6470  0.4687 -0.2268
11338TIP3   OH233952   0.490   0.353   1.313  0.4120 -0.1834 -0.3361
11338TIP3    H133953   0.556   0.422   1.301  0.2298 -0.0702 -0.6886
11338TIP3    H233954   0.482   0.312   1.227 -2.4444  2.0127 -1.2076
11339TIP3   OH233955   3.221   4.447   4.987 -0.0235 -0.0716  0.0627
11339TIP3    H133956   3.298   4.402   5.021 -0.3998  0.5220  1.7111
11339TIP3    H233957   3.148   4.390   5.010 -0.2804  0.3400  0.2671
11340TIP3   OH233958   4.347   6.135   3.818 -0.5646 -0.1247  0.3579
11340TIP3    H133959   4.313   6.224   3.821 -0.3935 -0.0294 -0.5313
11340TIP3    H233960   4.280   6.086   3.770  0.2415 -0.0685 -0.8365
11341TIP3   OH233961   3.113   0.639   1.678 -0.1401 -0.4157  0.2808
11341TIP3    H133962   3.033   0.587   1.668  0.8386 -2.0518  0.7441
11341TIP3    H233963   3.106   0.675   1.767  0.1826 -1.5389  0.7742
11342TIP3   OH233964   4.121   6.300   5.547  0.6093 -0.5100  0.4445
11342TIP3    H133965   4.042   6.280   5.598  0.6042  1.1789  1.1138
11342TIP3    H233966   4.094   6.369   5.487  1.2854 -0.7497 -0.1399
11343TIP3   OH233967   5.987   4.241   4.226  0.3204  0.4511  0.3889
11343TIP3    H133968   6.049   4.172   4.249  1.9590  1.3450 -1.2135
11343TIP3    H233969   5.943   4.208   4.147 -0.2086  0.4645  0.6734
11344TIP3   OH233970   1.583   4.948   5.502 -0.3038 -0.2542  0.3974
11344TIP3    H133971   1.674   4.922   5.516  0.0118  0.1621 -0.7875
11344TIP3    H233972   1.553   4.893   5.429 -0.5223  0.6476 -0.2058
11345TIP3   OH233973   4.234   5.217   5.815 -0.0956 -0.0465  0.2282
11345TIP3    H133974   4.305   5.153   5.817 -0.4897 -0.5019 -0.2275
11345TIP3    H233975   4.274   5.298   5.848  0.1962 -0.7270  1.5742
11346TIP3   OH233976   2.522   3.034   5.881  1.0718  0.5151 -0.2550
11346TIP3    H133977   2.585   3.059   5.949 -0.5793 -1.4625  2.1130
11346TIP3    H233978   2.551   2.949   5.851  0.0499 -0.0250  0.2467
11347TIP3   OH233979   4.951   5.562   6.389 -0.2611  0.0474  0.0777
11347TIP3    H133980   5.044   5.555   6.370 -0.4393  0.6940 -1.0956
11347TIP3    H233981   4.943   5.538   6.481  1.1923  1.0653  0.4802
11348TIP3   OH233982   3.336   5.899   6.546 -0.3651 -0.2309 -0.4208
11348TIP3    H133983   3.243   5.897   6.568 -0.3606  0.5883 -0.3133
11348TIP3    H233984   3.380   5.875   6.628 -0.4964 -1.2894 -0.6480
11349TIP3   OH233985   5.399   6.105   4.043 -0.5128 -0.1785  0.1503
11349TIP3    H133986   5.334   6.046   4.082  0.8958 -2.7489 -1.2473
11349TIP3    H233987   5.351   6.153   3.977 -1.0012 -2.1685 -0.9709
11350TIP3   OH233988   3.322   2.957   5.537  0.4946 -0.3692 -0.2214
11350TIP3    H133989   3.279   2.891   5.592  0.4790 -0.5906 -0.4970
11350TIP3    H233990   3.269   3.036   5.549  1.2051 -0.0742  1.0357
11351TIP3   OH233991   5.683   7.904   0.374 -0.3557  0.0010  0.1859
11351TIP3    H133992   5.663   7.895   0.281  0.4327  2.0386 -0.1964
11351TIP3    H233993   5.597   7.903   0.418 -0.7423 -0.6312 -0.5745
11352TIP3   OH233994   6.329   5.553   6.627 -0.2370  0.7188  0.3562
11352TIP3    H133995   6.258   5.489   6.625 -0.0895  0.5752 -0.4293
11352TIP3    H233996   6.366   5.551   6.539  0.8717  0.6489  0.8145
11353TIP3   OH233997   5.330   4.719   5.555 -0.1246 -0.0035 -0.3541
11353TIP3    H133998   5.263   4.735   5.489 -1.2255 -1.3917  0.4017
11353TIP3    H233999   5.397   4.668   5.509 -0.8780 -0.9467 -0.4294
11354TIP3   OH234000   4.685   4.281   3.735  0.1250  0.2419 -0.0110
11354TIP3    H134001   4.590   4.291   3.727  0.0838 -0.1435  0.0017
11354TIP3    H234002   4.704   4.308   3.825  0.1252  1.0387 -0.2420
11355TIP3   OH234003   5.361   5.316   6.456 -0.0317  0.1465  0.4837
11355TIP3    H134004   5.421   5.255   6.499 -0.1450 -0.4043 -0.1309
11355TIP3    H234005   5.290   5.261   6.422  2.4153 -0.1424 -4.6364
11356TIP3   OH234006   4.439   4.387   5.600  0.4519 -0.4686 -0.1318
11356TIP3    H134007   4.508   4.416   5.660  0.5209  0.5778 -0.7061
11356TIP3    H234008   4.463   4.427   5.516 -0.7456 -0.2697 -0.3822
11357TIP3   OH234009   4.388   6.121   6.569 -0.0574  0.4353 -0.1115
11357TIP3    H134010   4.410   6.083   6.484  0.6320  0.0878  0.2209
11357TIP3    H234011   4.445   6.198   6.577  0.7095 -0.1928  0.5400
11358TIP3   OH234012   5.020   6.580   4.904 -0.4383 -0.0720  0.9894
11358TIP3    H134013   5.021   6.493   4.864  0.3437  1.1259 -1.6938
11358TIP3    H234014   5.101   6.584   4.954  0.1134 -0.4457  0.1368
11359TIP3   OH234015   2.100   5.300   4.317 -0.1257  0.4173 -0.2348
11359TIP3    H134016   2.105   5.389   4.351  1.3027 -0.3133  1.5347
11359TIP3    H234017   2.185   5.261   4.336 -0.0681 -0.7646 -2.6455
11360TIP3   OH234018   4.969   3.331   5.706 -0.1264  0.1537  0.0256
11360TIP3    H134019   5.000   3.246   5.739 -0.3606  0.1490  0.2363
11360TIP3    H234020   4.974   3.389   5.782  3.2751  1.2051 -0.9363
11361TIP3   OH234021   3.342   4.669   5.987  0.1818  0.0053 -0.4855
11361TIP3    H134022   3.391   4.638   5.911  0.0527  2.3140 -1.5527
11361TIP3    H234023   3.403   4.725   6.034 -0.1390 -0.4167  0.4396
11362TIP3   OH234024   2.770   7.375   5.433 -0.2387 -0.1332  0.6473
11362TIP3    H134025   2.729   7.439   5.376 -0.3709 -0.8351 -0.0477
11362TIP3    H234026   2.863   7.400   5.433 -0.0926 -0.6503 -0.5656
11363TIP3   OH234027   3.992   6.503   6.000 -0.2333 -0.1096  0.0482
11363TIP3    H134028   3.909   6.455   5.999 -0.6319  0.5910 -0.5046
11363TIP3    H234029   4.058   6.435   5.992 -0.7821 -0.6233 -0.2000
11364TIP3   OH234030   4.677   5.649   2.116  0.1607  0.1854 -0.4422
11364TIP3    H134031   4.630   5.584   2.064  0.3304 -0.5214  0.2840
11364TIP3    H234032   4.620   5.666   2.191  0.4315  0.3643 -0.2775
11365TIP3   OH234033   2.325   0.779   0.884  0.7587  0.7444  0.7537
11365TIP3    H134034   2.294   0.840   0.951  0.7455  0.1525  1.2882
11365TIP3    H234035   2.413   0.809   0.863  0.2395  1.7932 -0.0014
11366TIP3   OH234036   4.128   6.768   5.569 -0.7936 -0.5721  0.1068
11366TIP3    H134037   4.098   6.825   5.498  0.8805  0.1387 -0.0682
11366TIP3    H234038   4.167   6.693   5.524 -1.9144 -1.2909  0.3214
11367TIP3   OH234039   4.295   5.765   4.845  0.4970 -0.0534 -0.7171
11367TIP3    H134040   4.283   5.794   4.755  0.4707 -0.3475 -0.8063
11367TIP3    H234041   4.278   5.671   4.843 -0.3471  0.0802 -0.2528
11368TIP3   OH234042   5.846   3.891   4.716 -0.2087  0.5407  0.2683
11368TIP3    H134043   5.850   3.941   4.635  2.3892  1.3296  0.8151
11368TIP3    H234044   5.826   3.955   4.783 -0.6209  0.1918  0.4799
11369TIP3   OH234045   3.688   3.978   5.265  0.3490 -0.0415 -0.0577
11369TIP3    H134046   3.780   4.003   5.274  0.9449 -1.5689 -1.7142
11369TIP3    H234047   3.688   3.883   5.273 -1.3399  0.0685  1.7531
11370TIP3   OH234048   2.796   5.737   6.747  0.1644 -0.1721  0.7365
11370TIP3    H134049   2.799   5.758   6.653 -2.4037 -1.0260  0.4391
11370TIP3    H234050   2.742   5.805   6.785  2.3991  1.0135  1.8920
11371TIP3   OH234051   0.343   0.715   1.068  0.0254 -0.5248 -0.4531
11371TIP3    H134052   0.289   0.794   1.071 -0.6300 -0.8712 -2.1784
11371TIP3    H234053   0.413   0.736   1.006  1.3902 -0.3767  1.1242
11372TIP3   OH234054   3.144   4.906   3.182  0.1627 -0.6992  0.3787
11372TIP3    H134055   3.081   4.975   3.203 -0.0893 -0.1520 -1.9404
11372TIP3    H234056   3.216   4.918   3.243 -0.4414  0.8456  0.8051
11373TIP3   OH234057   2.811   3.425   1.348 -0.6731  0.7233 -1.1685
11373TIP3    H134058   2.868   3.486   1.394 -1.6067 -0.8779  2.4011
11373TIP3    H234059   2.862   3.344   1.343 -1.2173  0.3936 -1.4377
11374TIP3   OH234060   3.777   6.951   6.215  0.4118 -0.3733  0.5418
11374TIP3    H134061   3.818   7.016   6.158  0.2230  0.8293  1.7693
11374TIP3    H234062   3.787   6.868   6.167  3.2908  0.0609  0.3289
11375TIP3   OH234063   4.861   6.386   6.538 -0.5773 -0.7538  0.0278
11375TIP3    H134064   4.944   6.352   6.504 -0.0929  1.6761 -1.2841
11375TIP3    H234065   4.848   6.468   6.491 -2.4083  0.2027  2.1565
11376TIP3   OH234066   4.326   4.351   5.197  0.5000  0.1977  0.1695
11376TIP3    H134067   4.311   4.331   5.105 -0.1277 -0.9681  0.5142
11376TIP3    H234068   4.397   4.294   5.224 -1.8174 -2.2584  1.3558
11377TIP3   OH234069   4.017   4.738   3.365 -0.4615  0.1097  0.4052
11377TIP3    H134070   3.957   4.766   3.434  0.6181  0.6196  1.1453
11377TIP3    H234071   4.064   4.664   3.403  2.2259  2.2353  1.3242
11378TIP3   OH234072   4.872   6.603   5.598 -0.1749 -0.2636  0.3503
11378TIP3    H134073   4.908   6.517   5.620  0.6909 -0.3237 -1.1731
11378TIP3    H234074   4.779   6.587   5.586 -0.0934 -0.9138  0.5425
11379TIP3   OH234075   3.455   5.832   5.862 -0.1653 -0.0666  0.1745
11379TIP3    H134076   3.359   5.830   5.862 -0.1647 -0.1194 -0.0494
11379TIP3    H234077   3.478   5.877   5.781 -0.0023  0.0997  0.3123
11380TIP3   OH234078   0.052   2.140   0.530 -0.6597 -0.2017  0.1206
11380TIP3    H134079   0.107   2.202   0.482  0.0208 -1.1370 -0.3453
11380TIP3    H234080   0.109   2.065   0.546 -1.8547 -1.2930 -0.5768
11381TIP3   OH234081   2.595   4.753   0.523 -0.5012 -0.0626 -0.0010
11381TIP3    H134082   2.543   4.680   0.556  0.7907  0.0382  2.3778
11381TIP3    H234083   2.633   4.721   0.441 -0.6033 -1.7799  0.6036
11382TIP3   OH234084   5.046   3.464   5.941 -0.7021  0.3067  0.0859
11382TIP3    H134085   5.111   3.402   5.973  0.0097  0.6948 -0.6052
11382TIP3    H234086   5.047   3.535   6.004 -1.1934 -0.1618  0.6306
11383TIP3   OH234087   4.735   5.715   6.220 -0.1964 -0.2332 -0.5943
11383TIP3    H134088   4.826   5.706   6.189  1.1223  1.9033  2.3379
11383TIP3    H234089   4.711   5.805   6.196  0.0123  0.6410  2.2838
11384TIP3   OH234090   5.117   5.833   5.536 -0.7195  0.1972 -0.1973
11384TIP3    H134091   5.190   5.855   5.478 -0.5272  0.1830  0.0392
11384TIP3    H234092   5.081   5.752   5.499 -0.5893  0.1818 -0.2915
11385TIP3   OH234093   3.133   3.075   5.032  0.3088  0.2561  0.4337
11385TIP3    H134094   3.041   3.088   5.058  0.3966 -1.8870  1.9959
11385TIP3    H234095   3.172   3.162   5.040 -1.6783  1.3101 -0.7494
11386TIP3   OH234096   4.661   6.268   5.801 -0.5931 -0.5528 -0.3837
11386TIP3    H134097   4.652   6.346   5.747  2.0458  0.0502  0.0233
11386TIP3    H234098   4.660   6.300   5.891 -1.3735 -1.1959 -0.1502
11387TIP3   OH234099   5.652   5.344   4.955 -0.2877 -0.0306 -0.3655
11387TIP3    H134100   5.695   5.386   5.030  0.6895 -1.3505 -0.1666
11387TIP3    H234101   5.612   5.266   4.991 -1.9079  0.6036 -0.7809
11388TIP3   OH234102   4.294   6.159   5.375  0.4387 -0.4055 -0.4005
11388TIP3    H134103   4.219   6.210   5.406  0.3095 -0.3684 -0.7797
11388TIP3    H234104   4.353   6.157   5.450 -0.3874 -1.3116  0.2468
11389TIP3   OH234105   5.084   4.840   6.684  0.0477 -0.1424 -0.7034
11389TIP3    H134106   5.113   4.831   6.593 -0.5871  0.3600 -0.9571
11389TIP3    H234107   5.149   4.896   6.725 -0.4340  0.7890 -1.2085
11390TIP3   OH234108   2.908   3.943   0.275  0.5811  0.1399 -0.2884
11390TIP3    H134109   2.829   3.905   0.313  0.1150  1.9079  0.6034
11390TIP3    H234110   2.884   4.034   0.258  2.2027  0.5086 -0.6867
11391TIP3   OH234111   3.947   1.785   1.612 -0.0613 -0.0645 -0.4761
11391TIP3    H134112   3.908   1.820   1.692  0.3993  1.1091 -0.7599
11391TIP3    H234113   3.941   1.857   1.549  0.5897 -0.6129 -1.1652
11392TIP3   OH234114   5.389   4.879   5.247  0.6694 -0.5715  0.0304
11392TIP3    H134115   5.380   4.970   5.220  2.2148  0.1319  1.7693
11392TIP3    H234116   5.300   4.852   5.270  0.4003  0.9366  0.8165
11393TIP3   OH234117   3.713   4.539   5.626  0.0086  0.1542 -0.1977
11393TIP3    H134118   3.752   4.576   5.547  0.5716 -0.5251 -0.2406
11393TIP3    H234119   3.787   4.513   5.680 -0.3742  0.4604  0.4890
11394TIP3   OH234120   5.643   6.898   6.625  0.1189 -0.2486  0.0697
11394TIP3    H134121   5.591   6.823   6.653 -0.4610 -0.1928 -0.8254
11394TIP3    H234122   5.599   6.929   6.545  0.0361  1.3656  0.7233
11395TIP3   OH234123   4.614   5.584   5.199  0.1152 -0.0579  0.3912
11395TIP3    H134124   4.630   5.635   5.120  1.2258  0.2778  0.8244
11395TIP3    H234125   4.671   5.623   5.265  0.3977 -1.3536  0.9378
11396TIP3   OH234126   1.788   2.628   0.925  0.0372 -0.0664  0.1877
11396TIP3    H134127   1.859   2.565   0.916  2.5713  2.9048 -1.7998
11396TIP3    H234128   1.741   2.623   0.842  0.2178  0.6094  0.0432
11397TIP3   OH234129   4.033   4.603   5.591 -0.5035  0.1029  0.4177
11397TIP3    H134130   4.009   4.596   5.499 -1.9011  1.1691  0.6773
11397TIP3    H234131   4.127   4.621   5.590 -0.5884  0.5018 -0.8197
11398TIP3   OH234132   2.853   4.642   6.060 -0.5310 -0.4395  0.3896
11398TIP3    H134133   2.856   4.736   6.081  3.1197 -0.1749 -1.0147
11398TIP3    H234134   2.809   4.639   5.975 -1.7269 -0.1435  0.9806
11399TIP3   OH234135   4.932   4.432   6.110  0.7862 -0.1411  0.9563
11399TIP3    H134136   4.997   4.478   6.163  3.0463 -0.5333 -1.3903
11399TIP3    H234137   4.942   4.470   6.023 -3.2849  0.9318  0.8706
11400TIP3   OH234138   3.059   4.913   4.799  0.4665  0.2594  0.0493
11400TIP3    H134139   3.056   4.821   4.827  0.9262  0.5859  1.2130
11400TIP3    H234140   2.999   4.918   4.725  1.1090 -1.1738 -0.5963
11401TIP3   OH234141   4.793   4.790   6.007 -0.3872  0.1126 -0.0720
11401TIP3    H134142   4.715   4.777   6.061  1.1028 -1.1586  1.8095
11401TIP3    H234143   4.830   4.873   6.039  0.1212 -0.2919  0.3823
11402TIP3   OH234144   4.668   5.981   6.122  0.8398  0.0326 -0.2730
11402TIP3    H134145   4.743   5.994   6.064  0.4958  0.5809 -0.5931
11402TIP3    H234146   4.610   6.054   6.103 -0.5464 -1.2911 -1.1990
11403TIP3   OH234147   2.651   5.475   6.040 -0.3854 -0.1663  0.1967
11403TIP3    H134148   2.691   5.403   5.993  0.2126  0.5945 -0.4827
11403TIP3    H234149   2.721   5.508   6.097  0.1527  1.5073 -1.3815
11404TIP3   OH234150   7.080   0.957   1.597  0.3578 -0.1588 -0.0391
11404TIP3    H134151   7.057   0.890   1.661  1.7208 -0.0100  0.6342
11404TIP3    H234152   7.175   0.950   1.589  0.4151  1.1312 -0.5931
11405TIP3   OH234153   1.824   5.418   4.872 -0.3341 -0.2147  0.1970
11405TIP3    H134154   1.835   5.401   4.966  1.3733  2.3992  0.5547
11405TIP3    H234155   1.912   5.406   4.836 -0.3261  1.7264 -0.5044
11406TIP3   OH234156   2.541   4.489   5.160  0.5745  0.1567 -0.0517
11406TIP3    H134157   2.536   4.473   5.254 -1.2802 -2.1366 -0.5042
11406TIP3    H234158   2.614   4.435   5.130  1.0290  0.7244  0.0035
11407TIP3   OH234159   4.372   3.725   5.606  0.4847  0.4422 -0.5049
11407TIP3    H134160   4.406   3.743   5.518 -0.2709 -0.7210 -1.0461
11407TIP3    H234161   4.412   3.641   5.630 -1.0324 -0.3634 -0.6730
11408TIP3   OH234162   6.122   5.901   3.622  0.2172 -0.2912 -0.0268
11408TIP3    H134163   6.108   5.848   3.700  1.9443 -0.6746  0.0524
11408TIP3    H234164   6.190   5.854   3.573  1.7169  1.7834 -0.0108
11409TIP3   OH234165   2.238   4.047   1.837 -0.0138  0.2563 -0.1940
11409TIP3    H134166   2.216   4.072   1.747 -0.2104  1.0936  0.0852
11409TIP3    H234167   2.290   3.967   1.827 -0.1939  0.2367 -1.0423
11410TIP3   OH234168   4.269   5.629   5.549  0.4878 -0.5628  0.4624
11410TIP3    H134169   4.216   5.601   5.474  0.4789  1.7560 -0.4218
11410TIP3    H234170   4.208   5.634   5.622 -0.1162  0.1087 -0.0852
11411TIP3   OH234171   0.717   0.356   2.560 -0.3045 -0.4630 -0.1356
11411TIP3    H134172   0.759   0.441   2.549  1.3973 -1.2255  0.3198
11411TIP3    H234173   0.632   0.365   2.517  0.1594  1.2282 -0.7210
11412TIP3   OH234174   4.019   5.297   5.639  0.6770  0.0002 -0.1514
11412TIP3    H134175   4.099   5.283   5.690  0.2731 -2.4819 -0.1171
11412TIP3    H234176   4.051   5.319   5.551  1.3716  1.2369  0.3921
11413TIP3   OH234177   0.398   1.567   0.773 -0.0487  0.3175  0.1302
11413TIP3    H134178   0.459   1.497   0.796 -0.4782  0.6264  2.3325
11413TIP3    H234179   0.445   1.620   0.708  1.3586 -0.4080  0.5459
11414TIP3   OH234180   4.831   7.851   5.312 -0.0184  0.2661  0.3717
11414TIP3    H134181   4.857   7.804   5.232 -2.7476 -0.7144 -0.0077
11414TIP3    H234182   4.836   7.944   5.288 -0.1610 -0.0007 -0.7324
11415TIP3   OH234183   4.418   4.797   4.807 -0.5189 -0.6959 -0.3347
11415TIP3    H134184   4.441   4.704   4.816 -2.8634 -1.1112  2.6421
11415TIP3    H234185   4.322   4.798   4.816 -0.6727  1.8611 -1.9386
11416TIP3   OH234186   7.036   3.535   4.931 -0.2869 -0.2964  0.0029
11416TIP3    H134187   7.093   3.575   4.865 -0.8234  0.9710  0.2776
11416TIP3    H234188   7.072   3.564   5.015 -0.6543 -0.4282  0.2115
11417TIP3   OH234189   1.876   2.169   0.743 -0.3943 -0.1531 -0.5142
11417TIP3    H134190   1.821   2.207   0.675 -1.9451 -1.4979 -0.0528
11417TIP3    H234191   1.823   2.097   0.779  1.3026 -0.8963  0.5636
11418TIP3   OH234192   0.301   2.383   0.035 -0.2698 -0.0336  0.8236
11418TIP3    H134193   0.337   2.471   0.029  0.1252 -0.2030  0.6657
11418TIP3    H234194   0.355   2.340   0.102  0.3696 -0.5530 -0.0254
11419TIP3   OH234195   3.938   0.934   0.184  0.6135  0.1631 -0.6964
11419TIP3    H134196   3.877   0.880   0.235  1.0948 -0.6192 -0.9413
11419TIP3    H234197   3.893   0.948   0.101 -0.5207  2.1161  0.2141
11420TIP3   OH234198   2.849   5.840   4.801  0.1060  0.1363  0.0186
11420TIP3    H134199   2.768   5.879   4.834  0.4130  0.6244  0.1918
11420TIP3    H234200   2.832   5.826   4.708  0.2437  1.3120 -0.1845
11421TIP3   OH234201   1.507   4.400   4.691  0.5547  0.0258  0.2045
11421TIP3    H134202   1.582   4.458   4.703  1.1515 -0.7261  0.1886
11421TIP3    H234203   1.475   4.383   4.780  0.8994 -0.2804  0.2745
11422TIP3   OH234204   3.925   5.857   4.378 -0.1616 -0.0277 -0.4250
11422TIP3    H134205   3.921   5.846   4.473  0.9115  1.3023 -0.1988
11422TIP3    H234206   3.915   5.769   4.343  1.6759 -0.8367  0.9984
11423TIP3   OH234207   5.872   5.773   4.895 -0.1286  0.0236  0.0626
11423TIP3    H134208   5.945   5.711   4.897 -0.0623  0.1341  2.3828
11423TIP3    H234209   5.846   5.776   4.803  1.5431 -1.4698 -0.4965
11424TIP3   OH234210   2.327   5.896   5.786 -0.2984  0.2655 -0.4974
11424TIP3    H134211   2.297   5.963   5.849  0.2159  0.0442 -0.0066
11424TIP3    H234212   2.418   5.919   5.770 -0.3722  0.1963 -1.0123
11425TIP3   OH234213   3.906   6.160   5.214  0.3784 -0.2665 -0.1128
11425TIP3    H134214   3.812   6.181   5.214 -0.0255 -2.0086  0.5341
11425TIP3    H234215   3.949   6.245   5.210 -1.2313  0.6464  1.1804
11426TIP3   OH234216   6.682   5.930   5.847 -0.3751  0.3299 -0.0604
11426TIP3    H134217   6.671   6.023   5.826  1.4098  0.7026  0.5968
11426TIP3    H234218   6.657   5.923   5.940  3.4728  0.9629  1.1005
11427TIP3   OH234219   5.066   7.710   5.944  0.1295 -0.3183  0.0337
11427TIP3    H134220   5.150   7.741   5.910  1.0811  0.8837  3.3271
11427TIP3    H234221   5.002   7.741   5.881  2.0360 -0.4162 -2.0361
11428TIP3   OH234222   4.442   7.538   4.286  0.1428  0.1061 -0.1077
11428TIP3    H134223   4.375   7.471   4.283  1.2098 -1.0418  1.1313
11428TIP3    H234224   4.401   7.612   4.331  0.3221 -1.3195  2.4582
11429TIP3   OH234225   4.519   2.867   5.964 -0.1483 -0.6086  0.0010
11429TIP3    H134226   4.487   2.781   5.937 -0.5904 -0.5908  0.4617
11429TIP3    H234227   4.446   2.906   6.013 -1.1803  1.3586 -2.9563
11430TIP3   OH234228   3.796   4.398   4.123  0.1521 -0.5069 -0.3973
11430TIP3    H134229   3.791   4.480   4.075 -0.8811 -0.1595  0.2751
11430TIP3    H234230   3.843   4.419   4.203 -1.2335 -0.2559  0.3722
11431TIP3   OH234231   2.959   6.518   5.512 -0.3459  0.0491 -0.3397
11431TIP3    H134232   2.966   6.460   5.436  1.1361 -0.2841  0.0446
11431TIP3    H234233   3.038   6.572   5.509 -2.1668  2.7339 -1.2419
11432TIP3   OH234234   2.537   4.153   5.526  0.6195  0.3550  0.0410
11432TIP3    H134235   2.534   4.072   5.578  0.2795  1.0245  1.0857
11432TIP3    H234236   2.630   4.176   5.524  0.5930  0.5511  0.7360
11433TIP3   OH234237   3.795   5.340   2.947 -0.3602  0.2684  0.2641
11433TIP3    H134238   3.724   5.399   2.973  0.1374  0.8489  0.3055
11433TIP3    H234239   3.850   5.393   2.888  0.3243 -0.0166  0.6477
11434TIP3   OH234240   3.315   5.249   5.847 -0.2553 -0.1571  0.3180
11434TIP3    H134241   3.225   5.220   5.862 -0.3892  0.4392  0.6761
11434TIP3    H234242   3.307   5.338   5.813  0.1301 -0.7374 -1.3616
11435TIP3   OH234243   0.663   1.750   1.230 -0.5079  0.0012  1.0115
11435TIP3    H134244   0.589   1.717   1.282 -1.6534  0.0816 -0.5338
11435TIP3    H234245   0.669   1.690   1.156 -1.1890  1.9319 -0.6597
11436TIP3   OH234246   7.401   7.665   0.216 -0.5310 -0.5693 -0.0974
11436TIP3    H134247   7.379   7.685   0.125 -1.7280  0.2647  0.3601
11436TIP3    H234248   7.481   7.613   0.211  0.0473  0.4250 -1.5744
11437TIP3   OH234249   1.771   6.543   6.804 -0.3518  0.8247  0.8938
11437TIP3    H134250   1.831   6.514   6.872  1.3340  1.5568 -0.2516
11437TIP3    H234251   1.755   6.636   6.824 -0.8579  0.7083  1.0270
11438TIP3   OH234252   5.111   4.728   4.787  0.0592 -0.3715  0.0368
11438TIP3    H134253   5.069   4.793   4.731  1.0488 -1.7320 -2.3602
11438TIP3    H234254   5.189   4.700   4.738  1.6360 -0.7530  2.6330
11439TIP3   OH234255   4.366   4.796   6.459 -0.1388  0.2997 -0.5342
11439TIP3    H134256   4.355   4.867   6.523 -1.3538  0.3257 -0.7623
11439TIP3    H234257   4.329   4.719   6.502  1.6579 -0.3142 -0.0848
11440TIP3   OH234258   3.688   5.360   6.792  0.1796  0.2485  0.3497
11440TIP3    H134259   3.628   5.289   6.814 -0.0047  0.5142  0.7112
11440TIP3    H234260   3.684   5.419   6.867 -0.9169  1.4901 -0.6646
11441TIP3   OH234261   3.173   5.136   5.097  0.3000 -0.1513  0.6709
11441TIP3    H134262   3.080   5.126   5.078 -0.2871 -0.1000  3.3293
11441TIP3    H234263   3.200   5.050   5.128  1.6299 -0.6969 -1.8461
11442TIP3   OH234264   3.709   3.416   5.008 -0.1627 -0.0283 -0.1971
11442TIP3    H134265   3.775   3.474   4.970 -0.5832 -0.5214 -1.7205
11442TIP3    H234266   3.746   3.389   5.092  1.4042  0.0197 -0.8556
11443TIP3   OH234267   4.399   6.031   5.970 -0.1820 -0.3306  0.4315
11443TIP3    H134268   4.387   6.075   5.885 -1.1639 -0.1279  0.6699
11443TIP3    H234269   4.450   5.952   5.950 -0.6725 -0.4380 -0.3857
11444TIP3   OH234270   2.579   0.126   0.476 -0.0600  0.3009 -0.5894
11444TIP3    H134271   2.512   0.109   0.409 -0.2216 -1.1874 -0.0702
11444TIP3    H234272   2.538   0.187   0.536 -1.0614 -0.7998 -0.1329
11445TIP3   OH234273   2.570   1.352  -0.019 -0.1827 -0.2627  0.0536
11445TIP3    H134274   2.561   1.305   0.063  0.2555  0.5013  0.5450
11445TIP3    H234275   2.498   1.415  -0.019 -0.9258 -1.0975 -0.7216
11446TIP3   OH234276   2.809   6.173   4.925  0.2704  0.1225  0.2111
11446TIP3    H134277   2.801   6.082   4.897  1.1768  0.3415 -0.7744
11446TIP3    H234278   2.723   6.194   4.963 -0.1344 -0.9507 -0.0870
11447TIP3   OH234279   4.683   7.497   6.151 -0.2937 -0.1985  0.8895
11447TIP3    H134280   4.770   7.537   6.161 -0.6387  0.4124  1.5121
11447TIP3    H234281   4.646   7.540   6.074  0.1199 -0.7694  0.3644
11448TIP3   OH234282   2.887   2.755   6.506 -0.1994  0.1834  0.3834
11448TIP3    H134283   2.929   2.761   6.420 -0.4360  1.5281  0.3433
11448TIP3    H234284   2.818   2.690   6.496  1.4948 -1.6426  0.2908
11449TIP3   OH234285   5.530   5.533   6.502 -0.5520 -0.0961 -0.2245
11449TIP3    H134286   5.618   5.523   6.538 -0.8046 -2.4901 -0.1935
11449TIP3    H234287   5.519   5.458   6.443 -3.1897 -0.8275  1.0831
11450TIP3   OH234288   1.919   3.416   0.090 -0.2559  0.1371  0.2214
11450TIP3    H134289   1.947   3.414  -0.002 -1.0015 -1.1979  0.0116
11450TIP3    H234290   1.965   3.491   0.127 -0.0933  0.8082 -1.2907
11451TIP3   OH234291   1.187   1.760   1.566 -0.1492 -0.4010  0.3037
11451TIP3    H134292   1.280   1.769   1.587 -0.5991  1.4505  1.6667
11451TIP3    H234293   1.182   1.776   1.472  0.9498 -0.8833  0.1534
11452TIP3   OH234294   4.284   5.313   6.383  0.3207 -0.4840  0.4476
11452TIP3    H134295   4.190   5.305   6.366  0.0647  0.6596  1.2354
11452TIP3    H234296   4.293   5.291   6.476  0.9088 -1.1416  0.2348
11453TIP3   OH234297   1.123   2.839   0.044 -0.7336 -0.8631  0.2026
11453TIP3    H134298   1.079   2.810  -0.036 -0.0574 -0.1887 -0.4156
11453TIP3    H234299   1.052   2.876   0.098 -1.0807 -0.6964 -0.3629
11454TIP3   OH234300   3.732   4.189   6.637 -0.0529 -0.4254 -0.0726
11454TIP3    H134301   3.750   4.267   6.584  1.1734  0.3115  1.4078
11454TIP3    H234302   3.730   4.221   6.727 -0.4238 -1.9617  0.4815
11455TIP3   OH234303   0.877   5.554   5.862  0.4172  0.4822  0.1101
11455TIP3    H134304   0.902   5.465   5.838  0.0235  0.7201 -1.2499
11455TIP3    H234305   0.782   5.550   5.874  0.7010  0.2118  2.4054
11456TIP3   OH234306   1.211   6.449   5.933 -0.0307  0.2135  0.4502
11456TIP3    H134307   1.265   6.374   5.959 -1.1946 -0.6366  0.4481
11456TIP3    H234308   1.171   6.480   6.014 -0.2147  0.3094  0.3230
11457TIP3   OH234309   4.477   6.123   5.617  0.4642 -0.2469 -0.1838
11457TIP3    H134310   4.512   6.036   5.596 -1.8325 -1.3988  0.6563
11457TIP3    H234311   4.532   6.153   5.689  1.5275 -0.8291 -0.7336
11458TIP3   OH234312   3.940   4.459   4.361 -0.3684 -0.2685  0.1806
11458TIP3    H134313   3.895   4.375   4.375  2.3045 -1.7196  0.3116
11458TIP3    H234314   3.988   4.474   4.442  0.9689  0.2506 -0.7035
11459TIP3   OH234315   4.539   2.609   6.176  0.0737 -0.5643  0.5282
11459TIP3    H134316   4.445   2.605   6.159 -0.0062 -0.5559  0.9613
11459TIP3    H234317   4.577   2.644   6.096 -0.3308 -0.2149  0.4907
11460TIP3   OH234318   6.511   0.856   0.830 -0.7637 -0.0008 -0.4568
11460TIP3    H134319   6.590   0.901   0.859 -1.6641  1.3632 -0.0716
11460TIP3    H234320   6.473   0.915   0.765 -1.6142 -0.5242 -0.4362
11461TIP3   OH234321   1.062   2.230   1.452  0.3883  0.1723  0.1210
11461TIP3    H134322   1.003   2.160   1.425 -0.0564  0.7814 -0.5010
11461TIP3    H234323   1.144   2.212   1.405  0.8418 -0.8719  1.2527
11462TIP3   OH234324   6.117   5.346   6.633 -0.3244 -0.6642 -0.0900
11462TIP3    H134325   6.025   5.328   6.654 -0.5262  0.7559  0.3186
11462TIP3    H234326   6.166   5.277   6.676 -1.0908 -0.4617  1.1288
11463TIP3   OH234327   4.366   4.989   5.231  0.3295  0.4037 -0.0453
11463TIP3    H134328   4.431   4.931   5.269  0.8350  0.9521 -0.0656
11463TIP3    H234329   4.403   5.015   5.146 -1.0608 -1.3001 -1.2109
11464TIP3   OH234330   5.087   2.309   6.446  0.2346 -0.1758 -0.0986
11464TIP3    H134331   5.118   2.284   6.359  0.0843 -0.2450 -0.1331
11464TIP3    H234332   5.016   2.247   6.464 -0.0018  0.0965 -0.0970
11465TIP3   OH234333   2.424   4.608   6.504 -0.0569 -0.1620  0.5968
11465TIP3    H134334   2.336   4.643   6.517  0.1684  1.8048 -2.6642
11465TIP3    H234335   2.476   4.682   6.473  1.7845 -2.1232 -1.2439
11466TIP3   OH234336   0.913   5.763   5.594  0.1916 -0.0230 -0.0091
11466TIP3    H134337   0.894   5.738   5.684  2.3850 -0.0220  0.4913
11466TIP3    H234338   1.009   5.768   5.590  0.0586  1.8002 -1.8440
11467TIP3   OH234339   3.557   5.783   6.687 -0.4577  0.4162  0.0957
11467TIP3    H134340   3.650   5.792   6.709 -0.1011 -0.7339 -0.8884
11467TIP3    H234341   3.554   5.708   6.627 -2.1133  0.0261  0.6611
11468TIP3   OH234342   4.150   5.633   5.167 -0.0897 -0.0714  0.4498
11468TIP3    H134343   4.148   5.725   5.141 -1.3885 -0.4619 -0.9136
11468TIP3    H234344   4.065   5.618   5.208  0.5668 -0.3836  1.7058
11469TIP3   OH234345   5.290   6.932   6.506 -0.5324  0.0651  0.4880
11469TIP3    H134346   5.314   7.023   6.490 -1.3987  0.2791  0.3510
11469TIP3    H234347   5.234   6.909   6.431 -0.3389 -0.5646  0.5364
11470TIP3   OH234348   4.514   5.347   5.165 -0.3692  0.1326  0.3408
11470TIP3    H134349   4.466   5.344   5.082 -0.8965  0.8771  0.6091
11470TIP3    H234350   4.542   5.438   5.173  1.3817 -0.3754  0.0298
11471TIP3   OH234351   4.024   5.199   6.440 -0.3638 -0.0974  0.3826
11471TIP3    H134352   3.958   5.130   6.431 -0.5376  0.2736 -1.2540
11471TIP3    H234353   3.978   5.270   6.486 -0.8820 -0.1522 -0.0403
11472TIP3   OH234354   8.231   6.507   1.170 -0.3722  0.2093  0.1507
11472TIP3    H134355   8.307   6.565   1.158 -0.1208 -0.4239 -1.5134
11472TIP3    H234356   8.264   6.434   1.221  0.2388 -0.2084 -0.8198
11473TIP3   OH234357   5.274   7.474   6.671 -0.2198 -0.0380  0.1409
11473TIP3    H134358   5.205   7.467   6.737 -0.3299  0.0018  0.0331
11473TIP3    H234359   5.351   7.433   6.711 -1.0066 -2.4301 -0.7180
11474TIP3   OH234360   2.940   6.265   6.656  0.8037 -0.4453 -0.2721
11474TIP3    H134361   2.869   6.225   6.706 -0.8495  2.0058 -0.5470
11474TIP3    H234362   3.017   6.214   6.679 -0.9707 -3.0390  0.2382
11475TIP3   OH234363   7.814   6.446   1.011 -0.6195 -0.1967 -0.3936
11475TIP3    H134364   7.883   6.513   1.008 -0.6592  0.0011  2.0138
11475TIP3    H234365   7.862   6.363   1.003 -0.0651 -0.0530  1.1147
11476TIP3   OH234366   5.550   5.118   3.406 -0.4416  0.4735  0.0060
11476TIP3    H134367   5.484   5.141   3.340  1.3300 -2.4353 -2.9718
11476TIP3    H234368   5.510   5.047   3.456  0.1787 -0.9930 -1.5172
11477TIP3   OH234369   3.731   3.810   4.651 -0.1326  0.3541 -0.3582
11477TIP3    H134370   3.735   3.902   4.675  0.7564 -0.0770  1.2049
11477TIP3    H234371   3.639   3.795   4.629 -0.3683  1.5010 -0.1861
11478TIP3   OH234372   2.043   5.324   6.389  0.0292  0.1649 -0.3563
11478TIP3    H134373   2.046   5.365   6.475  2.8775 -1.1967  0.2424
11478TIP3    H234374   2.047   5.396   6.327  0.7747  1.0053  0.6650
11479TIP3   OH234375   8.277   1.285   0.227  0.2420  0.5499 -0.1483
11479TIP3    H134376   8.182   1.275   0.224  0.1948  1.3139 -2.1398
11479TIP3    H234377   8.303   1.243   0.308 -1.5244 -1.9351 -0.8040
11480TIP3   OH234378   4.842   5.128   4.616  0.0818  0.8292 -0.1205
11480TIP3    H134379   4.824   5.165   4.702 -0.4862 -0.6516  0.4052
11480TIP3    H234380   4.801   5.189   4.555 -0.9602  0.9959  0.7347
11481TIP3   OH234381   4.916   5.294   4.824  0.3347 -0.4016 -0.0037
11481TIP3    H134382   4.923   5.348   4.746 -0.1206 -0.0778  0.1784
11481TIP3    H234383   4.936   5.353   4.896 -2.0061  0.0036  0.3483
11482TIP3   OH234384   5.245   5.576   6.398  0.4093  0.0439  0.5743
11482TIP3    H134385   5.316   5.518   6.426 -0.3910 -1.2292 -0.0175
11482TIP3    H234386   5.280   5.620   6.320  0.0604 -1.6089 -0.5429
11483TIP3   OH234387   6.209   7.762   5.363  0.4485  0.6222  0.1999
11483TIP3    H134388   6.181   7.707   5.436  1.3242 -0.2378 -0.0996
11483TIP3    H234389   6.207   7.851   5.397 -0.9469  0.4014  0.7051
11484TIP3   OH234390   6.521   3.396   4.949  0.0971  0.4265  0.2076
11484TIP3    H134391   6.557   3.485   4.948  0.1194  0.4390  1.3832
11484TIP3    H234392   6.595   3.341   4.923  0.2345  0.7099 -0.0018
11485TIP3   OH234393   1.455   2.695   0.232 -0.2536  0.2429 -0.2903
11485TIP3    H134394   1.379   2.673   0.286 -0.3308  0.5522 -0.2738
11485TIP3    H234395   1.499   2.611   0.218  0.1379  0.2530  0.8138
11486TIP3   OH234396   4.447   7.602   6.698  0.2665  0.8754 -0.1577
11486TIP3    H134397   4.451   7.636   6.787  0.2330 -0.3831  0.3336
11486TIP3    H234398   4.357   7.620   6.669 -0.7763 -1.7320  1.3043
11487TIP3   OH234399   5.630   5.068   5.005 -0.6242  0.1638 -0.6941
11487TIP3    H134400   5.713   5.105   4.976 -0.5502  1.8785  1.6441
11487TIP3    H234401   5.609   5.002   4.938  2.5179 -0.1929 -1.3947
11488TIP3   OH234402   3.723   4.454   4.618  0.8466 -0.1523 -0.6083
11488TIP3    H134403   3.737   4.363   4.593  0.9090 -0.1223 -0.6845
11488TIP3    H234404   3.658   4.450   4.688  1.5896 -0.3305  0.0786
11489TIP3   OH234405   5.972   5.499   4.123 -0.1451  0.7645 -0.1740
11489TIP3    H134406   6.001   5.457   4.042 -1.1911 -0.6310  0.1426
11489TIP3    H234407   5.960   5.426   4.184  0.5482  1.7852  1.2119
11490TIP3   OH234408   2.998   5.101   6.419  0.4832  0.5148 -0.2129
11490TIP3    H134409   3.076   5.046   6.413 -0.6064 -1.2753  1.5852
11490TIP3    H234410   3.023   5.171   6.479  0.8653  0.2294 -0.0329
11491TIP3   OH234411   1.813   1.664   0.657 -0.4777  0.2733 -0.0473
11491TIP3    H134412   1.775   1.742   0.617  0.6816  0.6296 -0.4611
11491TIP3    H234413   1.843   1.611   0.584 -0.3692 -0.1008  0.2672
11492TIP3   OH234414   8.322   7.603   0.181  0.0374 -0.0359  0.2193
11492TIP3    H134415   8.243   7.635   0.224  1.4377  0.4161  2.5281
11492TIP3    H234416   8.312   7.508   0.180 -0.3765 -0.0013  0.8555
11493TIP3   OH234417   4.475   4.131   6.569  0.2920 -0.7102 -0.3637
11493TIP3    H134418   4.553   4.138   6.514  0.1828  0.3056 -0.3974
11493TIP3    H234419   4.403   4.154   6.511  0.0096 -1.2676 -0.2308
11494TIP3   OH234420   2.071   2.067   1.208 -0.3034 -0.4401  0.2165
11494TIP3    H134421   2.098   1.976   1.213 -1.6919 -0.8124  1.0318
11494TIP3    H234422   1.978   2.064   1.186 -0.3533  0.7752  0.2104
11495TIP3   OH234423   2.759   0.680   0.568 -1.2175 -0.8614  0.0302
11495TIP3    H134424   2.733   0.768   0.540 -0.8419 -0.7893 -0.1049
11495TIP3    H234425   2.855   0.682   0.565 -1.1646 -0.7697  1.6213
11496TIP3   OH234426   1.494   0.228   0.425  0.5952 -0.4108  0.3073
11496TIP3    H134427   1.541   0.298   0.471  0.2681  0.4836 -0.6951
11496TIP3    H234428   1.534   0.147   0.456  0.3049  0.1692  2.2531
11497TIP3   OH234429   7.826   0.470   1.561 -0.1884  0.0134 -0.2734
11497TIP3    H134430   7.848   0.381   1.532 -0.7950 -0.5784  1.0558
11497TIP3    H234431   7.832   0.466   1.656 -1.2174  1.1370 -0.1542
11498TIP3   OH234432   0.537   1.862   2.120 -0.1435 -0.9404  0.6612
11498TIP3    H134433   0.627   1.870   2.087  0.0716  0.9399  1.6939
11498TIP3    H234434   0.495   1.800   2.059  0.4446  1.9134 -2.7882
11499TIP3   OH234435   3.693   3.773   6.848 -0.4120 -0.2102 -0.3210
11499TIP3    H134436   3.710   3.681   6.867  0.7838  0.1139  0.1610
11499TIP3    H234437   3.729   3.787   6.760  0.4871  0.0960  0.0923
11500TIP3   OH234438   2.459   5.573   6.575 -0.1044 -0.4638  0.4812
11500TIP3    H134439   2.540   5.604   6.535 -0.6806 -0.9491 -1.0886
11500TIP3    H234440   2.472   5.479   6.587 -0.7166 -0.6762 -0.4751
11501TIP3   OH234441   4.773   5.881   4.675  0.0390  0.1379  0.1140
11501TIP3    H134442   4.734   5.892   4.588 -0.9486 -1.4938  0.3403
11501TIP3    H234443   4.770   5.969   4.713 -1.8184  0.4064 -0.5673
11502TIP3   OH234444   8.108   6.670   0.013  0.1667  0.6343 -0.0511
11502TIP3    H134445   8.175   6.706  -0.046  0.6057 -0.1007 -0.0189
11502TIP3    H234446   8.064   6.746   0.049 -0.2754  1.1055 -1.5264
11503TIP3   OH234447   6.872   4.995   5.258 -0.4357  0.1812 -0.0911
11503TIP3    H134448   6.782   4.965   5.272 -0.3328  0.0445  0.2847
11503TIP3    H234449   6.894   5.044   5.337 -0.0363 -0.1421  0.0019
11504TIP3   OH234450   1.089   0.939   0.474 -0.2961  0.0012  0.8708
11504TIP3    H134451   1.037   1.018   0.458 -0.1143  0.1479  0.9977
11504TIP3    H234452   1.161   0.969   0.529  1.1261  0.2287 -1.0428
11505TIP3   OH234453   3.679   6.963   6.474  0.3044  0.4309  0.2418
11505TIP3    H134454   3.602   7.013   6.447  0.3945  0.6923  0.4612
11505TIP3    H234455   3.727   6.947   6.392 -1.0371 -1.5544 -0.1968
11506TIP3   OH234456   4.043   3.824   5.515  0.0047  0.5699 -0.1620
11506TIP3    H134457   4.111   3.880   5.551  1.8351 -1.5304 -0.2600
11506TIP3    H234458   4.077   3.796   5.430 -0.1718 -1.9037  0.5426
11507TIP3   OH234459   3.845   4.444   6.161 -0.6261 -0.2206  0.0085
11507TIP3    H134460   3.913   4.464   6.097 -0.3249  0.1379  0.4355
11507TIP3    H234461   3.825   4.529   6.202 -0.9247 -0.4206  0.2825
11508TIP3   OH234462   3.150   6.097   5.215  0.2825  1.4764 -0.4007
11508TIP3    H134463   3.125   6.151   5.139 -0.9685 -0.0307 -1.0869
11508TIP3    H234464   3.086   6.026   5.216  1.1922  0.6559  1.2056
11509TIP3   OH234465   2.210   6.381   6.695  0.3167 -0.2436  0.1035
11509TIP3    H134466   2.263   6.352   6.620 -0.1372 -2.2121  0.5342
11509TIP3    H234467   2.188   6.472   6.674  1.6113 -0.2442 -1.3567
11510TIP3   OH234468   5.510   7.830   6.423 -0.0816 -0.5637  0.4737
11510TIP3    H134469   5.598   7.832   6.461 -0.1624 -1.5403  0.7174
11510TIP3    H234470   5.486   7.738   6.423 -0.5918 -0.4449 -0.7812
11511TIP3   OH234471   3.593   5.512   6.296  0.4260 -0.0574  0.1033
11511TIP3    H134472   3.567   5.584   6.239  1.0734  0.8039  0.8798
11511TIP3    H234473   3.596   5.436   6.239 -0.9091  0.3990 -0.5931
11512TIP3   OH234474   7.994   2.328   0.592  0.3935  0.4174  0.4726
11512TIP3    H134475   8.037   2.264   0.648 -1.7552 -0.1488  1.5590
11512TIP3    H234476   8.026   2.310   0.504 -0.5481 -2.4764  0.6949
11513TIP3   OH234477   4.999   6.656   5.915  0.9362 -0.2624  0.1009
11513TIP3    H134478   5.051   6.687   5.840 -0.0006 -0.4676 -0.6470
11513TIP3    H234479   4.909   6.675   5.890  0.4477 -2.2572  0.2570
11514TIP3   OH234480   0.853   1.459   0.112  0.2543 -0.3335  0.3841
11514TIP3    H134481   0.933   1.487   0.157 -1.0676  0.1888  2.4550
11514TIP3    H234482   0.786   1.520   0.142 -1.0121 -0.9769 -1.0829
11515TIP3   OH234483   3.387   6.626   6.740  0.5935  0.0631  0.2591
11515TIP3    H134484   3.416   6.543   6.701  3.3059  1.4200 -0.7120
11515TIP3    H234485   3.445   6.692   6.703 -0.8489  2.2821  1.8231
11516TIP3   OH234486   5.261   6.017   5.984  0.2489 -0.7345  0.0760
11516TIP3    H134487   5.247   6.013   5.889  0.2219 -0.0190  0.0449
11516TIP3    H234488   5.300   5.933   6.006  1.5673 -0.3671 -0.7938
11517TIP3   OH234489   1.627   6.484   5.390  0.1263 -0.3558  0.1705
11517TIP3    H134490   1.653   6.468   5.480 -0.4879 -0.5858  0.3076
11517TIP3    H234491   1.685   6.555   5.360  0.1381 -0.0880  0.8290
11518TIP3   OH234492   8.152   4.379   1.586 -0.0066  0.5115  0.0906
11518TIP3    H134493   8.201   4.394   1.506  1.2029 -0.2638  0.6652
11518TIP3    H234494   8.096   4.456   1.595  0.2264  0.8449 -1.2105
11519TIP3   OH234495   4.677   5.230   6.027  0.0648 -0.0128 -0.0642
11519TIP3    H134496   4.601   5.175   6.047 -0.9175  0.9580 -1.0689
11519TIP3    H234497   4.685   5.288   6.103  0.8859 -1.2867  0.8378
11520TIP3   OH234498   4.873   5.323   4.227 -0.4733 -0.0604 -0.1781
11520TIP3    H134499   4.964   5.349   4.243 -0.0867 -0.2823 -1.9182
11520TIP3    H234500   4.873   5.228   4.239 -0.0028 -0.3399 -2.1216
11521TIP3   OH234501   5.255   6.214   5.496 -0.5066  0.2981  0.0054
11521TIP3    H134502   5.315   6.178   5.430  0.2666 -0.6288  1.1722
11521TIP3    H234503   5.169   6.212   5.454 -0.1688 -1.1109 -0.6757
11522TIP3   OH234504   5.446   4.616   6.767  0.5464 -0.4283  0.1685
11522TIP3    H134505   5.445   4.678   6.694 -0.2977 -2.0985 -1.2740
11522TIP3    H234506   5.505   4.546   6.738  1.4170 -0.3760  1.7459
11523TIP3   OH234507   3.380   3.813   5.860 -0.1481 -0.2653  0.2059
11523TIP3    H134508   3.309   3.783   5.917 -0.7203 -0.6260 -0.6844
11523TIP3    H234509   3.337   3.871   5.797  0.2803 -0.8212 -0.6018
11524TIP3   OH234510   4.449   5.174   6.215  0.1238 -0.2107 -0.3256
11524TIP3    H134511   4.500   5.104   6.256  0.1837 -1.2707 -2.1611
11524TIP3    H234512   4.393   5.207   6.285  2.1313 -0.1272  1.3125
11525TIP3   OH234513   4.873   4.771   5.054 -0.0625  0.1739  0.1507
11525TIP3    H134514   4.902   4.856   5.022  2.4165 -0.5767  0.2664
11525TIP3    H234515   4.940   4.710   5.023 -0.3073 -1.3043  2.4092
11526TIP3   OH234516   5.916   5.139   5.481  0.6719  0.0450  0.4846
11526TIP3    H134517   5.829   5.133   5.441  0.3979  1.8248  0.7635
11526TIP3    H234518   5.902   5.190   5.561  1.9845  0.4252  0.4814
11527TIP3   OH234519   6.998   4.236   5.886  0.4150 -0.1524 -0.7378
11527TIP3    H134520   7.026   4.146   5.874 -0.0516 -0.3667 -0.2462
11527TIP3    H234521   7.078   4.288   5.877  0.5408 -0.5362 -1.8505
11528TIP3   OH234522   1.836   0.345   0.789  0.9973 -0.3191 -0.0925
11528TIP3    H134523   1.826   0.383   0.876 -0.1072 -0.9254  0.0613
11528TIP3    H234524   1.859   0.419   0.733  0.4139  0.3032  0.4784
11529TIP3   OH234525   4.160   4.747   4.793 -0.0552  0.6267 -0.1116
11529TIP3    H134526   4.199   4.669   4.754  0.5995  0.3397  1.0975
11529TIP3    H234527   4.074   4.718   4.825 -0.5175  0.8193 -1.1545
11530TIP3   OH234528   4.857   5.052   5.398 -0.1325 -0.9805 -0.3881
11530TIP3    H134529   4.820   5.138   5.378  1.1030 -0.8896 -2.3885
11530TIP3    H234530   4.794   5.013   5.459 -0.0937  1.7879  1.5156
11531TIP3   OH234531   4.559   6.654   3.903 -0.4979 -0.0630 -0.1476
11531TIP3    H134532   4.624   6.660   3.833  0.2746 -0.8059  0.4932
11531TIP3    H234533   4.492   6.719   3.880  1.3981  2.0603  0.1600
11532TIP3   OH234534   8.368   0.331   6.473 -0.2690 -0.6096 -0.0124
11532TIP3    H134535   8.276   0.306   6.476 -0.3638 -0.3682 -0.7265
11532TIP3    H234536   8.401   0.291   6.392  0.2596 -0.7249  0.2594
11533TIP3   OH234537   0.596   3.032   0.405 -0.1295  0.4985 -0.4714
11533TIP3    H134538   0.569   2.943   0.429 -2.2534  1.4507  0.7680
11533TIP3    H234539   0.561   3.045   0.317  1.8598 -0.5408 -1.4765
11534TIP3   OH234540   3.706   6.205   4.126 -0.6475  0.2868  0.0911
11534TIP3    H134541   3.692   6.132   4.185  1.8137 -0.8390 -0.6590
11534TIP3    H234542   3.672   6.174   4.041 -2.2506  1.1257  0.3953
11535TIP3   OH234543   2.461   0.813   1.468 -0.0061  0.0272 -0.2144
11535TIP3    H134544   2.553   0.839   1.461  1.2732 -4.2815 -0.7473
11535TIP3    H234545   2.441   0.771   1.384 -1.6209 -1.4639  0.8668
11536TIP3   OH234546   5.910   6.145   6.614  0.3927 -0.2593  0.0890
11536TIP3    H134547   5.834   6.111   6.662  0.6020  0.2791  0.8073
11536TIP3    H234548   5.983   6.139   6.676  0.9172 -0.6768 -0.5626
11537TIP3   OH234549   8.351   4.435   5.962  0.5651 -0.7831 -0.2573
11537TIP3    H134550   8.403   4.368   6.007  1.6804  1.0143  1.1891
11537TIP3    H234551   8.406   4.463   5.888  0.2082 -1.2678 -0.7115
11538TIP3   OH234552   4.942   1.370   0.855 -0.2115 -0.1604 -0.2916
11538TIP3    H134553   4.935   1.336   0.944  1.3997 -0.0064 -0.0910
11538TIP3    H234554   4.923   1.464   0.863  2.4826  0.3512  0.3169
11539TIP3   OH234555   6.082   4.481   6.285  0.2698 -0.0973  0.2917
11539TIP3    H134556   6.110   4.567   6.251  2.3399 -0.6025  0.6120
11539TIP3    H234557   6.120   4.418   6.223 -0.9595 -0.8028  0.2407
11540TIP3   OH234558   6.430   4.229   4.933 -1.4056 -0.3312  0.1864
11540TIP3    H134559   6.413   4.163   5.001 -0.9865 -1.1419 -0.4867
11540TIP3    H234560   6.492   4.290   4.974 -0.2256 -1.4838  0.1427
11541TIP3   OH234561   6.243   5.753   4.846 -0.4810 -0.6077  0.2698
11541TIP3    H134562   6.255   5.836   4.891 -3.8329 -0.6222  1.3821
11541TIP3    H234563   6.226   5.777   4.754 -2.5105  0.0775  0.7854
11542TIP3   OH234564   2.323   6.248   5.298  0.3210 -0.6361 -0.1491
11542TIP3    H134565   2.313   6.234   5.392 -2.2581 -1.4696 -0.5063
11542TIP3    H234566   2.339   6.161   5.262  0.8814 -0.3742 -0.5430
11543TIP3   OH234567   4.132   5.346   5.376  0.0337  0.0412 -0.0649
11543TIP3    H134568   4.118   5.389   5.292 -0.0714 -0.5209 -0.3349
11543TIP3    H234569   4.220   5.310   5.370 -0.4498 -1.0822 -0.4077
11544TIP3   OH234570   7.506   0.068   4.750  0.3977  0.3855 -0.9668
11544TIP3    H134571   7.430   0.125   4.741  0.5305  0.5392 -1.1152
11544TIP3    H234572   7.498   0.006   4.678  0.8204  0.8720 -1.4321
11545TIP3   OH234573   3.708   0.191   0.438 -0.4801  0.0807 -0.1888
11545TIP3    H134574   3.628   0.232   0.404 -1.7282 -1.0322  1.3172
11545TIP3    H234575   3.687   0.098   0.441  1.2315 -0.3267 -0.6636
11546TIP3   OH234576   6.790   5.607   6.072 -0.1549 -0.3532 -0.3328
11546TIP3    H134577   6.756   5.519   6.058  0.0225 -0.3050 -1.1049
11546TIP3    H234578   6.794   5.617   6.167  0.4475 -1.4249 -0.2416
11547TIP3   OH234579   6.788   4.293   6.456  0.1752 -0.1904  0.2055
11547TIP3    H134580   6.825   4.320   6.371 -0.4910  2.0967  0.6204
11547TIP3    H234581   6.859   4.308   6.518 -0.5693  1.6990  0.6085
11548TIP3   OH234582   6.913   4.459   6.648  0.6449  0.4841 -0.0566
11548TIP3    H134583   6.869   4.531   6.604  1.2787  1.2811  0.6093
11548TIP3    H234584   6.998   4.494   6.673  2.0767 -1.3198 -2.1890
11549TIP3   OH234585   7.709   6.454   4.374  0.3120  0.2082  0.7720
11549TIP3    H134586   7.788   6.400   4.379  0.7050  0.5234 -1.4125
11549TIP3    H234587   7.643   6.397   4.333  1.2605  1.8380 -3.3001
11550TIP3   OH234588   7.139   4.905   4.697  0.2793 -0.0188 -0.2144
11550TIP3    H134589   7.050   4.939   4.688  0.2954  0.1096  0.1185
11550TIP3    H234590   7.127   4.816   4.731  0.3524  0.6558  1.6007
11551TIP3   OH234591   6.496   5.572   5.944  0.0603  0.3370 -0.2198
11551TIP3    H134592   6.486   5.659   5.981  0.8041  0.3442 -0.0188
11551TIP3    H234593   6.412   5.528   5.960  0.1979  0.5190  1.0011
11552TIP3   OH234594   6.653   3.506   5.460 -0.1162 -0.4965 -0.7292
11552TIP3    H134595   6.576   3.449   5.453 -0.8156  0.5349 -1.5461
11552TIP3    H234596   6.622   3.581   5.511  0.4164 -0.1760 -0.8727
11553TIP3   OH234597   5.695   6.072   6.188  0.9760  0.0279  0.1669
11553TIP3    H134598   5.747   6.022   6.251  1.5682  0.5730  0.1172
11553TIP3    H234599   5.752   6.144   6.161  0.9209 -0.4909 -1.3840
11554TIP3   OH234600   4.040   5.860   6.592  0.7572 -0.0314  0.3087
11554TIP3    H134601   4.086   5.937   6.626 -0.6239  0.1590  1.8006
11554TIP3    H234602   4.066   5.789   6.650  0.2807 -0.2204  0.2903
11555TIP3   OH234603   6.808   5.147   5.792 -0.2446  0.2993 -0.8308
11555TIP3    H134604   6.760   5.183   5.867 -0.3276 -0.3215 -0.5855
11555TIP3    H234605   6.889   5.199   5.788 -0.1614  0.2224 -0.2021
11556TIP3   OH234606   5.253   4.946   5.680  0.0411  0.1203  0.7995
11556TIP3    H134607   5.313   5.011   5.642  1.8310 -1.0323  1.6228
11556TIP3    H234608   5.286   4.862   5.649 -2.2185 -0.4292 -0.1823
11557TIP3   OH234609   3.673   0.486   0.704  0.3524  1.0955  0.1895
11557TIP3    H134610   3.588   0.441   0.702  1.7670 -1.8871  2.5424
11557TIP3    H234611   3.656   0.567   0.753 -1.0291  0.2391  1.1606
11558TIP3   OH234612   7.543   4.195   5.936 -0.0392 -0.0848 -0.2051
11558TIP3    H134613   7.576   4.183   5.847  0.2011 -1.2045  0.0217
11558TIP3    H234614   7.606   4.148   5.991  0.2870  1.3351  0.6445
11559TIP3   OH234615   6.399   7.175   5.575  0.0784 -0.3863  0.3295
11559TIP3    H134616   6.491   7.193   5.561  0.5181 -2.7138 -0.0472
11559TIP3    H234617   6.395   7.139   5.664 -0.2267 -1.7660 -0.2349
11560TIP3   OH234618   1.074   0.703   0.293  0.1254 -0.3936  0.2614
11560TIP3    H134619   1.009   0.761   0.253  0.7400  0.2833  0.2349
11560TIP3    H234620   1.111   0.754   0.365  1.5909 -0.2620 -0.5689
11561TIP3   OH234621   4.423   5.442   6.871  0.3258 -0.5207 -0.0003
11561TIP3    H134622   4.422   5.526   6.918 -2.2425 -0.7324  0.4036
11561TIP3    H234623   4.481   5.386   6.922 -0.5228  0.0243  1.6041
11562TIP3   OH234624   3.687   4.335   5.935 -0.1971  0.3516 -0.1605
11562TIP3    H134625   3.716   4.330   6.026  1.1664 -2.0300 -0.6740
11562TIP3    H234626   3.763   4.368   5.887 -0.0511 -0.7819 -0.7514
11563TIP3   OH234627   3.764   5.356   5.712  0.4568 -0.6615 -0.3824
11563TIP3    H134628   3.859   5.358   5.704  0.3209 -0.2738 -2.0620
11563TIP3    H234629   3.741   5.264   5.704  0.6628 -0.7062 -0.4644
11564TIP3   OH234630   0.154   5.845   3.898  0.4966 -0.1478  0.1482
11564TIP3    H134631   0.104   5.872   3.821  1.9297  1.0419 -0.3993
11564TIP3    H234632   0.214   5.918   3.914  1.4760 -1.1824  1.2784
11565TIP3   OH234633   6.947   5.684   4.492 -0.6412  0.1910  0.1634
11565TIP3    H134634   6.874   5.679   4.553  0.0191 -0.3584  0.9115
11565TIP3    H234635   6.971   5.593   4.475 -0.0991  0.3685 -0.0477
11566TIP3   OH234636   4.960   5.920   5.292  0.4367  0.0214 -0.1122
11566TIP3    H134637   5.054   5.919   5.270  0.5795  1.7676  0.3711
11566TIP3    H234638   4.956   5.884   5.381  0.6615  0.0639 -0.0837
11567TIP3   OH234639   5.036   6.600   4.032 -0.4010 -0.3623  0.1835
11567TIP3    H134640   5.109   6.566   4.083  0.7600  0.4025 -0.9206
11567TIP3    H234641   4.962   6.600   4.092  0.7611 -0.1622  1.6404
11568TIP3   OH234642   4.180   0.781   0.312  0.1812 -0.3502 -0.0379
11568TIP3    H134643   4.143   0.709   0.362  0.5232 -0.6661 -0.2444
11568TIP3    H234644   4.104   0.831   0.283  0.0445  1.5143  3.2655
11569TIP3   OH234645   4.546   6.585   6.520 -0.0290 -0.2293  0.4117
11569TIP3    H134646   4.471   6.646   6.515  0.0637  0.0610  2.2649
11569TIP3    H234647   4.604   6.624   6.586  0.8753 -1.4223  0.3260
11570TIP3   OH234648   5.200   0.939   2.275  0.1327 -0.1030  0.1498
11570TIP3    H134649   5.117   0.902   2.306  0.7512 -1.1705  0.5832
11570TIP3    H234650   5.252   0.862   2.250  0.4302  0.6260 -1.5744
11571TIP3   OH234651   0.714   4.278   2.047  0.4083 -0.4207 -0.3857
11571TIP3    H134652   0.665   4.324   2.114  0.9689  0.0553 -0.3019
11571TIP3    H234653   0.647   4.234   1.994 -0.2575  1.8916 -1.5291
11572TIP3   OH234654   6.218   5.807   4.199 -0.4901  0.2028  0.2582
11572TIP3    H134655   6.259   5.723   4.221 -0.9840  0.2576  1.3902
11572TIP3    H234656   6.266   5.872   4.252  0.1230  0.6945 -0.8689
11573TIP3   OH234657   4.817   4.410   6.416  0.1657  0.5026  0.2509
11573TIP3    H134658   4.780   4.322   6.420 -0.3468  0.7205  0.3316
11573TIP3    H234659   4.912   4.397   6.426  0.2669 -0.1883 -1.5212
11574TIP3   OH234660   7.882   6.924   4.302  0.3928  0.3960 -0.2544
11574TIP3    H134661   7.854   6.845   4.257  0.1747  0.8944 -1.0092
11574TIP3    H234662   7.809   6.945   4.361  0.8871 -0.5323  0.7110
11575TIP3   OH234663   6.263   6.658   4.796  0.4907  0.0987  0.1756
11575TIP3    H134664   6.205   6.711   4.851  2.0641  1.5453  0.4671
11575TIP3    H234665   6.231   6.568   4.807 -1.9203  0.8920  0.0563
11576TIP3   OH234666   7.638   3.681   4.802 -0.3339 -0.0839  0.1947
11576TIP3    H134667   7.695   3.698   4.727  0.8457 -0.2129  1.0466
11576TIP3    H234668   7.692   3.702   4.878 -1.0341 -1.3326  1.0504
11577TIP3   OH234669   7.207   3.393   6.625  0.9044  0.2729  0.0434
11577TIP3    H134670   7.276   3.367   6.686 -0.5962 -3.2051  0.3805
11577TIP3    H234671   7.135   3.333   6.644 -1.5911  2.6626 -1.4920
11578TIP3   OH234672   5.508   4.996   6.174 -0.3058  0.2161  0.3485
11578TIP3    H134673   5.506   5.056   6.099 -0.2936 -0.0234  0.1569
11578TIP3    H234674   5.573   5.033   6.232 -0.5864  0.6110  0.4127
11579TIP3   OH234675   4.625   5.563   6.692  0.5478 -0.3798  0.1440
11579TIP3    H134676   4.555   5.628   6.683  1.1783  0.1080 -1.5812
11579TIP3    H234677   4.595   5.504   6.760 -1.9035 -0.6268 -1.0929
11580TIP3   OH234678   6.841   4.480   4.907 -0.4121 -0.2528  0.3007
11580TIP3    H134679   6.797   4.557   4.871 -1.7972 -1.7880 -1.4088
11580TIP3    H234680   6.926   4.478   4.865 -0.9670 -0.4977 -0.8280
11581TIP3   OH234681   4.215   5.417   5.020 -0.0464  0.5697 -0.2339
11581TIP3    H134682   4.131   5.372   5.014  0.2483  0.1102 -0.9589
11581TIP3    H234683   4.193   5.503   5.055 -0.7842  0.3616 -0.1671
11582TIP3   OH234684   6.623   6.245   5.719 -0.1442  0.3139 -0.1285
11582TIP3    H134685   6.583   6.332   5.722  0.0883  0.4359 -0.4976
11582TIP3    H234686   6.632   6.225   5.626  2.6840  1.2630 -0.1268
11583TIP3   OH234687   6.120   5.164   6.104  0.3397  0.3307 -0.4704
11583TIP3    H134688   6.139   5.181   6.196 -0.2397  0.8121 -0.4376
11583TIP3    H234689   6.204   5.178   6.060  0.8772 -0.9624  0.1203
11584TIP3   OH234690   4.977   5.990   4.959 -0.1424  0.6130 -0.6287
11584TIP3    H134691   4.935   6.025   5.037 -0.5481 -1.1418 -0.0462
11584TIP3    H234692   4.938   6.039   4.886 -1.0369  1.0385  0.1377
11585TIP3   OH234693   5.308   6.745   5.345 -0.2564 -1.1490 -0.0392
11585TIP3    H134694   5.283   6.733   5.254 -0.1044 -0.6842 -0.1461
11585TIP3    H234695   5.317   6.656   5.380  1.1663 -1.3601 -0.8873
11586TIP3   OH234696   7.562   5.039   6.176 -0.7809 -0.4072 -0.0992
11586TIP3    H134697   7.548   4.953   6.216  0.2740 -0.8218 -0.6138
11586TIP3    H234698   7.509   5.098   6.229  0.6036 -0.9394  1.9263
11587TIP3   OH234699   4.098   5.742   6.333  0.9707  0.0153 -0.5047
11587TIP3    H134700   4.119   5.813   6.274 -1.7723  0.8334 -0.5838
11587TIP3    H234701   4.060   5.785   6.410 -0.6868 -1.3269 -0.5388
11588TIP3   OH234702   4.918   5.447   6.032 -0.2343  0.7948 -0.3058
11588TIP3    H134703   4.858   5.424   6.103 -0.1436  1.8077  0.1106
11588TIP3    H234704   4.988   5.382   6.038  0.0858  1.2406  0.9226
11589TIP3   OH234705   6.110   4.958   4.414 -0.1880 -0.0806  0.0537
11589TIP3    H134706   6.098   4.865   4.397 -0.2490  0.1196 -0.9966
11589TIP3    H234707   6.023   4.997   4.402 -0.0330  0.2110 -0.1329
11590TIP3   OH234708   6.521   7.435   5.289 -0.3407  0.3856 -0.1388
11590TIP3    H134709   6.461   7.497   5.247  0.1103  0.8526 -0.1049
11590TIP3    H234710   6.577   7.405   5.217  0.5069  1.2730  0.1347
11591TIP3   OH234711   4.020   1.935   2.428  0.1289  0.0241  0.2456
11591TIP3    H134712   4.021   1.949   2.523  1.5374  1.1410  0.0702
11591TIP3    H234713   4.094   1.877   2.411 -0.1651 -0.2339 -0.1669
11592TIP3   OH234714   4.233   7.721   6.398  0.4057 -0.3822 -0.4678
11592TIP3    H134715   4.313   7.676   6.424 -0.6891 -2.3724 -0.4305
11592TIP3    H234716   4.229   7.799   6.453  0.8805 -1.7252  1.5219
11593TIP3   OH234717   8.075   3.273   4.469 -0.4417  0.1466  0.1908
11593TIP3    H134718   8.047   3.350   4.419  0.7101  1.2089  1.1267
11593TIP3    H234719   8.169   3.285   4.480 -0.3103 -1.2332  0.6587
11594TIP3   OH234720   4.458   0.512   0.737  0.4958  0.7370 -0.0190
11594TIP3    H134721   4.402   0.459   0.794 -3.1355  1.7175 -2.5118
11594TIP3    H234722   4.531   0.455   0.714 -1.6324 -2.0758 -0.0258
11595TIP3   OH234723   0.178   5.460   5.562 -0.5994  0.1153 -0.5437
11595TIP3    H134724   0.090   5.497   5.569  0.2754  1.8712  1.6819
11595TIP3    H234725   0.208   5.486   5.475 -2.1379 -0.2007 -1.1827
11596TIP3   OH234726   5.723   2.040   5.127 -0.4547 -0.3917 -0.1478
11596TIP3    H134727   5.786   2.092   5.177 -0.0178 -0.5098 -0.5727
11596TIP3    H234728   5.685   2.101   5.064 -0.9290 -0.2682  0.2535
11597TIP3   OH234729   6.166   3.990   4.105 -0.6057 -0.4519  0.0119
11597TIP3    H134730   6.249   3.970   4.061 -1.0415 -1.6972 -0.2551
11597TIP3    H234731   6.104   4.004   4.033 -0.5214  0.9920  0.2028
11598TIP3   OH234732   1.316   7.737   0.547  0.2514 -0.1872 -0.6101
11598TIP3    H134733   1.313   7.656   0.497 -0.9734 -0.5729  0.0769
11598TIP3    H234734   1.403   7.737   0.588 -0.1837 -1.7376  0.3451
11599TIP3   OH234735   8.054   7.478   1.235 -0.0503 -0.4447 -0.1796
11599TIP3    H134736   8.116   7.489   1.163 -0.8312  2.0290 -0.5100
11599TIP3    H234737   8.105   7.497   1.313  0.3384 -1.3114 -0.2206
11600TIP3   OH234738   7.079   5.560   5.360  0.2936 -0.4167  0.3426
11600TIP3    H134739   7.111   5.502   5.429  0.6890 -0.2543  0.2990
11600TIP3    H234740   7.140   5.634   5.362  1.2440 -1.1323 -1.2214
11601TIP3   OH234741   5.459   5.713   5.494  0.2861  0.0542 -0.0917
11601TIP3    H134742   5.449   5.633   5.443  1.0051 -0.3153  0.3322
11601TIP3    H234743   5.548   5.707   5.530  0.3836  1.0944 -0.1553
11602TIP3   OH234744   6.524   5.190   2.923 -0.2894  0.8115  0.1703
11602TIP3    H134745   6.571   5.121   2.878 -1.3630  0.1307  0.0724
11602TIP3    H234746   6.592   5.243   2.964  0.6427  0.8212 -1.3545
11603TIP3   OH234747   6.194   1.404   1.189 -0.1541 -0.0004  0.0598
11603TIP3    H134748   6.245   1.403   1.108 -1.7404 -0.3962 -0.9463
11603TIP3    H234749   6.191   1.312   1.216  0.1388  0.0951  0.4134
11604TIP3   OH234750   3.936   4.382   5.251  0.1366 -0.3825 -0.3874
11604TIP3    H134751   3.960   4.392   5.159 -0.0972 -3.3292 -0.8438
11604TIP3    H234752   4.019   4.371   5.297  0.1854 -0.5637 -0.5147
11605TIP3   OH234753   6.237   6.400   6.707  0.1831 -0.4960  0.3892
11605TIP3    H134754   6.148   6.423   6.681 -0.5650 -3.7028 -0.1374
11605TIP3    H234755   6.243   6.424   6.799 -0.7374  1.0783  0.0476
11606TIP3   OH234756   5.165   4.263   5.245 -0.2700  0.3555  0.5698
11606TIP3    H134757   5.138   4.304   5.327 -0.8313 -0.6364  0.8921
11606TIP3    H234758   5.192   4.175   5.270  3.1552  1.2441  0.2139
11607TIP3   OH234759   0.283   4.081   6.565 -0.0243 -0.2370 -0.1654
11607TIP3    H134760   0.284   3.986   6.572  2.6446 -0.0225  3.0264
11607TIP3    H234761   0.355   4.102   6.506  0.3716 -0.0924  0.3741
11608TIP3   OH234762   5.679   6.153   5.467 -0.5335 -0.2221  0.2566
11608TIP3    H134763   5.672   6.199   5.383  0.5984  0.5709  0.5850
11608TIP3    H234764   5.665   6.061   5.445 -0.3578 -0.0070 -0.7927
11609TIP3   OH234765   5.772   4.757   6.340 -0.5464 -0.6624  0.1575
11609TIP3    H134766   5.704   4.741   6.276 -1.0362  0.1595  0.4591
11609TIP3    H234767   5.853   4.726   6.298 -0.8093  0.1775 -0.9900
11610TIP3   OH234768   5.731   1.545   4.756 -0.6639 -0.0841 -0.4132
11610TIP3    H134769   5.797   1.495   4.708  0.8053  0.4457  1.0039
11610TIP3    H234770   5.666   1.568   4.690  0.7342 -0.3417 -1.9321
11611TIP3   OH234771   6.048   5.468   3.406 -0.4751 -0.1121 -0.5113
11611TIP3    H134772   5.976   5.476   3.468 -0.3305 -1.3910 -0.1608
11611TIP3    H234773   6.097   5.392   3.436 -0.5202 -0.8885 -2.3289
11612TIP3   OH234774   7.046   4.976   5.764  0.3024 -0.3432 -0.4992
11612TIP3    H134775   6.957   5.006   5.746 -0.4648 -1.5104  1.1986
11612TIP3    H234776   7.037   4.921   5.843  3.3005  3.8886  3.0282
11613TIP3   OH234777   2.357   1.715   0.705  0.4573 -0.1853 -0.4193
11613TIP3    H134778   2.354   1.744   0.796 -1.1719 -0.2456 -0.4479
11613TIP3    H234779   2.350   1.620   0.710 -0.4731 -0.1342 -0.6412
11614TIP3   OH234780   5.772   5.658   6.297  0.1460  0.2718 -0.4395
11614TIP3    H134781   5.730   5.625   6.376 -3.2004 -2.0290 -3.0671
11614TIP3    H234782   5.760   5.589   6.232  0.9898  2.9429 -3.5639
11615TIP3   OH234783   7.515   4.484   5.883 -0.3919  0.2922 -0.2034
11615TIP3    H134784   7.550   4.402   5.850 -0.2469  0.5806 -0.7839
11615TIP3    H234785   7.569   4.552   5.841 -1.5791  0.7402 -1.0509
11616TIP3   OH234786   5.232   3.014   5.997  0.4966 -0.8906 -0.2299
11616TIP3    H134787   5.233   2.923   5.967  1.1359 -1.6065  1.9055
11616TIP3    H234788   5.238   3.008   6.092  0.2562  1.3868 -0.0486
11617TIP3   OH234789   6.699   2.922   2.936  0.3583  0.0164 -0.4920
11617TIP3    H134790   6.714   3.013   2.961 -0.7019  0.0867 -0.0634
11617TIP3    H234791   6.785   2.889   2.911  1.4356  0.1149  2.7839
11618TIP3   OH234792   4.722   5.757   5.524  0.3478  0.4149  0.2344
11618TIP3    H134793   4.711   5.824   5.591  0.8694  0.4918  0.2458
11618TIP3    H234794   4.660   5.781   5.456  0.9982  1.2917 -0.0606
11619TIP3   OH234795   6.551   6.012   5.282 -0.3035  0.8026 -0.2074
11619TIP3    H134796   6.457   6.029   5.288 -0.6373 -0.4481 -1.7964
11619TIP3    H234797   6.558   5.924   5.246  1.4881  0.7640  0.1762
11620TIP3   OH234798   7.805   5.076   2.936 -0.3579  0.2305 -0.3390
11620TIP3    H134799   7.835   5.150   2.988 -2.3681 -0.2995  1.6674
11620TIP3    H234800   7.718   5.103   2.904 -0.8599 -1.0041 -0.0664
11621TIP3   OH234801   3.866   0.078   0.049  0.0895 -0.2872  0.5107
11621TIP3    H134802   3.827   0.089  -0.038 -0.2416 -0.3054  0.6583
11621TIP3    H234803   3.833   0.151   0.100 -0.4101 -0.7629  0.8747
11622TIP3   OH234804   7.666   5.435   3.604 -0.3677 -0.0040  0.1838
11622TIP3    H134805   7.597   5.501   3.600  0.6254  0.9954 -0.5400
11622TIP3    H234806   7.658   5.398   3.692 -1.5012  0.4556  0.2819
11623TIP3   OH234807   5.074   3.712   6.528 -0.0005 -0.4503 -0.6142
11623TIP3    H134808   5.085   3.680   6.618 -1.1007 -0.1918 -0.3792
11623TIP3    H234809   4.987   3.681   6.502 -1.3656  2.7579 -0.1735
11624TIP3   OH234810   4.242   6.122   4.829 -0.1346 -0.0722 -0.3175
11624TIP3    H134811   4.161   6.079   4.858  1.1661 -2.2298  0.2199
11624TIP3    H234812   4.253   6.094   4.739 -0.5599  1.1385 -0.7572
11625TIP3   OH234813   1.307   1.404   0.035 -0.1216  0.1925 -0.6715
11625TIP3    H134814   1.348   1.378  -0.048 -0.8588  1.6460 -1.4989
11625TIP3    H234815   1.326   1.497   0.044 -0.7875  0.2410  0.3584
11626TIP3   OH234816   6.559   1.633   5.194  0.3962  0.0008  0.8223
11626TIP3    H134817   6.492   1.680   5.244 -0.0117  0.3764 -0.0507
11626TIP3    H234818   6.540   1.541   5.209 -1.3194  0.0825 -0.6809
11627TIP3   OH234819   4.828   0.976   1.333  0.4224 -0.2084 -0.9064
11627TIP3    H134820   4.796   0.941   1.416  1.8086 -1.5278 -0.9037
11627TIP3    H234821   4.800   0.912   1.267 -0.7276  0.8620 -1.4869
11628TIP3   OH234822   6.866   5.692   4.001  0.4834  1.2052  0.5249
11628TIP3    H134823   6.881   5.597   3.995  0.4775  1.2992 -1.1906
11628TIP3    H234824   6.894   5.715   4.090  1.3012 -0.2638  0.6689
11629TIP3   OH234825   5.383   6.992   5.403 -0.1268 -0.3000 -0.0073
11629TIP3    H134826   5.427   7.004   5.319 -0.6562  0.9321 -0.1247
11629TIP3    H234827   5.353   6.901   5.402 -0.8448 -0.0549 -1.5010
11630TIP3   OH234828   6.239   6.188   3.730 -0.5741 -0.8866 -0.1658
11630TIP3    H134829   6.326   6.150   3.740 -0.0097  0.9372  2.4334
11630TIP3    H234830   6.182   6.114   3.707  1.3327 -2.3842 -0.1810
11631TIP3   OH234831   4.715   3.410   5.691 -0.5499  0.1253 -0.1316
11631TIP3    H134832   4.808   3.387   5.698 -0.8880 -1.0289  0.5622
11631TIP3    H234833   4.685   3.416   5.782 -1.5308 -1.0375 -0.3705
11632TIP3   OH234834   7.991   6.606   3.869  0.3446 -0.0101 -0.2804
11632TIP3    H134835   7.988   6.544   3.943  2.6561  0.0289 -0.0929
11632TIP3    H234836   8.068   6.579   3.819 -1.0389  0.1455 -2.5540
11633TIP3   OH234837   4.285   4.005   5.368  0.1301  0.0313  0.9168
11633TIP3    H134838   4.242   4.023   5.452  0.4832  0.7238  0.9488
11633TIP3    H234839   4.243   3.925   5.337 -0.9514  0.5152  1.1089
11634TIP3   OH234840   4.087   5.374   4.371 -0.1451 -0.2986 -0.5043
11634TIP3    H134841   4.091   5.280   4.386  0.7815 -0.1187  0.3975
11634TIP3    H234842   4.154   5.390   4.304 -0.9111 -0.3958 -1.3094
11635TIP3   OH234843   5.263   6.928   4.405  0.7104 -0.2245 -0.1541
11635TIP3    H134844   5.177   6.929   4.446  1.0551  0.3669  0.5915
11635TIP3    H234845   5.250   6.965   4.318  0.3973  0.9496  0.3730
11636TIP3   OH234846   4.931   4.684   5.318 -0.0335  0.6544  0.6627
11636TIP3    H134847   4.902   4.682   5.227 -1.2792  1.2780  1.0328
11636TIP3    H234848   4.850   4.676   5.369  0.4778  2.1523  1.7323
11637TIP3   OH234849   5.915   3.376   6.016  0.3817 -0.2382 -0.7414
11637TIP3    H134850   6.002   3.337   6.027  0.2539 -0.5589 -0.8610
11637TIP3    H234851   5.917   3.454   6.071  0.1228 -1.2447  0.7672
11638TIP3   OH234852   6.941   5.670   3.428 -0.1198 -0.6877  0.1579
11638TIP3    H134853   6.934   5.760   3.461  0.8811 -0.0149 -1.3929
11638TIP3    H234854   7.005   5.629   3.486  0.5542  0.0563 -0.0426
11639TIP3   OH234855   6.419   5.902   3.964  0.4143  0.1741 -0.2078
11639TIP3    H134856   6.476   5.931   4.035  0.4152 -1.8114  0.6265
11639TIP3    H234857   6.330   5.918   3.996  0.4228 -0.2588  0.0241
11640TIP3   OH234858   5.232   5.932   4.873 -0.4052 -0.0951  0.3750
11640TIP3    H134859   5.138   5.952   4.875 -0.4342 -0.2761  0.8217
11640TIP3    H234860   5.244   5.867   4.942 -0.2766 -1.5129 -0.9571
11641TIP3   OH234861   6.970   5.414   4.543  0.2933 -0.3930  0.4002
11641TIP3    H134862   7.000   5.384   4.629  2.3555 -0.4124 -0.2962
11641TIP3    H234863   7.033   5.376   4.481  1.4478  3.1211 -0.7368
11642TIP3   OH234864   6.938   2.952   3.858 -0.1174 -0.0182  0.1385
11642TIP3    H134865   6.951   3.023   3.920 -1.1603  1.2304 -1.0244
11642TIP3    H234866   7.020   2.904   3.858  1.4900  2.6224 -0.8251
11643TIP3   OH234867   6.267   5.265   5.896  0.4838 -0.0656  0.4800
11643TIP3    H134868   6.335   5.303   5.840  0.3441  0.8388  0.9129
11643TIP3    H234869   6.213   5.340   5.922 -1.1950 -0.8860 -0.5482
11644TIP3   OH234870   4.863   4.902   5.697 -0.2449 -0.1347 -0.3834
11644TIP3    H134871   4.957   4.889   5.710  0.4309  1.9628 -2.6782
11644TIP3    H234872   4.840   4.971   5.759  0.0501  0.2809 -0.7251
11645TIP3   OH234873   6.036   7.529   4.047  0.3578 -0.7243  0.6593
11645TIP3    H134874   6.016   7.615   4.012  2.6485 -0.6615 -0.5538
11645TIP3    H234875   6.014   7.535   4.140 -2.6302  0.1197 -0.0449
11646TIP3   OH234876   6.029   6.178   3.410 -0.5200 -0.0660  0.0719
11646TIP3    H134877   6.012   6.267   3.441 -0.9944 -0.2498  0.3638
11646TIP3    H234878   5.944   6.135   3.416 -0.1494 -0.7310  0.5904
11647TIP3   OH234879   1.893   0.519   0.083 -0.0080  0.0925 -0.2427
11647TIP3    H134880   1.915   0.604   0.044  0.5085 -1.1139 -2.6487
11647TIP3    H234881   1.965   0.462   0.058 -1.5876 -1.7033 -0.7810
11648TIP3   OH234882   8.129   5.046   2.917  0.1287  0.3388  0.5278
11648TIP3    H134883   8.137   5.051   3.012  2.3225 -2.6256  0.5485
11648TIP3    H234884   8.049   4.997   2.902 -0.0567  0.5425  0.8470
11649TIP3   OH234885   5.785   5.512   2.817  0.0486 -0.1639  0.4282
11649TIP3    H134886   5.713   5.451   2.802 -0.7976  1.1367 -0.8939
11649TIP3    H234887   5.860   5.472   2.772 -0.9653  0.6457 -2.0621
11650TIP3   OH234888   6.937   6.066   4.346  0.7665  0.3293  0.2202
11650TIP3    H134889   6.898   6.137   4.295  1.6531  1.0524  0.5388
11650TIP3    H234890   6.948   6.102   4.434 -0.5343 -0.8421  0.8671
11651TIP3   OH234891   1.967   2.855   0.066  0.0583  0.2511  0.5673
11651TIP3    H134892   1.977   2.950   0.072  1.3813  0.1385  0.3445
11651TIP3    H234893   2.042   2.820   0.113  0.0078 -0.6823 -0.0310
11652TIP3   OH234894   5.350   3.877   5.981  0.0504 -0.0274 -0.7913
11652TIP3    H134895   5.305   3.794   5.997  0.0573  0.3091  1.0659
11652TIP3    H234896   5.439   3.864   6.014 -0.3112  1.1225  0.6856
11653TIP3   OH234897   6.158   4.829   4.654 -0.0917  0.0506  0.5317
11653TIP3    H134898   6.142   4.870   4.570  0.2922 -0.3997  0.2357
11653TIP3    H234899   6.254   4.829   4.664  0.0162 -2.1601 -0.1912
11654TIP3   OH234900   6.760   5.076   3.677  0.2810 -0.3648 -0.6636
11654TIP3    H134901   6.815   5.067   3.755  0.0131  1.1090 -0.2762
11654TIP3    H234902   6.773   5.167   3.650 -1.2377 -0.2829 -1.1259
11655TIP3   OH234903   1.674   2.023   0.164  0.6412 -0.1202 -0.3465
11655TIP3    H134904   1.718   1.970   0.097  1.7718 -0.0697  0.3302
11655TIP3    H234905   1.739   2.091   0.187  1.0560 -1.3108  2.1900
11656TIP3   OH234906   7.171   5.380   5.908 -0.0723 -0.0058 -0.1846
11656TIP3    H134907   7.119   5.458   5.894  0.9286  1.0636  1.7966
11656TIP3    H234908   7.116   5.324   5.963  0.8938  1.2130  2.0852
11657TIP3   OH234909   4.545   0.180   0.512 -0.1984 -0.2286 -0.0976
11657TIP3    H134910   4.518   0.093   0.539  0.1724 -0.5435 -0.7193
11657TIP3    H234911   4.563   0.171   0.418 -0.5158  0.6014 -0.2435
11658TIP3   OH234912   5.077   5.163   5.546  0.2144  0.0660  0.0235
11658TIP3    H134913   5.116   5.077   5.557 -1.2168 -0.4555  1.1683
11658TIP3    H234914   5.001   5.148   5.490 -0.5140  0.4560  0.9121
11659TIP3   OH234915   4.891   5.382   5.648 -0.2129  0.5087 -0.2570
11659TIP3    H134916   4.940   5.301   5.639 -0.6574  0.2935 -0.8136
11659TIP3    H234917   4.802   5.360   5.619 -1.3640  0.1825  3.2747
11660TIP3   OH234918   2.174   0.910   0.091 -0.2920  0.5748  0.4353
11660TIP3    H134919   2.214   0.922   0.177  1.6602  0.9886 -0.5101
11660TIP3    H234920   2.192   0.819   0.068 -1.1613  0.3479  0.6167
11661TIP3   OH234921   1.063   6.495   6.155 -0.4574 -0.5186 -0.0187
11661TIP3    H134922   1.031   6.407   6.173 -0.8640 -0.2145  0.7965
11661TIP3    H234923   1.039   6.545   6.233  1.3801 -0.1198  0.3171
11662TIP3   OH234924   6.013   5.704   3.935 -0.2486  0.3480  0.4298
11662TIP3    H134925   6.009   5.651   4.014 -2.8802  0.4515  0.4013
11662TIP3    H234926   6.097   5.682   3.895 -1.0138 -3.3758  0.7191
11663TIP3   OH234927   5.521   6.950   5.661  0.0306 -0.2326  0.2898
11663TIP3    H134928   5.539   7.037   5.699  1.0593 -0.0851 -0.5096
11663TIP3    H234929   5.433   6.957   5.624 -1.1319 -0.4685  2.8972
11664TIP3   OH234930   6.514   6.915   3.585 -0.0979  0.1057  0.2658
11664TIP3    H134931   6.598   6.917   3.539 -1.0507  1.9042 -1.4465
11664TIP3    H234932   6.535   6.946   3.674  1.1806 -0.3122  0.1247
11665TIP3   OH234933   5.382   6.469   5.388 -0.7197 -0.6857  0.0365
11665TIP3    H134934   5.367   6.379   5.418 -1.6380 -0.4193  0.3763
11665TIP3    H234935   5.404   6.460   5.296 -0.4651 -1.2919  0.1543
11666TIP3   OH234936   7.054   5.293   4.094  0.1661  0.4448  0.3653
11666TIP3    H134937   7.084   5.345   4.018  2.2165 -1.3735 -0.1079
11666TIP3    H234938   6.987   5.236   4.058 -0.7973  1.4604  0.5103
11667TIP3   OH234939   2.429   1.580   0.022  0.4757  0.0520 -0.1334
11667TIP3    H134940   2.515   1.611   0.050 -1.0284  1.3000  3.3247
11667TIP3    H234941   2.379   1.660   0.003 -0.7206 -0.5444  0.4278
11668TIP3   OH234942   6.922   3.750   4.748 -0.0318 -0.0503 -0.0289
11668TIP3    H134943   6.861   3.678   4.735 -0.1261  0.2619 -1.3736
11668TIP3    H234944   7.008   3.711   4.732  0.1777 -0.5784  2.2200
11669TIP3   OH234945   6.482   3.948   6.260 -0.0164 -0.0031 -0.0839
11669TIP3    H134946   6.444   4.036   6.265 -0.1973 -0.1955  2.1461
11669TIP3    H234947   6.406   3.889   6.262  0.1616 -0.2496 -0.5254
11670TIP3   OH234948   4.764   5.605   5.847 -0.1876  0.6351  0.0486
11670TIP3    H134949   4.757   5.543   5.774  0.5975  0.6564 -0.0482
11670TIP3    H234950   4.804   5.555   5.918 -1.5757  0.4192  0.7105
11671TIP3   OH234951   3.403   0.462   0.079 -0.0559 -0.3020  0.7259
11671TIP3    H134952   3.309   0.468   0.061  0.0593  0.8580  0.4950
11671TIP3    H234953   3.432   0.553   0.086  1.2057 -0.6465 -0.0007
11672TIP3   OH234954   4.418   1.497   0.801  0.1337 -1.0077 -0.5098
11672TIP3    H134955   4.426   1.467   0.891 -1.6409  1.1332  0.3882
11672TIP3    H234956   4.475   1.573   0.795 -3.0720  1.5595  0.1111
11673TIP3   OH234957   8.310   4.075   6.138  0.0543  0.5559  0.5977
11673TIP3    H134958   8.302   3.993   6.088  1.1794  0.5921  0.3575
11673TIP3    H234959   8.227   4.120   6.122  0.0120  0.1187 -0.4657
11674TIP3   OH234960   6.807   3.383   4.951 -0.1355 -0.4707  0.4732
11674TIP3    H134961   6.791   3.383   5.045 -0.8463  0.7249  0.3728
11674TIP3    H234962   6.884   3.439   4.939 -1.1475  0.8869  0.1966
11675TIP3   OH234963   5.843   7.877   0.599  0.1073 -0.7580  0.1746
11675TIP3    H134964   5.791   7.824   0.660  0.5426  0.3011  1.5167
11675TIP3    H234965   5.788   7.887   0.522 -1.3408 -0.3861  1.2282
11676TIP3   OH234966   2.803   1.459   1.148  0.4835  0.1209 -0.4678
11676TIP3    H134967   2.789   1.467   1.242  1.7239  0.4429 -0.2962
11676TIP3    H234968   2.837   1.370   1.136 -0.5771 -0.2556 -0.7342
11677TIP3   OH234969   7.520   6.017   4.123 -0.6182  0.5284  0.3464
11677TIP3    H134970   7.527   5.975   4.037  0.9415  0.4558  0.4873
11677TIP3    H234971   7.434   5.990   4.156 -0.1953 -1.4898 -0.1415
11678TIP3   OH234972   7.291   4.147   6.009 -0.4609  0.1877  0.2997
11678TIP3    H134973   7.369   4.164   5.956 -0.8077  1.2890  0.1398
11678TIP3    H234974   7.299   4.054   6.033  0.3280  0.0011 -0.6302
11679TIP3   OH234975   6.643   3.609   5.058 -0.0126  0.1843 -0.6092
11679TIP3    H134976   6.658   3.697   5.024  1.2650 -0.2493 -1.1912
11679TIP3    H234977   6.721   3.589   5.111  0.0756 -0.8955 -1.1194
11680TIP3   OH234978   6.875   4.366   5.678 -0.5902  0.0138  0.0807
11680TIP3    H134979   6.907   4.341   5.765 -1.9166  0.0520  0.5971
11680TIP3    H234980   6.822   4.291   5.650 -0.0998 -0.0294 -0.7386
11681TIP3   OH234981   5.539   4.871   4.838  0.1899 -0.5784  0.1733
11681TIP3    H134982   5.500   4.790   4.806  0.4589 -0.6417  0.0063
11681TIP3    H234983   5.521   4.935   4.770  2.0343 -1.0569 -0.7937
11682TIP3   OH234984   6.224   4.284   6.088  0.1944  0.3710 -0.6199
11682TIP3    H134985   6.219   4.196   6.048 -1.3535  0.4016 -0.5106
11682TIP3    H234986   6.206   4.344   6.015  0.2670  0.5690 -0.4743
11683TIP3   OH234987   7.242   4.473   5.864  0.4419  0.8267 -0.3346
11683TIP3    H134988   7.229   4.539   5.797  1.2435  1.2761 -0.0496
11683TIP3    H234989   7.308   4.414   5.828 -0.0233  0.3740 -0.4494
11684TIP3   OH234990   7.942   4.740   5.872 -0.3627 -0.0434  0.2624
11684TIP3    H134991   7.985   4.673   5.925 -0.0694  0.1540  0.2748
11684TIP3    H234992   7.939   4.817   5.929  0.4615  0.3380 -0.2012
11685TIP3   OH234993   5.801   4.683   6.606  0.2519  0.5765 -0.3181
11685TIP3    H134994   5.768   4.714   6.522  0.1937 -0.0223 -0.5208
11685TIP3    H234995   5.845   4.601   6.585  0.4339  0.5388  0.2022
11686TIP3   OH234996   7.364   3.437   6.841  0.0058 -0.3363 -0.3580
11686TIP3    H134997   7.434   3.495   6.871 -0.9400  0.8912 -0.4922
11686TIP3    H234998   7.356   3.371   6.910  0.7102  0.0206  0.0650
11687TIP3   OH234999   1.802   6.734   1.111  0.3539  0.2801 -0.3855
11687TIP3    H135000   1.829   6.799   1.047 -0.4441  0.1893 -0.8095
11687TIP3    H235001   1.776   6.658   1.059 -3.4249  1.3066 -0.1561
11688TIP3   OH235002   3.992   4.151   5.895 -0.4661 -0.1196 -0.5070
11688TIP3    H135003   3.900   4.131   5.916 -0.5173 -0.4272 -1.0258
11688TIP3    H235004   4.024   4.073   5.850  0.1809 -0.1882  0.0703
11689TIP3   OH235005   6.061   4.705   5.465 -0.2944 -0.2166 -0.2417
11689TIP3    H135006   6.071   4.797   5.492  1.5086 -0.1371 -1.0773
11689TIP3    H235007   6.084   4.654   5.542  0.0797  0.0379 -0.1812
11690TIP3   OH235008   6.403   4.527   6.547 -0.5258  0.2691  0.1390
11690TIP3    H135009   6.328   4.468   6.558  1.6547 -2.3997  1.2420
11690TIP3    H235010   6.428   4.516   6.455 -0.7165  0.1673  0.0991
11691TIP3   OH235011   8.185   0.392   5.728  0.4193 -0.0237  0.2978
11691TIP3    H135012   8.165   0.444   5.650  1.6173 -0.1818 -0.1243
11691TIP3    H235013   8.209   0.457   5.795  0.9927  0.0241  0.0486
11692TIP3   OH235014   4.969   6.571   3.741  0.9234  0.2447  0.4706
11692TIP3    H135015   4.990   6.585   3.833  0.1585  0.8696  0.5649
11692TIP3    H235016   5.033   6.625   3.693 -0.4302  2.1713  0.7535
11693TIP3   OH235017   2.903   0.661   0.273 -0.1421  0.0322  0.0384
11693TIP3    H135018   2.809   0.644   0.272 -0.1797  0.2573 -1.7652
11693TIP3    H235019   2.942   0.576   0.295 -0.6923 -0.5125 -1.0552
11694TIP3   OH235020   3.361   3.066   1.617  0.9515  0.2143 -0.1220
11694TIP3    H135021   3.346   2.991   1.561 -1.8118 -1.0214  2.1329
11694TIP3    H235022   3.328   3.141   1.567 -2.4669 -1.0052  0.1652
11695TIP3   OH235023   7.626   5.318   3.838  0.3645 -0.2825 -0.1904
11695TIP3    H135024   7.663   5.230   3.840 -0.6589 -0.7394 -0.8747
11695TIP3    H235025   7.617   5.342   3.930  1.1175 -0.6806 -0.0012
11696TIP3   OH235026   6.110   5.019   6.852  0.0355 -0.0983  0.1744
11696TIP3    H135027   6.126   4.971   6.771 -0.9530  1.6039 -1.0759
11696TIP3    H235028   6.188   5.073   6.863  0.7126 -1.2375  1.0429
11697TIP3   OH235029   6.452   5.162   6.549 -0.3746  0.5139 -0.8683
11697TIP3    H135030   6.523   5.108   6.584 -2.4775 -1.7421  0.0474
11697TIP3    H235031   6.427   5.218   6.622  0.4335  1.3257 -1.1979
11698TIP3   OH235032   1.012   6.873   2.837  0.8702  0.1871 -0.6157
11698TIP3    H135033   0.997   6.966   2.819 -1.0692 -0.1596 -0.8419
11698TIP3    H235034   0.997   6.829   2.753  1.4153 -0.3716 -0.4256
11699TIP3   OH235035   7.802   5.145   5.259 -0.8621  0.5042  0.1582
11699TIP3    H135036   7.830   5.119   5.171  0.2450  2.0944  0.0330
11699TIP3    H235037   7.726   5.201   5.244 -1.1090  0.1983  0.2587
11700TIP3   OH235038   7.364   6.043   4.635  0.1726  0.2660 -0.5174
11700TIP3    H135039   7.336   5.961   4.675  2.0712  0.0945  0.5107
11700TIP3    H235040   7.315   6.048   4.553 -0.8720 -1.2789 -0.0020
11701TIP3   OH235041   6.034   5.866   6.498  0.6972 -0.2362 -0.3835
11701TIP3    H135042   6.064   5.776   6.511  0.7852 -0.3978 -1.6311
11701TIP3    H235043   6.113   5.914   6.473  0.9343  0.5190  1.7418
11702TIP3   OH235044   6.077   6.140   6.862 -0.0701 -0.3298 -0.0343
11702TIP3    H135045   6.166   6.160   6.893 -0.0844  0.5143 -0.5252
11702TIP3    H235046   6.020   6.193   6.917 -0.1384  0.6255 -1.0103
11703TIP3   OH235047   5.567   5.418   5.843 -0.0906 -0.3058  0.0038
11703TIP3    H135048   5.500   5.471   5.801  0.3359 -0.4463 -0.8486
11703TIP3    H235049   5.568   5.449   5.934 -1.4140 -0.4052  0.0660
11704TIP3   OH235050   8.421   5.569   5.660 -0.4830 -0.1271 -0.7828
11704TIP3    H135051   8.452   5.585   5.749  0.1701 -1.5592 -0.7405
11704TIP3    H235052   8.327   5.588   5.663 -0.4069  0.1088  0.1321
11705TIP3   OH235053   2.413   1.259   0.782 -0.1819 -0.3721 -0.2948
11705TIP3    H135054   2.478   1.315   0.826 -0.4314  0.8268 -1.4152
11705TIP3    H235055   2.335   1.314   0.776  0.3281  0.0828 -3.6484
11706TIP3   OH235056   5.800   4.632   6.059  0.6753 -0.4971  0.0240
11706TIP3    H135057   5.710   4.665   6.053  1.2632  1.3145  0.5958
11706TIP3    H235058   5.811   4.577   5.982 -0.3431  0.7961 -1.0765
11707TIP3   OH235059   6.133   5.230   6.366  0.2845  0.0506 -0.3096
11707TIP3    H135060   6.137   5.256   6.459 -1.3333  1.2909 -0.5687
11707TIP3    H235061   6.098   5.141   6.367 -0.7379  0.4605  0.2022
11708TIP3   OH235062   6.103   2.943   4.146  0.5219 -0.4782 -0.0931
11708TIP3    H135063   6.177   2.993   4.182 -1.1892  2.3575 -0.3442
11708TIP3    H235064   6.053   2.916   4.223 -1.0362  2.2377 -0.0987
11709TIP3   OH235065   4.923   5.638   5.213 -0.0346  0.2871  0.1310
11709TIP3    H135066   4.954   5.627   5.303  0.6962 -0.8822 -0.2508
11709TIP3    H235067   4.951   5.726   5.188 -0.9485  0.9306  1.3142
11710TIP3   OH235068   4.084   1.178   0.466  0.4253  0.2551 -0.3873
11710TIP3    H135069   4.037   1.100   0.494  0.2646  0.9194  1.2067
11710TIP3    H235070   4.173   1.166   0.499 -0.3644  2.1635  2.6668
11711TIP3   OH235071   6.702   5.508   5.772  0.4811  0.2677  0.3054
11711TIP3    H135072   6.656   5.509   5.856  0.0258 -3.2851  0.1770
11711TIP3    H235073   6.793   5.528   5.794  0.3611 -0.6348  1.6412
11712TIP3   OH235074   0.855   7.488   0.458  0.2109  0.7599  0.1574
11712TIP3    H135075   0.911   7.529   0.525  0.4799 -1.6432  1.4674
11712TIP3    H235076   0.774   7.538   0.461 -0.5923 -0.6240  3.8599
11713TIP3   OH235077   6.968   4.044   6.677 -0.4887 -0.2902  0.0777
11713TIP3    H135078   6.978   3.965   6.730 -1.3657  0.6133  1.6332
11713TIP3    H235079   6.886   4.030   6.629 -0.3529 -0.5525 -0.0844
11714TIP3   OH235080   8.278   5.647   3.955 -0.6473 -0.4508 -0.7197
11714TIP3    H135081   8.338   5.598   4.011 -1.0185 -0.4513 -0.3169
11714TIP3    H235082   8.278   5.601   3.872 -0.7036 -0.9099 -0.4634
11715TIP3   OH235083   5.231   3.787   6.305 -0.0398 -0.4839  0.1316
11715TIP3    H135084   5.220   3.745   6.390  0.1579 -0.3562  0.2208
11715TIP3    H235085   5.322   3.816   6.304  0.3126 -1.5726 -0.6151
11716TIP3   OH235086   3.532   2.036   0.449 -0.6623  0.1942  0.1732
11716TIP3    H135087   3.444   2.050   0.415 -1.0310  1.2997  1.5098
11716TIP3    H235088   3.561   1.953   0.411 -2.7701 -0.8044  0.7296
11717TIP3   OH235089   5.715   5.509   5.223 -0.2642 -0.4250  0.4267
11717TIP3    H135090   5.628   5.483   5.255 -0.6040  0.1385 -0.0288
11717TIP3    H235091   5.776   5.455   5.273 -0.8234 -0.0220  1.5754
11718TIP3   OH235092   6.444   4.016   5.118 -0.1443  0.5469 -0.1337
11718TIP3    H135093   6.427   3.939   5.172 -0.0208  1.1374  0.7563
11718TIP3    H235094   6.417   4.090   5.172  1.5470  1.2439 -0.2193
11719TIP3   OH235095   3.570   1.984   5.767  0.2228  0.5365  0.4754
11719TIP3    H135096   3.559   2.029   5.683  1.1562 -0.3621 -0.1336
11719TIP3    H235097   3.578   2.055   5.831 -0.2380  1.2303 -0.2168
11720TIP3   OH235098   5.259   5.853   4.559 -0.0874  0.0311  0.4236
11720TIP3    H135099   5.347   5.822   4.577 -0.5678  0.1074  3.0441
11720TIP3    H235100   5.260   5.945   4.582 -1.0142 -0.1149  1.0771
11721TIP3   OH235101   2.425   0.695   1.213  0.0496  0.2651 -0.0460
11721TIP3    H135102   2.333   0.723   1.210  0.2104  0.7674 -0.5298
11721TIP3    H235103   2.463   0.732   1.134  0.4207 -0.8519 -0.4006
11722TIP3   OH235104   3.204   0.933   0.172  0.5205  0.1803 -0.0343
11722TIP3    H135105   3.114   0.911   0.149  0.7935 -1.6373  0.4996
11722TIP3    H235106   3.246   0.954   0.089 -0.0993 -0.1310 -0.4277
11723TIP3   OH235107   4.032   1.287   2.755  0.0177 -0.0472  0.5585
11723TIP3    H135108   4.103   1.350   2.740 -1.7211  2.0262  0.6748
11723TIP3    H235109   4.003   1.264   2.667 -0.7486  1.0095  0.5197
11724TIP3   OH235110   5.735   6.375   4.577 -0.0922  0.0123 -0.3781
11724TIP3    H135111   5.774   6.420   4.502 -0.0193 -0.9214 -0.9069
11724TIP3    H235112   5.737   6.282   4.553 -2.2680 -0.0792 -0.2373
11725TIP3   OH235113   4.342   6.508   6.744 -0.6982 -0.3905  0.0366
11725TIP3    H135114   4.417   6.497   6.686 -0.3357 -0.9029  0.5932
11725TIP3    H235115   4.334   6.602   6.756 -0.6438 -0.2944 -0.6717
11726TIP3   OH235116   8.139   3.090   5.753 -0.0922 -0.0445  0.6240
11726TIP3    H135117   8.132   3.057   5.842 -1.0099 -0.7947  0.2838
11726TIP3    H235118   8.094   3.174   5.755 -0.3898 -0.2073  0.7967
11727TIP3   OH235119   3.797   5.706   5.063  0.0805  0.7370 -0.1217
11727TIP3    H135120   3.735   5.635   5.080  1.0274  0.0181  0.3784
11727TIP3    H235121   3.862   5.668   5.004  0.9701  0.9794  0.6951
11728TIP3   OH235122   7.830   0.819   4.724 -0.1086 -0.1611 -0.1952
11728TIP3    H135123   7.756   0.809   4.664  0.1882 -2.5246 -0.2151
11728TIP3    H235124   7.888   0.881   4.681 -0.5196 -0.8310 -1.7344
11729TIP3   OH235125   6.468   7.112   5.089  0.0226  0.2824 -0.3126
11729TIP3    H135126   6.438   7.135   5.177  0.0641 -0.2999 -0.1499
11729TIP3    H235127   6.429   7.027   5.071  0.7719 -0.0239 -0.4940
11730TIP3   OH235128   5.119   5.168   4.610 -0.1141  0.3199 -0.0672
11730TIP3    H135129   5.024   5.171   4.597  0.0158 -0.7160 -1.3480
11730TIP3    H235130   5.130   5.152   4.704 -1.1948  0.7958  0.1438
11731TIP3   OH235131   0.257   3.764   5.703 -0.0271  0.2958  0.3283
11731TIP3    H135132   0.266   3.774   5.798  0.2269  2.7689  0.0857
11731TIP3    H235133   0.291   3.847   5.668  0.1754 -0.7269 -1.9323
11732TIP3   OH235134   4.422   5.893   4.311  0.0747 -0.1965 -0.3642
11732TIP3    H135135   4.391   5.941   4.235  0.1353 -0.0476 -0.2940
11732TIP3    H235136   4.344   5.848   4.345 -0.0134 -0.0197 -0.3341
11733TIP3   OH235137   3.600   2.720   1.297  0.0939 -0.0591  0.2807
11733TIP3    H135138   3.603   2.815   1.296  1.2211 -0.0691 -2.1377
11733TIP3    H235139   3.682   2.693   1.336  0.4347 -0.0291 -0.4040
11734TIP3   OH235140   2.956   0.380   0.314 -0.4235 -0.5354 -0.3911
11734TIP3    H135141   2.919   0.378   0.226 -0.4892 -0.7649 -0.3573
11734TIP3    H235142   2.881   0.375   0.372 -0.4338  0.3836 -0.3173
11735TIP3   OH235143   0.255   2.033   4.079 -0.2281 -0.2777  0.5598
11735TIP3    H135144   0.206   2.113   4.099  2.6107  1.3658  1.2507
11735TIP3    H235145   0.210   1.996   4.003 -0.5933  2.9104 -0.8696
11736TIP3   OH235146   5.554   3.986   6.257  0.5792 -0.0049 -0.3581
11736TIP3    H135147   5.626   4.012   6.315  2.0976 -1.7404 -1.3853
11736TIP3    H235148   5.543   3.892   6.274  1.2723 -0.6257 -3.0301
11737TIP3   OH235149   5.564   3.591   5.076 -0.2165 -0.5187 -0.6547
11737TIP3    H135150   5.594   3.682   5.072 -1.4692 -0.1049 -0.8594
11737TIP3    H235151   5.541   3.569   4.985 -0.9729 -0.6753 -0.4284
11738TIP3   OH235152   4.904   4.781   6.302 -0.3200 -0.0480  0.0826
11738TIP3    H135153   4.889   4.834   6.223 -0.4925 -0.6711 -0.3028
11738TIP3    H235154   4.955   4.706   6.272  1.1180  0.5913  0.8830
11739TIP3   OH235155   6.005   3.916   4.446 -0.1777  0.2848  0.0821
11739TIP3    H135156   5.956   3.919   4.365 -0.1738  0.1137  0.0719
11739TIP3    H235157   6.073   3.850   4.430  0.9011  1.5029 -0.3634
11740TIP3   OH235158   5.023   5.726   4.678  0.3211 -0.0158  0.0386
11740TIP3    H135159   4.953   5.778   4.718  1.4017  0.2730  1.5946
11740TIP3    H235160   5.101   5.781   4.687  0.4580  0.4285 -3.2759
11741TIP3   OH235161   6.321   3.946   4.458 -0.2237 -0.3363  0.0200
11741TIP3    H135162   6.275   4.029   4.444  1.3090  0.4354 -0.5448
11741TIP3    H235163   6.339   3.945   4.552  1.1930  0.7567 -0.2257
11742TIP3   OH235164   5.676   5.112   6.582 -0.3846  0.1326  0.1577
11742TIP3    H135165   5.602   5.109   6.644  1.3485 -0.7160  2.2497
11742TIP3    H235166   5.741   5.054   6.620  1.2761  0.6721 -1.7991
11743TIP3   OH235167   4.415   4.709   6.205 -0.1069 -0.1911  0.0258
11743TIP3    H135168   4.377   4.758   6.278  1.1303 -0.9959  1.2518
11743TIP3    H235169   4.485   4.658   6.246 -0.7901 -2.2897 -1.3563
11744TIP3   OH235170   4.733   4.231   5.453 -0.1240 -0.2817  0.6402
11744TIP3    H135171   4.752   4.200   5.541 -1.4083 -0.1042  0.9957
11744TIP3    H235172   4.666   4.171   5.420 -1.2858  0.9769  0.6386
11745TIP3   OH235173   7.169   4.572   5.362 -0.1388 -0.2166 -0.8337
11745TIP3    H135174   7.164   4.482   5.392  0.1444 -0.4816 -1.5763
11745TIP3    H235175   7.140   4.569   5.271 -1.3771  0.6429 -0.4789
11746TIP3   OH235176   2.803   5.724   3.778 -0.4050  0.4430 -0.0745
11746TIP3    H135177   2.878   5.696   3.726 -0.5846 -1.6951  0.7700
11746TIP3    H235178   2.734   5.741   3.713  1.1737  3.8226 -0.9696
11747TIP3   OH235179   7.550   4.455   4.149  0.1774 -0.8653  0.0253
11747TIP3    H135180   7.472   4.503   4.121  0.7848  0.7053  0.9423
11747TIP3    H235181   7.610   4.523   4.179  1.6015 -2.1150  0.0729
11748TIP3   OH235182   2.875   0.473   1.645  0.1704  0.0061 -0.9604
11748TIP3    H135183   2.852   0.402   1.704  0.7343 -1.0864 -2.0185
11748TIP3    H235184   2.802   0.477   1.583  1.1059 -1.0617 -2.1555
11749TIP3   OH235185   4.752   5.413   6.232 -0.2151  0.7274 -0.7597
11749TIP3    H135186   4.676   5.469   6.244 -0.1681  0.9638 -1.5781
11749TIP3    H235187   4.826   5.465   6.264 -0.8761 -1.0712  4.1920
11750TIP3   OH235188   3.964   6.443   5.216 -0.1085  0.1602 -0.0032
11750TIP3    H135189   3.901   6.468   5.149  0.4517  0.4514 -0.4316
11750TIP3    H235190   3.929   6.479   5.297  0.4349  1.9421 -0.5313
11751TIP3   OH235191   0.346   4.944   6.821 -0.7863  0.6859  0.1244
11751TIP3    H135192   0.378   4.860   6.789 -0.3222  0.9303 -0.0570
11751TIP3    H235193   0.251   4.940   6.808 -1.0723 -0.7747  2.3917
11752TIP3   OH235194   4.916   0.303   0.431 -0.1748  0.6037 -0.2586
11752TIP3    H135195   4.910   0.392   0.464 -0.0485  0.1237  1.1087
11752TIP3    H235196   4.923   0.249   0.509 -3.4338 -0.8783 -0.8939
11753TIP3   OH235197   6.766   4.592   4.204  0.0643  0.7540  0.2098
11753TIP3    H135198   6.720   4.552   4.278  0.2986  1.0954  0.5406
11753TIP3    H235199   6.790   4.518   4.148  2.4448  0.1915  1.9041
11754TIP3   OH235200   7.154   3.049   4.733  0.5746  0.5517  0.3919
11754TIP3    H135201   7.120   3.108   4.800 -0.0766  0.8893 -0.2323
11754TIP3    H235202   7.146   3.098   4.651 -2.2489 -1.2991 -0.4909
11755TIP3   OH235203   0.133   6.413   4.700 -0.3075 -0.0909  0.0190
11755TIP3    H135204   0.108   6.387   4.788 -0.3641 -0.0089  0.0271
11755TIP3    H235205   0.221   6.377   4.688  0.3291  1.2186  0.6754
11756TIP3   OH235206   1.472   4.347   5.680 -0.3566 -0.0376 -0.3222
11756TIP3    H135207   1.491   4.299   5.760  0.3028  0.2730 -0.2847
11756TIP3    H235208   1.379   4.369   5.687 -0.2671  0.1285  0.4324
11757TIP3   OH235209   4.569   5.962   6.729  0.0873  0.4161  0.0452
11757TIP3    H135210   4.516   6.024   6.679 -0.9798 -0.6379 -0.1538
11757TIP3    H235211   4.658   5.995   6.721 -0.4732  1.9587 -0.0027
11758TIP3   OH235212   7.541   4.425   3.271  0.0364 -0.2544  0.1545
11758TIP3    H135213   7.503   4.351   3.224  0.4269  0.1216 -0.7774
11758TIP3    H235214   7.500   4.424   3.357  0.2459 -1.7272  0.2428
11759TIP3   OH235215   6.688   5.738   5.200 -0.2006  0.1495 -0.0364
11759TIP3    H135216   6.690   5.776   5.287 -0.3574  1.0858 -0.4343
11759TIP3    H235217   6.743   5.660   5.206  0.9856  1.0195  0.5149
11760TIP3   OH235218   1.708   6.000   3.494  0.0409 -0.1955 -0.1954
11760TIP3    H135219   1.745   5.927   3.444 -0.8596 -0.9846  0.2547
11760TIP3    H235220   1.627   6.021   3.448 -0.3456 -0.3381  0.4149
11761TIP3   OH235221   7.124   5.303   2.329 -0.1229 -0.0822 -0.2887
11761TIP3    H135222   7.165   5.372   2.276  0.3655 -1.3664 -1.6095
11761TIP3    H235223   7.035   5.297   2.295 -0.3588  0.3208  0.2516
11762TIP3   OH235224   7.840   4.478   6.322  0.7901  0.0888 -0.0526
11762TIP3    H135225   7.786   4.525   6.384  0.5469  0.9810 -0.9295
11762TIP3    H235226   7.802   4.499   6.236  0.8604 -1.4527 -0.4741
11763TIP3   OH235227   6.682   5.027   2.509  0.4542  0.2815 -0.4066
11763TIP3    H135228   6.687   4.962   2.439  0.4011  1.2782 -1.3585
11763TIP3    H235229   6.773   5.051   2.526  0.4817 -0.1396  0.0310
11764TIP3   OH235230   7.554   3.990   5.463 -0.0021  0.6778  0.3235
11764TIP3    H135231   7.577   3.897   5.460 -0.0385  0.6273  1.3141
11764TIP3    H235232   7.481   3.998   5.403  0.6500  0.2543 -0.5368
11765TIP3   OH235233   7.515   3.434   4.705  0.0954  0.1565  0.7056
11765TIP3    H135234   7.438   3.418   4.759 -0.3043  0.1286  0.1287
11765TIP3    H235235   7.560   3.507   4.748 -0.5093  0.4954  0.7614
11766TIP3   OH235236   0.517   3.644   5.657  0.1867  0.4075 -0.1810
11766TIP3    H135237   0.445   3.673   5.600 -1.2902 -1.5554  0.6261
11766TIP3    H235238   0.562   3.725   5.682 -1.8866  1.6990 -0.5200
11767TIP3   OH235239   3.652   1.346   0.024  0.8154 -0.0218  0.2795
11767TIP3    H135240   3.684   1.436   0.033 -3.9352  1.7024  1.5334
11767TIP3    H235241   3.676   1.304   0.107 -0.6398  1.3994  1.4525
11768TIP3   OH235242   5.023   5.697   5.762 -0.7541 -0.4692 -0.0632
11768TIP3    H135243   4.933   5.678   5.788 -1.0577 -0.2210 -0.9277
11768TIP3    H235244   5.024   5.682   5.668 -0.1040  0.3604 -0.1889
11769TIP3   OH235245   7.280   5.440   3.336 -0.1197  0.1981  0.3614
11769TIP3    H135246   7.318   5.355   3.315  0.4647 -0.0021  2.0797
11769TIP3    H235247   7.198   5.418   3.381  0.3379  0.5151  1.3645
11770TIP3   OH235248   1.819   6.917   0.068  0.6282  0.5272  0.1950
11770TIP3    H135249   1.854   6.993   0.023  0.2257  0.2448 -0.5954
11770TIP3    H235250   1.789   6.859  -0.002  1.4597 -0.6103  0.7714
11771TIP3   OH235251   1.190   2.515   4.809 -0.2049 -0.2029 -0.3261
11771TIP3    H135252   1.235   2.460   4.745 -0.1065  1.9278 -2.1444
11771TIP3    H235253   1.098   2.508   4.786 -0.2146  0.1631 -0.4098
11772TIP3   OH235254   0.213   4.653   5.310 -0.3318 -0.5813  0.0596
11772TIP3    H135255   0.212   4.702   5.392  0.4926  0.6212 -0.6241
11772TIP3    H235256   0.142   4.692   5.259  0.6805  0.3050 -0.7021
11773TIP3   OH235257   8.293   6.103   4.422  0.2936 -0.8096 -0.4679
11773TIP3    H135258   8.350   6.051   4.478  0.9244  1.1606  0.7973
11773TIP3    H235259   8.343   6.116   4.341  1.3965  0.3407  0.3748
11774TIP3   OH235260   4.421   1.117   0.224  0.3333 -0.5624 -0.0277
11774TIP3    H135261   4.479   1.190   0.203  0.1353 -0.3930  0.0130
11774TIP3    H235262   4.341   1.135   0.175 -0.3432  0.1312  1.2995
11775TIP3   OH235263   4.435   2.088   1.406 -0.5284 -0.0540 -0.0032
11775TIP3    H135264   4.346   2.124   1.403  0.1225  2.1777  4.2263
11775TIP3    H235265   4.490   2.162   1.433  2.3822 -1.8194 -0.9067
11776TIP3   OH235266   6.361   4.751   6.142 -0.0530  0.1233  0.1648
11776TIP3    H135267   6.329   4.803   6.068 -2.1959 -0.7475  0.4293
11776TIP3    H235268   6.397   4.672   6.103  0.6841  0.5738 -0.0711
11777TIP3   OH235269   7.303   4.924   6.552 -0.5883  0.3082 -0.3334
11777TIP3    H135270   7.252   4.845   6.531 -0.6092  0.6340 -1.5848
11777TIP3    H235271   7.290   4.937   6.645 -1.5331 -0.5074 -0.3381
11778TIP3   OH235272   1.523   4.586   5.425  0.0378  0.3848 -0.1083
11778TIP3    H135273   1.483   4.671   5.409 -0.9541 -0.1016 -0.2414
11778TIP3    H235274   1.462   4.523   5.386 -0.2411 -0.5192  1.7631
11779TIP3   OH235275   0.480   5.738   5.003 -0.0176  0.2943 -0.0418
11779TIP3    H135276   0.547   5.784   4.951  0.2259 -1.3755 -1.2517
11779TIP3    H235277   0.516   5.736   5.091  2.4836 -2.2524 -1.0384
11780TIP3   OH235278   7.982   5.339   5.359 -0.4669  0.4147  0.8858
11780TIP3    H135279   8.067   5.341   5.315 -0.2333  0.0624  1.3084
11780TIP3    H235280   7.935   5.267   5.317  0.0435 -0.4205  1.7169
11781TIP3   OH235281   5.066   2.382   1.598 -0.3040 -0.0182 -0.3070
11781TIP3    H135282   5.038   2.379   1.506 -0.0534 -1.8388 -0.3345
11781TIP3    H235283   5.139   2.444   1.599 -0.1004 -0.2345 -1.3842
11782TIP3   OH235284   0.260   5.738   4.836  0.4483  0.0480  0.2145
11782TIP3    H135285   0.334   5.739   4.897 -0.7091 -1.1343  1.6668
11782TIP3    H235286   0.184   5.758   4.890 -0.5201 -0.4517 -0.9393
11783TIP3   OH235287   8.209   5.156   5.351  0.4528 -0.0314  0.0978
11783TIP3    H135288   8.290   5.206   5.356  0.7234 -0.3264 -1.1495
11783TIP3    H235289   8.198   5.117   5.438  0.7926  1.3207  0.7568
11784TIP3   OH235290   6.625   5.090   5.424 -0.1314 -0.2854 -0.1227
11784TIP3    H135291   6.559   5.078   5.493  0.0360 -0.0867  0.0693
11784TIP3    H235292   6.675   5.167   5.452 -0.8514  0.5514 -1.0773
11785TIP3   OH235293   2.064   5.887   4.037 -0.8648 -0.1990 -0.5871
11785TIP3    H135294   2.034   5.948   3.969  0.8395  0.5250 -0.7140
11785TIP3    H235295   2.099   5.812   3.988  0.4647  0.3705 -0.5262
11786TIP3   OH235296   7.256   4.585   6.845  0.5959 -0.1590  0.4035
11786TIP3    H135297   7.335   4.595   6.898  0.9953  1.8726 -0.5237
11786TIP3    H235298   7.199   4.655   6.875  0.7302  0.8640 -1.6674
11787TIP3   OH235299   7.877   3.647   4.965  0.6580 -0.1855 -0.3853
11787TIP3    H135300   7.965   3.625   4.932  1.5730  1.7740  0.6176
11787TIP3    H235301   7.893   3.715   5.030 -1.7143  1.0180 -1.0040
11788TIP3   OH235302   6.493   4.559   5.981  0.5332  0.3454  0.2861
11788TIP3    H135303   6.583   4.567   5.948  1.2198 -2.4209  1.3731
11788TIP3    H235304   6.444   4.523   5.907  1.1987 -1.9324  0.9148
11789TIP3   OH235305   6.769   5.307   5.546  0.4022  0.3962  0.5807
11789TIP3    H135306   6.741   5.305   5.637  0.4557 -1.1177  0.5854
11789TIP3    H235307   6.696   5.347   5.499  0.0008  0.3516  1.1664
11790TIP3   OH235308   3.462   6.638   4.463  0.3304  0.0213 -0.6962
11790TIP3    H135309   3.537   6.679   4.506  0.3023 -0.4849 -0.1576
11790TIP3    H235310   3.386   6.675   4.507  0.2695  0.4385 -1.1553
11791TIP3   OH235311   8.345   4.254   2.818  0.2501 -0.3325  0.0546
11791TIP3    H135312   8.279   4.319   2.793 -0.2453 -0.6327  0.5684
11791TIP3    H235313   8.392   4.236   2.737  0.1370  0.3738 -0.1787
11792TIP3   OH235314   8.162   4.545   4.305  0.0935 -0.3068  0.5089
11792TIP3    H135315   8.212   4.482   4.357  0.1995 -1.7220 -1.2883
11792TIP3    H235316   8.228   4.598   4.262  0.1291 -2.7116 -2.5251
11793TIP3   OH235317   6.138   6.338   5.507  1.0203  0.3056  0.1426
11793TIP3    H135318   6.176   6.425   5.516  1.4881  0.0898  0.2511
11793TIP3    H235319   6.044   6.353   5.503  1.1149  0.8348 -0.0667
11794TIP3   OH235320   5.329   4.775   5.962 -1.0561  0.1629 -0.1576
11794TIP3    H135321   5.401   4.834   5.938 -0.2050 -0.9137 -0.3105
11794TIP3    H235322   5.251   4.814   5.924 -0.6143  1.5754  0.3662
11795TIP3   OH235323   3.229   2.306   0.538 -0.5380 -0.7867  0.0098
11795TIP3    H135324   3.140   2.274   0.520 -0.3865 -0.5990 -1.1371
11795TIP3    H235325   3.286   2.237   0.505 -0.2419 -0.3697 -0.3577
11796TIP3   OH235326   6.337   5.466   2.434 -0.1243  0.2059  0.2268
11796TIP3    H135327   6.275   5.400   2.464  1.3805 -0.5020  1.8444
11796TIP3    H235328   6.372   5.504   2.514  1.8069  0.3373 -0.6577
11797TIP3   OH235329   1.939   5.303   3.597 -0.1637  0.3202  0.2985
11797TIP3    H135330   2.033   5.290   3.610 -0.1977  0.0161  0.2469
11797TIP3    H235331   1.898   5.233   3.648 -0.2926 -0.9699 -1.5320
11798TIP3   OH235332   8.153   3.855   5.702 -0.8072  0.1917  0.2042
11798TIP3    H135333   8.169   3.795   5.775 -0.8324 -1.8190 -1.4037
11798TIP3    H235334   8.059   3.875   5.709 -0.5364  1.0587  1.4904
11799TIP3   OH235335   7.401   3.024   5.059 -0.6055 -0.2749  0.5711
11799TIP3    H135336   7.441   3.035   4.972 -0.2137 -0.7053  0.6961
11799TIP3    H235337   7.404   3.111   5.098 -0.3996 -0.1675  0.3146
11800TIP3   OH235338   2.302   7.392   0.048  0.1774  0.0604 -0.2100
11800TIP3    H135339   2.365   7.415  -0.021 -0.0868 -0.4716 -0.6249
11800TIP3    H235340   2.237   7.337   0.005  0.5345 -1.0753  0.6894
11801TIP3   OH235341   6.620   4.990   6.113  0.0955 -0.7229 -0.1673
11801TIP3    H135342   6.712   5.009   6.134 -0.5974  0.8574  1.5503
11801TIP3    H235343   6.603   4.907   6.158  0.2961 -0.3199  0.6656
11802TIP3   OH235344   8.151   4.547   5.182 -0.2577  0.0610 -0.5293
11802TIP3    H135345   8.144   4.452   5.186 -0.4821  0.1392  1.4131
11802TIP3    H235346   8.224   4.563   5.123  0.0512 -1.3178 -0.5407
11803TIP3   OH235347   8.157   4.872   4.206 -0.1569  0.0584 -0.6391
11803TIP3    H135348   8.080   4.831   4.245 -0.0544  0.0423 -0.4547
11803TIP3    H235349   8.209   4.900   4.281 -0.0690  0.2315 -0.7640
11804TIP3   OH235350   5.682   5.799   5.867  0.5245 -0.0425 -0.2553
11804TIP3    H135351   5.734   5.880   5.869 -1.3145  1.1807 -0.3816
11804TIP3    H235352   5.615   5.813   5.935 -0.4132 -1.0300 -0.9649
11805TIP3   OH235353   4.912   0.685   0.726  0.3287  0.4308 -0.1871
11805TIP3    H135354   4.828   0.727   0.741  0.2775 -0.0327  0.8567
11805TIP3    H235355   4.977   0.755   0.737  0.1284  0.6450 -0.3599
11806TIP3   OH235356   8.435   4.785   4.991 -0.0817 -0.4536 -0.6400
11806TIP3    H135357   8.486   4.819   5.065 -1.2072 -1.8863  0.8394
11806TIP3    H235358   8.477   4.702   4.969 -0.3022 -0.4644 -1.0224
11807TIP3   OH235359   0.752   3.519   5.507 -0.0825 -0.5928 -0.4172
11807TIP3    H135360   0.671   3.546   5.551  0.7307  2.1215 -0.4762
11807TIP3    H235361   0.729   3.517   5.414  0.1531  1.2051 -0.5325
11808TIP3   OH235362   0.959   4.422   5.840  0.3386  0.4871  0.2391
11808TIP3    H135363   0.944   4.514   5.858  0.4818  0.6417 -0.3998
11808TIP3    H235364   0.920   4.408   5.753 -0.9022 -0.3664  0.9164
11809TIP3   OH235365   1.957   3.948   5.563  0.3065 -0.1057 -0.3014
11809TIP3    H135366   2.035   3.992   5.529 -1.9606  3.4613 -1.1898
11809TIP3    H235367   1.966   3.953   5.658  1.7063 -0.8179 -0.3822
11810TIP3   OH235368   6.924   3.053   4.428 -0.0306 -0.2025 -0.9669
11810TIP3    H135369   7.014   3.037   4.455 -0.0438 -0.8790 -1.3007
11810TIP3    H235370   6.903   3.139   4.462  0.8368  0.0706 -1.1130
11811TIP3   OH235371   6.824   3.662   4.352  0.1400 -0.1489 -0.4225
11811TIP3    H135372   6.897   3.723   4.340 -0.6594  0.9411  0.1806
11811TIP3    H235373   6.769   3.676   4.275 -0.0985 -0.0200 -0.2303
11812TIP3   OH235374   5.749   4.566   6.823  0.5184 -0.2721  0.2387
11812TIP3    H135375   5.702   4.487   6.795  0.7849 -0.2235 -0.3697
11812TIP3    H235376   5.747   4.623   6.746 -1.3559  1.1341  1.3007
11813TIP3   OH235377   7.748   3.616   5.943  0.3662  0.3017  0.3702
11813TIP3    H135378   7.784   3.598   5.857  0.0243  1.5456 -0.0497
11813TIP3    H235379   7.757   3.711   5.954 -0.5663  0.3066  1.2429
11814TIP3   OH235380   7.597   4.463   4.578 -0.1487 -0.3862 -0.1129
11814TIP3    H135381   7.618   4.552   4.608 -1.1004 -0.3636  0.4725
11814TIP3    H235382   7.663   4.445   4.510  0.1198  0.7191 -0.1524
11815TIP3   OH235383   8.336   5.165   5.726  0.3074 -0.4145 -0.4522
11815TIP3    H135384   8.289   5.246   5.747 -2.5067 -1.3668 -2.7905
11815TIP3    H235385   8.272   5.112   5.679  2.8775 -3.0137 -1.1280
11816TIP3   OH235386   7.262   4.617   3.717  0.0124  0.0568  0.0366
11816TIP3    H135387   7.170   4.602   3.740 -0.6987  1.5209 -1.7601
11816TIP3    H235388   7.261   4.630   3.622  1.9665  0.9669  0.1221
11817TIP3   OH235389   7.368   5.703   5.170 -0.2478  0.2567 -0.3295
11817TIP3    H135390   7.433   5.732   5.107  0.9953 -1.0766  0.3055
11817TIP3    H235391   7.399   5.737   5.254  0.8620 -2.2054  0.3212
11818TIP3   OH235392   7.147   4.661   4.882  0.1140 -0.0360 -0.0070
11818TIP3    H135393   7.077   4.702   4.932  0.7577 -0.3761  1.1850
11818TIP3    H235394   7.129   4.567   4.887 -0.6615  0.0002 -1.6871
11819TIP3   OH235395   4.664   4.923   4.796 -0.0661  0.9619  0.0643
11819TIP3    H135396   4.629   4.976   4.725 -1.2432 -0.9129 -0.7881
11819TIP3    H235397   4.595   4.860   4.817  1.0489  0.1521  1.4633
11820TIP3   OH235398   7.768   5.277   4.284 -0.3529  0.1176  0.0084
11820TIP3    H135399   7.812   5.192   4.282 -0.0355  0.2852 -0.2143
11820TIP3    H235400   7.821   5.330   4.344 -0.7648  0.0455  0.4430
11821TIP3   OH235401   6.064   5.380   5.470  0.4356  0.6549  0.0670
11821TIP3    H135402   6.002   5.324   5.423  0.9019 -0.8441  1.1847
11821TIP3    H235403   6.145   5.373   5.420 -0.0491  1.9943 -0.9511
11822TIP3   OH235404   7.818   5.687   4.604  0.2139 -0.0443 -0.3003
11822TIP3    H135405   7.762   5.761   4.582  0.0260  0.0972  0.6384
11822TIP3    H235406   7.846   5.704   4.694 -1.3121 -2.0571  0.5771
11823TIP3   OH235407   1.062   4.050   4.110  0.0906  0.3137  0.6055
11823TIP3    H135408   1.036   4.090   4.193  1.6938  0.4348  1.0588
11823TIP3    H235409   1.096   4.123   4.058  0.1895  0.0415  0.2898
11824TIP3   OH235410   0.617   4.373   5.812  0.2801 -0.4402 -0.4860
11824TIP3    H135411   0.678   4.315   5.858  1.1704 -0.3615 -1.5249
11824TIP3    H235412   0.648   4.461   5.832 -0.3985 -0.3551  0.1910
11825TIP3   OH235413   0.205   5.583   5.298 -0.3300  0.4427  0.0441
11825TIP3    H135414   0.122   5.596   5.252 -0.8699 -0.4920  0.7216
11825TIP3    H235415   0.254   5.523   5.242 -1.2045 -1.1239  0.9049
11826TIP3   OH235416   7.939   6.655   1.882  0.3449  0.1437 -0.7193
11826TIP3    H135417   7.930   6.635   1.789 -1.8270  0.1255 -0.5300
11826TIP3    H235418   7.927   6.750   1.887  1.2204  0.2448 -0.5461
11827TIP3   OH235419   4.518   5.449   5.663  0.0229  0.1848 -0.4649
11827TIP3    H135420   4.465   5.512   5.614  0.5734  0.6323 -0.4919
11827TIP3    H235421   4.550   5.388   5.596  0.2572  0.4276 -0.5762
11828TIP3   OH235422   2.038   1.673   0.265 -0.1987  0.3289 -0.9700
11828TIP3    H135423   2.091   1.623   0.328 -0.1198  1.5856 -0.0056
11828TIP3    H235424   2.047   1.625   0.183  0.1114 -1.0667 -0.1459
11829TIP3   OH235425   7.549   4.827   5.720  0.3883  0.1776 -0.6931
11829TIP3    H135426   7.586   4.881   5.789 -0.4802 -1.1676  0.8506
11829TIP3    H235427   7.617   4.763   5.700 -0.6347 -1.6274  1.4001
11830TIP3   OH235428   6.784   5.419   6.272 -0.1700 -0.0297  0.0949
11830TIP3    H135429   6.831   5.448   6.350 -0.5736  0.9177 -0.0093
11830TIP3    H235430   6.723   5.352   6.304 -2.5516  2.5472  1.1485
11831TIP3   OH235431   7.591   4.893   4.856  0.7340 -0.1264  0.2465
11831TIP3    H135432   7.650   4.911   4.929  1.0452 -1.8919  0.4464
11831TIP3    H235433   7.518   4.844   4.895  0.4808 -0.3433 -0.4836
11832TIP3   OH235434   6.617   6.368   5.086  0.5930 -0.3917 -0.2319
11832TIP3    H135435   6.523   6.369   5.066  0.3390 -0.2689  0.9419
11832TIP3    H235436   6.625   6.420   5.166  1.8524  0.7629 -1.1015
11833TIP3   OH235437   7.020   4.852   3.270  0.1970 -0.2463 -0.3095
11833TIP3    H135438   7.001   4.759   3.283  1.4999 -0.5477 -0.4768
11833TIP3    H235439   6.940   4.897   3.296 -1.1382 -1.5306 -2.1198
11834TIP3   OH235440   7.516   4.841   6.372  0.2643 -0.3621 -0.2162
11834TIP3    H135441   7.460   4.782   6.321  0.1384 -0.3300 -0.1169
11834TIP3    H235442   7.455   4.894   6.423  0.4142 -1.0592  0.6994
11835TIP3   OH235443   7.328   5.457   4.372  0.4762  0.1884 -0.0789
11835TIP3    H135444   7.390   5.401   4.418 -0.9528 -0.5670  0.9663
11835TIP3    H235445   7.248   5.405   4.368 -0.1405  1.2181 -1.2551
11836TIP3   OH235446   0.201   6.809   4.669  0.1353  0.0316  0.0348
11836TIP3    H135447   0.267   6.877   4.678 -0.3933  0.5349  0.1393
11836TIP3    H235448   0.217   6.750   4.743 -0.4256  0.9250  0.8806
11837TIP3   OH235449   1.556   3.369   5.252  0.0101  0.1752  0.6833
11837TIP3    H135450   1.492   3.328   5.193  0.1828  0.1221  0.5338
11837TIP3    H235451   1.616   3.414   5.194 -1.4299  2.4767  0.9238
11838TIP3   OH235452   7.598   5.014   5.897  0.0324  0.0698 -0.2909
11838TIP3    H135453   7.634   5.018   5.986  0.1583  2.2895 -0.4112
11838TIP3    H235454   7.504   5.023   5.909 -0.0099 -0.2996 -0.3439
11839TIP3   OH235455   7.947   6.583   5.280  0.1878  0.2343 -0.5396
11839TIP3    H135456   7.887   6.643   5.236 -0.0873 -0.7094 -1.4715
11839TIP3    H235457   7.977   6.631   5.357 -0.1119  1.5280 -1.2151
11840TIP3   OH235458   7.569   4.573   4.949 -0.0858  0.5740 -0.3684
11840TIP3    H135459   7.521   4.579   5.032  0.8886 -0.5465  0.2914
11840TIP3    H235460   7.507   4.536   4.887 -0.5562  0.6211  0.0736
11841TIP3   OH235461   1.100   6.835   3.277  0.6295  0.7142  0.0057
11841TIP3    H135462   1.089   6.807   3.186  0.0309  0.3573  0.1861
11841TIP3    H235463   1.012   6.857   3.306  0.3604 -2.0059  1.4161
11842TIP3   OH235464   5.534   6.656   4.377 -0.3808  0.5787 -0.0790
11842TIP3    H135465   5.624   6.623   4.377 -0.7540 -0.4653 -0.8229
11842TIP3    H235466   5.506   6.650   4.468 -0.7432 -2.0482 -0.3171
11843TIP3   OH235467   8.382   4.234   1.727  0.0881  0.1755 -0.0188
11843TIP3    H135468   8.288   4.225   1.744  0.7546 -3.5011  2.2898
11843TIP3    H235469   8.417   4.272   1.808  0.6063  1.5940 -0.8952
11844TIP3   OH235470   8.198   5.456   5.027 -0.3246 -0.2705  0.0847
11844TIP3    H135471   8.241   5.478   4.944 -2.3048  1.2573 -0.5636
11844TIP3    H235472   8.215   5.362   5.038  0.8831 -0.2661 -1.4789
11845TIP3   OH235473   7.806   5.173   5.773  0.1062  0.2910 -0.5138
11845TIP3    H135474   7.860   5.212   5.841  2.7063  0.4657 -2.5827
11845TIP3    H235475   7.735   5.129   5.820  2.1898 -0.1559  2.3203
11846TIP3   OH235476   7.296   4.954   6.817 -0.1511 -0.1455  0.1048
11846TIP3    H135477   7.383   4.961   6.857  0.5406  0.6585 -1.4871
11846TIP3    H235478   7.239   4.924   6.888  1.6173 -1.6976  0.8939
11847TIP3   OH235479   0.348   2.884   5.450  0.4840  0.6189  0.5755
11847TIP3    H135480   0.354   2.852   5.540 -0.4354  0.5777  0.6254
11847TIP3    H235481   0.263   2.927   5.446  0.4426  0.4524 -0.3266
11848TIP3   OH235482   8.467   5.181   1.796  0.1331  0.8295 -0.3446
11848TIP3    H135483   8.482   5.261   1.745  1.1363  0.4558 -0.6385
11848TIP3    H235484   8.466   5.111   1.730  1.4500  0.3376  0.1577
11849TIP3   OH235485   0.908   1.876   4.170 -0.0594  0.8444  0.2384
11849TIP3    H135486   0.842   1.907   4.231 -0.8082  1.2459 -0.7769
11849TIP3    H235487   0.952   1.955   4.138 -0.8874  0.7770 -1.1163
11850TIP3   OH235488   0.916   3.913   6.169  0.2857 -0.8132  0.3490
11850TIP3    H135489   0.946   3.846   6.108  0.4599 -1.5948  1.2632
11850TIP3    H235490   0.994   3.936   6.220  0.6047  1.3261 -1.0844
11851TIP3   OH235491   1.494   0.709   4.973  0.4843  0.0670 -0.9828
11851TIP3    H135492   1.470   0.801   4.962 -3.3273 -0.6242  0.7998
11851TIP3    H235493   1.549   0.690   4.898  0.7048  3.5990 -1.8093
11852TIP3   OH235494   6.164   6.285   6.125  0.0241  0.2547 -0.4121
11852TIP3    H135495   6.142   6.194   6.142 -0.5537  0.6500  1.0102
11852TIP3    H235496   6.096   6.315   6.064 -0.8969  0.2460  0.5849
11853TIP3   OH235497   8.489   5.310   4.743 -0.0784  0.1202 -0.9121
11853TIP3    H135498   8.411   5.256   4.752  1.2313 -1.7109 -0.0529
11853TIP3    H235499   8.456   5.399   4.733 -2.2392 -0.4402  0.8285
11854TIP3   OH235500   2.999   4.188   6.064  0.4668 -0.0082  0.3388
11854TIP3    H135501   2.913   4.226   6.044  0.4385  0.1128  0.6751
11854TIP3    H235502   3.060   4.235   6.007  0.5946  1.3770  1.5863
11855TIP3   OH235503   1.471   5.676   5.315  0.1075  0.4426  0.2880
11855TIP3    H135504   1.546   5.621   5.337  0.4173 -0.5121 -2.8264
11855TIP3    H235505   1.396   5.631   5.353  0.3810 -2.1571 -2.0795
11856TIP3   OH235506   8.176   4.224   5.886  0.0952  0.1623 -0.7327
11856TIP3    H135507   8.247   4.159   5.891 -0.3733 -0.2668  0.9451
11856TIP3    H235508   8.212   4.302   5.928 -0.4715 -0.1211  0.3030
11857TIP3   OH235509   3.721   5.621   3.539 -0.0542 -0.0544  0.0542
11857TIP3    H135510   3.663   5.690   3.507 -2.0580 -0.7810  1.9979
11857TIP3    H235511   3.792   5.668   3.583  0.2184  0.8134 -1.2637
11858TIP3   OH235512   5.575   4.921   5.445  0.2295  0.2959 -0.6654
11858TIP3    H135513   5.502   4.918   5.383 -0.2220 -1.7182 -0.0981
11858TIP3    H235514   5.588   4.830   5.471  1.8169  0.8407  0.5775
11859TIP3   OH235515   6.594   4.579   5.500 -0.2605 -0.8686  0.4173
11859TIP3    H135516   6.538   4.600   5.425  0.3760 -0.4505  0.0609
11859TIP3    H235517   6.538   4.524   5.556 -0.2639 -2.3946 -1.0383
11860TIP3   OH235518   6.737   7.965   5.176 -0.4423  0.4698  0.0958
11860TIP3    H135519   6.787   8.014   5.242  0.8652 -1.9318  0.9481
11860TIP3    H235520   6.657   7.939   5.221 -0.5105  0.6492  0.0789
11861TIP3   OH235521   3.570   1.745   0.048 -0.2813  0.4768  0.3523
11861TIP3    H135522   3.605   1.728   0.135  1.2757  2.4370  0.1387
11861TIP3    H235523   3.481   1.710   0.051  0.6518 -1.9092  1.8587
11862TIP3   OH235524   8.003   5.145   6.762 -0.0537 -0.4278  0.3028
11862TIP3    H135525   8.057   5.184   6.693  1.9257  0.9353  2.4862
11862TIP3    H235526   8.038   5.057   6.773 -0.3760 -0.6490 -0.4280
11863TIP3   OH235527   0.872   4.846   2.713 -0.0282 -0.6633  0.3119
11863TIP3    H135528   0.936   4.780   2.740  0.6290  0.1987  0.8663
11863TIP3    H235529   0.883   4.918   2.775  0.0115  0.4292 -0.9350
11864TIP3   OH235530   0.012   5.587   5.919  0.5310  0.5685 -0.2159
11864TIP3    H135531   0.069   5.660   5.896  0.3392  1.1244  1.0180
11864TIP3    H235532   0.045   5.557   6.004  0.5354 -0.7105 -0.6430
11865TIP3   OH235533   6.863   5.540   5.198 -0.3120 -0.0085 -0.1144
11865TIP3    H135534   6.814   5.473   5.245 -0.3379 -0.4976 -0.8270
11865TIP3    H235535   6.939   5.559   5.254 -0.3634 -0.5555  0.1363
11866TIP3   OH235536   2.756   7.956   1.739  0.0173  0.0352  0.1497
11866TIP3    H135537   2.695   7.971   1.666  1.5650  0.3793 -1.1067
11866TIP3    H235538   2.800   8.040   1.751 -3.0394  1.2061  4.2360
11867TIP3   OH235539   1.379   5.011   3.154  0.0182 -0.3392  0.4643
11867TIP3    H135540   1.388   5.056   3.238  0.2408  0.9272 -0.2299
11867TIP3    H235541   1.303   4.954   3.167  0.0306 -0.1423  1.5181
11868TIP3   OH235542   7.416   5.290   4.654  0.4024  0.2372  0.2114
11868TIP3    H135543   7.335   5.318   4.696 -0.6456  0.1875 -1.7155
11868TIP3    H235544   7.471   5.369   4.652 -0.6370  0.9385 -0.8521
11869TIP3   OH235545   5.087   0.432   0.210 -0.4534  0.4927  0.4961
11869TIP3    H135546   5.085   0.443   0.305 -0.0209  1.4581  0.3889
11869TIP3    H235547   5.008   0.380   0.191 -0.4463  0.1434  1.3939
11870TIP3   OH235548   6.460   4.421   6.274 -0.3751 -0.0788  0.2710
11870TIP3    H135549   6.406   4.379   6.207 -1.4184  0.4858  0.7458
11870TIP3    H235550   6.546   4.380   6.265 -0.5970 -0.2452 -1.1900
11871TIP3   OH235551   7.058   4.836   5.425 -0.0805 -0.3104 -0.5925
11871TIP3    H135552   7.103   4.757   5.395  1.6138  0.0961  0.8624
11871TIP3    H235553   7.091   4.905   5.368  2.0351  0.1932  1.1953
11872TIP3   OH235554   6.128   5.970   3.945  0.1849 -0.1897 -0.4172
11872TIP3    H135555   6.089   5.892   3.984  0.1249 -0.2215 -0.5429
11872TIP3    H235556   6.057   6.010   3.896 -0.5410  1.4199  1.8433
11873TIP3   OH235557   6.835   4.750   5.576  0.4941 -0.1551 -0.1757
11873TIP3    H135558   6.768   4.716   5.516 -0.5636 -0.8063  1.3379
11873TIP3    H235559   6.898   4.794   5.520 -1.0404  0.1758 -1.6611
11874TIP3   OH235560   5.076   0.916   0.555  0.1186  0.2823 -0.1337
11874TIP3    H135561   5.002   0.913   0.494 -0.1761  0.2862  0.2205
11874TIP3    H235562   5.114   1.003   0.543  0.4218  0.0733 -0.7294
11875TIP3   OH235563   6.400   3.546   5.160 -0.5061  0.0492  0.0856
11875TIP3    H135564   6.469   3.555   5.225 -1.9538 -0.1796  1.7092
11875TIP3    H235565   6.439   3.494   5.090  1.0980  0.3503  0.7308
11876TIP3   OH235566   6.537   5.977   6.095  0.6557  0.2432  0.2000
11876TIP3    H135567   6.537   6.034   6.171 -1.4383 -1.8111  1.8170
11876TIP3    H235568   6.474   6.016   6.034 -0.2170  0.0633  0.9862
11877TIP3   OH235569   8.374   3.483   6.177 -0.4954 -0.7233  0.3327
11877TIP3    H135570   8.412   3.429   6.108 -0.3819  0.5008 -0.5958
11877TIP3    H235571   8.342   3.561   6.131  0.7123  0.6954  1.8286
11878TIP3   OH235572   6.178   3.699   5.941 -0.7656 -0.3358  0.6701
11878TIP3    H135573   6.219   3.785   5.950 -0.2600 -0.4513 -0.4499
11878TIP3    H235574   6.087   3.712   5.970 -0.7596  0.6389  0.2639
11879TIP3   OH235575   5.686   5.284   5.662  0.1798  0.4112 -0.1071
11879TIP3    H135576   5.763   5.339   5.648  0.2599  0.0349 -1.2279
11879TIP3    H235577   5.651   5.311   5.747  3.1069 -1.3087  1.7049
11880TIP3   OH235578   6.156   6.225   4.630 -0.0235  0.4008  0.0484
11880TIP3    H135579   6.151   6.286   4.704  2.3014 -0.7800  1.2478
11880TIP3    H235580   6.233   6.253   4.580 -0.2995 -0.1362 -0.6955
11881TIP3   OH235581   5.548   1.034   1.946  0.6605  0.2367 -0.0956
11881TIP3    H135582   5.629   1.075   1.915 -1.3159  2.9162 -1.8845
11881TIP3    H235583   5.524   1.083   2.024  0.7221 -0.5097  0.3934
11882TIP3   OH235584   6.774   5.836   6.707  0.2317 -0.4559  0.4616
11882TIP3    H135585   6.694   5.792   6.735  0.1823 -0.0719  0.9224
11882TIP3    H235586   6.818   5.861   6.789  0.8778 -0.7681  0.2172
11883TIP3   OH235587   6.274   5.294   5.305  0.7288  0.6333 -0.0489
11883TIP3    H135588   6.336   5.249   5.362  1.0931  2.0874  0.7000
11883TIP3    H235589   6.243   5.225   5.246  2.2040 -0.3437  0.2875
11884TIP3   OH235590   7.000   4.937   6.403 -0.3527  0.1286  0.5710
11884TIP3    H135591   6.993   4.966   6.494  0.5642 -0.2189  0.7623
11884TIP3    H235592   7.048   4.854   6.407 -1.1009 -0.3462 -0.1541
11885TIP3   OH235593   2.748   7.513   0.344  0.3475  0.1292 -0.2981
11885TIP3    H135594   2.704   7.595   0.365  0.3352 -0.3843  1.8445
11885TIP3    H235595   2.690   7.470   0.281 -1.2091  0.3926  0.9220
11886TIP3   OH235596   6.064   6.086   5.163  0.0209  0.3989 -0.4293
11886TIP3    H135597   5.985   6.038   5.137 -0.5808  0.3795  1.2994
11886TIP3    H235598   6.040   6.178   5.156  0.4334  0.4257 -1.5814
11887TIP3   OH235599   7.425   7.466   4.446  0.1433 -0.5360 -0.5467
11887TIP3    H135600   7.426   7.523   4.523 -2.0292 -0.0831 -0.8214
11887TIP3    H235601   7.507   7.483   4.402  2.1173 -1.8481  2.4324
11888TIP3   OH235602   5.512   6.494   3.898 -0.6625  0.1327  0.2903
11888TIP3    H135603   5.582   6.490   3.832 -0.1224 -1.0406  0.9240
11888TIP3    H235604   5.527   6.577   3.944  0.0932  0.0627  0.1806
11889TIP3   OH235605   4.534   5.988   5.223  0.1272 -0.4498  0.0946
11889TIP3    H135606   4.522   6.082   5.213  2.2361  0.0955  2.1675
11889TIP3    H235607   4.480   5.965   5.299  1.0673 -0.5513  0.7431
11890TIP3   OH235608   6.604   4.425   5.024  0.0060 -0.4549  0.7340
11890TIP3    H135609   6.693   4.458   5.014 -0.2968 -0.0894 -1.0142
11890TIP3    H235610   6.559   4.490   5.077  0.2751  0.3492 -0.0184
11891TIP3   OH235611   1.392   4.226   4.515  0.2362 -0.2530 -0.1340
11891TIP3    H135612   1.348   4.176   4.584 -1.4547  1.7305  0.2736
11891TIP3    H235613   1.473   4.258   4.556 -1.2046  1.7084  1.2949
11892TIP3   OH235614   7.815   4.389   4.410  0.4513 -0.1156 -0.8514
11892TIP3    H135615   7.813   4.327   4.337 -2.4084 -1.2385  0.1160
11892TIP3    H235616   7.899   4.370   4.454  2.9693  1.6665 -4.6453
11893TIP3   OH235617   8.533   5.249   5.885  0.0427  0.0684 -0.8010
11893TIP3    H135618   8.455   5.204   5.852 -1.9832  0.6086  3.0281
11893TIP3    H235619   8.512   5.342   5.875 -0.0338  0.2194  0.7593
11894TIP3   OH235620   0.414   5.991   0.020 -0.4898  0.0651 -0.6137
11894TIP3    H135621   0.321   5.965   0.019 -1.2048  2.4605  0.6141
11894TIP3    H235622   0.437   5.991   0.113  0.7385 -0.4436 -0.9159
11895TIP3   OH235623   6.802   3.406   5.875 -0.5077  0.3774  0.1466
11895TIP3    H135624   6.806   3.501   5.865  1.2636  0.2180 -0.9813
11895TIP3    H235625   6.751   3.377   5.799 -0.9454  0.4202  0.4245
11896TIP3   OH235626   6.579   5.904   6.524 -0.8651 -0.4114  0.5829
11896TIP3    H135627   6.613   5.993   6.516  0.2366 -0.9509 -0.8846
11896TIP3    H235628   6.641   5.860   6.583  0.4616 -1.1003 -1.2701
11897TIP3   OH235629   4.153   5.925   5.579  0.2536 -0.0705  0.3530
11897TIP3    H135630   4.103   5.851   5.614 -1.1111  0.8164  0.3337
11897TIP3    H235631   4.130   5.927   5.486  1.3654 -0.4489  0.0566
11898TIP3   OH235632   7.847   6.121   4.217  0.4741 -0.0690 -0.2753
11898TIP3    H135633   7.760   6.123   4.179  0.9312  1.0568 -1.2656
11898TIP3    H235634   7.906   6.107   4.143  1.1066 -1.3697  0.4508
11899TIP3   OH235635   5.741   5.347   4.673  0.1487 -0.1398 -0.1431
11899TIP3    H135636   5.708   5.348   4.763 -0.6798 -1.7990 -0.4187
11899TIP3    H235637   5.663   5.354   4.618  0.4839 -1.0835 -0.7518
11900TIP3   OH235638   4.457   1.389   1.457  0.5770  0.9837 -0.0915
11900TIP3    H135639   4.527   1.380   1.522  0.1424  0.9871  0.3878
11900TIP3    H235640   4.466   1.312   1.401  0.8678  0.9035  0.0633
11901TIP3   OH235641   5.473   3.558   5.793 -0.0613  0.1316 -0.1365
11901TIP3    H135642   5.480   3.575   5.887  2.3767 -0.2493 -0.2202
11901TIP3    H235643   5.416   3.482   5.787  3.8450 -3.1161  1.4200
11902TIP3   OH235644   6.028   6.505   4.644 -0.2327  0.1548  0.0487
11902TIP3    H135645   6.001   6.484   4.733 -0.5262 -0.6646 -0.2325
11902TIP3    H235646   5.955   6.477   4.589  1.0395 -1.8552 -0.6928
11903TIP3   OH235647   7.342   3.832   4.830  0.6391  0.3994  0.0264
11903TIP3    H135648   7.359   3.913   4.783  1.5257  0.3243  0.2018
11903TIP3    H235649   7.429   3.793   4.843  0.1859 -0.7989 -0.4677
11904TIP3   OH235650   8.141   6.293   4.162 -0.1692 -0.1637  0.1599
11904TIP3    H135651   8.199   6.369   4.168 -1.1375  0.7012 -1.2086
11904TIP3    H235652   8.198   6.218   4.181  0.8376  0.8713  1.3305
11905TIP3   OH235653   0.496   5.342   4.249 -0.4293 -0.1139 -0.0827
11905TIP3    H135654   0.568   5.348   4.186  2.1309 -0.9441  2.6172
11905TIP3    H235655   0.525   5.395   4.324 -1.9475 -1.6569  1.6627
11906TIP3   OH235656   8.313   5.107   6.252  0.7287 -0.0397 -0.7380
11906TIP3    H135657   8.352   5.039   6.306  0.8777  0.0548 -0.7245
11906TIP3    H235658   8.219   5.089   6.254  0.6644  0.3469  0.0920
11907TIP3   OH235659   0.627   7.249   3.701 -0.1960 -0.0664  0.6709
11907TIP3    H135660   0.659   7.236   3.612 -1.2022 -1.1501  0.4549
11907TIP3    H235661   0.595   7.163   3.727 -0.0020  0.2668  2.0507
11908TIP3   OH235662   7.603   6.219   2.805  0.5091  0.1727 -0.6785
11908TIP3    H135663   7.524   6.268   2.829  0.7294  0.0288  0.3880
11908TIP3    H235664   7.630   6.256   2.722 -0.2033  0.8140 -0.6308
11909TIP3   OH235665   1.561   6.508   4.994 -0.2488  0.6876  0.4676
11909TIP3    H135666   1.648   6.470   5.003 -0.5175 -0.0513 -0.0854
11909TIP3    H235667   1.502   6.433   4.989 -0.7618  1.1691 -0.7384
11910TIP3   OH235668   0.106   4.140   5.787 -0.1249 -0.0380  0.3299
11910TIP3    H135669   0.028   4.118   5.736 -0.3933  1.2731  0.1554
11910TIP3    H235670   0.111   4.235   5.783  2.5787 -0.2220 -1.2766
11911TIP3   OH235671   7.911   3.972   4.367  0.2306  0.2901 -0.2213
11911TIP3    H135672   7.911   3.990   4.461  1.1901  0.1398 -0.1937
11911TIP3    H235673   7.820   3.985   4.341 -0.1335 -0.1504  0.8153
11912TIP3   OH235674   7.277   4.585   4.020 -0.1182  0.3108  0.1116
11912TIP3    H135675   7.261   4.676   3.994 -0.1528  0.4502  0.6098
11912TIP3    H235676   7.302   4.540   3.939 -1.4392  0.4581 -0.3782
11913TIP3   OH235677   0.135   3.803   5.199 -0.0532 -0.3251 -0.2134
11913TIP3    H135678   0.040   3.796   5.195 -0.0515 -2.6327  2.3685
11913TIP3    H235679   0.152   3.852   5.279  0.9211  1.3692 -1.4304
11914TIP3   OH235680   7.119   4.646   5.664  0.0684 -0.6458 -0.5243
11914TIP3    H135681   7.032   4.615   5.639 -1.2002  1.9674  0.4806
11914TIP3    H235682   7.144   4.707   5.594  0.2896  0.0361  0.1492
11915TIP3   OH235683   7.424   6.015   3.193  0.1776 -0.2767 -0.4366
11915TIP3    H135684   7.429   5.952   3.121  0.2509 -0.7104 -0.0524
11915TIP3    H235685   7.488   6.082   3.171  1.4048 -1.2692  0.0524
11916TIP3   OH235686   8.248   3.939   4.967 -0.0831  0.4652 -0.1860
11916TIP3    H135687   8.204   4.013   4.926 -0.2437 -0.3729 -1.5391
11916TIP3    H235688   8.292   3.894   4.895 -0.0347 -0.7983  0.6173
11917TIP3   OH235689   0.082   5.856   3.378 -0.0001 -0.2497 -0.4607
11917TIP3    H135690   0.030   5.932   3.404 -0.4425 -0.5420 -0.4908
11917TIP3    H235691   0.135   5.835   3.455 -1.1317 -0.9625  0.1337
11918TIP3   OH235692   7.747   6.302   4.029  0.1109 -0.2479 -0.1643
11918TIP3    H135693   7.820   6.257   3.986 -0.9314 -0.5944 -1.5972
11918TIP3    H235694   7.784   6.386   4.056 -0.0350  1.4154 -4.7544
11919TIP3   OH235695   6.777   4.037   4.140  0.2430  0.3418  0.4143
11919TIP3    H135696   6.696   3.996   4.110 -0.8328  3.4504 -1.1187
11919TIP3    H235697   6.768   4.042   4.235 -0.3149 -1.3894  0.4688
11920TIP3   OH235698   6.517   2.924   5.692 -0.1572  0.7886 -0.0858
11920TIP3    H135699   6.456   2.901   5.762 -1.0141  0.9252 -0.7750
11920TIP3    H235700   6.603   2.920   5.733 -0.6007  0.2645  0.8160
11921TIP3   OH235701   8.065   3.522   3.836 -0.3136 -0.3262  0.2415
11921TIP3    H135702   8.156   3.494   3.839  0.7077  2.8368  1.0973
11921TIP3    H235703   8.054   3.561   3.749  0.3338  2.7683  1.4704
11922TIP3   OH235704   0.699   6.046   5.528  0.1021  0.0109 -0.0734
11922TIP3    H135705   0.753   6.030   5.450 -0.6818  0.7819 -0.7833
11922TIP3    H235706   0.622   6.092   5.495 -0.7410 -0.5989  1.0108
11923TIP3   OH235707   0.868   5.384   6.372 -0.4268  1.0191 -0.1661
11923TIP3    H135708   0.844   5.474   6.349 -0.6181  0.6001 -1.6402
11923TIP3    H235709   0.868   5.337   6.289  1.2461  0.0086  0.3753
11924TIP3   OH235710   6.999   5.186   5.427  0.2320 -0.7085 -0.2802
11924TIP3    H135711   7.075   5.177   5.485  0.0002 -2.2994 -0.2085
11924TIP3    H235712   6.942   5.249   5.471  1.2537  0.0911 -0.0690
11925TIP3   OH235713   6.981   2.704   2.060 -0.2342  0.0473 -0.0839
11925TIP3    H135714   7.012   2.619   2.093 -0.0871  0.5232  0.9934
11925TIP3    H235715   7.060   2.756   2.048 -0.3124 -0.0074 -0.8829
11926TIP3   OH235716   0.507   5.996   6.003 -0.0559  0.0871 -0.3237
11926TIP3    H135717   0.462   6.047   5.935  0.3658 -0.4022 -0.9779
11926TIP3    H235718   0.437   5.964   6.060 -0.5857 -1.1197 -1.6355
11927TIP3   OH235719   0.437   5.157   6.401  0.2082  0.1186 -0.2085
11927TIP3    H135720   0.419   5.250   6.415  1.3963  0.5140 -1.1780
11927TIP3    H235721   0.358   5.124   6.358 -1.0912  0.1749  2.0524
11928TIP3   OH235722   3.011   7.966   2.077  0.0652  0.6256  0.0454
11928TIP3    H135723   3.037   7.946   1.987 -0.3864 -1.1344  0.2829
11928TIP3    H235724   2.915   7.965   2.075  0.0316  2.3445  0.1812
11929TIP3   OH235725   6.466   1.164   0.403  0.8157 -0.4658 -0.0431
11929TIP3    H135726   6.562   1.161   0.402  0.8670  0.7071 -2.2672
11929TIP3    H235727   6.442   1.182   0.312 -1.5158 -0.6061  0.5213
11930TIP3   OH235728   0.543   4.497   6.127 -0.2178 -0.4593  0.2842
11930TIP3    H135729   0.604   4.530   6.193 -0.8874 -1.5943  1.4896
11930TIP3    H235730   0.464   4.551   6.138  0.4740  0.8722 -1.1370
11931TIP3   OH235731   0.438   4.548   4.888 -0.6370 -0.3185 -0.0629
11931TIP3    H135732   0.420   4.624   4.834 -1.0274 -1.1955 -1.1797
11931TIP3    H235733   0.531   4.529   4.874 -0.7440 -0.5600 -0.4526
11932TIP3   OH235734   7.828   5.278   6.589 -0.4187  0.5521 -0.2290
11932TIP3    H135735   7.869   5.250   6.671  0.6186  2.0648 -0.1999
11932TIP3    H235736   7.734   5.273   6.606 -0.2204  1.6671  1.3613
11933TIP3   OH235737   1.810   5.129   6.013 -0.5946  0.5550  0.0881
11933TIP3    H135738   1.797   5.190   6.085 -0.0054  1.2855 -0.4184
11933TIP3    H235739   1.746   5.059   6.028  0.4626 -0.0230  2.1113
11934TIP3   OH235740   7.849   5.616   5.560 -0.1390  0.3951  0.3904
11934TIP3    H135741   7.810   5.528   5.562 -2.9852  1.5829 -0.0071
11934TIP3    H235742   7.807   5.662   5.633  1.5216  1.3525  0.7567
11935TIP3   OH235743   2.409   5.846   6.441 -0.4452 -0.1728  0.1218
11935TIP3    H135744   2.458   5.796   6.375 -0.7506  0.0513 -0.2762
11935TIP3    H235745   2.477   5.878   6.501 -0.1397 -0.1832 -0.2144
11936TIP3   OH235746   1.206   4.671   6.622 -0.3585  0.1677  0.6059
11936TIP3    H135747   1.235   4.653   6.532 -2.7576 -1.8377  0.1710
11936TIP3    H235748   1.237   4.596   6.673  1.1878  1.4051  1.5539
11937TIP3   OH235749   2.201   6.191   6.337 -0.2401  0.3010 -0.3997
11937TIP3    H135750   2.175   6.099   6.349  1.4566  0.0764  1.8730
11937TIP3    H235751   2.139   6.241   6.390  0.6564  0.2173  0.7291
11938TIP3   OH235752   4.729   1.292   0.133  0.6086 -0.2929  0.2828
11938TIP3    H135753   4.790   1.294   0.059 -0.3969 -0.6900 -0.5772
11938TIP3    H235754   4.751   1.369   0.185  0.7690  0.4676 -0.8979
11939TIP3   OH235755   6.363   5.770   5.193  0.1553 -0.3441  0.5047
11939TIP3    H135756   6.413   5.740   5.117 -0.5677 -0.1775 -0.0415
11939TIP3    H235757   6.391   5.713   5.265  0.3516 -0.9377 -0.0391
11940TIP3   OH235758   1.506   6.732   5.641  0.9585  0.0635 -0.1088
11940TIP3    H135759   1.540   6.644   5.655  0.5428 -0.2329 -0.9738
11940TIP3    H235760   1.439   6.743   5.709  1.5763  0.0141  0.5067
11941TIP3   OH235761   7.705   2.615   3.454 -0.1268 -0.2197  0.0782
11941TIP3    H135762   7.711   2.520   3.445  1.9366 -0.2680  1.5267
11941TIP3    H235763   7.637   2.629   3.520  1.0788 -0.8175  1.4872
11942TIP3   OH235764   1.186   5.811   6.343  0.8349  0.4117  0.4925
11942TIP3    H135765   1.239   5.856   6.277 -1.7668  0.5617 -1.5885
11942TIP3    H235766   1.129   5.880   6.378 -0.8334 -0.5233 -0.3000
11943TIP3   OH235767   6.205   3.356   1.289 -0.4300 -0.1596  0.0774
11943TIP3    H135768   6.262   3.415   1.239  0.8703 -1.1433  0.3825
11943TIP3    H235769   6.136   3.413   1.322  1.1741  1.3391  0.9276
11944TIP3   OH235770   2.050   6.505   5.611 -0.1639 -0.2337  0.5096
11944TIP3    H135771   2.032   6.557   5.533  1.8106 -1.1573 -0.5941
11944TIP3    H235772   1.998   6.546   5.680  0.7719  2.7171 -0.4902
11945TIP3   OH235773   4.482   0.380   6.191 -0.6860  0.3574 -0.3987
11945TIP3    H135774   4.471   0.375   6.286 -0.3606  0.1671 -0.3707
11945TIP3    H235775   4.493   0.474   6.173 -1.4901  0.4605 -0.3311
11946TIP3   OH235776   1.281   7.586   4.372 -0.3177 -0.9218 -0.0104
11946TIP3    H135777   1.239   7.500   4.361  0.6590 -1.3665 -0.2784
11946TIP3    H235778   1.352   7.571   4.434 -1.2339  0.0701  1.2918
11947TIP3   OH235779   2.497   3.458   0.296  0.1867 -0.6718 -0.3563
11947TIP3    H135780   2.559   3.528   0.318  1.1918 -1.2703 -1.1927
11947TIP3    H235781   2.518   3.388   0.357  0.1907 -0.7946 -0.4991
11948TIP3   OH235782   7.436   1.915   0.542  0.5260  0.4254 -0.3158
11948TIP3    H135783   7.500   1.912   0.471  2.2210  1.2944  1.1461
11948TIP3    H235784   7.482   1.880   0.618 -0.5239  1.6416  0.9097
11949TIP3   OH235785   0.360   5.014   5.975  0.1935  0.2426  0.1974
11949TIP3    H135786   0.423   4.997   6.045  1.1348  1.8297 -0.2497
11949TIP3    H235787   0.346   4.929   5.934  2.4151 -0.0366 -0.0168
11950TIP3   OH235788   2.028   4.669   4.237  0.1983 -0.4802 -0.3562
11950TIP3    H135789   2.026   4.625   4.152  2.6722  2.1695 -1.8621
11950TIP3    H235790   2.113   4.646   4.274  1.9155  3.5454 -1.5456
11951TIP3   OH235791   5.710   1.470   0.446 -1.1324 -0.1799 -0.2317
11951TIP3    H135792   5.796   1.499   0.415 -1.1053  1.7774  1.6243
11951TIP3    H235793   5.728   1.418   0.524 -1.8292  5.7128  4.2470
11952TIP3   OH235794   1.352   4.100   5.428 -0.4561 -0.3379 -0.3082
11952TIP3    H135795   1.365   4.167   5.496 -0.9365  1.3492 -1.8444
11952TIP3    H235796   1.398   4.023   5.461  0.1287  0.7545  1.4869
11953TIP3   OH235797   1.182   6.073   5.452  0.2329 -0.6775 -0.7873
11953TIP3    H135798   1.168   6.102   5.543 -2.1442  0.3902 -1.4527
11953TIP3    H235799   1.187   5.978   5.458  0.2484 -0.6163  0.4916
11954TIP3   OH235800   3.962   7.846   1.680 -0.2756 -0.1287  0.5627
11954TIP3    H135801   3.887   7.823   1.734  0.3749 -1.3197  0.9673
11954TIP3    H235802   3.963   7.942   1.681 -1.1584 -0.1171  1.4138
11955TIP3   OH235803   4.697   0.334   0.695  0.0154  0.6942 -0.3076
11955TIP3    H135804   4.659   0.278   0.627  0.0518  1.0051 -0.5912
11955TIP3    H235805   4.753   0.276   0.746 -0.7344  0.2669  0.0283
11956TIP3   OH235806   4.209   0.424   1.066  0.5736  0.1751  0.1380
11956TIP3    H135807   4.131   0.478   1.055  0.2906 -0.1788  0.4079
11956TIP3    H235808   4.262   0.471   1.130  0.3309  0.1386  0.3652
11957TIP3   OH235809   2.531   4.115   6.161 -0.2732  0.3857 -0.2728
11957TIP3    H135810   2.535   4.091   6.254  1.6996 -2.4395 -1.0203
11957TIP3    H235811   2.437   4.114   6.140 -0.7768  1.6341  1.7921
11958TIP3   OH235812   6.705   0.902   1.396  0.3309 -0.3583 -0.5031
11958TIP3    H135813   6.641   0.970   1.417 -0.3615 -1.3885  0.7962
11958TIP3    H235814   6.788   0.949   1.388 -0.4157  0.8493 -1.1850
11959TIP3   OH235815   1.228   5.534   6.918 -0.0742 -0.0810  0.3500
11959TIP3    H135816   1.254   5.506   7.006  0.8832 -0.1678  0.0419
11959TIP3    H235817   1.301   5.509   6.862 -0.7494 -0.1682 -0.5062
11960TIP3   OH235818   6.790   1.777   0.042  0.6355 -0.2558  0.3847
11960TIP3    H135819   6.822   1.689   0.022 -0.3594 -0.4055 -0.6150
11960TIP3    H235820   6.749   1.806  -0.040  0.2447  0.8187  0.9574
11961TIP3   OH235821   7.817   2.450   0.173  0.4174  0.4111 -0.6060
11961TIP3    H135822   7.723   2.467   0.179 -0.0235 -2.3289  1.7295
11961TIP3    H235823   7.858   2.533   0.196 -1.4802  0.9962  0.8011
11962TIP3   OH235824   0.492   6.158   5.373 -0.0714  0.1542 -0.3852
11962TIP3    H135825   0.555   6.161   5.302  0.1774 -0.7101 -0.2154
11962TIP3    H235826   0.408   6.137   5.330  0.2757 -1.4686 -0.3311
11963TIP3   OH235827   0.194   4.976   4.323 -0.6895 -0.6951 -0.1907
11963TIP3    H135828   0.235   5.027   4.254 -2.4022  0.8693 -0.0945
11963TIP3    H235829   0.160   5.041   4.384 -2.3276 -1.9641  0.2821
11964TIP3   OH235830   5.951   3.890   2.161 -0.1916  0.6313 -0.1933
11964TIP3    H135831   5.900   3.812   2.138  0.4920 -0.1150  0.7663
11964TIP3    H235832   6.029   3.884   2.105 -0.1855  0.6654 -0.1884
11965TIP3   OH235833   2.051   4.719   5.660  0.0750  0.0804 -0.2753
11965TIP3    H135834   2.135   4.680   5.637 -0.6895 -1.3105 -0.7206
11965TIP3    H235835   2.073   4.786   5.725  1.2848 -1.8744  1.3822
11966TIP3   OH235836   0.247   5.857   6.102  0.5690 -0.1997 -0.2893
11966TIP3    H135837   0.219   5.867   6.012 -0.1025 -0.6516 -0.1330
11966TIP3    H235838   0.169   5.826   6.149  0.7073  0.7362  0.5857
11967TIP3   OH235839   1.723   6.816   5.924  0.2034 -0.2925  0.2829
11967TIP3    H135840   1.670   6.885   5.883 -1.1755 -2.0049 -0.8888
11967TIP3    H235841   1.687   6.807   6.012 -0.0993 -0.0375  0.1855
11968TIP3   OH235842   5.874   1.832   2.035  0.3530 -0.2497  0.0450
11968TIP3    H135843   5.930   1.786   2.097 -0.5599  0.1475  1.1977
11968TIP3    H235844   5.934   1.887   1.984  0.8121  2.0651  2.9125
11969TIP3   OH235845   0.400   7.122   3.961 -0.4319 -0.3529 -0.0787
11969TIP3    H135846   0.385   7.043   3.909 -1.1235  0.6908 -1.4975
11969TIP3    H235847   0.496   7.126   3.970 -0.3591 -1.0386 -0.4944
11970TIP3   OH235848   4.079   0.347   6.412  0.5655 -0.0318  0.5280
11970TIP3    H135849   3.987   0.363   6.395  0.6566 -1.2651 -1.2518
11970TIP3    H235850   4.118   0.434   6.416 -0.1400  0.4507 -1.9561
11971TIP3   OH235851   1.140   5.440   6.093  0.0988  0.2264 -0.2556
11971TIP3    H135852   1.082   5.515   6.106 -1.5740 -1.2365  0.9779
11971TIP3    H235853   1.120   5.409   6.005  0.0655  0.6211 -0.3863
11972TIP3   OH235854   6.770   1.270   2.643  0.0297 -0.6477 -0.4301
11972TIP3    H135855   6.706   1.199   2.638  0.0647 -0.6182 -1.4732
11972TIP3    H235856   6.734   1.339   2.586  0.6671 -0.3761 -0.5144
11973TIP3   OH235857   0.763   2.524   1.357 -0.3686  0.3800  0.5464
11973TIP3    H135858   0.856   2.510   1.338 -0.4561  0.8964 -0.2950
11973TIP3    H235859   0.717   2.461   1.302 -0.5197  0.1115  0.9754
11974TIP3   OH235860   1.237   6.169   6.631 -0.0303 -0.6500 -0.2133
11974TIP3    H135861   1.235   6.074   6.620  0.0893 -1.1301  3.3064
11974TIP3    H235862   1.284   6.182   6.713 -1.1332  2.3885 -0.0217
11975TIP3   OH235863   4.073   0.057   6.078 -0.2835  0.2228 -0.3091
11975TIP3    H135864   4.096   0.005   6.001  1.6483  0.5637 -0.0054
11975TIP3    H235865   4.049   0.143   6.043  0.4142  0.3213 -0.5630
11976TIP3   OH235866   1.228   5.562   5.462  0.2674 -0.1912  0.1236
11976TIP3    H135867   1.200   5.532   5.376 -1.4654  0.4455  0.4529
11976TIP3    H235868   1.264   5.483   5.504 -1.7004 -1.2050 -0.0405
11977TIP3   OH235869   1.084   6.883   5.744 -0.0669  0.2609  0.0756
11977TIP3    H135870   1.150   6.871   5.812 -0.0659  0.0772  0.0432
11977TIP3    H235871   1.118   6.833   5.669 -0.5763 -0.3856  0.2805
11978TIP3   OH235872   0.904   5.007   6.198  0.3985 -0.4083  0.4380
11978TIP3    H135873   0.836   5.074   6.196 -0.0464 -0.7854  2.2751
11978TIP3    H235874   0.985   5.055   6.212  0.3313 -0.0917 -0.2381
11979TIP3   OH235875   1.529   5.441   4.490  0.0578  0.4153  1.2867
11979TIP3    H135876   1.542   5.421   4.582 -1.4289 -3.0190  0.8416
11979TIP3    H235877   1.583   5.378   4.443  0.4957  1.8626 -0.2061
11980TIP3   OH235878   7.357   4.658   6.179 -0.8083 -0.0619  0.3290
11980TIP3    H135879   7.357   4.676   6.085 -1.8289 -0.6862  0.2049
11980TIP3    H235880   7.435   4.603   6.193  0.0207  1.0141  0.0570
11981TIP3   OH235881   6.519   4.092   6.773 -0.1783  0.4679  0.4954
11981TIP3    H135882   6.516   4.175   6.726  0.8539 -0.4653 -1.3002
11981TIP3    H235883   6.428   4.068   6.785 -0.4691  0.6255 -1.2715
11982TIP3   OH235884   8.170   5.639   5.254  0.2219 -0.3022  0.0028
11982TIP3    H135885   8.156   5.560   5.201 -0.0673 -0.3102  0.0891
11982TIP3    H235886   8.119   5.707   5.210  0.8623 -0.0451 -0.3457
11983TIP3   OH235887   1.732   3.414   5.831 -0.2235  0.1540 -0.0887
11983TIP3    H135888   1.707   3.390   5.920  0.4899  1.9366  0.6232
11983TIP3    H235889   1.707   3.339   5.778 -1.6900 -0.4765  1.4521
11984TIP3   OH235890   0.717   5.203   6.218 -0.0731  0.2049 -0.2079
11984TIP3    H135891   0.678   5.268   6.160 -1.0654  0.1178  0.3425
11984TIP3    H235892   0.666   5.210   6.299  0.3576 -0.6767  0.1425
11985TIP3   OH235893   0.939   5.077   4.969  0.2656  0.7738 -0.0656
11985TIP3    H135894   0.947   5.040   4.881 -1.4234  0.1067  0.0431
11985TIP3    H235895   0.874   5.022   5.012  1.8609  0.4093  1.9846
11986TIP3   OH235896   6.696   3.586   0.617 -0.2766 -0.0107 -0.0564
11986TIP3    H135897   6.649   3.598   0.700  0.3832 -1.4732  0.5520
11986TIP3    H235898   6.674   3.664   0.566 -1.2167  0.6069  1.2398
11987TIP3   OH235899   1.416   5.662   3.561 -0.1975 -0.7430  0.5343
11987TIP3    H135900   1.352   5.705   3.504 -1.0270 -2.1565  0.3698
11987TIP3    H235901   1.388   5.685   3.650  0.1558  0.1692  0.4015
11988TIP3   OH235902   0.152   6.599   4.488  0.2025  0.1189  0.2920
11988TIP3    H135903   0.194   6.681   4.511  0.2948  0.1419  0.0455
11988TIP3    H235904   0.137   6.555   4.572 -0.8548  0.8773  0.5241
11989TIP3   OH235905   1.376   8.008   5.839 -0.1403  0.0985  0.2472
11989TIP3    H135906   1.377   7.914   5.853 -1.7222 -0.1516 -1.3168
11989TIP3    H235907   1.368   8.019   5.745 -0.2912  1.8060  0.4436
11990TIP3   OH235908   6.564   1.479   0.476  0.3618 -0.3533  0.5709
11990TIP3    H135909   6.509   1.512   0.547 -0.1048  1.5788 -0.6421
11990TIP3    H235910   6.604   1.400   0.511 -0.8706 -0.1393  2.5240
11991TIP3   OH235911   0.435   5.627   6.162 -0.0929 -0.5779  0.0161
11991TIP3    H135912   0.438   5.631   6.257  2.0012 -0.7016 -0.0154
11991TIP3    H235913   0.400   5.712   6.135  1.6154  0.4058  0.8340
11992TIP3   OH235914   4.551   0.205   6.430 -0.1493  0.4051  0.1440
11992TIP3    H135915   4.499   0.145   6.376 -1.0773 -0.2384  1.7147
11992TIP3    H235916   4.606   0.148   6.483  1.6412  1.0648 -0.9258
11993TIP3   OH235917   0.321   4.397   5.920  0.7576 -0.1170  0.5260
11993TIP3    H135918   0.415   4.411   5.908  0.9104 -1.3178  0.2545
11993TIP3    H235919   0.282   4.424   5.837  0.6330  2.2683  1.3140
11994TIP3   OH235920   0.672   6.542   5.659 -0.0578 -0.2629 -0.7712
11994TIP3    H135921   0.719   6.618   5.694 -0.3205 -0.7619  0.7168
11994TIP3    H235922   0.732   6.468   5.675 -1.3217 -0.9008  1.1057
11995TIP3   OH235923   6.218   1.313   0.917 -0.2126 -0.0384  0.3677
11995TIP3    H135924   6.217   1.253   0.992 -0.0428  1.2569  1.4313
11995TIP3    H235925   6.226   1.256   0.841  2.2829 -1.2465  1.4733
11996TIP3   OH235926   6.515   2.992   0.715 -0.3628  0.5563 -0.2601
11996TIP3    H135927   6.450   2.927   0.744 -1.1545  1.6828  0.5169
11996TIP3    H235928   6.596   2.963   0.756 -1.0849  1.0465  1.5698
11997TIP3   OH235929   5.951   1.624   0.217  0.5132  0.1894  0.2143
11997TIP3    H135930   6.040   1.659   0.224  1.0581 -1.2295  0.3953
11997TIP3    H235931   5.907   1.654   0.297  2.0211 -2.4594  2.0991
11998TIP3   OH235932   7.485   1.854   1.928  0.6516 -0.0447  0.3291
11998TIP3    H135933   7.510   1.945   1.944  1.6849 -0.7738  3.1802
11998TIP3    H235934   7.418   1.836   1.993  0.3141 -1.2754 -0.3533
11999TIP3   OH235935   6.923   2.117   1.115 -0.5091 -0.1474 -0.0926
11999TIP3    H135936   6.841   2.134   1.068 -0.1842  1.5338 -0.0756
11999TIP3    H235937   6.896   2.067   1.192 -1.8555  2.4704  1.1922
12000TIP3   OH235938   1.250   5.903   5.833  0.0376 -0.3941  0.2891
12000TIP3    H135939   1.297   5.867   5.909  1.4516 -0.1659 -0.4633
12000TIP3    H235940   1.174   5.947   5.871  1.1225  0.3459  1.6462
12001TIP3   OH235941   1.877   7.596   1.227  0.1514 -0.6216 -0.2767
12001TIP3    H135942   1.911   7.564   1.310 -0.4960  0.2090  0.3295
12001TIP3    H235943   1.784   7.612   1.244  0.6125  2.4295 -0.2463
12002TIP3   OH235944   7.763   0.617   0.581  0.2563  0.7939 -0.2793
12002TIP3    H135945   7.790   0.556   0.512  0.1284  0.8302 -0.3616
12002TIP3    H235946   7.843   0.633   0.631  0.1983  0.2292 -0.0003
12003TIP3   OH235947   1.617   7.226   6.572  0.4298  0.1463 -0.0008
12003TIP3    H135948   1.630   7.160   6.504 -1.1372 -1.1957  0.9686
12003TIP3    H235949   1.573   7.180   6.643  2.3552  1.4210  2.1182
12004TIP3   OH235950   5.643   4.554   2.772  0.0459 -0.0089  0.1380
12004TIP3    H135951   5.580   4.625   2.758  1.7813  1.3085 -1.3306
12004TIP3    H235952   5.722   4.598   2.805  1.2176 -1.2036 -0.9837
12005TIP3   OH235953   1.221   5.285   3.914  0.1208  0.1321 -0.1499
12005TIP3    H135954   1.183   5.200   3.936  2.0521 -1.0265 -1.1887
12005TIP3    H235955   1.313   5.278   3.939  0.6215  1.4198 -1.5356
12006TIP3   OH235956   2.600   7.332   6.691 -0.1527  0.3638  0.1437
12006TIP3    H135957   2.673   7.390   6.671  0.6083  1.0053  4.3308
12006TIP3    H235958   2.523   7.388   6.687 -0.2454  0.1186 -2.3362
12007TIP3   OH235959   1.184   5.843   5.149 -0.2324 -0.0863  0.4806
12007TIP3    H135960   1.151   5.754   5.141 -3.1476  1.1077 -1.9180
12007TIP3    H235961   1.149   5.875   5.232 -0.2556 -0.7488  0.7239
12008TIP3   OH235962   1.775   6.152   6.395 -0.0817  0.8582 -0.6562
12008TIP3    H135963   1.789   6.090   6.323 -1.2361 -1.2025  0.8437
12008TIP3    H235964   1.684   6.137   6.422  0.1821  1.9685  0.8939
12009TIP3   OH235965   1.506   7.550   5.541 -0.1455 -0.0418  0.0980
12009TIP3    H135966   1.597   7.550   5.571 -0.1705 -0.7138  0.1929
12009TIP3    H235967   1.512   7.523   5.449 -0.3295 -1.1160  0.3909
12010TIP3   OH235968   1.584   7.035   5.779 -0.1819 -0.1755 -0.3060
12010TIP3    H135969   1.657   7.090   5.749  0.3863 -0.8803 -0.2164
12010TIP3    H235970   1.519   7.042   5.709  0.1259  0.1578 -0.5642
12011TIP3   OH235971   6.164   1.374   1.520 -0.2828  0.1340 -0.0438
12011TIP3    H135972   6.120   1.420   1.448  0.0732  0.8453  0.1877
12011TIP3    H235973   6.249   1.350   1.484  0.2315  1.2375  0.3936
12012TIP3   OH235974   1.489   4.473   6.144  0.0268  0.5042 -0.2077
12012TIP3    H135975   1.528   4.392   6.112 -0.7592 -0.7472  1.8838
12012TIP3    H235976   1.426   4.444   6.211 -2.3549  2.6393 -1.4301
12013TIP3   OH235977   1.534   5.692   5.686 -0.4453  0.0660  0.6648
12013TIP3    H135978   1.595   5.619   5.674 -0.2123  0.2167  0.9424
12013TIP3    H235979   1.459   5.669   5.631  0.5056  0.6147 -0.9293
12014TIP3   OH235980   0.885   5.722   4.738 -0.8665 -0.0909 -0.5597
12014TIP3    H135981   0.904   5.793   4.799 -1.5664  0.0364 -0.4838
12014TIP3    H235982   0.820   5.668   4.783 -0.9983 -0.2864 -0.9744
12015TIP3   OH235983   1.640   6.481   5.678 -0.0118 -0.3589 -0.1000
12015TIP3    H135984   1.718   6.529   5.705  0.6460 -2.1284  1.2924
12015TIP3    H235985   1.615   6.432   5.756 -3.7471  1.7233  0.1477
12016TIP3   OH235986   2.170   3.714   6.387 -0.2549 -0.2124  0.5753
12016TIP3    H135987   2.236   3.680   6.326  0.2107 -2.9516  2.5610
12016TIP3    H235988   2.099   3.743   6.330  1.0234 -0.8201 -1.3937
12017TIP3   OH235989   2.055   6.216   5.574 -0.2464  0.9716  0.1778
12017TIP3    H135990   2.147   6.198   5.553 -0.4948  1.8398 -1.7375
12017TIP3    H235991   2.049   6.311   5.576 -0.7362  0.9226  2.0750
12018TIP3   OH235992   1.301   6.195   6.016 -0.4657  0.6972  0.3920
12018TIP3    H135993   1.335   6.198   6.105 -1.6102  0.4426  0.8497
12018TIP3    H235994   1.378   6.184   5.961  0.2477  0.8226  1.3498
12019TIP3   OH235995   0.600   4.947   6.126  0.2160  0.2138 -0.0457
12019TIP3    H135996   0.658   5.019   6.148  0.6064 -0.4650  1.2065
12019TIP3    H235997   0.569   4.914   6.211  0.9564 -1.8291 -0.5269
12020TIP3   OH235998   5.085   1.033   1.255  0.2555  0.4649  0.3235
12020TIP3    H135999   5.104   0.940   1.250 -1.5691  0.0638  0.5084
12020TIP3    H236000   4.994   1.038   1.283  0.5559  2.3088  1.1041
12021TIP3   OH236001   5.537   0.084   6.186 -0.4483  0.4391 -0.4704
12021TIP3    H136002   5.602   0.145   6.150  0.2390 -0.3625 -0.6148
12021TIP3    H236003   5.465   0.086   6.123  0.4177 -0.3776 -1.4904
12022TIP3   OH236004   5.010   0.297   6.532  0.6383 -0.3273  0.2168
12022TIP3    H136005   4.930   0.327   6.489  0.5790 -0.4314  0.2524
12022TIP3    H236006   5.017   0.205   6.508  1.4743  0.0065 -0.8941
12023TIP3   OH236007   6.561   4.273   0.559 -0.0045  0.1920 -0.0045
12023TIP3    H136008   6.538   4.362   0.530 -1.4009 -0.3411 -0.6030
12023TIP3    H236009   6.641   4.252   0.511 -0.0955  0.8387 -0.4548
12024TIP3   OH236010   6.717   0.106   0.848  0.0976 -0.3443  0.1304
12024TIP3    H136011   6.729   0.021   0.891  0.8324  0.1035  0.8359
12024TIP3    H236012   6.768   0.166   0.901 -0.1744  0.4892 -0.5480
12025TIP3   OH236013   6.030   0.434   0.556 -0.1537 -0.2967 -0.1560
12025TIP3    H136014   6.062   0.345   0.565  0.8869  0.0401 -0.5187
12025TIP3    H236015   5.945   0.425   0.512 -0.5828 -1.1763  0.8230
12026TIP3   OH236016   2.434   4.792   5.715 -0.2048  0.2421  0.1816
12026TIP3    H136017   2.486   4.835   5.647 -0.6138  0.1598 -0.1851
12026TIP3    H236018   2.379   4.730   5.667 -0.1621 -0.1495  0.6348
12027TIP3   OH236019   2.469   2.374   6.474 -0.3906  0.1520  0.7166
12027TIP3    H136020   2.541   2.330   6.518  0.4295  1.2307  0.4651
12027TIP3    H236021   2.448   2.317   6.400  0.5666  0.1039  0.4718
12028TIP3   OH236022   4.803   0.784   0.000 -0.2304 -0.0898  0.0646
12028TIP3    H136023   4.765   0.872   0.008 -1.5141 -0.7247  1.1762
12028TIP3    H236024   4.729   0.725   0.016  0.7653 -1.3658 -0.0195
12029TIP3   OH236025   8.279   3.210   1.847 -0.0985  0.6423 -0.3617
12029TIP3    H136026   8.245   3.212   1.936  0.6381 -2.3370  0.0397
12029TIP3    H236027   8.363   3.257   1.853  0.1616  0.0791  0.6391
12030TIP3   OH236028   1.385   3.821   6.600 -0.0951 -0.1940  0.0349
12030TIP3    H136029   1.400   3.916   6.602  0.2205 -0.2460  0.1856
12030TIP3    H236030   1.317   3.809   6.533 -0.1128  0.1347 -0.0083
12031TIP3   OH236031   0.034   6.257   5.219 -0.3027  0.2256  0.0686
12031TIP3    H136032  -0.024   6.192   5.260  2.6939 -1.0550  2.4187
12031TIP3    H236033   0.028   6.334   5.275  0.5850 -0.0708  0.5836
12032TIP3   OH236034  -0.003   7.211   4.960 -0.1453  0.5477  0.3121
12032TIP3    H136035   0.080   7.229   5.005 -1.0422  1.4411  1.6584
12032TIP3    H236036   0.004   7.259   4.877  1.4836 -1.0168 -0.4933
12033TIP3   OH236037   6.842   1.592   1.132  0.0516  0.3302  0.3086
12033TIP3    H136038   6.900   1.630   1.066 -0.2093  0.1726 -0.0145
12033TIP3    H236039   6.882   1.615   1.216  0.6721  0.0843  0.0833
12034TIP3   OH236040   8.313   2.144   1.159  0.1427 -0.2707  0.0830
12034TIP3    H136041   8.287   2.084   1.229 -1.1911 -0.7329 -0.7934
12034TIP3    H236042   8.391   2.104   1.121 -0.0659 -0.8589  0.2630
12035TIP3   OH236043   7.199   0.967   2.832  0.1274  0.0892 -0.4636
12035TIP3    H136044   7.212   0.874   2.814 -1.3971  0.0228 -1.3022
12035TIP3    H236045   7.287   1.002   2.844  0.7224 -1.4299 -0.2711
12036TIP3   OH236046   2.642   7.211   6.938  0.3652 -0.0259  0.0666
12036TIP3    H136047   2.622   7.234   6.847 -2.7752 -0.6286  0.5471
12036TIP3    H236048   2.641   7.296   6.984 -1.1941 -0.0279  0.0669
12037TIP3   OH236049   3.799   7.738   5.798 -0.1196 -0.2463 -0.3562
12037TIP3    H136050   3.836   7.700   5.878 -1.0957  0.7306  0.5696
12037TIP3    H236051   3.870   7.731   5.734  0.7166 -0.9183  0.6257
12038TIP3   OH236052   8.377   3.016   2.653 -0.1743  0.0351 -0.5709
12038TIP3    H136053   8.365   3.050   2.564 -0.6218  0.7715 -0.2307
12038TIP3    H236054   8.304   3.052   2.703 -0.5078 -1.2184 -0.1361
12039TIP3   OH236055   2.872   6.007   6.211  0.3198 -0.4892  0.0127
12039TIP3    H136056   2.849   6.025   6.302 -2.3744  0.4560 -0.8085
12039TIP3    H236057   2.967   6.016   6.207  0.3131  0.7453  2.4346
12040TIP3   OH236058   0.243   2.533   1.645 -0.4732  0.0477  0.3039
12040TIP3    H136059   0.309   2.470   1.617 -1.3421 -1.3629  1.4211
12040TIP3    H236060   0.215   2.503   1.731 -1.5601  1.4399  0.4567
12041TIP3   OH236061   1.906   4.705   6.142  0.7073 -0.2835  0.5594
12041TIP3    H136062   1.899   4.672   6.232  0.5481 -1.6309  0.0507
12041TIP3    H236063   1.824   4.678   6.100  0.7557  0.4034  0.0220
12042TIP3   OH236064   1.280   7.025   5.414 -0.1905 -0.0301  0.3424
12042TIP3    H136065   1.306   7.006   5.324 -0.6642  1.7711 -0.2038
12042TIP3    H236066   1.250   6.941   5.448  0.8537 -0.9320 -0.8738
12043TIP3   OH236067   5.194   0.464   6.057 -0.3963  0.2167 -0.4321
12043TIP3    H136068   5.198   0.464   6.153 -0.3113 -3.2314 -0.3837
12043TIP3    H236069   5.281   0.491   6.029 -0.0110 -0.0712  0.4767
12044TIP3   OH236070   1.307   6.933   4.407  0.8344  0.1571  0.0018
12044TIP3    H136071   1.365   6.856   4.401  0.0290 -0.4473 -0.1731
12044TIP3    H236072   1.303   6.967   4.317  1.9131  0.9458  0.2494
12045TIP3   OH236073   2.084   5.130   5.442 -0.1297  0.7627 -0.6006
12045TIP3    H136074   2.087   5.148   5.536 -0.3486  0.3299 -0.5078
12045TIP3    H236075   1.992   5.107   5.426  0.3731 -1.4641 -0.4832
12046TIP3   OH236076   1.460   7.385   6.398  0.2618  0.3510 -0.5180
12046TIP3    H136077   1.437   7.396   6.306  0.1754 -0.2646 -0.5698
12046TIP3    H236078   1.555   7.373   6.398  0.3891  1.3073 -0.4401
12047TIP3   OH236079   1.398   6.146   6.869  0.4399 -0.3727  0.3035
12047TIP3    H136080   1.408   6.052   6.882  0.6407 -0.4966 -0.6825
12047TIP3    H236081   1.482   6.183   6.894  1.5501 -0.8252 -2.5192
12048TIP3   OH236082   3.861   7.134   6.004  0.2563  0.3137  0.1757
12048TIP3    H136083   3.837   7.159   5.915 -1.3465  0.0670  0.5194
12048TIP3    H236084   3.955   7.152   6.010  0.4554 -0.0179 -1.6750
12049TIP3   OH236085   3.360   0.425   5.804  0.2094 -0.6145  0.1608
12049TIP3    H136086   3.295   0.485   5.842 -0.8421 -1.7240  0.1454
12049TIP3    H236087   3.429   0.421   5.870  0.0160  0.1557  0.4254
12050TIP3   OH236088   4.907   0.049   5.939 -0.3060  0.4846  0.1334
12050TIP3    H136089   4.873   0.072   6.025  0.0283  2.5449 -0.2461
12050TIP3    H236090   4.977   0.113   5.923 -0.7505  0.5099 -1.8956
12051TIP3   OH236091   2.181   6.176   4.226  0.0430 -0.4316  0.0286
12051TIP3    H136092   2.221   6.179   4.313 -1.2277 -2.2555  0.7164
12051TIP3    H236093   2.231   6.107   4.181  1.1257  0.9563 -0.9324
12052TIP3   OH236094   6.422   1.475   0.721 -0.3173 -0.4171 -0.5259
12052TIP3    H136095   6.389   1.523   0.798 -0.4073  0.7412 -1.2731
12052TIP3    H236096   6.514   1.459   0.741 -0.6027 -1.0560  0.2879
12053TIP3   OH236097   7.454   3.504   0.385 -0.5228 -0.3634 -0.2286
12053TIP3    H136098   7.457   3.471   0.475  1.8240  0.5155  0.0425
12053TIP3    H236099   7.497   3.435   0.334  2.7244  1.3263  0.0830
12054TIP3   OH236100   0.767   5.576   6.880  0.0435  0.4537  0.6993
12054TIP3    H136101   0.830   5.524   6.830  0.7089  1.0096  0.9538
12054TIP3    H236102   0.811   5.592   6.964 -0.5087  0.6981  0.9396
12055TIP3   OH236103   1.384   3.394   1.603 -0.0629  0.0740 -0.2100
12055TIP3    H136104   1.424   3.469   1.558  1.1540 -1.9166 -2.5193
12055TIP3    H236105   1.342   3.344   1.533  1.3948 -2.7983  0.9225
12056TIP3   OH236106   1.767   7.338   5.399 -0.2506  0.0877 -0.1865
12056TIP3    H136107   1.779   7.298   5.313  0.9713  0.1201 -0.0326
12056TIP3    H236108   1.700   7.405   5.386 -0.2538 -0.0856 -1.0506
12057TIP3   OH236109   0.567   3.582   1.496  0.0628  0.3705  0.1443
12057TIP3    H136110   0.478   3.555   1.475 -0.1014  0.3109  0.8966
12057TIP3    H236111   0.580   3.554   1.586  0.4420  1.3858  0.4135
12058TIP3   OH236112   7.964   2.750   0.934  0.7990 -0.0344 -0.3273
12058TIP3    H136113   7.972   2.777   0.843 -1.4567 -2.2220 -1.2494
12058TIP3    H236114   7.984   2.656   0.932 -0.3170 -0.3228  1.2304
12059TIP3   OH236115   7.544   3.806   0.481 -0.1151 -0.0512  0.0015
12059TIP3    H136116   7.526   3.740   0.414  0.8322 -0.9002  0.5590
12059TIP3    H236117   7.502   3.886   0.449 -0.8463 -0.7989 -0.9253
12060TIP3   OH236118   8.172   5.776   4.661 -0.0860 -0.4305 -0.7755
12060TIP3    H136119   8.205   5.837   4.727 -0.3547 -0.9954 -0.1094
12060TIP3    H236120   8.204   5.811   4.578 -0.0700  0.5021 -0.3853
12061TIP3   OH236121   2.039   7.184   5.014 -0.0771  0.2470 -0.2507
12061TIP3    H136122   2.052   7.149   5.102 -0.5951  1.4968  0.3262
12061TIP3    H236123   1.977   7.256   5.025  0.2019  0.7030 -1.5669
12062TIP3   OH236124   0.186   0.600   6.058 -0.5866  0.3964 -0.2643
12062TIP3    H136125   0.104   0.554   6.072  0.0830 -0.7973 -0.2001
12062TIP3    H236126   0.211   0.632   6.145  0.9311 -2.5378  0.4499
12063TIP3   OH236127   1.943   5.790   4.836  0.0177  0.0514  0.5790
12063TIP3    H136128   1.958   5.788   4.741 -0.0801  1.3294  0.5365
12063TIP3    H236129   1.873   5.725   4.850 -0.0801 -0.0254 -0.2400
12064TIP3   OH236130   0.734   6.187   5.914 -0.0001 -0.5319  0.0368
12064TIP3    H136131   0.735   6.093   5.930 -0.1135 -0.7430 -1.2061
12064TIP3    H236132   0.642   6.212   5.921  0.0511 -0.4776  0.5438
12065TIP3   OH236133   1.908   7.609   6.121 -0.2683  0.0400  0.3230
12065TIP3    H136134   1.842   7.541   6.111 -0.4235  0.1801  0.4025
12065TIP3    H236135   1.984   7.576   6.072  0.2465 -0.9727  1.7840
12066TIP3   OH236136   1.363   5.518   6.214  0.1503 -0.5242 -0.0276
12066TIP3    H136137   1.398   5.480   6.295 -0.2314 -1.1484 -0.1533
12066TIP3    H236138   1.278   5.477   6.203  0.2680 -0.5600 -0.8283
12067TIP3   OH236139   1.453   7.177   5.576 -0.0179 -0.1078  1.0081
12067TIP3    H136140   1.390   7.135   5.518  1.7505 -0.8255 -0.4690
12067TIP3    H236141   1.405   7.248   5.618 -1.1860  0.8641 -1.8685
12068TIP3   OH236142   2.360   7.300   5.863 -0.5323 -0.2501 -0.2935
12068TIP3    H136143   2.381   7.365   5.796 -1.7429  0.0371 -0.3939
12068TIP3    H236144   2.285   7.253   5.828  0.3965 -1.7891 -0.2785
12069TIP3   OH236145   1.335   7.126   6.465 -0.6529 -0.2766  0.2417
12069TIP3    H136146   1.280   7.127   6.386 -2.4964  0.2307  1.5002
12069TIP3    H236147   1.390   7.204   6.456  0.2213 -1.0333 -1.2480
12070TIP3   OH236148   5.843   2.630   1.081 -0.0252 -0.2547  0.3473
12070TIP3    H136149   5.769   2.598   1.029  0.9059  1.2051 -1.9511
12070TIP3    H236150   5.920   2.602   1.032  0.9071 -0.1211  1.7263
12071TIP3   OH236151   5.400   0.349   5.732  0.0862  0.3688 -0.0944
12071TIP3    H136152   5.491   0.320   5.727  0.4607  1.5547 -0.3340
12071TIP3    H236153   5.351   0.270   5.753  1.1324 -0.3471 -0.2988
12072TIP3   OH236154   3.791   6.229   5.729  0.7928  0.6053  0.0378
12072TIP3    H136155   3.719   6.292   5.734  1.4099  1.2587  1.1470
12072TIP3    H236156   3.785   6.180   5.811 -1.4483 -2.8275 -2.0523
12073TIP3   OH236157   7.633   3.355   0.903 -0.3113  0.2795  0.7586
12073TIP3    H136158   7.665   3.265   0.906  1.1505  0.7469 -0.2916
12073TIP3    H236159   7.686   3.401   0.968 -1.0034  0.4128  1.2363
12074TIP3   OH236160   8.095   2.121   0.766  0.0119  0.0265  0.3122
12074TIP3    H136161   8.064   2.061   0.834  1.6559 -1.5834 -0.3043
12074TIP3    H236162   8.186   2.095   0.751 -0.2580  0.4748 -2.3458
12075TIP3   OH236163   2.924   6.000   4.483  0.0474 -0.1912 -0.4714
12075TIP3    H136164   2.846   5.950   4.507 -0.6256  1.2754  0.4722
12075TIP3    H236165   2.894   6.059   4.414 -0.1378  1.5534  1.0474
12076TIP3   OH236166   1.539   5.473   5.497  0.0752 -0.4141  0.3997
12076TIP3    H136167   1.488   5.403   5.538 -0.0971 -1.2790 -1.2458
12076TIP3    H236168   1.584   5.430   5.424  0.0598  1.1586 -0.5491
12077TIP3   OH236169   0.701   2.347   1.169 -0.1123  0.2654  0.2322
12077TIP3    H136170   0.664   2.393   1.094  1.1639  0.4578 -0.2905
12077TIP3    H236171   0.730   2.263   1.133 -0.2086  0.0393  0.6812
12078TIP3   OH236172   0.159   1.865   0.513  0.0182  0.5221  0.0942
12078TIP3    H136173   0.224   1.795   0.519  0.8843  1.4135  1.5825
12078TIP3    H236174   0.088   1.835   0.569  0.7968  1.2309  1.4927
12079TIP3   OH236175   1.121   5.191   6.216 -0.4504  0.1470 -0.5081
12079TIP3    H136176   1.207   5.155   6.195  0.1830  0.1600  1.8579
12079TIP3    H236177   1.131   5.285   6.206 -0.4918  0.0719 -1.2626
12080TIP3   OH236178   2.655   5.449   5.036  0.3470 -0.1798 -0.2037
12080TIP3    H136179   2.744   5.481   5.024  1.7498 -2.9000  2.2997
12080TIP3    H236180   2.614   5.512   5.096  1.5349 -0.4789  0.9357
12081TIP3   OH236181   5.667   0.896   5.441  0.3488  0.2243  0.4422
12081TIP3    H136182   5.658   0.965   5.507 -1.3001  0.5136 -0.0633
12081TIP3    H236183   5.655   0.814   5.490 -0.9032  0.4383  0.5086
12082TIP3   OH236184   8.197   3.178   2.795 -0.2596  0.4730  0.3023
12082TIP3    H136185   8.214   3.272   2.783 -1.2917  0.7565  0.8913
12082TIP3    H236186   8.152   3.174   2.879 -1.9614 -0.3320 -0.6251
12083TIP3   OH236187   6.763   3.388   0.154 -0.2292  0.5368 -0.5381
12083TIP3    H136188   6.700   3.358   0.219 -0.6030 -0.0600 -1.1567
12083TIP3    H236189   6.709   3.427   0.085  0.0334 -0.3258 -1.2526
12084TIP3   OH236190   3.491   5.234   0.519  0.7257 -0.1050  0.0872
12084TIP3    H136191   3.499   5.260   0.428 -2.1574  0.5660 -0.0125
12084TIP3    H236192   3.423   5.166   0.520  0.4791  0.1258  1.7621
12085TIP3   OH236193   8.254   2.916   0.684  0.5124 -0.4929 -0.0965
12085TIP3    H136194   8.226   2.830   0.714 -0.1211  0.5025  2.2921
12085TIP3    H236195   8.276   2.903   0.591 -3.7281 -2.2994 -0.9873
12086TIP3   OH236196   6.565   1.631   3.888  0.2150  0.2688 -0.4851
12086TIP3    H136197   6.639   1.613   3.946 -0.6126 -1.1020  0.1560
12086TIP3    H236198   6.595   1.601   3.802  0.5481  0.0691 -0.3031
12087TIP3   OH236199   6.454   2.679   0.546 -0.5717 -0.2354 -0.3502
12087TIP3    H136200   6.430   2.620   0.474 -2.7751  0.7880 -0.4969
12087TIP3    H236201   6.503   2.750   0.503  0.7981 -1.1794 -0.3808
12088TIP3   OH236202   4.025   7.111   5.775 -0.3314  0.1429  0.4152
12088TIP3    H136203   4.016   7.204   5.755 -1.4813 -0.3691 -1.6246
12088TIP3    H236204   3.959   7.068   5.720  0.6336 -1.9356  0.8198
12089TIP3   OH236205   1.734   6.033   6.152 -0.2676 -0.6103  0.1936
12089TIP3    H136206   1.643   6.007   6.141 -0.6147  0.1634  1.1096
12089TIP3    H236207   1.774   6.017   6.067 -1.4263 -0.3098 -0.4217
12090TIP3   OH236208   6.872   1.877   0.872 -0.0906 -0.0812 -0.1634
12090TIP3    H136209   6.846   1.968   0.885  2.5018  0.8418 -1.0690
12090TIP3    H236210   6.897   1.872   0.780 -0.9491 -1.9177 -0.3086
12091TIP3   OH236211   1.673   2.965   1.447  0.4668 -0.0059 -0.0833
12091TIP3    H136212   1.751   2.940   1.398  0.5993 -0.6357  0.4361
12091TIP3    H236213   1.600   2.930   1.395  0.5809 -0.1937 -0.1186
12092TIP3   OH236214   1.511   5.327   5.015 -0.1930  0.1897 -0.1801
12092TIP3    H136215   1.572   5.377   5.069  1.1621 -1.2467 -0.3599
12092TIP3    H236216   1.436   5.385   5.004  1.2625  2.0959 -0.2256
12093TIP3   OH236217   1.978   5.435   5.492  0.6899  0.1523  0.3137
12093TIP3    H136218   1.913   5.365   5.499  0.3648  0.4280  0.1081
12093TIP3    H236219   2.005   5.451   5.582  1.6265 -1.0255  0.2542
12094TIP3   OH236220   6.771   0.611   0.074  0.2112 -0.4832  0.2144
12094TIP3    H136221   6.735   0.688   0.030  1.0799  0.0141  0.3643
12094TIP3    H236222   6.817   0.647   0.150 -1.3189 -1.3378  1.5643
12095TIP3   OH236223   1.250   3.044   4.965 -0.1246 -0.0197  0.0147
12095TIP3    H136224   1.310   3.118   4.977 -0.4384  0.3917 -0.9146
12095TIP3    H236225   1.212   3.029   5.051  2.2237 -1.0653  0.9258
12096TIP3   OH236226   1.912   5.345   5.137  0.2587 -0.8495 -0.0275
12096TIP3    H136227   1.983   5.283   5.119  1.3959  0.2270  0.6271
12096TIP3    H236228   1.955   5.431   5.135 -1.1565 -0.1291 -0.2404
12097TIP3   OH236229   1.955   6.668   4.949  0.0888  0.0169  0.2542
12097TIP3    H136230   2.037   6.672   4.998 -0.2255  1.2944  0.6909
12097TIP3    H236231   1.935   6.575   4.943  1.5785 -0.2986  0.1380
12098TIP3   OH236232   7.085   1.449   2.045 -1.1361  0.1619 -0.2657
12098TIP3    H136233   7.079   1.393   2.123 -0.4406  0.3572 -0.0664
12098TIP3    H236234   7.001   1.438   2.001 -0.8805 -1.3225 -0.4165
12099TIP3   OH236235   2.702   7.404   4.773 -0.1270 -0.3177  0.0307
12099TIP3    H136236   2.736   7.330   4.723 -0.2246 -1.3165  1.4175
12099TIP3    H236237   2.607   7.394   4.769 -0.1101 -1.1392  1.4932
12100TIP3   OH236238   2.213   6.125   5.855 -0.1086  0.8273  0.1132
12100TIP3    H136239   2.242   6.208   5.894 -1.2535  1.0717  0.4797
12100TIP3    H236240   2.118   6.135   5.846  0.0296  0.4492 -2.0164
12101TIP3   OH236241   0.171   5.969   5.626  0.0340  0.5466 -0.0717
12101TIP3    H136242   0.229   5.936   5.557 -2.0788  0.5136 -1.9020
12101TIP3    H236243   0.097   6.006   5.578 -0.8524  1.7324  2.1811
12102TIP3   OH236244   5.701   0.343   4.779  0.4533  0.2126 -0.0617
12102TIP3    H136245   5.754   0.283   4.728  1.4658 -0.3261  1.5590
12102TIP3    H236246   5.633   0.289   4.818 -0.4165  0.6472 -0.9692
12103TIP3   OH236247   0.812   5.406   5.592 -0.0002 -0.0972 -0.2656
12103TIP3    H136248   0.892   5.453   5.615  0.4121 -0.9298  0.0013
12103TIP3    H236249   0.742   5.460   5.629  0.5912 -0.8022  1.9756
12104TIP3   OH236250   1.633   6.907   5.487  0.3077  0.2469  0.0863
12104TIP3    H136251   1.568   6.976   5.474 -0.3344 -0.5337 -1.0195
12104TIP3    H236252   1.595   6.850   5.554  0.0194  0.0058 -0.2783
12105TIP3   OH236253   2.173   5.169   3.389  0.0561 -0.2786  0.8200
12105TIP3    H136254   2.137   5.081   3.388 -1.2544  0.2375 -1.5254
12105TIP3    H236255   2.260   5.160   3.351 -0.8475 -0.3042 -1.3233
12106TIP3   OH236256   2.268   6.168   4.487 -0.0599 -0.0927  0.1568
12106TIP3    H136257   2.296   6.246   4.535  0.1065 -1.5308  2.4860
12106TIP3    H236258   2.319   6.097   4.525 -1.5076 -1.6225 -0.6770
12107TIP3   OH236259   1.160   5.858   2.958  0.4228  0.1279  0.2299
12107TIP3    H136260   1.170   5.785   2.896 -0.7846  0.6413 -0.5722
12107TIP3    H236261   1.248   5.869   2.995  1.0282 -0.5642 -0.9558
12108TIP3   OH236262   2.608   6.920   5.705 -0.2164  0.5909  0.0264
12108TIP3    H136263   2.669   6.869   5.651  0.4971  0.4318  0.9715
12108TIP3    H236264   2.634   7.011   5.692 -0.4193  0.5980 -0.3449
12109TIP3   OH236265   0.922   5.354   4.693  0.0888  0.6871  0.1104
12109TIP3    H136266   0.952   5.263   4.690  0.2659  0.6836  1.8264
12109TIP3    H236267   0.952   5.392   4.610 -1.8415 -1.3800 -1.6183
12110TIP3   OH236268   1.935   6.348   4.398 -0.2089 -0.7699  0.4234
12110TIP3    H136269   2.008   6.325   4.456  0.5855  0.8099  0.0757
12110TIP3    H236270   1.939   6.283   4.328  3.0543  1.2709 -1.4585
12111TIP3   OH236271   8.130   5.176   5.062  0.1545 -0.2939  0.2338
12111TIP3    H136272   8.038   5.180   5.036  0.3469 -1.0465 -0.5754
12111TIP3    H236273   8.128   5.135   5.149 -0.1633 -1.8800 -0.4961
12112TIP3   OH236274   1.945   7.685   6.935 -0.0453 -0.1371  0.5687
12112TIP3    H136275   1.989   7.727   6.861  1.5673 -1.1260  0.9267
12112TIP3    H236276   1.857   7.665   6.903  0.4011  0.1033 -0.8292
12113TIP3   OH236277   2.807   5.858   5.765 -0.1855  0.0080 -0.0273
12113TIP3    H136278   2.777   5.830   5.852  1.1524 -1.6274 -0.0741
12113TIP3    H236279   2.890   5.812   5.752  0.4601  1.5215 -1.4875
12114TIP3   OH236280   1.261   6.594   6.847 -0.0320 -0.2668 -0.4144
12114TIP3    H136281   1.222   6.653   6.782  0.2933 -1.2475 -1.5159
12114TIP3    H236282   1.186   6.563   6.898 -0.4449 -0.5259 -1.1772
12115TIP3   OH236283   2.128   5.184   5.111  0.2385 -0.4347  0.6299
12115TIP3    H136284   2.191   5.113   5.098  0.5134  0.1177 -1.2894
12115TIP3    H236285   2.173   5.246   5.169  0.3562 -1.3721  1.5469
12116TIP3   OH236286   3.396   5.851   6.280 -0.2206  0.6427 -0.3048
12116TIP3    H136287   3.407   5.866   6.374 -1.8706 -1.6373  0.2975
12116TIP3    H236288   3.323   5.907   6.255  0.3255  1.3754 -0.2793
12117TIP3   OH236289   1.175   6.780   5.482 -0.2899  0.4159  0.0070
12117TIP3    H136290   1.102   6.720   5.465  0.3994 -0.6017  0.5454
12117TIP3    H236291   1.252   6.731   5.452  0.1635  1.4876 -0.5804
12118TIP3   OH236292   3.251   7.361   6.518 -0.1154  0.1467  0.4258
12118TIP3    H136293   3.287   7.389   6.603 -1.2852 -0.0252  0.9914
12118TIP3    H236294   3.304   7.285   6.494  0.6472  0.5844  0.6861
12119TIP3   OH236295   2.375   7.413   6.115 -0.4294 -0.4590 -0.0479
12119TIP3    H136296   2.366   7.360   6.035 -1.8252 -0.1207 -0.1291
12119TIP3    H236297   2.289   7.406   6.158  0.3385 -0.7138  1.4740
12120TIP3   OH236298   8.432   2.862   0.451  0.1714  0.5152  0.4379
12120TIP3    H136299   8.474   2.781   0.424  1.2100  0.7213  1.4097
12120TIP3    H236300   8.450   2.924   0.380 -1.4593 -0.3581 -0.7698
12121TIP3   OH236301   2.558   4.686   6.190 -0.6063 -0.0900  0.5574
12121TIP3    H136302   2.617   4.674   6.116 -5.1686 -1.9174 -2.9652
12121TIP3    H236303   2.577   4.613   6.248 -0.7184 -1.7698 -1.4774
12122TIP3   OH236304   6.012   1.098   5.886  0.1549  0.0997  0.4281
12122TIP3    H136305   6.009   1.162   5.957  0.2116 -0.9537  1.4079
12122TIP3    H236306   5.925   1.103   5.846  0.3166  1.1093  0.1993
12123TIP3   OH236307   1.783   7.138   5.179 -0.6300  0.4211  0.1965
12123TIP3    H136308   1.688   7.140   5.170 -0.4370  0.9327 -2.0990
12123TIP3    H236309   1.813   7.085   5.105  0.9430  1.3518  0.1313
12124TIP3   OH236310   7.166   3.501   0.449 -0.5833  0.1152  0.3144
12124TIP3    H136311   7.220   3.538   0.379 -0.0894 -1.4102 -0.1353
12124TIP3    H236312   7.168   3.567   0.518 -0.8357  1.5067 -0.9858
12125TIP3   OH236313   7.695   1.447   1.328 -0.5679 -0.3496  0.0331
12125TIP3    H136314   7.737   1.494   1.400 -1.0525 -2.3971  1.6694
12125TIP3    H236315   7.698   1.509   1.255  1.7537  1.0102  1.2162
12126TIP3   OH236316   6.609   3.469   0.864 -1.0855  0.0127  0.0135
12126TIP3    H136317   6.647   3.423   0.938 -3.1303 -0.0048  1.0785
12126TIP3    H236318   6.598   3.402   0.797  0.5142 -0.0227 -0.2401
12127TIP3   OH236319   6.181   0.326   5.720 -0.4377  0.0047  0.6910
12127TIP3    H136320   6.168   0.234   5.698 -1.2164 -0.5683  3.2917
12127TIP3    H236321   6.204   0.369   5.638  0.3307 -2.5914 -0.4669
12128TIP3   OH236322   0.765   7.303   6.836 -0.3602  1.0098 -0.5624
12128TIP3    H136323   0.672   7.317   6.854 -0.1460 -0.6026  1.9189
12128TIP3    H236324   0.807   7.303   6.922  1.5392 -1.1409 -1.4501
12129TIP3   OH236325   5.208   6.893   3.811  0.5206  0.1644  1.2484
12129TIP3    H136326   5.192   6.982   3.781 -0.3654 -0.6232 -0.7118
12129TIP3    H236327   5.133   6.872   3.867  0.2749  0.3267  0.9759
12130TIP3   OH236328   1.312   6.370   6.474 -0.4852  0.7812  0.0373
12130TIP3    H136329   1.400   6.398   6.498  0.3450 -1.3067 -0.4596
12130TIP3    H236330   1.291   6.301   6.537 -1.2577  0.4185 -0.6101
12131TIP3   OH236331   0.921   7.041   5.242  0.1441  0.1783  0.0282
12131TIP3    H136332   0.990   6.976   5.257  2.0388  2.4537  1.4687
12131TIP3    H236333   0.897   7.028   5.150  1.9888 -1.1530 -0.3067
12132TIP3   OH236334   0.814   6.356   3.943  0.8492 -0.9469  0.2650
12132TIP3    H136335   0.904   6.345   3.974  0.5407 -4.8166  0.0749
12132TIP3    H236336   0.761   6.305   4.005 -1.2954  1.6689  0.6450
12133TIP3   OH236337   1.841   5.698   5.850 -0.0525  0.0989 -0.0345
12133TIP3    H136338   1.860   5.686   5.757 -0.1014  0.9665 -0.1647
12133TIP3    H236339   1.746   5.696   5.856 -0.0714  0.5849 -0.0919
12134TIP3   OH236340   6.584   1.726   1.708  0.0528 -0.4534  0.9238
12134TIP3    H136341   6.504   1.736   1.657  0.4878  0.9198  0.4925
12134TIP3    H236342   6.570   1.647   1.759 -2.5091  0.9968  2.5657
12135TIP3   OH236343   2.771   5.742   6.472 -0.4463 -0.1221  0.5842
12135TIP3    H136344   2.837   5.690   6.425 -1.6265 -1.0480 -0.0556
12135TIP3    H236345   2.772   5.826   6.428  0.8865  0.1495  1.0974
12136TIP3   OH236346   3.713   7.511   3.926  0.2368  0.2300 -0.2115
12136TIP3    H136347   3.627   7.505   3.967  0.3029  1.0366  0.0526
12136TIP3    H236348   3.764   7.442   3.968 -0.0828  0.1864  0.1138
12137TIP3   OH236349   4.051   7.714   5.147 -0.2595 -1.1493  0.2123
12137TIP3    H136350   4.022   7.783   5.088 -0.8955  0.4504  2.3535
12137TIP3    H236351   4.122   7.670   5.099  1.2258  1.9547 -0.5605
12138TIP3   OH236352   7.287   0.787   5.101 -0.3190  0.1423  0.2162
12138TIP3    H136353   7.276   0.697   5.131  0.2099 -0.3528 -1.0100
12138TIP3    H236354   7.268   0.783   5.007 -1.5418  1.5621  0.3833
12139TIP3   OH236355   6.906   1.346   4.942 -0.0494 -0.3567 -0.8216
12139TIP3    H136356   6.851   1.419   4.972  1.3955  0.9687 -1.3388
12139TIP3    H236357   6.844   1.278   4.916 -1.4077  0.4975  0.1426
12140TIP3   OH236358   0.901   4.680   5.475  0.1834 -0.5437  0.0802
12140TIP3    H136359   0.843   4.688   5.399  0.0458  0.6644  0.3054
12140TIP3    H236360   0.895   4.765   5.518  0.0685 -1.2938  1.5788
12141TIP3   OH236361   0.291   6.771   5.206  0.1796  1.1161 -0.5807
12141TIP3    H136362   0.329   6.808   5.286 -2.2181  0.3388  0.9669
12141TIP3    H236363   0.295   6.843   5.142  1.0866  2.0958  0.5489
12142TIP3   OH236364   7.357   4.332   1.002 -0.4235  0.1351 -0.1811
12142TIP3    H136365   7.324   4.266   0.942 -0.8502  0.2574 -0.0843
12142TIP3    H236366   7.422   4.286   1.056  0.5624  0.2253 -1.2789
12143TIP3   OH236367   3.021   6.984   6.115  0.4025 -0.3525  0.2851
12143TIP3    H136368   2.994   6.911   6.171  0.7516  0.8175  2.0064
12143TIP3    H236369   3.022   6.947   6.027 -0.6833 -2.0839  0.9705
12144TIP3   OH236370   3.365   7.031   5.965  0.1223  0.2533  0.0959
12144TIP3    H136371   3.435   7.047   5.902 -0.8478  2.1072 -0.5616
12144TIP3    H236372   3.353   6.936   5.965  2.5115 -0.0839  0.1295
12145TIP3   OH236373   2.713   5.452   3.624 -0.0080  0.5327 -0.0378
12145TIP3    H136374   2.619   5.466   3.636 -0.2623  0.4126 -1.7504
12145TIP3    H236375   2.733   5.375   3.678 -1.1289 -0.1016 -0.4952
12146TIP3   OH236376   3.178   3.348   5.052  0.1763 -0.4199 -0.2415
12146TIP3    H136377   3.225   3.406   4.993  1.5785  0.1885  1.4447
12146TIP3    H236378   3.106   3.402   5.086 -0.1958 -0.5512 -0.8000
12147TIP3   OH236379   0.652   6.427   4.881  0.0543  0.0596 -0.4048
12147TIP3    H136380   0.694   6.482   4.815  0.3721  1.1141  0.6439
12147TIP3    H236381   0.675   6.469   4.965 -1.2842 -0.5969  0.3075
12148TIP3   OH236382   2.963   7.456   5.729  0.0518  0.0123 -0.3669
12148TIP3    H136383   2.997   7.495   5.649  0.0444 -0.3786 -0.5595
12148TIP3    H236384   2.986   7.519   5.798 -0.2525  0.5138 -0.7233
12149TIP3   OH236385   0.687   6.253   6.754 -0.3490 -0.1357 -0.0320
12149TIP3    H136386   0.649   6.337   6.779 -1.2308 -0.7419  0.6815
12149TIP3    H236387   0.700   6.207   6.837  1.3630 -0.1863 -0.3102
12150TIP3   OH236388   2.971   7.741   5.445  0.7690 -0.2041  0.3306
12150TIP3    H136389   2.956   7.704   5.358  0.0608  0.7283  0.0498
12150TIP3    H236390   2.902   7.808   5.455  0.3304 -0.8667  1.9235
12151TIP3   OH236391   2.028   5.962   4.509  0.3416  0.1847  0.0937
12151TIP3    H136392   2.059   6.047   4.479 -0.0322  0.0842 -0.6003
12151TIP3    H236393   2.090   5.936   4.576  1.6876  0.0461 -1.1771
12152TIP3   OH236394   1.926   7.416   5.821 -0.2335  0.3530  0.3284
12152TIP3    H136395   1.913   7.341   5.762  1.3245  0.0861  0.3139
12152TIP3    H236396   1.999   7.464   5.783  0.4749  0.4476  1.7796
12153TIP3   OH236397   2.814   4.162   5.770 -0.5246 -0.1407  0.3526
12153TIP3    H136398   2.896   4.127   5.804  0.2238  2.4798  1.3105
12153TIP3    H236399   2.751   4.146   5.840 -0.0680  0.9023  1.0029
12154TIP3   OH236400   2.273   5.636   5.692  0.5144 -0.6909  0.2757
12154TIP3    H136401   2.296   5.729   5.693  0.3718 -0.6534 -0.1395
12154TIP3    H236402   2.345   5.594   5.739  1.5953 -0.6028 -1.2728
12155TIP3   OH236403   1.409   5.323   4.146 -0.7435  0.0121 -0.3540
12155TIP3    H136404   1.443   5.239   4.177 -0.9674  0.4416  1.1225
12155TIP3    H236405   1.486   5.367   4.110 -0.2736 -0.1562  0.4111
12156TIP3   OH236406   1.575   5.958   5.272 -0.4140 -0.1678  0.3429
12156TIP3    H136407   1.533   5.871   5.268 -1.6473  0.4243  0.2096
12156TIP3    H236408   1.597   5.970   5.364 -1.9053  0.1497  0.6655
12157TIP3   OH236409   2.724   6.804   6.368  0.0586 -0.0438 -0.2413
12157TIP3    H136410   2.690   6.884   6.329  0.8754  0.0219 -0.8271
12157TIP3    H236411   2.819   6.813   6.365  0.1577 -0.8472  0.0772
12158TIP3   OH236412   5.210   7.960   5.271 -0.1967 -0.6344 -0.3380
12158TIP3    H136413   5.249   7.890   5.219  0.9938  0.6693 -1.2501
12158TIP3    H236414   5.174   8.021   5.207 -0.7605 -0.1416  0.4307
12159TIP3   OH236415   1.242   6.064   4.667 -0.3223  0.7510  0.4917
12159TIP3    H136416   1.329   6.036   4.695 -0.7688  0.5397  1.6984
12159TIP3    H236417   1.223   6.011   4.590 -0.0004 -0.2788  1.1138
12160TIP3   OH236418   6.058   3.390   1.698  0.3109 -0.0303 -0.1777
12160TIP3    H136419   6.098   3.442   1.769 -0.3993 -0.3593  0.4642
12160TIP3    H236420   6.130   3.336   1.666  1.1647  1.5933 -1.1024
12161TIP3   OH236421   0.913   7.288   5.356  0.1273  0.0408 -0.0965
12161TIP3    H136422   0.975   7.268   5.425  0.9442 -0.6254 -1.0150
12161TIP3    H236423   0.908   7.208   5.303  1.3540  1.3257 -2.2213
12162TIP3   OH236424   1.696   7.469   6.018  0.2363  0.3567 -0.1351
12162TIP3    H136425   1.736   7.459   5.932  1.1969 -0.9959  0.4591
12162TIP3    H236426   1.633   7.397   6.024  0.4291  0.2297  0.4243
12163TIP3   OH236427   6.454   1.153   0.135  0.6263 -0.3805 -0.8023
12163TIP3    H136428   6.389   1.086   0.111 -2.0617  0.9421  2.4220
12163TIP3    H236429   6.416   1.235   0.105  0.4336  0.4976  1.7505
12164TIP3   OH236430   2.979   7.642   5.199 -0.0346 -0.4490 -0.3790
12164TIP3    H136431   3.068   7.677   5.199 -0.8019  1.5489  0.7125
12164TIP3    H236432   2.950   7.650   5.108  0.6520 -0.4857 -0.6058
12165TIP3   OH236433   6.583   0.909   4.783  0.7919  0.0148  0.9308
12165TIP3    H136434   6.535   0.973   4.730  0.8726 -0.2692  0.5219
12165TIP3    H236435   6.667   0.952   4.802  1.3024 -0.4236 -0.2952
12166TIP3   OH236436   2.937   5.840   5.334  0.0141  0.1710 -0.8132
12166TIP3    H136437   3.018   5.813   5.291  1.2561  0.4366  1.3002
12166TIP3    H236438   2.900   5.760   5.369  1.1667  0.4574  1.1775
12167TIP3   OH236439   2.239   6.783   3.709 -0.0642  0.1937 -0.6949
12167TIP3    H136440   2.229   6.730   3.788  0.8232 -1.7122 -1.8403
12167TIP3    H236441   2.149   6.799   3.680 -0.3550 -0.2153 -0.0359
12168TIP3   OH236442   0.190   2.583   1.349 -0.2813 -0.6654  0.1018
12168TIP3    H136443   0.138   2.539   1.416  0.5996 -1.7683  0.0694
12168TIP3    H236444   0.128   2.642   1.306 -1.1289 -0.8111  1.1015
12169TIP3   OH236445   2.409   7.546   6.537 -0.1491 -0.0789  0.0196
12169TIP3    H136446   2.404   7.634   6.574 -0.4953  0.4154 -1.1981
12169TIP3    H236447   2.320   7.525   6.511  0.0806 -0.4605 -0.4738
12170TIP3   OH236448   0.967   6.858   6.492  0.0841  0.4829 -0.2182
12170TIP3    H136449   0.894   6.805   6.522 -1.0425  1.0228 -1.9074
12170TIP3    H236450   0.936   6.948   6.498  0.4060  0.6929 -1.4207
12171TIP3   OH236451   7.631   2.421   2.877  0.2904 -0.0533  0.4918
12171TIP3    H136452   7.703   2.447   2.819  1.9432 -1.9716  1.6394
12171TIP3    H236453   7.645   2.472   2.957  0.9280 -1.1349  1.0712
12172TIP3   OH236454   3.897   6.237   3.485 -0.8177 -0.3545  0.4073
12172TIP3    H136455   3.809   6.201   3.488 -0.7624 -0.4263  1.1929
12172TIP3    H236456   3.946   6.177   3.429 -0.9848 -0.9262  0.8733
12173TIP3   OH236457   7.984   3.442   1.145  0.3949 -0.1106  0.1312
12173TIP3    H136458   8.024   3.461   1.230  1.2568  0.9784 -0.4982
12173TIP3    H236459   8.056   3.408   1.092 -0.1757 -0.9332 -0.1312
12174TIP3   OH236460   3.385   3.230   4.061 -0.6255  0.2893 -0.2432
12174TIP3    H136461   3.476   3.252   4.041 -0.5573  0.5478  0.3518
12174TIP3    H236462   3.370   3.148   4.013 -0.3814  0.7481 -1.1268
12175TIP3   OH236463   1.906   6.532   6.207  0.0742 -0.3510  0.0487
12175TIP3    H136464   1.955   6.524   6.125 -0.9946  0.6008 -0.6947
12175TIP3    H236465   1.824   6.487   6.189  0.6094 -1.8248  1.2470
12176TIP3   OH236466   6.610   1.339   6.221 -0.4382  0.0731  1.2084
12176TIP3    H136467   6.659   1.319   6.142  1.1382 -0.0382  2.1807
12176TIP3    H236468   6.540   1.273   6.224 -0.7045  0.2727 -0.2264
12177TIP3   OH236469   3.339   4.131   3.956  0.5621  0.0978 -0.1241
12177TIP3    H136470   3.323   4.037   3.954  0.8473 -0.0136  1.6835
12177TIP3    H236471   3.317   4.162   3.868 -0.2550 -1.5314 -0.5010
12178TIP3   OH236472   2.351   6.991   5.610 -0.5737  0.7541 -0.7388
12178TIP3    H136473   2.430   6.957   5.653 -0.0603  2.2674 -0.4495
12178TIP3    H236474   2.381   7.019   5.523 -1.5028 -1.8008 -1.9161
12179TIP3   OH236475   0.016   5.145   0.912 -0.0364 -0.3688  0.0509
12179TIP3    H136476  -0.070   5.152   0.952  0.6425  3.1415  1.0524
12179TIP3    H236477   0.077   5.143   0.986  0.7548 -5.6414 -0.5070
12180TIP3   OH236478   2.135   5.925   6.334 -0.2776 -0.3731 -0.5600
12180TIP3    H136479   2.093   5.918   6.419  0.0702  0.8401 -0.2839
12180TIP3    H236480   2.216   5.875   6.343 -0.1763 -0.1280 -0.1386
12181TIP3   OH236481   1.292   7.404   4.739  0.6911 -0.3699  0.2355
12181TIP3    H136482   1.351   7.472   4.771 -0.6284  0.9283 -0.0300
12181TIP3    H236483   1.229   7.451   4.685 -0.1629 -1.8324 -0.0547
12182TIP3   OH236484   2.407   6.987   4.312 -0.3474 -0.2800 -0.1350
12182TIP3    H136485   2.464   6.910   4.315  0.8757  0.6313  0.0237
12182TIP3    H236486   2.462   7.060   4.340 -1.8221  0.4727  0.8720
12183TIP3   OH236487   4.023   6.282   4.511  0.2871 -0.2522  0.0156
12183TIP3    H136488   3.954   6.324   4.563  0.4393  0.7186 -0.5596
12183TIP3    H236489   4.091   6.349   4.502  0.8404 -0.8492 -0.3337
12184TIP3   OH236490   8.120   2.812   0.428  0.2676  0.0309  0.1180
12184TIP3    H136491   8.166   2.728   0.422  0.9674  0.4468 -0.4199
12184TIP3    H236492   8.164   2.868   0.364 -1.7200  0.1017 -1.2316
12185TIP3   OH236493   1.124   4.805   5.181  0.2439 -0.4765 -0.1691
12185TIP3    H136494   1.185   4.866   5.138  0.3161 -0.0921  0.4767
12185TIP3    H236495   1.058   4.788   5.115 -0.1176  0.7959 -0.1547
12186TIP3   OH236496   2.308   3.942   5.624  0.0585 -0.5327  0.7370
12186TIP3    H136497   2.374   3.893   5.575  0.0668 -1.4125  1.6219
12186TIP3    H236498   2.314   3.908   5.713 -0.4265  0.5793  1.2023
12187TIP3   OH236499   0.625   5.569   5.729  0.5327  0.3063 -0.4828
12187TIP3    H136500   0.533   5.557   5.754  0.8043  1.0681  0.9718
12187TIP3    H236501   0.626   5.650   5.678  0.4617  0.5409 -0.1122
12188TIP3   OH236502   1.165   6.772   5.107 -0.1781  0.3226  0.4798
12188TIP3    H136503   1.194   6.684   5.129 -1.0694  0.1935  1.1467
12188TIP3    H236504   1.073   6.775   5.132 -0.1105  1.5043  0.6435
12189TIP3   OH236505   8.358   2.053   0.704 -0.9173 -0.8712  0.2656
12189TIP3    H136506   8.415   2.068   0.629 -0.1579  0.3141  1.0729
12189TIP3    H236507   8.407   1.993   0.760 -0.7351 -0.3547  0.6585
12190TIP3   OH236508   4.464   0.226   4.562 -0.2288 -0.0011 -0.3773
12190TIP3    H136509   4.526   0.153   4.569 -0.6928 -0.5312 -1.6198
12190TIP3    H236510   4.516   0.304   4.582  0.3503 -0.6356  0.6350
12191TIP3   OH236511   2.038   5.111   2.235 -0.0145  0.4380 -0.8278
12191TIP3    H136512   2.004   5.099   2.324 -0.2182  0.3636 -0.9137
12191TIP3    H236513   2.014   5.030   2.190  1.2367 -0.0680 -0.5978
12192TIP3   OH236514   2.658   7.557   5.246 -0.5526 -0.6036 -0.3592
12192TIP3    H136515   2.621   7.515   5.168  0.3391 -0.2679 -0.9662
12192TIP3    H236516   2.725   7.616   5.212 -0.0943 -0.5196  0.6717
12193TIP3   OH236517   7.250   2.269   0.099  0.3990  0.1523  0.2386
12193TIP3    H136518   7.309   2.301   0.167 -1.3804  1.8444  1.0115
12193TIP3    H236519   7.232   2.345   0.044  3.5241 -1.6471 -3.5091
12194TIP3   OH236520   3.971   7.616   5.976  0.5557  0.4453  0.2098
12194TIP3    H136521   4.021   7.698   5.978  4.0855 -1.6031  0.8270
12194TIP3    H236522   3.983   7.578   6.063  0.5387 -1.5976 -0.6495
12195TIP3   OH236523   2.772   6.221   5.279 -0.2577  0.2137 -0.8207
12195TIP3    H136524   2.849   6.258   5.322 -0.9987  0.2823  0.4689
12195TIP3    H236525   2.745   6.287   5.216 -0.3548  0.9872  0.0278
12196TIP3   OH236526   2.212   2.704   0.471  0.0061  0.3018  0.4545
12196TIP3    H136527   2.150   2.722   0.541  0.6791  2.7470  0.4675
12196TIP3    H236528   2.258   2.625   0.500 -2.8019 -1.3419  0.6007
12197TIP3   OH236529   2.009   6.611   5.358 -0.1104 -0.6629 -0.0888
12197TIP3    H136530   2.011   6.576   5.269 -0.1405 -1.3785  0.1881
12197TIP3    H236531   2.100   6.630   5.379 -0.2105  0.4757 -0.6452
12198TIP3   OH236532   0.953   4.558   4.597 -0.1511  0.1279  0.7327
12198TIP3    H136533   0.958   4.580   4.503 -1.5532 -0.2538  0.5648
12198TIP3    H236534   1.041   4.529   4.619  0.4625  1.1959 -0.2280
12199TIP3   OH236535   4.742   6.798   5.875 -0.5701 -0.4943  0.7986
12199TIP3    H136536   4.681   6.872   5.869  0.1105 -0.0203 -0.7877
12199TIP3    H236537   4.692   6.723   5.845  0.2982  0.3636 -3.2191
12200TIP3   OH236538   1.619   3.517   0.893 -0.0900  0.2771 -0.4120
12200TIP3    H136539   1.670   3.474   0.962  1.1857  1.2220 -0.7644
12200TIP3    H236540   1.550   3.564   0.940 -0.7282 -1.1015  0.0566
12201TIP3   OH236541   3.843   6.937   5.140  0.1447  0.0111 -0.2544
12201TIP3    H136542   3.826   6.919   5.047  1.8555 -1.4634 -0.3068
12201TIP3    H236543   3.758   6.922   5.182 -1.4858  3.8017 -1.9454
12202TIP3   OH236544   1.351   6.318   4.553 -0.2016  0.0903  0.0317
12202TIP3    H136545   1.330   6.235   4.597 -1.4760  0.7988  0.7992
12202TIP3    H236546   1.409   6.293   4.482  1.2056 -1.2012  1.5750
12203TIP3   OH236547   0.155   5.640   6.776 -0.5680 -0.2533  0.0595
12203TIP3    H136548   0.119   5.706   6.834 -0.1161  0.4835 -0.4959
12203TIP3    H236549   0.093   5.567   6.781 -0.1106 -0.5424  2.1011
12204TIP3   OH236550   7.054   2.665   2.510  0.5384 -0.3149  0.3851
12204TIP3    H136551   7.050   2.656   2.606 -2.7961 -0.3637  0.2948
12204TIP3    H236552   6.999   2.741   2.491  0.0818 -1.1286 -1.6103
12205TIP3   OH236553   2.229   6.775   6.108 -0.3586  0.5049  0.1604
12205TIP3    H136554   2.200   6.690   6.075 -0.0873  0.6539 -0.4681
12205TIP3    H236555   2.299   6.802   6.047  0.1602  0.7691  0.8651
12206TIP3   OH236556   2.579   5.049   6.804  0.0079  0.6281 -0.1957
12206TIP3    H136557   2.630   5.067   6.883  0.6668 -1.6916 -0.0619
12206TIP3    H236558   2.603   4.960   6.780 -3.6656 -0.3706 -0.3886
12207TIP3   OH236559   2.248   6.718   5.785  0.5860  0.6335  0.0073
12207TIP3    H136560   2.328   6.758   5.819  1.0288  2.0159 -2.5254
12207TIP3    H236561   2.209   6.786   5.730  0.6667 -1.9275 -3.3625
12208TIP3   OH236562   3.004   5.722   3.561 -0.1746 -0.4238  0.3242
12208TIP3    H136563   3.005   5.725   3.465  1.3169  0.3340  0.3452
12208TIP3    H236564   3.012   5.630   3.583 -0.1249 -0.5627 -0.2728
12209TIP3   OH236565   1.784   6.892   4.945  0.3253  0.2069  0.2164
12209TIP3    H136566   1.851   6.824   4.951 -0.1005 -0.3192 -0.9147
12209TIP3    H236567   1.712   6.860   4.999  0.5200  0.2173  0.4794
12210TIP3   OH236568   4.004   6.070   4.965  0.4836 -0.1938  0.1893
12210TIP3    H136569   3.942   6.055   4.893 -0.6623  2.5527  0.5549
12210TIP3    H236570   3.949   6.092   5.040  1.8038 -0.1766  1.1642
12211TIP3   OH236571   3.759   4.066   6.010  0.0780  0.0146 -0.4934
12211TIP3    H136572   3.692   4.124   5.974 -0.7212 -1.0581 -0.7485
12211TIP3    H236573   3.710   4.005   6.065  0.8970 -0.5265 -0.3635
12212TIP3   OH236574   3.079   4.048   5.182  0.3608  0.4475 -0.1505
12212TIP3    H136575   3.174   4.059   5.181  0.4266 -0.0012  0.3836
12212TIP3    H236576   3.063   3.976   5.121  0.5445 -0.6593  1.0726
12213TIP3   OH236577   1.152   7.803   5.239 -0.2228  0.1158  0.0984
12213TIP3    H136578   1.206   7.768   5.311 -0.0281 -2.1657 -1.1118
12213TIP3    H236579   1.214   7.816   5.168 -0.8788 -0.3067 -0.5515
12214TIP3   OH236580   2.233   5.114   6.374  0.2055  0.4477  0.0330
12214TIP3    H136581   2.187   5.199   6.380 -0.6290  0.2379 -2.4915
12214TIP3    H236582   2.190   5.070   6.301  0.8314 -2.0617  1.1503
12215TIP3   OH236583   2.898   6.432   6.441  0.2188 -0.1470 -0.4773
12215TIP3    H136584   2.902   6.358   6.502  1.1006  0.1186 -0.2078
12215TIP3    H236585   2.922   6.394   6.356  1.7751  0.0373 -0.1361
12216TIP3   OH236586   7.186   1.794   1.485  0.1020 -0.3484  0.6211
12216TIP3    H136587   7.237   1.745   1.421  0.5233 -1.0269  1.4669
12216TIP3    H236588   7.230   1.777   1.568 -1.1096 -0.4061  1.2569
12217TIP3   OH236589   3.514   6.170   3.203  0.2969 -0.8375  0.1303
12217TIP3    H136590   3.522   6.208   3.116  2.7903  0.1507  0.7473
12217TIP3    H236591   3.451   6.225   3.249  0.4619 -0.1853 -0.4322
12218TIP3   OH236592   2.352   6.844   6.929 -0.1174 -0.3296 -0.3133
12218TIP3    H136593   2.331   6.935   6.908  1.4333 -0.0814 -0.8344
12218TIP3    H236594   2.447   6.841   6.931 -0.1603 -1.8790 -0.0070
12219TIP3   OH236595   2.974   6.880   6.409 -0.2375  0.0701 -0.6768
12219TIP3    H136596   2.980   6.971   6.435 -0.1045 -0.5413  1.5233
12219TIP3    H236597   3.065   6.853   6.394 -0.1692 -0.0741  0.0020
12220TIP3   OH236598   1.006   4.852   6.873  0.3389 -0.5680 -0.6027
12220TIP3    H136599   1.054   4.920   6.827  2.6808 -2.2523 -0.7335
12220TIP3    H236600   0.945   4.818   6.808  0.4852  0.1142 -1.1071
12221TIP3   OH236601   0.154   2.246   3.397 -0.2088 -0.4439 -0.1321
12221TIP3    H136602   0.092   2.239   3.324  0.0181  1.2818 -0.5192
12221TIP3    H236603   0.205   2.325   3.377 -0.2959  0.1829  2.0037
12222TIP3   OH236604   8.190   4.713   0.637 -0.2174 -0.3173  0.2831
12222TIP3    H136605   8.255   4.757   0.582 -0.8732 -0.6260 -0.7576
12222TIP3    H236606   8.239   4.642   0.679 -0.0817 -1.1706 -1.2729
12223TIP3   OH236607   4.004   7.159   6.849 -0.2822  0.1382 -0.0728
12223TIP3    H136608   4.068   7.089   6.865 -1.4416 -1.2099 -1.1191
12223TIP3    H236609   3.942   7.120   6.786 -2.1652  1.3824  0.9743
12224TIP3   OH236610   2.091   4.248  -0.031  0.0222  0.1344 -0.5031
12224TIP3    H136611   2.117   4.193   0.043 -1.5667 -0.3355 -0.2738
12224TIP3    H236612   2.005   4.283  -0.006 -0.1147  0.7104 -1.7359
12225TIP3   OH236613   2.045   5.469   5.783 -0.2352  0.0387 -0.2743
12225TIP3    H136614   1.993   5.515   5.849  1.3678  0.6535  0.5676
12225TIP3    H236615   2.115   5.529   5.761  2.6393 -2.4378  1.7621
12226TIP3   OH236616   7.624   4.097   0.712  0.2180 -0.2020 -0.9513
12226TIP3    H136617   7.587   4.011   0.693 -1.3054  0.1691  0.1889
12226TIP3    H236618   7.583   4.155   0.648 -0.2164 -0.0138 -0.5105
12227TIP3   OH236619   4.454   0.338   5.592  0.2843  0.4012 -0.1240
12227TIP3    H136620   4.486   0.252   5.620  0.8427  1.1894  1.7533
12227TIP3    H236621   4.532   0.392   5.584 -0.2488  1.3906  1.0955
12228TIP3   OH236622   1.776   7.554   5.604 -0.2813  0.0512 -0.1434
12228TIP3    H136623   1.820   7.624   5.650 -0.1579  1.0130 -1.6938
12228TIP3    H236624   1.811   7.474   5.642  0.8084  0.8235  0.4789
12229TIP3   OH236625   5.972   0.114   6.010  0.1853  0.1369 -0.4954
12229TIP3    H136626   6.047   0.169   6.034  0.3765 -0.0668 -0.6235
12229TIP3    H236627   5.917   0.115   6.088  1.4007 -1.5134  0.4096
12230TIP3   OH236628   6.748   1.079   6.386  0.1394  0.2501  0.5067
12230TIP3    H136629   6.837   1.049   6.404  0.7946  0.6152 -2.0269
12230TIP3    H236630   6.757   1.144   6.316 -1.9184  1.7725  1.5672
12231TIP3   OH236631   1.130   7.230   5.532 -0.0925 -0.4700 -0.1185
12231TIP3    H136632   1.192   7.274   5.590  0.0852  1.0501 -1.4135
12231TIP3    H236633   1.184   7.182   5.470 -0.2407 -0.4588 -0.2580
12232TIP3   OH236634   6.862   2.944   0.160 -0.1530 -0.1800 -0.4417
12232TIP3    H136635   6.922   2.889   0.211 -0.5131 -1.4035 -1.3295
12232TIP3    H236636   6.896   3.033   0.171  1.0994 -0.7145  0.0751
12233TIP3   OH236637   2.428   6.768   6.354  0.6961  0.7154  0.4442
12233TIP3    H136638   2.515   6.775   6.394  0.1830 -1.1751  1.9537
12233TIP3    H236639   2.430   6.831   6.282  4.0687 -0.8266 -0.9416
12234TIP3   OH236640   1.925   6.855   4.439  0.0889 -0.2480 -0.1343
12234TIP3    H136641   1.875   6.787   4.484 -0.8594  0.5962  0.0944
12234TIP3    H236642   1.990   6.807   4.388 -0.1173 -1.2950  0.5803
12235TIP3   OH236643   8.290  -0.000   0.217  0.4037 -0.1948 -1.1184
12235TIP3    H136644   8.304   0.094   0.229 -0.6662  0.0253 -1.5680
12235TIP3    H236645   8.205  -0.007   0.174 -1.0649 -1.5039  1.8393
12236TIP3   OH236646   2.580   4.507   5.463 -0.1640 -0.7792 -0.0355
12236TIP3    H136647   2.595   4.600   5.483 -1.3914 -0.1797 -1.7925
12236TIP3    H236648   2.493   4.489   5.498  1.0979 -1.9771  2.5775
12237TIP3   OH236649   1.579   5.044   5.059  0.2773  0.3782 -0.1785
12237TIP3    H136650   1.586   5.133   5.094 -0.4663  0.0573  0.7857
12237TIP3    H236651   1.670   5.016   5.047  0.5494  0.3607  1.8317
12238TIP3   OH236652   3.265   6.148   4.216  0.0528 -0.1189 -0.0940
12238TIP3    H136653   3.241   6.178   4.128  0.5126 -0.9610 -0.5172
12238TIP3    H236654   3.352   6.185   4.230  0.6606 -1.3102 -0.6549
12239TIP3   OH236655   1.752   6.726   5.309 -0.2388  0.1994 -0.4945
12239TIP3    H136656   1.846   6.718   5.324 -0.1085 -1.1353 -1.8638
12239TIP3    H236657   1.725   6.802   5.360  1.4913  0.2725  0.3216
12240TIP3   OH236658   1.520   8.005   6.493  0.5523 -0.0863  0.4261
12240TIP3    H136659   1.469   8.066   6.441  1.3796  0.7905  0.6305
12240TIP3    H236660   1.497   7.919   6.459  1.7469  0.5276 -1.9700
12241TIP3   OH236661   2.534   6.047   5.744 -0.0415 -0.3094 -0.5615
12241TIP3    H136662   2.593   6.068   5.816  0.0605  0.2839 -0.8125
12241TIP3    H236663   2.581   6.075   5.665 -0.6422  0.1467 -0.7630
12242TIP3   OH236664   6.415   0.665   6.935  0.7943  0.1140 -0.3091
12242TIP3    H136665   6.339   0.723   6.938  0.6863 -0.1090  2.1623
12242TIP3    H236666   6.379   0.577   6.948  1.4583  0.0212  1.0534
12243TIP3   OH236667   1.532   5.713   5.018 -0.5117 -0.3258  0.0899
12243TIP3    H136668   1.474   5.695   5.092  0.0354  1.2598  0.9257
12243TIP3    H236669   1.620   5.703   5.053 -0.2640 -1.2787 -0.7979
12244TIP3   OH236670   0.857   6.993   4.952 -0.5389 -0.1048 -0.0939
12244TIP3    H136671   0.918   6.920   4.943 -1.8505 -1.0819 -1.4881
12244TIP3    H236672   0.874   7.049   4.876 -1.9524 -0.8574 -0.9907
12245TIP3   OH236673   5.368   7.582   5.367  0.0945  0.3186  0.8016
12245TIP3    H136674   5.394   7.634   5.290 -1.3777 -0.9022 -0.5470
12245TIP3    H236675   5.297   7.632   5.407 -0.8666 -0.3117 -0.1080
12246TIP3   OH236676   2.247   6.918   4.108  0.9353 -0.5638 -0.0955
12246TIP3    H136677   2.279   6.963   4.030  0.4425  1.2816  0.7448
12246TIP3    H236678   2.306   6.946   4.178  0.5717 -1.1695  0.4584
12247TIP3   OH236679   1.736   4.686   4.427  0.1273 -0.2867 -0.7014
12247TIP3    H136680   1.686   4.705   4.507  0.0621 -0.6103 -0.6659
12247TIP3    H236681   1.785   4.767   4.410 -1.4771  0.5185 -1.5354
12248TIP3   OH236682   0.426   2.120   0.615 -0.5055  0.3146 -0.0135
12248TIP3    H136683   0.521   2.114   0.606 -0.7939 -0.0562 -3.2377
12248TIP3    H236684   0.407   2.214   0.613 -0.1889  0.4038  0.9956
12249TIP3   OH236685   5.686   0.381   4.427 -0.0509  0.0874  0.1313
12249TIP3    H136686   5.664   0.469   4.398 -0.7874 -0.3372 -0.6064
12249TIP3    H236687   5.779   0.384   4.447 -0.4173  1.4895  1.7678
12250TIP3   OH236688   8.365   2.399   0.224  0.5341 -0.3574  0.3417
12250TIP3    H136689   8.453   2.380   0.254  0.1334 -0.7178  1.3224
12250TIP3    H236690   8.361   2.366   0.134  0.8945 -1.8174  0.8545
12251TIP3   OH236691   7.154   3.413   0.129  0.0013 -0.2277 -0.2908
12251TIP3    H136692   7.221   3.360   0.085  0.2551  0.4464 -0.7274
12251TIP3    H236693   7.076   3.358   0.129  0.7321 -1.3019  0.8468
12252TIP3   OH236694   4.211   6.720   4.026  0.1075 -0.0970 -0.6358
12252TIP3    H136695   4.254   6.804   4.035  0.8642 -0.6246  0.7762
12252TIP3    H236696   4.142   6.735   3.961  1.1628  1.2343 -1.4621
12253TIP3   OH236697   3.873   6.673   6.410  0.7084 -0.6200 -0.3489
12253TIP3    H136698   3.781   6.647   6.411  1.0377 -2.0808 -2.6341
12253TIP3    H236699   3.918   6.606   6.461  0.7942 -1.2669 -1.2580
12254TIP3   OH236700   1.818   5.985   5.156  0.0854 -0.9924  0.3237
12254TIP3    H136701   1.834   6.031   5.239 -0.3770 -0.9335  0.3853
12254TIP3    H236702   1.722   5.983   5.149  0.1331 -0.5685 -0.4474
12255TIP3   OH236703   3.187   5.919   3.817  0.1759 -0.2909  0.2331
12255TIP3    H136704   3.273   5.939   3.853 -0.0724 -0.1869  0.7685
12255TIP3    H236705   3.182   5.823   3.819 -0.1131 -0.2626  1.1248
12256TIP3   OH236706   2.562   5.702   5.191 -0.0856 -0.0347 -0.3720
12256TIP3    H136707   2.496   5.721   5.258 -2.6106  0.1645 -2.8236
12256TIP3    H236708   2.628   5.770   5.203 -1.1995  0.8507  0.9975
12257TIP3   OH236709   4.252   6.768   5.153 -0.0833 -0.1934  0.0995
12257TIP3    H136710   4.346   6.778   5.166  0.1835 -0.3758 -1.5532
12257TIP3    H236711   4.244   6.695   5.091 -1.3506 -0.7661  0.9312
12258TIP3   OH236712   3.870   7.486   5.111  0.0589 -0.4424 -0.1156
12258TIP3    H136713   3.932   7.558   5.121 -1.4002  0.7126  0.7269
12258TIP3    H236714   3.923   7.414   5.077  1.8426  0.5505  0.4852
12259TIP3   OH236715   4.383   6.023   2.437 -0.1271 -0.0894 -0.0949
12259TIP3    H136716   4.328   6.078   2.492 -0.2538 -0.0537 -0.2573
12259TIP3    H236717   4.457   5.999   2.493 -0.4863 -0.4285  0.2405
12260TIP3   OH236718   1.863   3.161   1.518 -0.3334 -0.4945 -0.0585
12260TIP3    H136719   1.903   3.217   1.585  0.5708  0.7954 -1.6268
12260TIP3    H236720   1.906   3.076   1.528 -0.4398 -0.4061  1.1935
12261TIP3   OH236721   6.046   6.877   5.396  0.8790 -0.3369  0.0298
12261TIP3    H136722   6.031   6.800   5.450  0.7247 -0.1122  0.3071
12261TIP3    H236723   6.053   6.949   5.458 -1.8234  0.3230 -0.3812
12262TIP3   OH236724   5.981   4.188   6.204  0.2021  0.0619  0.1174
12262TIP3    H136725   5.961   4.103   6.164 -0.2763  0.1314  0.2062
12262TIP3    H236726   6.042   4.229   6.143 -1.1091  0.4856 -0.9413
12263TIP3   OH236727   3.617   7.372   6.096  0.8038  0.3868 -0.1252
12263TIP3    H136728   3.629   7.305   6.029 -0.3438 -0.5836  0.6116
12263TIP3    H236729   3.685   7.354   6.160  1.5262  0.9487 -0.7218
12264TIP3   OH236730   0.818   5.889   6.170 -0.5209  0.2318  0.2953
12264TIP3    H136731   0.908   5.902   6.141 -0.5350 -0.3422 -0.0187
12264TIP3    H236732   0.768   5.880   6.088 -0.5779 -1.3162  0.4790
12265TIP3   OH236733   6.415   7.153   4.088  0.4553 -1.0051 -0.1279
12265TIP3    H136734   6.341   7.205   4.122  0.1750 -0.9962 -0.7529
12265TIP3    H236735   6.424   7.181   3.997  1.1201 -1.1362 -0.1004
12266TIP3   OH236736   4.182   5.971   6.219 -0.4212  0.0247 -0.2659
12266TIP3    H136737   4.132   5.966   6.138 -1.7747  3.4431  0.2682
12266TIP3    H236738   4.261   6.021   6.196  0.4124 -1.1411 -0.0042
12267TIP3   OH236739   2.054   6.711   6.864  0.4901 -0.1613  0.0297
12267TIP3    H136740   2.145   6.683   6.856  0.1089 -1.4375 -0.0640
12267TIP3    H236741   2.018   6.698   6.776  0.4551  1.2115 -0.1622
12268TIP3   OH236742   0.095   1.358   5.076 -0.0661 -0.3646 -0.0601
12268TIP3    H136743   0.114   1.340   5.169  3.5058 -2.0782 -1.0098
12268TIP3    H236744   0.104   1.453   5.068 -0.4581 -0.1980  1.3799
12269TIP3   OH236745   7.172   0.117   5.944  0.5187  0.4783 -0.1030
12269TIP3    H136746   7.191   0.085   5.855 -0.9030 -2.3369  0.5459
12269TIP3    H236747   7.220   0.058   6.002  0.0835  1.2500  1.0591
12270TIP3   OH236748   0.395   0.911   5.058  0.0946  0.0490 -0.0556
12270TIP3    H136749   0.472   0.874   5.101  0.3042  1.0656  0.4608
12270TIP3    H236750   0.431   0.974   4.994 -0.1594 -2.2057 -2.5112
12271TIP3   OH236751   4.729   6.282   2.989 -0.4124  0.3944  0.8859
12271TIP3    H136752   4.742   6.350   2.923  0.6069 -0.3605  0.3020
12271TIP3    H236753   4.769   6.319   3.069  0.6278  0.2695  0.4351
12272TIP3   OH236754   5.793   0.706   6.472  0.2137  0.7077  0.0400
12272TIP3    H136755   5.881   0.742   6.479  0.1756  0.7046  0.5473
12272TIP3    H236756   5.759   0.743   6.390  1.7132 -1.5776 -1.6560
12273TIP3   OH236757   2.793   7.936   5.482 -0.0673 -0.0503 -0.5570
12273TIP3    H136758   2.825   8.014   5.436 -0.9176 -0.6583 -2.1858
12273TIP3    H236759   2.717   7.967   5.532 -0.1176  0.2552 -0.8230
12274TIP3   OH236760   0.252   1.805   0.015 -0.4320  0.0156  0.3563
12274TIP3    H136761   0.172   1.825   0.064 -0.7799  1.0041 -0.5859
12274TIP3    H236762   0.228   1.732  -0.042 -0.3923 -0.2980  0.7401
12275TIP3   OH236763   5.917   6.766   4.594  0.3192 -0.2125  0.2428
12275TIP3    H136764   5.973   6.832   4.637 -0.9983  0.3284  1.1541
12275TIP3    H236765   5.970   6.686   4.596  1.0086  0.2400  1.2629
12276TIP3   OH236766   8.193   0.509   2.262 -0.6817  0.3847  0.0525
12276TIP3    H136767   8.230   0.585   2.218  0.5573 -0.5045 -0.4709
12276TIP3    H236768   8.101   0.508   2.235  0.1051 -0.3166 -2.8230
12277TIP3   OH236769   3.037   6.371   5.262 -0.4075 -0.0032  0.0959
12277TIP3    H136770   3.087   6.293   5.286 -0.6541 -0.2820 -0.2794
12277TIP3    H236771   3.102   6.435   5.235 -0.1528  0.1931  1.1902
12278TIP3   OH236772   6.581   0.150   4.212  0.4126 -0.3638 -0.0127
12278TIP3    H136773   6.671   0.126   4.192  1.1509  1.3010  1.2388
12278TIP3    H236774   6.582   0.174   4.305 -0.2997  4.1235 -1.0410
12279TIP3   OH236775   3.125   6.471   5.781 -0.0108 -0.1430  0.3083
12279TIP3    H136776   3.086   6.390   5.747 -0.5194 -0.3573  1.3730
12279TIP3    H236777   3.197   6.442   5.836  0.6500  0.1919 -0.3699
12280TIP3   OH236778   0.456   2.662   0.046 -0.5023 -0.2730  0.0228
12280TIP3    H136779   0.492   2.646  -0.041 -1.2667  0.4000 -0.4250
12280TIP3    H236780   0.379   2.717   0.031 -1.0717 -0.7558  1.0582
12281TIP3   OH236781   5.210   7.143   4.156 -0.2034 -0.5186 -0.3387
12281TIP3    H136782   5.172   7.075   4.101 -0.5553 -0.5857 -0.0239
12281TIP3    H236783   5.254   7.202   4.096 -0.1868 -0.8458 -0.6446
12282TIP3   OH236784   5.873   5.850   6.721 -0.8172 -0.1427 -0.2526
12282TIP3    H136785   5.925   5.869   6.799 -0.9425 -0.6524 -0.0408
12282TIP3    H236786   5.931   5.868   6.648 -0.6739  0.2688 -0.0373
12283TIP3   OH236787   4.219   7.100   3.061  0.0148 -0.1798  0.0113
12283TIP3    H136788   4.227   7.006   3.043 -0.5196  0.2872 -3.0327
12283TIP3    H236789   4.161   7.132   2.992 -0.6509  2.2322  1.6273
12284TIP3   OH236790   2.441   6.392   4.521 -0.1502  0.2860 -0.2413
12284TIP3    H136791   2.358   6.436   4.539 -0.2555  0.1776 -0.4611
12284TIP3    H236792   2.497   6.415   4.595 -0.7777 -0.6467  0.5454
12285TIP3   OH236793   3.045   6.241   4.788  0.2752 -0.0935 -0.9185
12285TIP3    H136794   3.126   6.203   4.822  0.3691  0.5777 -0.3731
12285TIP3    H236795   2.976   6.203   4.842  0.0071 -2.2326 -2.6934
12286TIP3   OH236796   7.883   0.261   4.808  0.0467 -0.1113  0.2399
12286TIP3    H136797   7.893   0.299   4.895 -1.1164  0.9033 -0.0636
12286TIP3    H236798   7.947   0.308   4.754 -1.6510  1.7193 -0.2191
12287TIP3   OH236799   4.658   7.862   6.254  0.4624  0.9580 -0.4669
12287TIP3    H136800   4.725   7.903   6.308  0.4637  0.8857 -0.4143
12287TIP3    H236801   4.640   7.778   6.297  3.5050 -1.0246 -2.8320
12288TIP3   OH236802   1.880   6.779   6.302 -0.6656 -0.5362  1.3488
12288TIP3    H136803   1.846   6.690   6.290 -0.5851 -0.7820  2.7946
12288TIP3    H236804   1.815   6.835   6.260 -1.2795 -1.2169  1.3670
12289TIP3   OH236805   2.355   2.641   0.844 -0.1555 -0.1793 -0.1866
12289TIP3    H136806   2.345   2.598   0.929  0.2554 -1.3303 -0.7153
12289TIP3    H236807   2.323   2.577   0.781 -4.0090  2.0513 -0.6444
12290TIP3   OH236808   5.829   6.810   6.389  0.4227  0.0071  0.1086
12290TIP3    H136809   5.769   6.746   6.350 -0.1192  1.2710 -1.1786
12290TIP3    H236810   5.796   6.822   6.478 -1.4097  0.8703 -0.6690
12291TIP3   OH236811   5.173   7.600   4.135  0.0761 -0.1329  0.2088
12291TIP3    H136812   5.266   7.608   4.159 -0.0522  0.0667  0.6471
12291TIP3    H236813   5.166   7.645   4.051  0.0960  1.1183  0.8644
12292TIP3   OH236814   4.357   6.509   4.718  0.3293  0.3971 -0.1776
12292TIP3    H136815   4.322   6.501   4.629 -0.8887  0.9417  0.2413
12292TIP3    H236816   4.437   6.560   4.707 -0.5143  1.6299 -0.8320
12293TIP3   OH236817   7.713   0.230   4.469  0.2969 -0.5738 -0.4103
12293TIP3    H136818   7.673   0.168   4.408  0.6821 -0.7803 -0.4496
12293TIP3    H236819   7.794   0.188   4.497  0.3933 -0.2342 -0.1802
12294TIP3   OH236820   6.195   0.063   5.593 -0.4884 -0.0761 -0.3626
12294TIP3    H136821   6.105   0.036   5.611 -0.3297  0.6081  1.6252
12294TIP3    H236822   6.245  -0.018   5.592 -1.1097 -0.4510 -1.3868
12295TIP3   OH236823   7.890   0.732   6.306  0.3836 -0.5040 -0.0796
12295TIP3    H136824   7.879   0.802   6.242  4.3550 -2.3189 -2.9870
12295TIP3    H236825   7.819   0.670   6.285  0.8253 -0.4348 -1.8648
12296TIP3   OH236826   6.503   6.738   5.824 -0.2084 -0.4179 -0.7279
12296TIP3    H136827   6.574   6.766   5.767 -0.8823  2.6885 -0.1006
12296TIP3    H236828   6.426   6.785   5.792 -0.6248  1.2626  2.6133
12297TIP3   OH236829   5.646   0.205   5.673 -0.0877  0.0012 -0.3342
12297TIP3    H136830   5.643   0.132   5.735  0.1065  0.9985  0.8798
12297TIP3    H236831   5.728   0.250   5.694 -0.8144  1.2917 -0.2155
12298TIP3   OH236832   2.787   6.363   5.954 -0.0540  0.4913 -0.0912
12298TIP3    H136833   2.804   6.393   5.865 -1.3685  2.3870  0.2764
12298TIP3    H236834   2.776   6.268   5.946  0.5566  0.5518 -1.8207
12299TIP3   OH236835   3.817   6.980   4.509  0.3378 -0.4334  0.4218
12299TIP3    H136836   3.821   6.985   4.605  0.9236 -1.0816  0.4338
12299TIP3    H236837   3.764   6.903   4.491 -1.3399  0.7393  0.2177
12300TIP3   OH236838   5.009   6.843   4.469  0.1301 -0.0218 -0.1696
12300TIP3    H136839   4.966   6.844   4.555 -0.6304 -0.9745 -0.5365
12300TIP3    H236840   4.939   6.867   4.408  0.5258  0.0361 -0.5986
12301TIP3   OH236841   2.678   6.289   6.325  0.0228  0.2135 -0.6370
12301TIP3    H136842   2.753   6.298   6.266  0.2511  1.1456 -0.2062
12301TIP3    H236843   2.671   6.373   6.370 -0.3088 -0.3962  0.4854
12302TIP3   OH236844   4.824   6.518   5.082 -0.5418 -0.2653 -0.5027
12302TIP3    H136845   4.916   6.504   5.104 -0.0518 -1.7462 -3.1792
12302TIP3    H236846   4.826   6.587   5.016 -0.9943 -2.4930 -2.9384
12303TIP3   OH236847   2.241   5.804   2.365  0.3207 -0.1657 -0.6357
12303TIP3    H136848   2.248   5.717   2.328 -0.6912 -1.0555  1.1923
12303TIP3    H236849   2.323   5.816   2.414 -1.2314 -1.8111  2.5539
12304TIP3   OH236850   0.955   3.307   0.766  0.1887 -0.0504 -0.6658
12304TIP3    H136851   0.889   3.241   0.745  1.7395 -1.3868 -1.5014
12304TIP3    H236852   1.038   3.262   0.752  1.2794  1.3477  1.1882
12305TIP3   OH236853   3.619   6.341   2.700 -0.2644  0.3401  0.2335
12305TIP3    H136854   3.701   6.337   2.652 -0.6251 -0.9970 -0.2965
12305TIP3    H236855   3.579   6.424   2.673  0.0549  0.1176 -0.9307
12306TIP3   OH236856   5.930   6.339   2.718  0.1703 -0.0720  0.2743
12306TIP3    H136857   5.917   6.248   2.746 -1.1346  0.0681  0.1335
12306TIP3    H236858   5.878   6.347   2.638  1.4473  0.3941 -0.5284
12307TIP3   OH236859   6.450   6.149   5.910  0.0553  0.0063  0.1718
12307TIP3    H136860   6.446   6.217   5.977 -1.7333 -0.4681  0.5802
12307TIP3    H236861   6.510   6.183   5.844 -1.8705  2.5957 -0.3071
12308TIP3   OH236862   2.104   7.101   2.349 -0.2210  0.4350  0.2179
12308TIP3    H136863   2.147   7.084   2.432  0.6079  0.6144 -0.1671
12308TIP3    H236864   2.176   7.120   2.288 -0.7678 -0.3718 -0.6952
12309TIP3   OH236865   5.737   6.104   4.720  0.0287  0.1158  0.0703
12309TIP3    H136866   5.705   6.026   4.766 -0.6256  0.5094  0.2877
12309TIP3    H236867   5.820   6.076   4.681 -0.0977 -0.6282  0.3222
12310TIP3   OH236868   4.797   6.278   4.186 -0.2877 -0.1029 -0.3806
12310TIP3    H136869   4.845   6.213   4.238 -2.1998 -1.3335 -0.1306
12310TIP3    H236870   4.839   6.276   4.100  0.0065 -1.2708 -0.2095
12311TIP3   OH236871   5.091   0.257   5.934 -0.0780 -0.3848 -0.3113
12311TIP3    H136872   5.139   0.332   5.969 -0.9711  0.2629 -0.4810
12311TIP3    H236873   5.152   0.217   5.872 -0.1977  1.1323 -1.4180
12312TIP3   OH236874   5.659   7.796   4.562  0.5344  0.2744 -0.1255
12312TIP3    H136875   5.682   7.713   4.602  1.5976  0.4860 -0.2838
12312TIP3    H236876   5.732   7.855   4.583 -0.0138  1.0508 -0.3523
12313TIP3   OH236877   2.857   6.710   4.648  0.2678  0.0773  0.3427
12313TIP3    H136878   2.885   6.640   4.589 -0.1251 -0.4727  0.8011
12313TIP3    H236879   2.903   6.788   4.617  0.0644 -0.2141 -0.6841
12314TIP3   OH236880   4.332   6.945   4.959  0.4376 -0.7401 -0.4730
12314TIP3    H136881   4.296   6.930   4.872  0.9185 -2.3601 -0.4052
12314TIP3    H236882   4.274   6.896   5.018 -0.3554  0.9888  0.2203
12315TIP3   OH236883   2.420   5.519   4.266 -0.1154  0.0902 -0.3692
12315TIP3    H136884   2.429   5.614   4.269 -3.0526  0.4407 -1.6698
12315TIP3    H236885   2.353   5.499   4.331  1.4819 -1.2797  0.9211
12316TIP3   OH236886   4.914   7.422   5.264  0.1762 -0.0853  0.1975
12316TIP3    H136887   4.917   7.441   5.170  1.9679  2.9758  0.8117
12316TIP3    H236888   5.003   7.394   5.285 -0.2658 -0.9070  0.9749
12317TIP3   OH236889   3.556   6.625   5.918 -0.0883  0.2354  0.5805
12317TIP3    H136890   3.608   6.594   5.992 -1.6854 -0.9804  1.2026
12317TIP3    H236891   3.620   6.667   5.860  1.6855 -1.7540  1.0502
12318TIP3   OH236892   3.202   7.006   5.599  0.0332  0.5493  0.8171
12318TIP3    H136893   3.270   6.976   5.659 -1.0203  0.2594  1.8989
12318TIP3    H236894   3.120   6.976   5.639 -0.7161  0.6138 -0.6150
12319TIP3   OH236895   2.555   4.949   5.462  0.0555 -0.3085 -0.1808
12319TIP3    H136896   2.472   4.989   5.437  0.0543  0.4497  1.0378
12319TIP3    H236897   2.601   4.936   5.378 -1.3675 -0.9485 -0.8798
12320TIP3   OH236898   5.237   6.636   5.076 -0.6427 -0.0617 -0.4259
12320TIP3    H136899   5.278   6.554   5.104 -0.9121 -0.9978 -2.6572
12320TIP3    H236900   5.302   6.678   5.021 -1.5292 -0.0960 -1.5113
12321TIP3   OH236901   5.932   7.234   4.764  0.0311 -0.1354  0.0374
12321TIP3    H136902   5.847   7.255   4.725 -0.0196 -0.9054 -0.2637
12321TIP3    H236903   5.941   7.296   4.836 -0.0600  1.0268 -0.9338
12322TIP3   OH236904   4.560   6.927   3.496 -0.0268 -0.1768 -0.0334
12322TIP3    H136905   4.581   6.841   3.532 -0.0363 -0.2029 -0.0892
12322TIP3    H236906   4.644   6.970   3.484 -0.0504 -0.0122  0.4037
12323TIP3   OH236907   3.285   7.814   5.385  0.0198  0.2828 -0.8020
12323TIP3    H136908   3.337   7.893   5.370 -0.4489  0.6106 -0.7137
12323TIP3    H236909   3.258   7.820   5.477 -1.1566  0.7073 -1.1690
12324TIP3   OH236910   4.314   7.269   5.078 -0.2261 -0.3992  0.3183
12324TIP3    H136911   4.335   7.189   5.126  0.3968 -0.8417 -0.6717
12324TIP3    H236912   4.359   7.339   5.126  1.1430 -0.9552 -0.1513
12325TIP3   OH236913   2.443   4.358   0.222  0.0674 -0.0411 -0.5872
12325TIP3    H136914   2.398   4.379   0.140 -1.5402 -0.2156  0.2211
12325TIP3    H236915   2.505   4.430   0.234  0.1371  0.1129 -1.8280
12326TIP3   OH236916   3.377   6.718   5.448 -0.0094 -0.2897 -0.3426
12326TIP3    H136917   3.329   6.706   5.530 -1.8273 -1.2737 -1.4964
12326TIP3    H236918   3.326   6.784   5.400  0.7666 -0.0797 -0.8859
12327TIP3   OH236919   4.098   7.444   5.487  0.0061  0.4319 -0.4625
12327TIP3    H136920   4.026   7.417   5.430  0.1214  1.4956 -1.1330
12327TIP3    H236921   4.146   7.510   5.436  1.1398  0.1302  0.1863
12328TIP3   OH236922   4.551   6.652   3.474  0.4196 -0.1186  0.5665
12328TIP3    H136923   4.605   6.593   3.421  0.4208 -0.5931  1.0843
12328TIP3    H236924   4.461   6.627   3.454  0.3709  0.7723 -0.4084
12329TIP3   OH236925   2.068   5.884   0.064  0.0222  0.2423 -0.1459
12329TIP3    H136926   1.994   5.930   0.025 -1.2734 -0.1973  1.6870
12329TIP3    H236927   2.145   5.931   0.034 -1.1631  2.3270  0.0045
12330TIP3   OH236928   4.949   6.049   5.712 -0.1847  0.3754  0.1733
12330TIP3    H136929   5.023   6.005   5.670  1.6094  2.8767  0.5690
12330TIP3    H236930   4.894   6.077   5.639  0.1622  0.0378 -0.2217
12331TIP3   OH236931   0.921   3.907   1.559 -0.2309  0.3688  0.0449
12331TIP3    H136932   0.916   3.921   1.464 -1.9113 -1.3836 -0.1465
12331TIP3    H236933   0.884   3.820   1.573  2.4041 -0.5014  2.0666
12332TIP3   OH236934   6.791   4.946   0.655  0.5416 -0.0362  0.2748
12332TIP3    H136935   6.742   4.935   0.736 -0.4217 -0.7629 -0.3952
12332TIP3    H236936   6.876   4.981   0.682  0.0843  0.0916  1.5502
12333TIP3   OH236937   4.623   7.572   5.898 -0.0119  0.4856  0.5525
12333TIP3    H136938   4.675   7.503   5.857  0.6760 -0.0733  2.3144
12333TIP3    H236939   4.557   7.594   5.833  0.7550 -0.7081 -0.6620
12334TIP3   OH236940   3.430   7.517   5.917 -0.0324 -0.2649 -0.5200
12334TIP3    H136941   3.476   7.476   5.991  0.8448  0.5042 -0.6322
12334TIP3    H236942   3.385   7.592   5.955  0.7262  0.3523 -0.8268
12335TIP3   OH236943   4.185   5.894   5.078  0.0704  0.1715  0.1923
12335TIP3    H136944   4.234   5.849   5.009 -0.1134  0.7168 -0.2926
12335TIP3    H236945   4.161   5.978   5.040  0.5344  0.7410  1.1454
12336TIP3   OH236946   4.137   4.991   6.233 -0.3582 -0.1391  0.7287
12336TIP3    H136947   4.086   5.019   6.157  0.8478  0.8222  0.2552
12336TIP3    H236948   4.104   5.046   6.305 -1.0004 -0.5481  0.7563
12337TIP3   OH236949   8.209   0.622   6.047 -0.1181  0.9931 -0.2512
12337TIP3    H136950   8.277   0.561   6.018 -0.1315 -0.6187  2.8840
12337TIP3    H236951   8.144   0.567   6.090 -1.2668  3.0094  0.6669
12338TIP3   OH236952   3.978   4.073   5.221 -0.3028  0.5499  0.1470
12338TIP3    H136953   4.066   4.081   5.258  0.1301  0.5080 -0.8751
12338TIP3    H236954   3.931   4.150   5.252  0.0161  0.4440  0.8991
12339TIP3   OH236955   0.355   3.696   0.540 -0.2236 -0.0741  0.3247
12339TIP3    H136956   0.394   3.645   0.611  0.2003 -0.1046  0.0762
12339TIP3    H236957   0.388   3.653   0.460 -0.2931  0.2656  0.1156
12340TIP3   OH236958   3.242   6.545   5.165 -0.2020 -0.1371 -0.4257
12340TIP3    H136959   3.289   6.627   5.180 -1.8733  0.6287  0.6480
12340TIP3    H236960   3.265   6.490   5.240 -1.5281  0.4758  0.4361
12341TIP3   OH236961   8.259   1.429   6.488  0.6207  0.7393 -0.4121
12341TIP3    H136962   8.305   1.350   6.459 -1.2645 -1.3961  2.2154
12341TIP3    H236963   8.192   1.443   6.421  1.3556  0.5004 -1.2146
12342TIP3   OH236964   2.132   4.903   3.389 -0.2772  0.6124 -0.0683
12342TIP3    H136965   2.223   4.885   3.365 -0.0483  0.2961  1.0143
12342TIP3    H236966   2.082   4.836   3.342  0.2740 -0.7625  1.2309
12343TIP3   OH236967   4.077   6.882   6.476 -0.2598 -0.1979 -0.0968
12343TIP3    H136968   4.043   6.957   6.524 -0.0948 -0.1889  0.0084
12343TIP3    H236969   4.000   6.838   6.442 -0.3610 -0.0227 -0.0940
12344TIP3   OH236970   7.654   0.157   6.225 -0.5622 -0.1731 -0.0021
12344TIP3    H136971   7.734   0.208   6.213 -1.0906  0.7442  0.3132
12344TIP3    H236972   7.685   0.069   6.248  0.3509  0.2930  0.5769
12345TIP3   OH236973   6.796   0.820   5.666 -0.3055  0.1047  0.1925
12345TIP3    H136974   6.830   0.733   5.682  0.3596  0.5303  1.1320
12345TIP3    H236975   6.843   0.850   5.588  1.4385  0.6517  1.4157
12346TIP3   OH236976   6.009   5.621   4.423 -0.3035 -0.2453 -0.5698
12346TIP3    H136977   5.970   5.535   4.437  0.1700  0.0218  2.6208
12346TIP3    H236978   6.091   5.603   4.377 -0.7352 -1.3757 -0.9230
12347TIP3   OH236979   4.380   4.767   4.501  0.5873 -0.0656 -0.1239
12347TIP3    H136980   4.387   4.766   4.596  0.3688 -0.1710 -0.1066
12347TIP3    H236981   4.469   4.752   4.469  0.9662  1.7241  0.0456
12348TIP3   OH236982   3.749   4.571   0.179  0.0306  0.7487  0.5886
12348TIP3    H136983   3.782   4.623   0.253  0.8985  0.4315  0.4271
12348TIP3    H236984   3.825   4.556   0.124 -0.4596  0.3097  0.0220
12349TIP3   OH236985   7.319   0.163   3.119 -0.2607  0.2317 -0.0485
12349TIP3    H136986   7.406   0.203   3.122 -0.8297  1.4121  1.3111
12349TIP3    H236987   7.262   0.233   3.087 -1.0900  0.2006  1.3287
12350TIP3   OH236988   6.843   1.824   0.297  0.3030  0.2390  0.0603
12350TIP3    H136989   6.889   1.906   0.282  0.8190 -0.1046 -0.2869
12350TIP3    H236990   6.808   1.800   0.211 -0.4177  0.4309  0.2958
12351TIP3   OH236991   4.878   7.772   4.806 -0.5026 -0.1532  0.2098
12351TIP3    H136992   4.884   7.712   4.732 -0.1825  0.2517 -0.0921
12351TIP3    H236993   4.948   7.836   4.792 -1.4898  0.9068 -0.0325
12352TIP3   OH236994   7.408   0.098   5.452  0.1077 -0.4228  0.0228
12352TIP3    H136995   7.431   0.125   5.541 -2.6880  1.4751  0.2268
12352TIP3    H236996   7.416   0.178   5.400 -2.9488 -0.3954 -0.4646
12353TIP3   OH236997   3.666   6.584   2.872  0.3065  0.1220  0.0564
12353TIP3    H136998   3.742   6.566   2.816  0.6312 -0.5676  0.7063
12353TIP3    H236999   3.695   6.653   2.931  0.4353 -0.1577  0.3200
12354TIP3   OH237000   3.020   6.204   4.310 -0.0596  0.0580  0.5796
12354TIP3    H137001   3.109   6.202   4.273  0.2650 -1.1229  1.3820
12354TIP3    H237002   2.971   6.262   4.252  1.6188  1.9789  0.9976
12355TIP3   OH237003   1.126   6.339   5.338 -0.6161 -0.3215 -0.6642
12355TIP3    H137004   1.212   6.354   5.300 -0.3789  0.2045  0.0625
12355TIP3    H237005   1.127   6.247   5.364 -0.4729 -0.4570 -1.1493
12356TIP3   OH237006   2.499   6.098   6.578  0.2472 -0.3583  0.0146
12356TIP3    H137007   2.419   6.063   6.617 -0.0757 -1.5173 -1.6317
12356TIP3    H237008   2.481   6.192   6.568 -0.4612 -0.4138  0.6748
12357TIP3   OH237009   3.297   3.944   3.517 -0.4198  0.2582  0.4171
12357TIP3    H137010   3.218   3.905   3.480 -0.5035  0.4920  0.3481
12357TIP3    H237011   3.337   3.874   3.569 -0.1270 -0.1632 -0.3784
12358TIP3   OH237012   4.321   7.395   6.327 -0.1124 -0.4590  0.0959
12358TIP3    H137013   4.250   7.335   6.349  1.2501 -1.2813  2.5393
12358TIP3    H237014   4.373   7.347   6.262 -1.0124 -0.4140 -0.6690
12359TIP3   OH237015   4.912   7.886   6.345  0.3151  0.1409 -0.2516
12359TIP3    H137016   4.915   7.810   6.404 -2.6415  0.6539  0.6350
12359TIP3    H237017   5.004   7.902   6.324  1.3900 -0.9232  3.1321
12360TIP3   OH237018   2.356   1.859   0.490 -0.4610 -0.7081  0.3096
12360TIP3    H137019   2.356   1.799   0.565  0.9205 -0.9697  0.1135
12360TIP3    H237020   2.427   1.921   0.509 -0.6835 -0.2417 -0.3645
12361TIP3   OH237021   2.168   2.710   0.198 -0.1908 -0.3808  0.2769
12361TIP3    H137022   2.183   2.686   0.289 -0.3014 -0.0032  0.3966
12361TIP3    H237023   2.154   2.627   0.153 -1.4494 -0.5053  0.8537
12362TIP3   OH237024   6.568   0.544   5.827  0.2756  0.3193 -0.0542
12362TIP3    H137025   6.523   0.629   5.822  1.0808  0.7863  0.4998
12362TIP3    H237026   6.619   0.539   5.747 -1.3023 -0.5409 -1.0422
12363TIP3   OH237027   0.075   2.785   0.739 -0.4731  0.1176  0.2449
12363TIP3    H137028  -0.020   2.786   0.732 -0.4611  1.2586  0.0776
12363TIP3    H237029   0.105   2.823   0.656  0.1653 -1.4608 -0.2577
12364TIP3   OH237030   2.536   1.570   0.415 -0.2196 -0.1938  0.1200
12364TIP3    H137031   2.495   1.652   0.386 -1.3158 -0.4521  0.9235
12364TIP3    H237032   2.590   1.595   0.489  0.1120 -0.0612 -0.1641
12365TIP3   OH237033   7.189   0.545   6.036  0.4741  0.1545  0.6347
12365TIP3    H137034   7.247   0.478   5.999  0.0721  1.5464 -2.6315
12365TIP3    H237035   7.125   0.495   6.087  0.0032 -2.0422 -1.9663
12366TIP3   OH237036   3.304   7.102   4.784  0.5820 -0.5481 -0.2590
12366TIP3    H137037   3.285   7.149   4.866 -0.8639  0.5183 -1.1929
12366TIP3    H237038   3.275   7.013   4.801 -3.4471  0.5493 -0.9085
12367TIP3   OH237039   3.548   6.823   3.991 -0.5260 -0.1549  0.5970
12367TIP3    H137040   3.527   6.788   4.078 -1.1755 -1.4187 -0.0438
12367TIP3    H237041   3.608   6.759   3.953  0.8230  1.0741  0.6167
12368TIP3   OH237042   5.020   7.189   6.535  0.2299  0.1153 -0.1133
12368TIP3    H137043   5.115   7.202   6.536  0.2577 -0.1131  0.4327
12368TIP3    H237044   4.998   7.165   6.625 -0.2148 -0.7572 -0.4419
12369TIP3   OH237045   4.096   6.384   3.613  0.2621  0.3035 -0.2469
12369TIP3    H137046   4.020   6.341   3.573  0.0461  0.6448 -0.1986
12369TIP3    H237047   4.135   6.434   3.542  1.0779 -0.7374 -0.5512
12370TIP3   OH237048   7.973   0.004   6.219  0.0612  0.2186  0.3494
12370TIP3    H137049   8.005   0.034   6.304  1.9770  0.1713 -0.3524
12370TIP3    H237050   7.936   0.083   6.179  1.8872  0.9168 -0.0124
12371TIP3   OH237051   0.242   2.795   0.526  0.6484  0.2331 -0.0002
12371TIP3    H137052   0.318   2.788   0.468  1.4475 -1.2890  1.1999
12371TIP3    H237053   0.189   2.718   0.506  1.0828 -0.4696  1.4736
12372TIP3   OH237054   5.015   7.111   6.836 -0.2251 -0.4180 -0.3236
12372TIP3    H137055   5.080   7.142   6.899  0.3475  0.6376 -1.4351
12372TIP3    H237056   4.932   7.148   6.867 -0.0851 -0.6271  0.3074
12373TIP3   OH237057   4.467   7.002   4.264  0.6488 -0.3783 -0.1376
12373TIP3    H137058   4.400   6.982   4.329 -0.6546 -0.8295 -1.5803
12373TIP3    H237059   4.496   7.090   4.286  0.3768 -0.6062  1.1756
12374TIP3   OH237060   4.467   3.261   1.096  0.7915 -0.0014 -0.3024
12374TIP3    H137061   4.539   3.323   1.106 -1.0761  2.4215 -1.1599
12374TIP3    H237062   4.509   3.176   1.086  3.4362  1.0588  1.2282
12375TIP3   OH237063   3.712   6.266   4.408  0.2687  0.1786 -0.5454
12375TIP3    H137064   3.641   6.308   4.359 -0.3954 -0.3585 -0.0512
12375TIP3    H237065   3.777   6.242   4.341 -0.4613 -0.2064 -1.1201
12376TIP3   OH237066   3.100   7.162   6.930  0.6365  0.4567 -0.1153
12376TIP3    H137067   3.020   7.118   6.901  1.1447 -0.7989  0.3340
12376TIP3    H237068   3.108   7.237   6.872  0.4563 -0.7910 -1.7962
12377TIP3   OH237069   1.840   6.585   5.826  0.1684 -0.0206 -0.1121
12377TIP3    H137070   1.914   6.567   5.884  1.7344  1.3813 -1.6423
12377TIP3    H237071   1.801   6.665   5.862 -0.3160 -0.4773  0.3934
12378TIP3   OH237072   7.415   0.351   5.334  0.1532  0.3904 -0.2429
12378TIP3    H137073   7.385   0.437   5.361  0.1407  0.8597 -1.7469
12378TIP3    H237074   7.448   0.363   5.245  3.2022 -0.4529  0.7097
12379TIP3   OH237075   5.015   7.075   4.840 -0.5579 -0.0459 -0.0436
12379TIP3    H137076   5.094   7.021   4.851 -0.0487  0.4823 -1.0988
12379TIP3    H237077   5.045   7.152   4.793 -1.3960  0.9293  1.0074
12380TIP3   OH237078   3.950   2.345   1.386  0.2993  0.0702 -0.2365
12380TIP3    H137079   3.891   2.399   1.439 -0.2759 -0.1358 -0.6580
12380TIP3    H237080   3.945   2.383   1.298  1.3456  0.4851 -0.1185
12381TIP3   OH237081   3.337   7.734   6.016 -0.0100 -0.2086  0.0577
12381TIP3    H137082   3.408   7.779   5.970 -2.2244  1.8033 -1.5049
12381TIP3    H237083   3.313   7.794   6.087  0.8091 -1.5430  1.4795
12382TIP3   OH237084   4.854   7.382   6.749  0.1337 -0.5450 -0.6002
12382TIP3    H137085   4.786   7.412   6.688  1.1508  0.4851 -1.2420
12382TIP3    H237086   4.837   7.288   6.759 -1.3256 -0.3272 -0.8230
12383TIP3   OH237087   2.564   2.640   0.210  0.7273  0.1686  0.7603
12383TIP3    H137088   2.497   2.572   0.219  2.5125 -1.9975 -1.4998
12383TIP3    H237089   2.585   2.665   0.300 -1.2188 -1.0390  1.5808
12384TIP3   OH237090   5.126   6.702   5.654 -0.0214 -0.1874 -0.0343
12384TIP3    H137091   5.036   6.690   5.624  0.5022 -0.5206 -1.4993
12384TIP3    H237092   5.156   6.782   5.611  0.7060 -0.6066 -0.3141
12385TIP3   OH237093   2.439   6.376   6.536 -0.0555  0.2352  0.6855
12385TIP3    H137094   2.390   6.356   6.457 -0.9202 -0.4672  1.3852
12385TIP3    H237095   2.522   6.413   6.505  0.2492 -1.4221 -0.5875
12386TIP3   OH237096   4.502   7.250   5.747 -0.1004  0.0391  0.6005
12386TIP3    H137097   4.578   7.307   5.732  0.3993 -0.1470  2.3896
12386TIP3    H237098   4.506   7.186   5.676  1.9768 -0.5680  1.2399
12387TIP3   OH237099   2.256   5.262   4.094  0.2168  0.1049  0.3163
12387TIP3    H137100   2.211   5.207   4.031  2.5327  1.2333 -2.4063
12387TIP3    H237101   2.189   5.286   4.158 -2.1824 -1.0583 -1.7159
12388TIP3   OH237102   0.663   2.047   0.091  0.3682  0.2595 -0.7574
12388TIP3    H137103   0.754   2.038   0.065  0.8600 -2.3652  1.5935
12388TIP3    H237104   0.615   1.987   0.034  0.3792  0.2550 -0.7619
12389TIP3   OH237105   4.947   7.753   5.603 -0.8545 -0.0562  0.5995
12389TIP3    H137106   4.891   7.809   5.549  1.0700  2.3389  1.0551
12389TIP3    H237107   4.909   7.759   5.691  0.1634  1.6270  0.9239
12390TIP3   OH237108   7.499   0.138   5.714  0.8948 -0.1549 -0.0582
12390TIP3    H137109   7.571   0.193   5.685  1.4401 -0.4828  0.6602
12390TIP3    H237110   7.528   0.104   5.799  0.1376 -0.7403 -0.0342
12391TIP3   OH237111   2.054   3.552   0.538  0.4073  0.3582  0.4482
12391TIP3    H137112   2.063   3.504   0.621  0.8918  1.6273  1.1483
12391TIP3    H237113   2.091   3.639   0.557 -4.6251  2.6141  0.5709
12392TIP3   OH237114   4.918   6.705   5.339  0.2086 -0.4680 -0.3103
12392TIP3    H137115   4.915   6.678   5.431 -0.6400 -0.3578 -0.3017
12392TIP3    H237116   4.965   6.789   5.340  0.4745 -0.6184 -0.0216
12393TIP3   OH237117   8.284   1.840   0.503 -0.5095 -0.1863 -0.0933
12393TIP3    H137118   8.243   1.870   0.585 -1.5694 -0.4521 -0.5163
12393TIP3    H237119   8.300   1.920   0.454 -0.6398 -0.0898  0.0202
12394TIP3   OH237120   5.830   6.020   5.836 -0.6783 -0.1901 -0.2513
12394TIP3    H137121   5.787   6.098   5.802 -0.5501  0.3106  0.6995
12394TIP3    H237122   5.923   6.044   5.838 -0.6023 -0.4880 -0.2770
12395TIP3   OH237123   5.262   6.350   6.670  0.6927  0.2779  0.8157
12395TIP3    H137124   5.189   6.296   6.701 -1.3048  1.3958 -1.7654
12395TIP3    H237125   5.316   6.290   6.618 -1.7101  0.7382 -2.3437
12396TIP3   OH237126   1.529   3.439   2.194 -0.7229  0.1461 -0.3029
12396TIP3    H137127   1.608   3.457   2.142  0.0773 -0.8293  0.5554
12396TIP3    H237128   1.458   3.439   2.130  0.1551 -0.2616 -1.2965
12397TIP3   OH237129   4.659   6.478   6.041  0.3272  0.1456  0.7020
12397TIP3    H137130   4.634   6.500   6.130 -0.5019 -1.3683  0.8508
12397TIP3    H237131   4.593   6.521   5.986  0.7456  0.9433  0.8175
12398TIP3   OH237132   4.188   6.496   4.482  0.4713  0.4415  0.5067
12398TIP3    H137133   4.132   6.552   4.428 -0.5849 -2.2486 -1.2411
12398TIP3    H237134   4.265   6.480   4.427  1.2148  0.9101  1.3877
12399TIP3   OH237135   5.315   6.391   5.133  0.4958 -0.1875 -0.7289
12399TIP3    H137136   5.347   6.311   5.093  4.3591 -0.1158  2.0045
12399TIP3    H237137   5.227   6.369   5.165  0.7914 -2.7531 -1.6138
12400TIP3   OH237138   3.139   6.596   4.910  0.2740 -0.4208  0.2090
12400TIP3    H137139   3.171   6.580   4.999  1.0572  0.2307  0.0433
12400TIP3    H237140   3.191   6.537   4.855  0.3338 -0.2567  0.0897
12401TIP3   OH237141   2.570   7.524   6.282 -0.6747 -0.8224 -0.4948
12401TIP3    H137142   2.512   7.481   6.218 -0.3602 -1.2997 -0.4585
12401TIP3    H237143   2.545   7.486   6.366 -0.5986 -0.7166 -0.4247
12402TIP3   OH237144   6.500   1.174   4.711 -0.3663  0.1932 -0.0355
12402TIP3    H137145   6.487   1.203   4.801  0.5829 -1.1396  0.5503
12402TIP3    H237146   6.546   1.246   4.669 -2.1168  1.4346  0.1330
12403TIP3   OH237147   2.872   6.250   3.861  0.3271 -0.5224 -0.0464
12403TIP3    H137148   2.804   6.269   3.797 -1.4246  0.8681  2.1663
12403TIP3    H237149   2.867   6.155   3.874 -0.8513 -0.5035 -0.3027
12404TIP3   OH237150   3.686   7.782   4.803  0.6734  0.0537 -0.2178
12404TIP3    H137151   3.593   7.804   4.791  0.7747  2.9870  3.5546
12404TIP3    H237152   3.732   7.849   4.752  0.7483  1.2097  1.3321
12405TIP3   OH237153   5.786   7.378   5.809 -0.6089 -0.0760 -0.4242
12405TIP3    H137154   5.727   7.331   5.749 -0.9587  0.2420 -0.3311
12405TIP3    H237155   5.765   7.470   5.796 -2.2451 -0.0978  1.7550
12406TIP3   OH237156   5.639   6.912   4.328  0.7639 -0.3801 -0.0198
12406TIP3    H137157   5.560   6.869   4.297 -0.5814  2.2691 -0.3611
12406TIP3    H237158   5.635   6.904   4.424 -0.2274  0.2732 -0.0053
12407TIP3   OH237159   4.958   6.935   3.996 -0.1644  0.4195 -0.3350
12407TIP3    H137160   4.882   6.879   4.014 -0.2128  0.1820 -1.2962
12407TIP3    H237161   4.939   7.016   4.045 -0.2427 -0.2718  0.7926
12408TIP3   OH237162   2.686   6.772   6.018  0.0950 -0.1452 -0.2101
12408TIP3    H137163   2.766   6.718   6.016 -0.2347 -0.6713 -3.6398
12408TIP3    H237164   2.718   6.862   6.012  0.5152 -0.1879  1.2815
12409TIP3   OH237165   4.415   5.856   5.503 -0.3679 -0.1248 -0.0320
12409TIP3    H137166   4.386   5.765   5.501 -0.9371  0.0702 -0.7099
12409TIP3    H237167   4.334   5.907   5.503 -0.0608  0.3759  1.0525
12410TIP3   OH237168   5.242   6.830   5.947 -0.1065 -0.2857  0.6651
12410TIP3    H137169   5.323   6.787   5.922 -0.5930  0.3294 -2.0924
12410TIP3    H237170   5.187   6.759   5.981  1.4041 -0.7622  2.1723
12411TIP3   OH237171   5.677   7.595   2.960  0.8481  0.0192 -0.1233
12411TIP3    H137172   5.656   7.544   3.038  2.9974 -1.1776 -0.2649
12411TIP3    H237173   5.694   7.683   2.993 -0.2477  0.0097  0.4838
12412TIP3   OH237174   2.821   5.750   6.094  0.0522  0.5868  0.0168
12412TIP3    H137175   2.841   5.836   6.131 -2.1434  0.3287  1.9044
12412TIP3    H237176   2.903   5.701   6.099  0.4112  1.3746  2.3280
12413TIP3   OH237177   7.089   7.566   4.662 -0.0345  0.1649  0.0712
12413TIP3    H137178   7.055   7.534   4.578  2.9028 -1.3973 -0.6118
12413TIP3    H237179   7.086   7.490   4.719 -0.7262  0.8715  0.9847
12414TIP3   OH237180   2.634   6.182   5.520  0.8583  0.2472  0.3653
12414TIP3    H137181   2.654   6.271   5.548  1.6141  0.5051 -0.9612
12414TIP3    H237182   2.681   6.171   5.438  0.6659 -1.3372  0.4409
12415TIP3   OH237183   4.899   6.021   5.968  0.2428  0.1986 -0.2242
12415TIP3    H137184   4.977   5.969   5.984  0.5397  0.1148 -1.8922
12415TIP3    H237185   4.902   6.042   5.875 -1.6710  0.2606 -0.2983
12416TIP3   OH237186   6.825   1.039   4.825 -0.1306 -0.1379 -0.7198
12416TIP3    H137187   6.770   1.089   4.886  0.4730  0.5089 -0.6929
12416TIP3    H237188   6.893   1.000   4.880  0.6569  0.7864 -1.0208
12417TIP3   OH237189   4.724   6.875   6.135 -0.3872  0.3027 -0.5074
12417TIP3    H137190   4.664   6.815   6.180 -0.9135  0.6487 -0.7554
12417TIP3    H237191   4.729   6.841   6.046  0.1978 -0.0383 -0.3444
12418TIP3   OH237192   4.823   7.174   5.316 -0.0347  0.0447 -0.6800
12418TIP3    H137193   4.833   7.263   5.281 -0.2666 -0.1454 -1.2177
12418TIP3    H237194   4.897   7.165   5.377  1.5236 -0.3570 -2.5946
12419TIP3   OH237195   5.846   6.775   5.102  0.1136 -0.2606 -0.1489
12419TIP3    H137196   5.818   6.786   5.193  0.2154  1.6094 -0.3301
12419TIP3    H237197   5.767   6.746   5.057 -0.3969  0.5479  0.2070
12420TIP3   OH237198   5.558   6.781   6.072 -0.2992  0.2415  0.3495
12420TIP3    H137199   5.524   6.744   5.990  1.6194 -2.3401  0.6420
12420TIP3    H237200   5.623   6.845   6.044 -1.5029  1.2858 -0.1324
12421TIP3   OH237201   7.617   2.579   0.582 -0.0616 -0.1599  0.3539
12421TIP3    H137202   7.662   2.552   0.662 -1.2708 -0.6486  0.8879
12421TIP3    H237203   7.676   2.555   0.511  1.2954  0.8311  1.1264
12422TIP3   OH237204   3.185   2.288   1.206 -0.4582 -0.5813  0.2511
12422TIP3    H137205   3.135   2.251   1.278  0.3045 -0.3322  0.9124
12422TIP3    H237206   3.224   2.367   1.242 -0.0517 -0.4642 -0.4326
12423TIP3   OH237207   5.725   7.593   4.176 -0.0847 -0.3060  0.4880
12423TIP3    H137208   5.781   7.641   4.115  1.0719 -1.6300  0.4913
12423TIP3    H237209   5.786   7.549   4.235 -1.1700 -0.3806  1.5679
12424TIP3   OH237210   3.792   5.600   5.585 -0.2656 -0.5646 -0.2524
12424TIP3    H137211   3.783   5.507   5.604 -0.2990 -0.4325  0.3970
12424TIP3    H237212   3.704   5.636   5.598 -0.2217 -0.4146 -0.3656
12425TIP3   OH237213   1.505   5.934   4.769  0.0793  0.0029  0.0124
12425TIP3    H137214   1.496   5.888   4.853 -1.9964 -2.0541 -1.2774
12425TIP3    H237215   1.527   5.866   4.706  0.0603  1.2824 -1.4211
12426TIP3   OH237216   2.857   5.411   6.549 -0.3945 -0.3445  0.1901
12426TIP3    H137217   2.882   5.325   6.582 -1.2344 -0.6736 -0.0138
12426TIP3    H237218   2.823   5.458   6.625  4.3240  1.5094  1.3472
12427TIP3   OH237219   4.065   4.611   2.589 -0.0050  0.5329 -0.3253
12427TIP3    H137220   4.057   4.526   2.632 -1.8155  0.6467 -0.3763
12427TIP3    H237221   4.078   4.591   2.497  1.2877  0.3100 -0.1015
12428TIP3   OH237222   0.732   4.603   5.915  0.1400 -0.4416 -0.4749
12428TIP3    H137223   0.684   4.583   5.995 -2.0188  1.4993 -1.2359
12428TIP3    H237224   0.694   4.685   5.883  1.2778 -0.9192 -3.2439
12429TIP3   OH237225   6.809   7.069   5.164  0.1140 -0.5986  0.3201
12429TIP3    H137226   6.763   7.148   5.134 -1.9091 -1.1024  2.0081
12429TIP3    H237227   6.806   7.010   5.089  0.1859  0.3124 -0.4132
12430TIP3   OH237228   4.486   7.948   6.065  0.3100 -0.4284  0.1251
12430TIP3    H137229   4.561   7.933   6.122  0.3754 -0.3502  0.0593
12430TIP3    H237230   4.436   7.866   6.070 -0.6919  0.2632  1.8103
12431TIP3   OH237231   2.640   7.176   5.598 -0.0507 -0.2292 -0.3121
12431TIP3    H137232   2.579   7.239   5.637 -0.0856 -0.1084 -0.5591
12431TIP3    H237233   2.684   7.225   5.529  1.2117  0.0274  0.6622
12432TIP3   OH237234   3.117   7.998   5.074  0.2962  0.1006  0.1586
12432TIP3    H137235   3.133   7.973   4.983  1.7556 -0.6765  0.6130
12432TIP3    H237236   3.132   7.918   5.124  0.3625  0.7349  1.1705
12433TIP3   OH237237   0.765   3.109   0.738  0.1768  0.1354 -0.0588
12433TIP3    H137238   0.792   3.023   0.707  0.4243  0.8125 -1.7919
12433TIP3    H237239   0.776   3.105   0.833 -1.6901 -2.3725  0.0967
12434TIP3   OH237240   1.029   0.393   5.723  0.3278 -0.4607  0.1419
12434TIP3    H137241   1.073   0.348   5.650 -0.6259 -1.9769  0.4835
12434TIP3    H237242   0.946   0.423   5.685 -1.0411 -2.9587  1.0928
12435TIP3   OH237243   2.420   0.509   0.239 -0.2644 -0.5089  0.1158
12435TIP3    H137244   2.495   0.518   0.180 -1.6001 -0.9408 -1.6771
12435TIP3    H237245   2.454   0.537   0.324  0.8326  3.2352 -1.4307
12436TIP3   OH237246   1.906   7.271   6.868 -0.1589 -0.1793  0.3474
12436TIP3    H137247   1.929   7.192   6.918  0.4277  0.5450  1.2536
12436TIP3    H237248   1.984   7.326   6.874 -1.3581  1.4547  1.6978
12437TIP3   OH237249   5.082   2.731   6.729  0.9189 -0.4335  0.3279
12437TIP3    H137250   5.074   2.819   6.692  1.2398 -0.2897  0.5912
12437TIP3    H237251   5.115   2.746   6.818  2.3502 -0.9000 -0.1171
12438TIP3   OH237252   4.926   7.631   6.157  0.5354 -0.2333  0.1053
12438TIP3    H137253   5.000   7.638   6.098  1.8917 -0.0944  1.7917
12438TIP3    H237254   4.919   7.718   6.196 -1.2096  0.0831 -0.8145
12439TIP3   OH237255   5.328   5.737   5.093 -0.0282 -0.2781  0.2191
12439TIP3    H137256   5.297   5.647   5.096 -0.0254 -0.3324 -1.0499
12439TIP3    H237257   5.412   5.731   5.047 -0.1348  0.3916 -0.0635
12440TIP3   OH237258   2.734   3.156   0.153 -0.3187 -0.1253 -0.2118
12440TIP3    H137259   2.703   3.152   0.244 -2.0187 -0.8813 -0.8050
12440TIP3    H237260   2.716   3.245   0.125  1.0761  0.3880  0.4794
12441TIP3   OH237261   0.568   5.325   0.295  0.3607 -0.2313  0.5128
12441TIP3    H137262   0.483   5.283   0.281 -0.0042  0.3549  0.9207
12441TIP3    H237263   0.625   5.288   0.228 -0.5250  0.2274 -0.5082
12442TIP3   OH237264   3.516   7.058   6.209 -1.0918  0.2562  0.7111
12442TIP3    H137265   3.477   7.052   6.122 -1.2917 -2.5982  0.9331
12442TIP3    H237266   3.607   7.032   6.197 -0.3614  2.6061  0.9233
12443TIP3   OH237267   0.115   4.048   1.676 -0.5985 -0.0280 -0.0623
12443TIP3    H137268   0.042   4.094   1.718 -0.8675  0.5443 -1.1325
12443TIP3    H237269   0.186   4.052   1.741 -1.4663 -0.4777  0.9318
12444TIP3   OH237270   4.059   5.953   5.324 -0.0636 -0.4413  0.2871
12444TIP3    H137271   4.006   6.024   5.286  0.0184 -0.0208  0.9512
12444TIP3    H237272   4.118   5.928   5.253 -0.2108  0.0350 -0.0117
12445TIP3   OH237273   2.105   6.736   4.282  0.0519 -0.1982 -0.3392
12445TIP3    H137274   2.180   6.684   4.311  0.9553  0.8011 -0.8468
12445TIP3    H237275   2.144   6.808   4.231 -1.3133 -0.2443 -1.4740
12446TIP3   OH237276   6.716   6.750   5.621  0.1081 -0.6299  0.6044
12446TIP3    H137277   6.748   6.661   5.605 -0.4049 -0.7958  0.5197
12446TIP3    H237278   6.686   6.781   5.536  2.7118  0.5970  0.0834
12447TIP3   OH237279   3.578   6.132   6.717 -0.5488  0.2824  0.6308
12447TIP3    H137280   3.637   6.127   6.793 -1.0729  0.1488  1.0316
12447TIP3    H237281   3.583   6.046   6.677 -0.5254  0.2469  0.7091
12448TIP3   OH237282   1.264   4.038   5.916 -0.4502 -0.8062 -0.1002
12448TIP3    H137283   1.327   3.987   5.865 -0.8233 -1.4634  0.0845
12448TIP3    H237284   1.180   4.019   5.874 -0.4448  0.6432 -0.8105
12449TIP3   OH237285   8.153   0.038   3.762  0.4091 -0.1829  0.0991
12449TIP3    H137286   8.079   0.099   3.757  1.4021  0.9843 -0.3225
12449TIP3    H237287   8.133  -0.016   3.839 -0.1214  1.1213  0.8870
12450TIP3   OH237288   1.635   2.482   0.251 -0.2082  0.4938  0.1558
12450TIP3    H137289   1.727   2.490   0.229 -0.1178  2.0598  1.0457
12450TIP3    H237290   1.632   2.418   0.322  0.1086 -0.0637 -0.3269
12451TIP3   OH237291   6.784   7.040   4.357 -0.4517  0.3061 -0.1346
12451TIP3    H137292   6.737   7.122   4.341 -1.1204 -0.0993 -0.2494
12451TIP3    H237293   6.722   6.972   4.333  0.1118 -0.2364 -0.0498
12452TIP3   OH237294   5.569   0.620   5.081  0.1751  0.1352 -0.0266
12452TIP3    H137295   5.601   0.530   5.084 -1.7131 -0.5717  0.0266
12452TIP3    H237296   5.514   0.623   5.003 -1.5171  0.6025  1.1341
12453TIP3   OH237297   1.825   4.293   5.126  0.5423 -0.2096  0.2779
12453TIP3    H137298   1.796   4.297   5.217  0.9048 -2.0331  0.4919
12453TIP3    H237299   1.752   4.330   5.076 -1.1306 -2.4368  1.0077
12454TIP3   OH237300   3.470   5.510   4.820 -0.0403  0.0764 -0.0624
12454TIP3    H137301   3.473   5.594   4.774 -2.1478  0.5117  0.5277
12454TIP3    H237302   3.468   5.445   4.750  3.1802  0.3914 -0.5221
12455TIP3   OH237303   0.010   0.595   2.297 -0.7306  0.1461 -0.1578
12455TIP3    H137304  -0.040   0.522   2.334 -0.2294 -0.2592 -0.2752
12455TIP3    H237305   0.096   0.558   2.278 -0.3137  0.8903  0.2310
12456TIP3   OH237306   5.102   7.639   3.867  0.3583 -0.3231  0.1790
12456TIP3    H137307   5.016   7.627   3.906  0.3684  1.8450  0.9300
12456TIP3    H237308   5.096   7.596   3.782 -1.6218  0.2111  0.0316
12457TIP3   OH237309   8.160   0.530   1.816  0.2731 -0.0949 -0.1132
12457TIP3    H137310   8.156   0.441   1.851 -0.3004 -0.1303 -0.2675
12457TIP3    H237311   8.237   0.569   1.858 -0.3876 -0.1477  1.1704
12458TIP3   OH237312   2.894   5.475   6.279 -0.2199 -0.4600  0.5258
12458TIP3    H137313   2.890   5.460   6.374  1.4919 -0.9182  0.5478
12458TIP3    H237314   2.987   5.491   6.262 -0.4789 -0.6788 -1.1281
12459TIP3   OH237315   4.182   6.250   6.358 -0.1044 -0.2430 -0.7392
12459TIP3    H137316   4.106   6.199   6.331 -1.0668  0.5731  0.3591
12459TIP3    H237317   4.159   6.282   6.446  1.0846  0.8409 -0.8129
12460TIP3   OH237318   4.710   7.158   6.840  0.3193  0.5973 -0.3811
12460TIP3    H137319   4.627   7.121   6.810  1.9446 -2.4383 -1.2524
12460TIP3    H237320   4.711   7.141   6.935  0.0539  0.4967 -0.3966
12461TIP3   OH237321   6.237   7.340   4.735 -0.6491  0.1300  0.2378
12461TIP3    H137322   6.276   7.425   4.756  0.4823 -0.2360 -0.2957
12461TIP3    H237323   6.227   7.296   4.819  2.5322 -0.7783  0.2189
12462TIP3   OH237324   8.448   7.561   4.025  0.1990 -0.7937 -0.0807
12462TIP3    H137325   8.402   7.495   4.077 -0.3626 -0.1806  0.2130
12462TIP3    H237326   8.414   7.550   3.937  0.5146 -1.2636 -0.1441
12463TIP3   OH237327   7.697   0.319   5.651 -1.0925  0.5774 -0.1648
12463TIP3    H137328   7.660   0.393   5.699 -2.8784  0.4971 -1.3888
12463TIP3    H237329   7.792   0.328   5.664 -1.3543  2.3822  0.7060
12464TIP3   OH237330   6.475   6.909   4.194 -0.5854  0.5910 -0.2687
12464TIP3    H137331   6.456   7.001   4.174 -0.4562  0.4768 -0.9075
12464TIP3    H237332   6.390   6.866   4.192 -0.9229  1.0786  2.0512
12465TIP3   OH237333   3.126   7.512   5.501 -0.1690  0.5683 -0.9075
12465TIP3    H137334   3.198   7.508   5.437  1.2808  2.3726  0.5501
12465TIP3    H237335   3.073   7.586   5.472  0.4296  1.3197 -0.1103
12466TIP3   OH237336   5.214   5.053   4.160 -0.2574 -0.0389  0.6734
12466TIP3    H137337   5.153   5.099   4.101 -0.5478  1.0828  1.8299
12466TIP3    H237338   5.162   5.035   4.238  1.3134  2.4240  2.3583
12467TIP3   OH237339   5.056   6.875   6.720  0.0575 -0.0824 -0.4912
12467TIP3    H137340   5.136   6.849   6.767  0.6465  1.1611 -0.7758
12467TIP3    H237341   5.029   6.956   6.763 -0.0868  0.4172 -1.5172
12468TIP3   OH237342   6.029   7.203   6.280 -0.2946  0.3112 -0.3991
12468TIP3    H137343   6.025   7.116   6.319 -2.5225 -0.4614 -2.1760
12468TIP3    H237344   6.010   7.263   6.352 -0.6155 -0.8098  0.4675
12469TIP3   OH237345   7.781   7.273   4.449 -0.7553 -0.4177  0.2117
12469TIP3    H137346   7.787   7.365   4.422 -1.0875 -0.9666 -1.7603
12469TIP3    H237347   7.703   7.270   4.505  0.3128  0.8492  1.8429
12470TIP3   OH237348   5.919   7.886   4.598 -0.6224 -0.8580  0.0755
12470TIP3    H137349   5.966   7.845   4.525  1.4914 -0.8045  1.3554
12470TIP3    H237350   5.986   7.896   4.666 -2.5518 -0.9034  2.0200
12471TIP3   OH237351   6.254   5.562   6.025  0.3266 -0.4633  0.3294
12471TIP3    H137352   6.228   5.647   5.990  0.6053  0.0305  1.3079
12471TIP3    H237353   6.222   5.562   6.115  1.3718 -0.9105  0.7119
12472TIP3   OH237354   1.763   3.664   0.686 -0.2020  0.2535 -0.1847
12472TIP3    H137355   1.731   3.586   0.731  0.3058 -0.1121 -0.4498
12472TIP3    H237356   1.826   3.703   0.746 -1.0200  0.8914  0.2743
12473TIP3   OH237357   6.360   7.610   4.140 -0.4685  0.4106  0.1778
12473TIP3    H137358   6.294   7.651   4.085 -0.3838  1.1201  0.6026
12473TIP3    H237359   6.327   7.621   4.229  1.6490  3.4629  0.6611
12474TIP3   OH237360   5.278   5.809   5.791  0.3015  1.0652  0.1505
12474TIP3    H137361   5.191   5.771   5.777  0.6916  0.2542 -0.1541
12474TIP3    H237362   5.292   5.864   5.714  1.2772 -1.1692 -1.3366
12475TIP3   OH237363   7.536   7.767   4.901  0.1334 -0.3561 -0.1505
12475TIP3    H137364   7.588   7.694   4.867  1.3453  1.0497 -1.3300
12475TIP3    H237365   7.537   7.833   4.832  0.5802  1.5510  1.6239
12476TIP3   OH237366   1.607   1.074   0.635 -0.0732  0.1106  0.5356
12476TIP3    H137367   1.684   1.019   0.648  0.4552  1.1725  1.9547
12476TIP3    H237368   1.590   1.113   0.721  0.1557  2.9161 -0.6310
12477TIP3   OH237369   4.795   6.098   6.648  0.0863  0.1408  0.1794
12477TIP3    H137370   4.836   6.183   6.633  1.9509 -0.9906 -1.2315
12477TIP3    H237371   4.824   6.043   6.575 -0.5901 -1.8998  1.3954
12478TIP3   OH237372   6.867   6.752   2.998 -0.4650  0.1682  0.3419
12478TIP3    H137373   6.867   6.657   3.006 -1.9824 -0.0195 -1.4757
12478TIP3    H237374   6.928   6.770   2.927  1.7203  0.7595  2.3047
12479TIP3   OH237375   4.596   6.665   6.245  0.5899 -0.2539  0.1642
12479TIP3    H137376   4.511   6.708   6.243 -0.3950 -2.1327  0.0166
12479TIP3    H237377   4.601   6.626   6.333  1.4685  0.1902  0.3134
12480TIP3   OH237378   6.862   4.985   4.722 -0.1270  0.0307 -0.2345
12480TIP3    H137379   6.817   5.006   4.639  0.1497  0.0862 -0.3713
12480TIP3    H237380   6.845   5.061   4.777  2.6301  1.6053 -1.4448
12481TIP3   OH237381   2.627   2.198   0.376  0.2692 -0.3973  0.1650
12481TIP3    H137382   2.682   2.263   0.421 -0.2077 -0.6473  1.1190
12481TIP3    H237383   2.575   2.249   0.315 -0.2266  0.1490  1.0290
12482TIP3   OH237384   4.029   7.411   6.585  0.1952 -0.0487  0.3756
12482TIP3    H137385   4.047   7.407   6.679 -0.0493 -1.0795  0.3902
12482TIP3    H237386   4.087   7.345   6.547  1.1947  1.2402 -0.3498
12483TIP3   OH237387   4.685   6.833   5.539 -0.4979 -0.1222  0.7298
12483TIP3    H137388   4.697   6.776   5.463 -0.0865  0.6581  0.1927
12483TIP3    H237389   4.747   6.800   5.604 -0.9164 -0.8519  0.7484
12484TIP3   OH237390   2.694   1.992   0.884 -0.3770  0.3648  0.1661
12484TIP3    H137391   2.756   2.023   0.818  1.1835 -0.4847  1.1830
12484TIP3    H237392   2.697   2.059   0.953 -1.2986  0.7894 -0.2070
12485TIP3   OH237393   5.973   6.351   5.158  0.1614 -0.0009  0.4066
12485TIP3    H137394   5.888   6.311   5.176 -0.6877  1.5475 -0.0736
12485TIP3    H237395   5.985   6.415   5.228  1.1030 -0.4324  0.6619
12486TIP3   OH237396   6.306   7.528   4.397  0.3654  0.2624 -0.3004
12486TIP3    H137397   6.376   7.514   4.460  0.1785  1.6333  0.2227
12486TIP3    H237398   6.242   7.459   4.416  0.3285  0.6395  0.9847
12487TIP3   OH237399   4.363   7.966   4.905  0.0093  0.0479 -0.2360
12487TIP3    H137400   4.433   7.965   4.840 -1.1805  1.4086 -1.5676
12487TIP3    H237401   4.321   7.880   4.896  1.8437 -0.9947  0.9733
12488TIP3   OH237402   5.594   5.897   4.857 -0.4586 -0.0943 -0.2915
12488TIP3    H137403   5.543   5.831   4.811  0.1946 -0.3259 -0.6913
12488TIP3    H237404   5.637   5.849   4.928 -0.0245 -0.0906 -0.5509
12489TIP3   OH237405   5.612   5.963   3.031 -0.9461  0.2810  0.0830
12489TIP3    H137406   5.638   5.888   2.978  1.5126  1.6499 -0.7419
12489TIP3    H237407   5.540   6.003   2.984 -2.1655 -1.4401  0.4451
12490TIP3   OH237408   1.988   2.430   0.467  0.2115  0.0191 -0.0321
12490TIP3    H137409   1.897   2.400   0.467 -0.0895  0.9169  0.2689
12490TIP3    H237410   1.994   2.487   0.390 -0.4689  2.8332  1.8876
12491TIP3   OH237411   5.411   7.500   5.782  0.0294 -0.3718  0.2001
12491TIP3    H137412   5.466   7.456   5.847 -0.5424 -0.5985  0.5383
12491TIP3    H237413   5.321   7.486   5.814 -0.1136  1.9424  0.9052
12492TIP3   OH237414   6.968   6.976   5.571 -0.2515  0.5475 -0.1430
12492TIP3    H137415   7.004   6.965   5.660  0.3740  0.2843 -0.4232
12492TIP3    H237416   6.912   6.900   5.559  2.5057 -1.3879 -1.3212
12493TIP3   OH237417   3.565   0.614   0.290  0.3806 -0.2959 -0.5071
12493TIP3    H137418   3.611   0.625   0.207  1.7132 -0.0975  0.2454
12493TIP3    H237419   3.520   0.697   0.304 -1.8285 -1.1316 -2.1781
12494TIP3   OH237420   2.941   1.889   0.457  0.3962 -0.0630 -0.4459
12494TIP3    H137421   3.002   1.833   0.505  0.9758  2.2111  1.5723
12494TIP3    H237422   2.994   1.929   0.388  0.1497 -1.3856 -1.4256
12495TIP3   OH237423   7.229   7.160   3.453 -0.6203 -0.3481  0.1065
12495TIP3    H137424   7.241   7.121   3.366 -0.0159  0.3710 -0.1393
12495TIP3    H237425   7.286   7.109   3.510 -0.7438 -0.5915  0.0135
12496TIP3   OH237426   0.153   0.315   5.906  0.1737  0.2377 -0.1825
12496TIP3    H137427   0.104   0.308   5.824  1.1901 -0.1781 -0.7602
12496TIP3    H237428   0.086   0.330   5.973 -0.5561  2.0628 -1.2741
12497TIP3   OH237429   1.230   1.433   6.616 -0.2792  0.7038  0.3648
12497TIP3    H137430   1.135   1.421   6.608 -0.2052  0.0429  0.4485
12497TIP3    H237431   1.244   1.526   6.601 -0.9652  0.8348  0.5289
12498TIP3   OH237432   5.194   7.468   2.818 -0.0025 -0.7100  0.2188
12498TIP3    H137433   5.211   7.554   2.856 -0.5382 -0.5718  0.1490
12498TIP3    H237434   5.272   7.417   2.839  0.8017  0.1154 -0.6893
12499TIP3   OH237435   6.749   6.500   5.560  0.0234 -0.3169 -0.1343
12499TIP3    H137436   6.788   6.432   5.614  0.7021 -1.1614 -1.6505
12499TIP3    H237437   6.705   6.452   5.489 -3.0394  0.6508  1.0472
12500TIP3   OH237438   7.829   7.557   4.445 -0.2145 -0.2634  0.2235
12500TIP3    H137439   7.849   7.603   4.364  1.6316 -0.6682  0.4288
12500TIP3    H237440   7.787   7.623   4.501  2.0373  1.0846  0.3586
12501TIP3   OH237441   7.029   7.694   4.969  0.0253 -0.2085  0.4169
12501TIP3    H137442   6.979   7.731   4.897  1.0650  0.6112  0.1243
12501TIP3    H237443   7.104   7.651   4.928  0.5794  0.1926  1.0062
12502TIP3   OH237444   7.115   6.481   4.389  0.6015 -0.0687 -0.1309
12502TIP3    H137445   7.161   6.447   4.465  0.8804  0.0262 -0.2570
12502TIP3    H237446   7.137   6.420   4.318 -0.6958 -0.8949  0.1586
12503TIP3   OH237447   0.069   0.096   2.646 -0.0798  0.0541  0.0557
12503TIP3    H137448   0.003   0.116   2.579  0.6736  0.3057 -0.6210
12503TIP3    H237449   0.146   0.069   2.596  0.3018 -0.3411  0.8460
12504TIP3   OH237450   6.472   7.241   3.838 -0.2807  0.4258  0.5570
12504TIP3    H137451   6.501   7.252   3.747 -0.2743  1.1397  0.6462
12504TIP3    H237452   6.513   7.313   3.886 -0.9508  0.5336  0.9758
12505TIP3   OH237453   5.630   7.238   5.063  0.6526  0.3466  0.4472
12505TIP3    H137454   5.600   7.292   5.136  0.8814 -1.4464  1.9197
12505TIP3    H237455   5.715   7.274   5.039 -0.5883  2.6152 -0.7402
12506TIP3   OH237456   6.914   7.381   5.195 -0.3525 -0.5131 -0.0884
12506TIP3    H137457   6.888   7.329   5.271 -3.1782 -0.1854 -0.7631
12506TIP3    H237458   6.832   7.396   5.147  0.9196  1.7732 -1.6446
12507TIP3   OH237459   5.506   5.900   6.065  0.6355 -0.2063 -1.1437
12507TIP3    H137460   5.573   5.950   6.112  1.4641 -1.2685 -1.1542
12507TIP3    H237461   5.463   5.848   6.133  1.6246 -1.5094 -1.4930
12508TIP3   OH237462   2.514   4.890   0.860  0.4398  0.2700 -0.7389
12508TIP3    H137463   2.472   4.922   0.939 -1.9246 -0.4707 -1.6512
12508TIP3    H237464   2.558   4.967   0.823  1.2483  0.6890  1.0696
12509TIP3   OH237465   6.625   7.748   3.660 -0.0549  0.0140 -0.2725
12509TIP3    H137466   6.623   7.841   3.639 -1.6454 -0.0726 -0.5671
12509TIP3    H237467   6.538   7.730   3.697  0.0832 -1.4304 -0.6189
12510TIP3   OH237468   5.807   7.292   2.909 -0.1386 -0.0270 -0.1852
12510TIP3    H137469   5.891   7.257   2.877 -0.0424  1.0165 -1.0838
12510TIP3    H237470   5.830   7.375   2.950 -0.5315 -0.4755  0.9673
12511TIP3   OH237471   4.274   4.919   3.430  0.1485 -0.2036  0.3697
12511TIP3    H137472   4.359   4.962   3.427  1.0397 -1.9774 -0.5675
12511TIP3    H237473   4.294   4.827   3.445 -1.5620 -0.8058 -0.9073
12512TIP3   OH237474   1.931   0.554   4.478 -0.0064  0.1110  0.2845
12512TIP3    H137475   1.895   0.470   4.506 -0.1050  0.5161  1.4426
12512TIP3    H237476   1.991   0.533   4.407  0.8940 -1.0812  1.3731
12513TIP3   OH237477   3.884   6.497   5.483  0.2668  0.2533  0.6588
12513TIP3    H137478   3.922   6.542   5.558 -1.1511  0.3694  1.3232
12513TIP3    H237479   3.813   6.445   5.520  0.5857 -0.9582 -0.3811
12514TIP3   OH237480   2.759   0.419   0.093  0.2944 -0.3004 -0.7834
12514TIP3    H137481   2.713   0.496   0.061  0.2080 -0.3703 -0.8271
12514TIP3    H237482   2.697   0.347   0.083 -1.1256  0.2840  2.9515
12515TIP3   OH237483   6.956   4.826   5.029  0.5507 -0.1969 -0.0599
12515TIP3    H137484   6.873   4.784   5.006  1.0339 -0.7164 -0.8988
12515TIP3    H237485   6.936   4.881   5.104 -0.4860 -0.5625 -0.0689
12516TIP3   OH237486   2.265   0.811   5.178 -0.1463 -0.0855  0.2514
12516TIP3    H137487   2.306   0.725   5.168 -0.5461 -0.4240  1.4663
12516TIP3    H237488   2.207   0.801   5.254  0.1247  1.3793  0.6491
12517TIP3   OH237489   7.026   7.143   2.770 -0.3073 -0.3614  0.1339
12517TIP3    H137490   7.030   7.115   2.861  0.1068 -2.6451 -0.5710
12517TIP3    H237491   7.000   7.065   2.721  0.5862  0.5305 -1.8353
12518TIP3   OH237492   5.795   7.807   4.903  0.3619 -0.9548 -0.1726
12518TIP3    H137493   5.744   7.888   4.891  1.5102 -0.6784 -3.9548
12518TIP3    H237494   5.828   7.813   4.993  0.0559  2.5745 -0.2115
12519TIP3   OH237495   3.722   2.506   0.706 -0.3108  0.3550  0.1451
12519TIP3    H137496   3.690   2.574   0.646 -0.3922 -0.2095 -0.4482
12519TIP3    H237497   3.714   2.424   0.657  1.4550  0.1201  0.2174
12520TIP3   OH237498   5.381   6.152   4.997 -0.5527 -0.0889 -0.3387
12520TIP3    H137499   5.362   6.065   4.963 -2.9356  0.5561 -0.7595
12520TIP3    H237500   5.429   6.196   4.927 -0.7019 -0.5518 -0.7290
12521TIP3   OH237501   6.525   6.607   4.937 -0.3705  0.0233 -0.5715
12521TIP3    H137502   6.513   6.646   5.023  0.8427  0.7893 -0.7354
12521TIP3    H237503   6.450   6.637   4.886  0.0478  1.3713 -0.4130
12522TIP3   OH237504   8.399   6.034   3.452  0.7079  0.3078  0.3481
12522TIP3    H137505   8.382   6.128   3.445  0.9449  0.5141  2.2293
12522TIP3    H237506   8.339   5.994   3.390  0.2668  1.6735 -0.1321
12523TIP3   OH237507   7.426   7.714   3.499 -0.1791  0.5084  0.1439
12523TIP3    H137508   7.443   7.804   3.472  0.4130  0.5018  0.4832
12523TIP3    H237509   7.485   7.699   3.573  0.6855 -0.5662 -0.7396
12524TIP3   OH237510   7.039   5.038   6.661 -0.4344 -0.3527  0.1223
12524TIP3    H137511   7.013   4.952   6.694 -1.5660  0.6149  1.7945
12524TIP3    H237512   7.125   5.054   6.699 -0.6684 -0.3003  0.6265
12525TIP3   OH237513   5.923   7.917   2.490  0.4576  0.0045 -0.2708
12525TIP3    H137514   5.974   7.874   2.420  1.3934 -0.2119  0.5298
12525TIP3    H237515   5.969   7.893   2.570  0.2266  1.4487  0.2936
12526TIP3   OH237516   4.085   5.420   6.652 -0.3601  0.1458  0.1869
12526TIP3    H137517   4.021   5.366   6.699 -0.1386  0.5561  0.9701
12526TIP3    H237518   4.034   5.462   6.583 -0.7151 -0.3763  0.1280
12527TIP3   OH237519   3.185   5.674   5.557 -0.3470 -0.0730  0.0710
12527TIP3    H137520   3.204   5.768   5.559  0.1363 -0.1634 -0.1290
12527TIP3    H237521   3.204   5.648   5.467 -1.6742 -0.1240 -0.2042
12528TIP3   OH237522   5.813   6.529   5.733  0.1947 -0.1809  0.6429
12528TIP3    H137523   5.837   6.616   5.700  2.4680 -1.3162 -0.7804
12528TIP3    H237524   5.796   6.477   5.654 -2.2147 -0.7810  1.5041
12529TIP3   OH237525   5.623   6.361   6.353  0.8575 -0.4945  0.6232
12529TIP3    H137526   5.696   6.302   6.336  0.3210 -0.9600 -0.0692
12529TIP3    H237527   5.548   6.321   6.310  0.4195  0.5460  0.3854
12530TIP3   OH237528   5.938   7.623   4.792  0.4515 -0.0572  0.0188
12530TIP3    H137529   5.898   7.700   4.831  0.7778 -0.3295  0.8949
12530TIP3    H237530   6.021   7.654   4.755  0.0555  0.2368 -0.6447
12531TIP3   OH237531   1.917   3.476   0.827 -0.3301  0.1585  0.0718
12531TIP3    H137532   1.989   3.412   0.825 -1.2596 -0.8718 -1.6010
12531TIP3    H237533   1.853   3.438   0.887 -0.3988  0.0622 -0.0632
12532TIP3   OH237534   6.084   6.817   4.969  0.3446 -0.3613  0.3044
12532TIP3    H137535   6.073   6.900   4.924 -0.2300 -1.0678 -0.8647
12532TIP3    H237536   6.001   6.803   5.014  0.7022  0.0456  1.1096
12533TIP3   OH237537   4.373   6.834   3.148 -0.5100 -0.2091 -0.1302
12533TIP3    H137538   4.459   6.825   3.108  0.2104  0.2114  1.3066
12533TIP3    H237539   4.313   6.791   3.086  0.4659  1.0756 -2.0064
12534TIP3   OH237540   1.030   0.850   6.544 -0.3615  0.1312 -0.3852
12534TIP3    H137541   1.068   0.937   6.535 -1.0494  0.3627 -1.1168
12534TIP3    H237542   0.951   0.853   6.489 -0.1198 -1.1017 -0.8042
12535TIP3   OH237543   7.559   4.646   3.089 -0.5599  0.4992  0.0261
12535TIP3    H137544   7.637   4.698   3.109 -0.0107 -0.3359  0.0642
12535TIP3    H237545   7.533   4.608   3.172 -0.2895 -0.2130 -0.2173
12536TIP3   OH237546   5.673   4.670   4.628  0.1667  0.1332  0.3237
12536TIP3    H137547   5.747   4.730   4.619 -0.4982  1.0898  1.1540
12536TIP3    H237548   5.689   4.623   4.710  0.9766 -1.2479 -0.6091
12537TIP3   OH237549   5.464   7.340   5.303 -0.4661 -0.6325  0.6515
12537TIP3    H137550   5.429   7.429   5.307  0.7288 -0.1381  0.3123
12537TIP3    H237551   5.421   7.294   5.375 -0.5997  0.3951  1.2341
12538TIP3   OH237552   4.720   6.787   4.082 -0.0428 -0.4828  0.2291
12538TIP3    H137553   4.674   6.747   4.009  0.4001 -0.1729 -0.2191
12538TIP3    H237554   4.747   6.713   4.137  0.4978 -0.7727 -0.4329
12539TIP3   OH237555   7.626   5.867   4.649  0.5376  0.2831  0.3751
12539TIP3    H137556   7.624   5.879   4.555 -0.1940  0.0735  0.3603
12539TIP3    H237557   7.618   5.956   4.685 -1.6787  0.1545  0.2487
12540TIP3   OH237558   7.515   6.388   3.885  0.0385 -0.3834  0.2625
12540TIP3    H137559   7.579   6.411   3.818 -0.4731 -2.1354 -0.8739
12540TIP3    H237560   7.562   6.328   3.944  0.3868  0.8839  1.2804
12541TIP3   OH237561   4.841   1.695   1.252  0.1105 -0.2573 -0.3904
12541TIP3    H137562   4.762   1.696   1.306 -0.5515  0.0925 -1.3646
12541TIP3    H237563   4.899   1.759   1.293 -1.3135  1.7761 -1.4572
12542TIP3   OH237564   6.895   6.092   4.656 -0.2726  0.6337  0.2569
12542TIP3    H137565   6.981   6.072   4.694 -0.0208  0.2176 -0.5167
12542TIP3    H237566   6.836   6.028   4.696  0.3164 -0.9371 -1.3468
12543TIP3   OH237567   2.135   0.323   5.426  0.6956  0.2406 -0.1382
12543TIP3    H137568   2.069   0.366   5.482 -0.5464  2.0325 -2.8529
12543TIP3    H237569   2.085   0.263   5.372  1.9313 -1.7113  0.8516
12544TIP3   OH237570   4.646   6.880   6.584  0.4293 -0.0551 -0.5260
12544TIP3    H137571   4.614   6.929   6.509 -0.2560 -0.6867 -0.6605
12544TIP3    H237572   4.741   6.882   6.576  0.4247  1.5261 -0.3391
12545TIP3   OH237573   4.132   6.972   6.190  0.4378  0.6860  0.1996
12545TIP3    H137574   4.150   7.065   6.200 -0.6328  0.9891 -0.6227
12545TIP3    H237575   4.098   6.945   6.276 -1.8456  1.6654 -0.3880
12546TIP3   OH237576   1.939   1.092   6.602  0.1850 -0.0220  0.1918
12546TIP3    H137577   2.002   1.057   6.665 -0.6791 -1.1615  0.4316
12546TIP3    H237578   1.964   1.052   6.519  0.3379  0.2523  0.1026
12547TIP3   OH237579   7.360   7.687   4.616  0.4930 -0.0510  0.0124
12547TIP3    H137580   7.366   7.766   4.669  1.2438 -1.0905  1.5199
12547TIP3    H237581   7.272   7.653   4.631 -0.1848  1.0270 -1.4336
12548TIP3   OH237582   3.817   4.925   5.389 -0.4050 -0.2244 -0.5903
12548TIP3    H137583   3.866   4.904   5.469  1.0774 -1.7694 -1.8841
12548TIP3    H237584   3.857   5.006   5.357  1.3723 -1.4812 -1.6440
12549TIP3   OH237585   8.185   0.524   2.937  0.4683 -0.0400  0.4360
12549TIP3    H137586   8.231   0.605   2.959 -0.1910  0.2106  0.8978
12549TIP3    H237587   8.202   0.466   3.011  1.0138 -0.3662  0.0666
12550TIP3   OH237588   7.814   0.159   4.156 -0.1254  0.1776 -0.8203
12550TIP3    H137589   7.896   0.200   4.127 -0.0119 -0.0961 -0.8948
12550TIP3    H237590   7.754   0.232   4.171  0.4670  0.4477  0.2823
12551TIP3   OH237591   4.065   7.264   5.174 -0.4772 -0.1092  0.7457
12551TIP3    H137592   4.079   7.180   5.216  1.8917  0.6369  1.5708
12551TIP3    H237593   4.146   7.279   5.124 -1.2561  1.2259 -0.1445
12552TIP3   OH237594   5.502   7.210   4.803  0.6946  0.1522 -0.1479
12552TIP3    H137595   5.439   7.282   4.811  0.4277 -0.3219  2.4375
12552TIP3    H237596   5.554   7.214   4.883  3.5755  0.1130 -1.9379
12553TIP3   OH237597   4.388   5.735   6.367  0.2450  0.0027  0.0239
12553TIP3    H137598   4.452   5.687   6.314 -0.0970 -1.9699  1.3733
12553TIP3    H237599   4.304   5.693   6.347 -0.1478  0.4297  0.7602
12554TIP3   OH237600   5.284   5.680   6.011 -0.7338  0.0993 -0.4494
12554TIP3    H137601   5.367   5.640   6.037  0.1560  2.0737 -0.1217
12554TIP3    H237602   5.306   5.731   5.933 -1.1322  2.3512  0.8616
12555TIP3   OH237603   4.338   4.744   0.465 -0.3692  0.5571  0.4669
12555TIP3    H137604   4.298   4.658   0.455 -0.0767  0.2942  1.4951
12555TIP3    H237605   4.346   4.778   0.376 -0.3890 -0.5228  0.0506
12556TIP3   OH237606   5.357   7.378   4.971  0.1440 -0.5004  0.0559
12556TIP3    H137607   5.343   7.319   5.046  0.0299  0.4783  0.8170
12556TIP3    H237608   5.442   7.419   4.989  0.5518 -0.9494 -0.8276
12557TIP3   OH237609   5.762   7.188   6.561  0.2615  0.0646 -0.0335
12557TIP3    H137610   5.788   7.148   6.644  1.4668  1.2804  0.1883
12557TIP3    H237611   5.804   7.274   6.561 -0.6048  0.5079 -1.4285
12558TIP3   OH237612   6.209   6.752   4.362  0.1828  1.0535  0.0093
12558TIP3    H137613   6.303   6.756   4.381  0.3746 -0.3924 -0.5299
12558TIP3    H237614   6.177   6.680   4.416 -1.0664  2.9446  1.8481
12559TIP3   OH237615   7.123   7.254   5.033  0.4280  0.0785 -0.0176
12559TIP3    H137616   7.104   7.163   5.009 -0.3346 -0.6470  3.1093
12559TIP3    H237617   7.046   7.283   5.081  1.2689  1.9120  0.2681
12560TIP3   OH237618   0.394   7.110   2.197  0.0204 -0.0664 -0.6601
12560TIP3    H137619   0.360   7.200   2.193 -0.7109 -0.2612  0.6815
12560TIP3    H237620   0.465   7.114   2.261  1.2006 -0.0778 -1.9614
12561TIP3   OH237621   5.736   6.812   5.361  0.6064 -0.4646  0.1110
12561TIP3    H137622   5.692   6.728   5.374 -1.5081  0.6076  0.0988
12561TIP3    H237623   5.774   6.833   5.446 -0.7928 -0.3792  0.7290
12562TIP3   OH237624   7.512   5.869   3.897 -0.2978  0.0030 -0.6855
12562TIP3    H137625   7.528   5.840   3.807  2.0868  0.4361 -0.4341
12562TIP3    H237626   7.546   5.798   3.951 -1.1275  0.0381 -0.1099
12563TIP3   OH237627   7.477   0.767   5.904  0.1513 -0.3662 -0.0971
12563TIP3    H137628   7.499   0.762   5.997  5.6518  0.4314 -1.2308
12563TIP3    H237629   7.476   0.860   5.884  1.9847 -0.6244 -1.4612
12564TIP3   OH237630   7.847   6.405   3.176  0.0130  0.1211 -0.0905
12564TIP3    H137631   7.769   6.389   3.122 -0.1276 -1.0759  0.4438
12564TIP3    H237632   7.878   6.491   3.148 -2.0109  1.0066  0.3042
12565TIP3   OH237633   5.750   5.909   4.031 -0.0685  0.4733 -0.3680
12565TIP3    H137634   5.683   5.945   4.090  0.1357 -0.5851  0.5323
12565TIP3    H237635   5.817   5.875   4.090  1.2972  1.5532 -1.2622
12566TIP3   OH237636   5.810   5.742   4.602 -0.0442 -0.2014  1.0664
12566TIP3    H137637   5.802   5.830   4.565  1.3793  0.8642  3.2156
12566TIP3    H237638   5.873   5.698   4.546 -0.6727  0.1618  0.0513
12567TIP3   OH237639   7.967   6.167   3.962 -0.6370 -0.6040  0.2938
12567TIP3    H137640   8.003   6.244   4.007 -1.1242 -1.5520  2.3397
12567TIP3    H237641   8.043   6.115   3.939 -0.2751  0.6022 -1.3966
12568TIP3   OH237642   6.036   6.630   6.460  0.1165 -0.1623  0.0404
12568TIP3    H137643   5.976   6.695   6.421  1.2157  0.7908 -0.0995
12568TIP3    H237644   6.113   6.633   6.404  0.4913 -1.0152  0.5156
12569TIP3   OH237645   7.864   0.292   5.984 -0.1532 -0.3921 -0.1368
12569TIP3    H137646   7.906   0.378   5.976 -0.8556  0.0718  1.0444
12569TIP3    H237647   7.772   0.312   6.000 -0.0491 -1.3464  1.7442
12570TIP3   OH237648   0.965   0.138   4.538  0.0483 -0.1265 -0.1703
12570TIP3    H137649   0.996   0.217   4.493 -1.0061 -0.0009 -0.7065
12570TIP3    H237650   1.043   0.084   4.549  0.3894 -0.0204 -1.9095
12571TIP3   OH237651   5.375   5.534   5.690 -0.2222 -0.0634  0.0124
12571TIP3    H137652   5.384   5.619   5.648  0.6009 -0.2210 -0.1318
12571TIP3    H237653   5.283   5.531   5.718 -0.1200  1.0919  0.4969
12572TIP3   OH237654   1.386   0.338   5.172  0.0313 -0.0262  0.0249
12572TIP3    H137655   1.384   0.251   5.132 -0.0577  0.3572 -0.8297
12572TIP3    H237656   1.347   0.395   5.105  0.6358  0.7572  0.3402
12573TIP3   OH237657   7.633   7.245   3.054  0.1725 -0.6162 -0.7130
12573TIP3    H137658   7.544   7.277   3.072  0.7464  0.5876  0.0669
12573TIP3    H237659   7.673   7.237   3.141  1.3262  0.3086 -1.1549
12574TIP3   OH237660   6.359   4.379   4.240  0.4490 -0.1068 -0.1110
12574TIP3    H137661   6.382   4.294   4.202  1.0760  0.6034 -1.3620
12574TIP3    H237662   6.365   4.440   4.167 -0.7992  0.8863  0.6018
12575TIP3   OH237663   8.483   0.340   6.112 -0.5296  0.0556 -0.1734
12575TIP3    H137664   8.398   0.371   6.142  0.0627 -0.2272  1.8590
12575TIP3    H237665   8.494   0.254   6.154  0.1364 -0.5498 -1.5424
12576TIP3   OH237666   6.817   7.716   5.146 -0.0489  0.1026  0.1945
12576TIP3    H137667   6.894   7.723   5.090 -0.7391  0.1729 -0.7581
12576TIP3    H237668   6.797   7.806   5.171 -0.6678  0.2278 -0.7287
12577TIP3   OH237669   7.152   6.417   4.979  0.3059 -0.2698 -0.2788
12577TIP3    H137670   7.088   6.361   5.023  1.5710 -2.0828 -0.6736
12577TIP3    H237671   7.099   6.486   4.939 -1.1423 -0.2419  1.5702
12578TIP3   OH237672   5.055   6.430   6.052 -0.0499 -0.2059  0.3877
12578TIP3    H137673   5.016   6.495   5.993 -0.4202 -1.7907 -1.1470
12578TIP3    H237674   5.000   6.434   6.130 -1.5966 -0.4362 -0.6701
12579TIP3   OH237675   6.537   7.450   4.535  0.3695  0.5797  0.3833
12579TIP3    H137676   6.601   7.485   4.474  1.5923 -1.1219  0.6624
12579TIP3    H237677   6.586   7.437   4.616 -0.1200 -1.4956  0.3587
12580TIP3   OH237678   3.837   5.923   5.717 -0.2124 -0.2400  0.0242
12580TIP3    H137679   3.903   5.990   5.697  0.2495  0.0469  2.3408
12580TIP3    H237680   3.814   5.886   5.632  4.2848 -1.6415 -0.7177
12581TIP3   OH237681   2.600   4.262   0.539  0.5403 -0.0732 -0.1847
12581TIP3    H137682   2.693   4.238   0.537  0.5822  0.0591  0.3209
12581TIP3    H237683   2.596   4.340   0.594 -0.0285 -0.7388  0.7135
12582TIP3   OH237684   2.675   2.939   0.004 -0.1007  0.8453 -0.6032
12582TIP3    H137685   2.652   3.005  -0.061 -0.6799  1.7132  0.4671
12582TIP3    H237686   2.705   2.990   0.080 -1.1017 -0.1007  0.4372
12583TIP3   OH237687   7.259   5.877   3.526 -0.1286  0.5080 -0.0409
12583TIP3    H137688   7.178   5.898   3.572 -0.9408 -2.2799 -0.0814
12583TIP3    H237689   7.230   5.828   3.449  1.5834 -1.1012  0.2989
12584TIP3   OH237690   0.457   0.422   5.295  0.4239 -0.7613  0.3985
12584TIP3    H137691   0.419   0.508   5.312  0.5059 -0.5187 -0.6063
12584TIP3    H237692   0.503   0.400   5.376  0.2672  0.0637  0.7217
12585TIP3   OH237693   8.379   6.843   3.919  0.5108  0.2427 -0.1794
12585TIP3    H137694   8.417   6.888   3.843  0.2508 -0.0661 -0.4977
12585TIP3    H237695   8.453   6.828   3.978  0.7735  0.1900 -0.5211
12586TIP3   OH237696   5.476   7.548   6.423  0.0711  0.2020  0.2581
12586TIP3    H137697   5.387   7.515   6.416  0.7644 -1.8635  0.6966
12586TIP3    H237698   5.499   7.537   6.515  0.4015  1.7898  0.3873
12587TIP3   OH237699   5.304   7.856   3.964 -0.1381  0.7189  0.2351
12587TIP3    H137700   5.363   7.793   4.005  0.1668 -0.2702 -1.6466
12587TIP3    H237701   5.241   7.802   3.915 -1.8837  1.7897  1.2410
12588TIP3   OH237702   7.888   7.352   3.581  0.1014 -0.6573  0.4105
12588TIP3    H137703   7.895   7.384   3.491 -0.2073 -1.0860  0.2341
12588TIP3    H237704   7.964   7.294   3.591  0.3462 -0.3135  0.5482
12589TIP3   OH237705   6.408   7.840   3.889  0.4185  0.5149  0.2553
12589TIP3    H137706   6.351   7.833   3.813  1.4374  0.9201 -0.5649
12589TIP3    H237707   6.355   7.882   3.956 -0.3384  0.5773 -0.3835
12590TIP3   OH237708   0.390   0.405   6.632  0.0611 -0.5095 -0.3791
12590TIP3    H137709   0.297   0.412   6.608  0.1794 -0.4567 -0.8269
12590TIP3    H237710   0.434   0.470   6.577  0.8874 -3.1988 -3.0034
12591TIP3   OH237711   6.891   6.664   5.334 -0.0828  0.0767 -0.6170
12591TIP3    H137712   6.855   6.613   5.406  0.0535  0.2330 -0.4393
12591TIP3    H237713   6.837   6.742   5.330 -2.8423 -1.8523 -3.4102
12592TIP3   OH237714   1.556   0.646   5.727 -0.5318  0.0315 -0.5500
12592TIP3    H137715   1.616   0.693   5.669 -0.8753  1.5717  0.2985
12592TIP3    H237716   1.523   0.714   5.787 -1.3958 -1.2177  0.4181
12593TIP3   OH237717   4.832   6.570   4.220 -0.2756 -0.3045 -0.0613
12593TIP3    H137718   4.853   6.585   4.312  1.1667 -0.9226 -0.2859
12593TIP3    H237719   4.834   6.475   4.210 -1.3979 -0.2848 -0.5141
12594TIP3   OH237720   6.922   7.776   4.731  0.2142 -0.1781 -0.1283
12594TIP3    H137721   6.959   7.697   4.691 -0.5473 -0.2640 -0.6568
12594TIP3    H237722   6.829   7.773   4.709 -0.2293 -0.2538  1.6794
12595TIP3   OH237723   0.000   6.650   5.174 -0.4166  0.3906  0.7432
12595TIP3    H137724   0.058   6.720   5.205 -0.5317  0.9453 -0.2772
12595TIP3    H237725  -0.029   6.679   5.087 -2.4005  0.2188  1.3281
12596TIP3   OH237726   1.412   0.648   3.853 -0.6736  0.2437 -0.5304
12596TIP3    H137727   1.429   0.640   3.947  0.5419 -0.6633 -0.8151
12596TIP3    H237728   1.443   0.566   3.816 -3.2276 -0.3461 -1.4583
12597TIP3   OH237729   7.334   5.089   5.899  0.2006 -0.2130 -0.6063
12597TIP3    H137730   7.252   5.059   5.861 -0.4047  1.0815 -0.3558
12597TIP3    H237731   7.315   5.101   5.992  0.5165  0.5848 -0.6367
12598TIP3   OH237732   4.275   6.681   6.470 -0.2074  0.1567  0.0456
12598TIP3    H137733   4.214   6.755   6.475 -1.3062 -0.6892 -0.5473
12598TIP3    H237734   4.252   6.637   6.388 -0.9575 -2.0344  1.3932
12599TIP3   OH237735   5.811   6.922   5.609  0.6465 -0.1914  0.6505
12599TIP3    H137736   5.746   6.967   5.664 -1.2579  0.0287 -1.7177
12599TIP3    H237737   5.846   6.853   5.665 -1.2833  0.0012  2.1325
12600TIP3   OH237738   6.656   4.934   5.701  0.4141 -0.3592  0.2950
12600TIP3    H137739   6.714   5.006   5.725 -0.1665  0.0727  0.3956
12600TIP3    H237740   6.715   4.868   5.665  0.7217  1.0169 -1.8065
12601TIP3   OH237741   5.573   5.951   6.452  0.3106 -0.0957 -0.6771
12601TIP3    H137742   5.586   6.043   6.474 -1.0253  0.2220 -1.1451
12601TIP3    H237743   5.561   5.908   6.536  2.2762 -0.0834 -0.3637
12602TIP3   OH237744   0.536   7.747   4.181  0.4073  0.2295 -0.4639
12602TIP3    H137745   0.614   7.692   4.168  0.2116  0.2686 -1.9264
12602TIP3    H237746   0.468   7.705   4.128 -0.6476  0.0699  0.9775
12603TIP3   OH237747   2.367   0.575   3.945  0.1649 -0.0404 -0.8938
12603TIP3    H137748   2.375   0.667   3.918 -0.5920  0.3104  0.0443
12603TIP3    H237749   2.437   0.563   4.009 -0.1113  0.0501 -0.5747
12604TIP3   OH237750   5.723   7.109   3.548 -0.1856 -0.0986  0.5636
12604TIP3    H137751   5.724   7.092   3.453  0.0017 -0.3370  0.6085
12604TIP3    H237752   5.772   7.036   3.586  0.0586  0.1957  0.8151
12605TIP3   OH237753   2.681   1.938   0.337 -0.3216  0.6154  0.1095
12605TIP3    H137754   2.667   2.032   0.349 -0.9751  0.4233  0.8783
12605TIP3    H237755   2.756   1.917   0.393  0.5526  0.8839 -0.9357
12606TIP3   OH237756   5.329   7.226   5.546 -0.2688  0.0132 -0.5493
12606TIP3    H137757   5.342   7.144   5.499 -0.3670  0.9811 -2.3257
12606TIP3    H237758   5.340   7.203   5.639  1.2338 -1.6797 -1.1215
12607TIP3   OH237759   2.985   0.970   0.487 -0.4552 -0.4884  0.0365
12607TIP3    H137760   3.040   1.041   0.520  0.1533 -1.2861  0.7530
12607TIP3    H237761   2.999   0.897   0.548 -2.5464 -0.6197  0.4007
12608TIP3   OH237762   6.172   5.679   6.862  0.6875  0.2888  0.3267
12608TIP3    H137763   6.078   5.666   6.852  0.4227  2.0642  0.4418
12608TIP3    H237764   6.210   5.643   6.782 -0.0426 -0.7828  0.4503
12609TIP3   OH237765   4.438   6.504   2.982  0.4277  0.3032 -0.5458
12609TIP3    H137766   4.495   6.580   2.975  0.5387  0.3858  1.0095
12609TIP3    H237767   4.481   6.436   2.930  1.8877  0.4040  0.5234
12610TIP3   OH237768   5.701   6.700   3.984 -0.1425  0.3981 -0.1988
12610TIP3    H137769   5.783   6.666   3.948  0.2020  1.2132 -0.1905
12610TIP3    H237770   5.704   6.794   3.966 -2.1801  0.1141 -2.4297
12611TIP3   OH237771   5.042   5.732   6.104  0.4690 -0.1246 -0.2144
12611TIP3    H137772   5.134   5.711   6.090  0.2113 -1.9536  0.7063
12611TIP3    H237773   4.996   5.687   6.032  0.0243 -1.7937  1.0866
12612TIP3   OH237774   2.147   0.272   4.822 -0.3280 -0.0160  0.1077
12612TIP3    H137775   2.052   0.271   4.808 -0.2302 -0.1876 -0.5891
12612TIP3    H237776   2.184   0.274   4.734  0.3284 -2.2942  0.2801
12613TIP3   OH237777   6.692   6.406   4.805 -0.2648  0.2727 -0.1176
12613TIP3    H137778   6.712   6.362   4.888  2.5246  0.8783 -0.4383
12613TIP3    H237779   6.648   6.487   4.832  0.3705  0.3371  0.7663
12614TIP3   OH237780   5.132   6.460   4.504 -0.3070 -0.1865 -0.3713
12614TIP3    H137781   5.188   6.487   4.576  0.4949 -0.2120 -0.9747
12614TIP3    H237782   5.061   6.523   4.503 -0.3101 -0.1824  0.4298
12615TIP3   OH237783   5.834   5.782   3.632 -0.2327  0.1836 -0.1152
12615TIP3    H137784   5.890   5.860   3.629  1.3487 -0.8833  0.6799
12615TIP3    H237785   5.769   5.802   3.699  0.3973  0.6783  0.3572
12616TIP3   OH237786   7.558   6.716   3.676 -0.2021  0.2157  0.2048
12616TIP3    H137787   7.538   6.790   3.734 -0.2549  1.4058 -1.2901
12616TIP3    H237788   7.651   6.698   3.691 -0.2889  0.3347  0.8769
12617TIP3   OH237789   7.396   6.886   4.518  0.3552  0.2322  0.6032
12617TIP3    H137790   7.425   6.797   4.498  0.7460  0.5797 -0.4280
12617TIP3    H237791   7.456   6.916   4.587  1.1434  0.1974 -0.0569
12618TIP3   OH237792   7.374   4.820   4.997  0.5065 -0.0174 -0.3193
12618TIP3    H137793   7.298   4.781   4.952  0.6165  0.2938 -0.7791
12618TIP3    H237794   7.391   4.760   5.070  0.4838 -0.6701 -0.8403
12619TIP3   OH237795   6.185   5.507   5.167 -0.4168 -0.1580  0.2937
12619TIP3    H137796   6.225   5.430   5.209  1.2652  2.1186  3.0497
12619TIP3    H237797   6.248   5.578   5.182 -2.0479  1.8624 -1.9497
12620TIP3   OH237798   1.719   1.405   0.716  0.3773  0.2851  1.0799
12620TIP3    H137799   1.630   1.383   0.744 -0.1861 -1.1310 -1.6414
12620TIP3    H237800   1.722   1.501   0.720 -1.8969  0.4726 -0.4555
12621TIP3   OH237801   4.438   7.237   6.123 -0.2814  0.1226 -0.1635
12621TIP3    H137802   4.489   7.186   6.060 -3.0843 -1.7652 -1.0321
12621TIP3    H237803   4.406   7.312   6.073  0.0179  0.2483 -0.1649
12622TIP3   OH237804   2.733   0.545   3.908  0.0859  0.4305  0.3441
12622TIP3    H137805   2.724   0.630   3.865  1.8369 -0.0628 -1.0229
12622TIP3    H237806   2.759   0.485   3.839 -1.4093 -1.3175  1.2382
12623TIP3   OH237807   7.249   7.069   4.805 -0.3669 -0.1510  0.1660
12623TIP3    H137808   7.244   7.053   4.899  0.5069 -0.4374  0.1700
12623TIP3    H237809   7.275   6.985   4.768  1.5814  0.5548 -0.0881
12624TIP3   OH237810   7.495   5.366   5.472  0.0057  0.2079  0.8419
12624TIP3    H137811   7.438   5.392   5.544  1.5879  0.7355  1.9359
12624TIP3    H237812   7.564   5.314   5.513  1.0771  0.7311 -0.2457
12625TIP3   OH237813   5.556   4.854   5.804 -0.1888 -0.8328  0.2593
12625TIP3    H137814   5.554   4.942   5.766 -1.2958 -0.2344  1.6463
12625TIP3    H237815   5.642   4.820   5.781 -1.0185 -0.7388 -3.2548
12626TIP3   OH237816   5.569   6.977   5.194 -0.2788  0.2938 -0.1620
12626TIP3    H137817   5.612   6.946   5.274  0.6886 -1.4431 -1.3356
12626TIP3    H237818   5.629   7.042   5.157  0.2699 -0.4626 -0.5995
12627TIP3   OH237819   6.421   6.391   6.070  0.4552 -0.0895 -0.0103
12627TIP3    H137820   6.419   6.486   6.074  2.9805  0.0307 -0.6082
12627TIP3    H237821   6.333   6.363   6.095 -0.7591  2.4439 -1.3330
12628TIP3   OH237822   4.340   5.292   4.810 -0.4240 -0.4894 -0.3512
12628TIP3    H137823   4.291   5.324   4.886  1.8057  1.0934  0.4651
12628TIP3    H237824   4.423   5.339   4.814  1.1218 -3.0265 -1.7692
12629TIP3   OH237825   2.656   0.148   4.433 -0.0484 -0.4099  0.6158
12629TIP3    H137826   2.562   0.147   4.450 -0.6275 -1.4578 -2.2344
12629TIP3    H237827   2.667   0.215   4.365  1.2660 -0.3415  0.8813
12630TIP3   OH237828   6.074   5.072   5.829  0.5201  0.2606  0.3912
12630TIP3    H137829   6.007   5.096   5.894  1.6076  0.3729  1.4903
12630TIP3    H237830   6.153   5.117   5.858  0.8995  0.7235 -1.3240
12631TIP3   OH237831   3.370   4.753   4.786 -0.1372 -0.6226 -0.4791
12631TIP3    H137832   3.279   4.758   4.816 -0.0797  0.2856 -0.4541
12631TIP3    H237833   3.363   4.749   4.690 -0.2110 -0.7275 -0.4691
12632TIP3   OH237834   5.567   5.632   4.981 -0.5659 -0.8315 -0.3183
12632TIP3    H137835   5.558   5.540   4.957  0.8470 -1.3703  1.1187
12632TIP3    H237836   5.622   5.631   5.059 -1.3722  1.1704  0.2976
12633TIP3   OH237837   6.439   3.495   3.763  0.1020  0.1705  0.2987
12633TIP3    H137838   6.402   3.418   3.805  1.4692 -0.3883  0.5307
12633TIP3    H237839   6.387   3.507   3.683 -0.4297 -0.7009  0.5146
12634TIP3   OH237840   6.201   5.763   5.794 -0.2534  0.5252  0.2054
12634TIP3    H137841   6.221   5.856   5.777 -0.7334  0.1908 -2.4410
12634TIP3    H237842   6.229   5.718   5.714 -1.7170 -1.3665  0.7264
12635TIP3   OH237843   7.930   7.745   4.236  0.1685 -0.0536 -0.5058
12635TIP3    H137844   7.959   7.806   4.169  0.1505  3.2014  2.3329
12635TIP3    H237845   7.835   7.738   4.223  0.0961  0.9429 -0.5415
12636TIP3   OH237846   5.779   7.810   5.589 -0.5472 -0.2752  0.2355
12636TIP3    H137847   5.821   7.887   5.628 -2.4146  0.8452  0.1012
12636TIP3    H237848   5.715   7.846   5.527  0.4751 -1.9831 -1.8727
12637TIP3   OH237849   3.604   6.367   5.456  0.3578 -0.5676 -0.3348
12637TIP3    H137850   3.650   6.283   5.454  1.5892  0.1024 -0.9372
12637TIP3    H237851   3.595   6.388   5.549  1.9795 -0.3498 -0.2078
12638TIP3   OH237852   6.316   7.067   4.711  0.1213 -0.2090 -0.6484
12638TIP3    H137853   6.360   7.003   4.655  1.1716 -1.1253  1.1744
12638TIP3    H237854   6.384   7.132   4.731 -0.2409  0.0920 -0.3865
12639TIP3   OH237855   7.625   7.527   4.775 -0.1748  0.1863 -0.0776
12639TIP3    H137856   7.568   7.465   4.820 -1.5280 -0.6847 -2.8711
12639TIP3    H237857   7.700   7.475   4.748 -1.0529 -0.1541 -1.9381
12640TIP3   OH237858   1.792   0.050   4.164 -0.3389 -0.1220 -0.0144
12640TIP3    H137859   1.765   0.096   4.084  0.1463  0.2825  0.0517
12640TIP3    H237860   1.743   0.093   4.234  0.0330  0.2341  0.0338
12641TIP3   OH237861   7.005   4.485   4.446 -0.1629  0.3389 -0.0470
12641TIP3    H137862   7.006   4.394   4.477 -1.4791  0.9332  1.8042
12641TIP3    H237863   7.041   4.480   4.357  1.6051 -1.7163  0.7291
12642TIP3   OH237864   0.819   1.059   5.810  0.3436 -0.0866 -0.1843
12642TIP3    H137865   0.831   1.138   5.863  0.7160 -0.0860 -0.2638
12642TIP3    H237866   0.725   1.042   5.812  0.1244  0.9250 -0.9799
12643TIP3   OH237867   4.152   4.855   0.659  0.3886  0.1843  0.1360
12643TIP3    H137868   4.168   4.863   0.753 -1.9267  0.6524  0.5135
12643TIP3    H237869   4.234   4.818   0.624  1.5069  0.6139  2.2197
12644TIP3   OH237870   2.643   0.729   4.555  0.3940  0.1011 -0.1304
12644TIP3    H137871   2.683   0.815   4.542  0.4489 -0.1826 -2.0090
12644TIP3    H237872   2.568   0.745   4.612  3.0072  0.6845  3.3195
12645TIP3   OH237873   0.100   0.453   6.571  0.2410 -0.7385  0.1749
12645TIP3    H137874   0.095   0.547   6.551  0.7434 -0.4413  1.4027
12645TIP3    H237875   0.023   0.415   6.527 -1.5856  0.6777  2.0643
12646TIP3   OH237876   0.875   0.328   3.542 -0.2660 -0.3634 -0.0864
12646TIP3    H137877   0.790   0.284   3.535  0.2731 -1.5105  0.5120
12646TIP3    H237878   0.896   0.323   3.635 -0.3704  1.4945  0.0467
12647TIP3   OH237879   1.121   1.318   5.678 -0.3202 -0.3056  0.4534
12647TIP3    H137880   1.158   1.403   5.654  0.3032 -0.2439  1.6062
12647TIP3    H237881   1.032   1.338   5.707 -0.1623 -0.0340  0.7607
12648TIP3   OH237882   5.682   6.906   4.607  0.2666 -0.0782 -0.0122
12648TIP3    H137883   5.715   6.994   4.591  0.4659 -0.3766 -1.3252
12648TIP3    H237884   5.761   6.853   4.622  0.2159 -0.2503 -0.3508
12649TIP3   OH237885   3.531   7.023   5.519  0.0116 -0.0048  0.4204
12649TIP3    H137886   3.621   7.025   5.485  0.1083 -1.9949  0.4881
12649TIP3    H237887   3.523   7.104   5.569  2.5634 -0.8142  2.3038
12650TIP3   OH237888   6.048   4.941   5.596  0.1104  0.3718 -0.0679
12650TIP3    H137889   6.018   5.013   5.541 -1.9514 -0.3657  0.0400
12650TIP3    H237890   6.050   4.978   5.684  0.3883  0.6771 -0.2007
12651TIP3   OH237891   4.853   4.143   6.059  0.1308 -0.1179 -0.3517
12651TIP3    H137892   4.869   4.212   6.123  0.3988 -1.0761  0.6250
12651TIP3    H237893   4.939   4.122   6.024 -0.1741  1.3250 -1.9995
12652TIP3   OH237894   6.118   6.566   3.145 -0.2874 -0.0810 -0.4626
12652TIP3    H137895   6.046   6.512   3.112 -0.5832 -0.3712  0.6339
12652TIP3    H237896   6.076   6.628   3.205  0.5568 -1.2471  1.3786
12653TIP3   OH237897   6.616   4.973   4.581  0.5116  0.5055 -0.1233
12653TIP3    H137898   6.531   4.980   4.538  0.1019 -0.6787  0.4615
12653TIP3    H237899   6.624   4.880   4.603  2.9244  0.1938 -2.1156
12654TIP3   OH237900   4.950   5.065   4.321 -1.1185 -0.4802 -0.2868
12654TIP3    H137901   4.954   5.049   4.416 -2.0657  0.0011 -0.1609
12654TIP3    H237902   4.880   5.008   4.290  0.0747 -1.6213 -0.9161
12655TIP3   OH237903   2.294   2.212   0.531  0.2014 -0.6285  0.4324
12655TIP3    H137904   2.251   2.226   0.615  0.8811 -1.1991  0.8775
12655TIP3    H237905   2.366   2.153   0.550  1.6467  0.8990 -0.1732
12656TIP3   OH237906   7.189   4.637   4.588  0.5172  0.5039 -0.3198
12656TIP3    H137907   7.176   4.632   4.682  0.4787  0.0349 -0.3520
12656TIP3    H237908   7.110   4.598   4.550  0.3217  1.1170 -0.5509
12657TIP3   OH237909   5.160   6.583   6.560 -0.0295 -0.2807 -0.1459
12657TIP3    H137910   5.071   6.596   6.590  0.5174  0.7473  1.0809
12657TIP3    H237911   5.186   6.498   6.595 -1.2494 -1.5876 -2.3329
12658TIP3   OH237912   5.217   6.304   5.759  0.4185  0.4951 -0.4532
12658TIP3    H137913   5.226   6.271   5.669  1.2508  0.7209 -0.4619
12658TIP3    H237914   5.139   6.359   5.757 -0.1952 -0.3681 -0.7713
12659TIP3   OH237915   4.779   6.128   5.513  0.4915 -0.2121 -0.4555
12659TIP3    H137916   4.735   6.193   5.458 -1.1214 -0.8135  0.1048
12659TIP3    H237917   4.709   6.074   5.548  1.6608 -1.0716  0.6279
12660TIP3   OH237918   4.672   4.313   4.493  0.1500 -0.6210  0.2684
12660TIP3    H137919   4.594   4.344   4.446  0.2705  2.2110  1.7778
12660TIP3    H237920   4.745   4.357   4.449  0.6272 -1.1555  0.5271
12661TIP3   OH237921   5.180   6.333   4.136  0.1578  0.0597 -0.3032
12661TIP3    H137922   5.267   6.360   4.164  0.4607 -0.6492 -0.5512
12661TIP3    H237923   5.131   6.321   4.218  1.0464 -2.0214 -0.0454
12662TIP3   OH237924   6.685   6.177   5.460 -0.3167 -0.5626  0.1914
12662TIP3    H137925   6.646   6.099   5.421  0.3064 -0.2755 -1.0216
12662TIP3    H237926   6.648   6.251   5.411 -1.3451 -0.0522  1.7098
12663TIP3   OH237927   6.629   4.237   5.401  0.2585 -0.5792 -0.0572
12663TIP3    H137928   6.688   4.205   5.469  2.1179 -0.8584 -1.7512
12663TIP3    H237929   6.670   4.209   5.319 -1.5849  0.3298 -1.3224
12664TIP3   OH237930   3.129   1.425   0.556 -0.4950 -0.1536  0.4815
12664TIP3    H137931   3.130   1.347   0.611  0.4812  0.8269  1.8918
12664TIP3    H237932   3.036   1.439   0.536 -0.9791  0.1230  2.8266
12665TIP3   OH237933   3.778   6.586   5.069  0.0430 -0.4431  0.6975
12665TIP3    H137934   3.710   6.519   5.076  0.3885 -0.7721  0.9491
12665TIP3    H237935   3.761   6.645   5.142  0.1149 -0.6054  0.8460
12666TIP3   OH237936   7.226   7.264   4.475  0.0707  0.0909 -0.2780
12666TIP3    H137937   7.203   7.277   4.567  0.7384  0.2459 -0.1288
12666TIP3    H237938   7.281   7.339   4.454 -0.0765  0.0475 -0.7992
12667TIP3   OH237939   0.770   6.223   2.878 -0.3167 -0.1919 -0.2441
12667TIP3    H137940   0.758   6.143   2.827 -0.6507 -0.5089  0.3281
12667TIP3    H237941   0.717   6.210   2.956 -1.4742  1.1788 -0.7875
12668TIP3   OH237942   0.070   4.956   5.896 -0.5310  0.6460  0.4468
12668TIP3    H137943   0.125   5.032   5.912  0.9793 -0.4556  0.6184
12668TIP3    H237944   0.010   4.983   5.826 -0.3309  2.1197  0.8341
12669TIP3   OH237945   4.675   6.312   5.352  0.2076 -0.1522  0.0920
12669TIP3    H137946   4.718   6.386   5.308  0.0832  0.2692  0.6689
12669TIP3    H237947   4.610   6.282   5.289 -0.1550  0.6261  0.0779
12670TIP3   OH237948   6.913   6.324   5.710  0.3229  0.5459 -0.1748
12670TIP3    H137949   6.870   6.246   5.747  0.5464  0.2706 -0.4956
12670TIP3    H237950   7.004   6.299   5.701  0.7944  1.5298  1.6061
12671TIP3   OH237951   6.339   7.542   3.766  0.2264 -0.3589  0.3120
12671TIP3    H137952   6.339   7.618   3.708  0.7496 -1.5718 -1.3156
12671TIP3    H237953   6.428   7.538   3.800  0.1885 -0.2051  0.4260
12672TIP3   OH237954   6.652   6.809   5.333 -0.7973 -0.0516  0.6322
12672TIP3    H137955   6.578   6.749   5.318 -1.3076  0.2949  1.7559
12672TIP3    H237956   6.623   6.892   5.296 -1.0483  0.1364  1.2504
12673TIP3   OH237957   5.473   6.230   4.630 -0.0226 -0.3981  0.1618
12673TIP3    H137958   5.551   6.190   4.669  0.4553  0.8938  0.5738
12673TIP3    H237959   5.488   6.225   4.536  1.0347  0.7328  0.2545
12674TIP3   OH237960   0.921   7.201   4.731 -0.5168 -0.0489  0.0532
12674TIP3    H137961   1.015   7.182   4.729 -0.3534  0.7867 -0.6142
12674TIP3    H237962   0.901   7.231   4.642 -1.5791 -0.9701 -0.0321
12675TIP3   OH237963   5.667   4.730   4.165  0.2842 -0.0658  0.4406
12675TIP3    H137964   5.650   4.644   4.204 -2.8231 -0.7524 -2.2320
12675TIP3    H237965   5.590   4.782   4.190  0.7186  1.0066 -0.4634
12676TIP3   OH237966   6.056   6.989   4.715 -0.0966 -0.0207  0.1160
12676TIP3    H137967   6.150   7.001   4.700  0.0619  0.2601  1.2538
12676TIP3    H237968   6.019   7.077   4.708 -0.3770 -0.2097 -0.9242
12677TIP3   OH237969   7.104   6.983   5.030 -0.4011 -0.2791 -0.1127
12677TIP3    H137970   7.119   6.977   5.124 -1.0396 -0.8871 -0.0480
12677TIP3    H237971   7.024   6.933   5.015  0.5168 -1.4323 -1.1976
12678TIP3   OH237972   6.494   5.370   5.458 -0.0631  0.1454  0.1175
12678TIP3    H137973   6.465   5.459   5.437  1.5031  1.0513  1.6235
12678TIP3    H237974   6.540   5.341   5.379 -0.4541  0.7157 -0.3295
12679TIP3   OH237975   0.580   6.667   3.196 -0.0896  0.4513 -0.0279
12679TIP3    H137976   0.627   6.658   3.112 -0.7745 -1.5943 -0.2212
12679TIP3    H237977   0.598   6.585   3.242 -1.8630  0.4687  0.7265
12680TIP3   OH237978   0.392   6.704   4.248 -0.9049  0.4127  0.0212
12680TIP3    H137979   0.390   6.658   4.332  1.3609  1.7620  0.8342
12680TIP3    H237980   0.396   6.634   4.183  2.1815 -0.6028  1.2303
12681TIP3   OH237981   3.348   0.062   5.019  0.5760  0.1901  0.5168
12681TIP3    H137982   3.380   0.110   5.096  0.9475  0.0828  0.4288
12681TIP3    H237983   3.417   0.073   4.954 -0.2838  1.3441 -0.2340
12682TIP3   OH237984   0.656   7.050   4.028  0.0336  0.0589 -0.7569
12682TIP3    H137985   0.735   6.997   4.024  1.9316  2.4909  2.5703
12682TIP3    H237986   0.607   7.015   4.102 -0.6773  0.3231 -1.0959
12683TIP3   OH237987   6.883   6.511   4.234  0.3369 -0.1133 -0.5872
12683TIP3    H137988   6.917   6.442   4.177  0.0572  0.3639 -1.3513
12683TIP3    H237989   6.953   6.527   4.297  0.9085 -0.2236 -1.1831
12684TIP3   OH237990   8.125   0.447   3.422  0.5861 -0.6255  0.1160
12684TIP3    H137991   8.043   0.405   3.397 -0.2041  2.6326 -3.1857
12684TIP3    H237992   8.189   0.417   3.357  0.8042  0.5751 -0.2440
12685TIP3   OH237993   7.201   6.519   5.261  0.6520  0.1494 -0.4828
12685TIP3    H137994   7.270   6.503   5.196  0.5605 -1.9775 -0.0748
12685TIP3    H237995   7.135   6.568   5.214  2.1984  1.7858 -1.0226
12686TIP3   OH237996   8.154   6.268   5.006  0.5630  0.0827 -0.0819
12686TIP3    H137997   8.226   6.264   4.944  0.9211 -0.0724  0.3366
12686TIP3    H237998   8.182   6.332   5.071  0.3130  0.0425  0.0683
12687TIP3   OH237999   0.301   7.236   4.278  0.0079 -0.1620  0.2050
12687TIP3    H138000   0.232   7.302   4.277  1.9345  1.8753 -0.4653
12687TIP3    H238001   0.256   7.155   4.304 -2.4172  1.3318  0.7815
12688TIP3   OH238002   0.546   7.789   0.600  0.1556  0.5759 -0.2932
12688TIP3    H138003   0.626   7.799   0.653 -1.0835  0.5017  1.6579
12688TIP3    H238004   0.555   7.704   0.558  0.4399 -0.0911  1.0946
12689TIP3   OH238005   0.277   7.673   4.464  0.0025 -0.5777 -0.0717
12689TIP3    H138006   0.297   7.680   4.558  0.2804 -3.2070  0.1016
12689TIP3    H238007   0.200   7.728   4.453 -0.6773 -1.0507  1.9433
12690TIP3   OH238008   0.553   7.641   5.227  0.1080 -0.0745  0.8068
12690TIP3    H138009   0.612   7.617   5.155 -0.3230 -0.7802  0.6831
12690TIP3    H238010   0.468   7.606   5.201  0.2154 -1.4792  2.2566
12691TIP3   OH238011   7.809   7.354   4.041  0.7759  0.1957 -0.2754
12691TIP3    H138012   7.896   7.326   4.012  1.1131  0.0178  0.8748
12691TIP3    H238013   7.750   7.324   3.972  1.4732 -0.8543 -0.4296
12692TIP3   OH238014   8.081   7.837   3.876 -0.0921  0.5700  0.3782
12692TIP3    H138015   8.022   7.765   3.894  0.2081  0.3774  0.5937
12692TIP3    H238016   8.072   7.853   3.782 -0.3199  0.3975  0.3720
12693TIP3   OH238017   3.360   7.104   3.437 -0.0392  0.4818 -0.1890
12693TIP3    H138018   3.367   7.190   3.396  2.3190  1.4850  2.1217
12693TIP3    H238019   3.434   7.054   3.402 -0.9164 -0.3303 -0.8998
12694TIP3   OH238020   2.707   0.038   4.125 -0.2925  0.3906  0.3113
12694TIP3    H138021   2.717  -0.050   4.088 -0.0354  0.9022 -0.8422
12694TIP3    H238022   2.772   0.041   4.196  1.2702  0.4088 -1.0880
12695TIP3   OH238023   1.305   7.857   5.600  0.0715 -0.2075  0.2556
12695TIP3    H138024   1.230   7.917   5.594 -0.4157 -0.9373 -1.1070
12695TIP3    H238025   1.273   7.775   5.563  1.9505 -0.1347 -1.6472
12696TIP3   OH238026   7.920   5.612   4.989  0.1495  0.4677  0.8478
12696TIP3    H138027   7.951   5.552   5.058  1.1260  0.3275  0.3001
12696TIP3    H238028   7.825   5.608   4.995  0.1164 -3.2330 -0.9178
12697TIP3   OH238029   2.817   0.379   4.700  0.2090 -0.0439 -0.1267
12697TIP3    H138030   2.840   0.469   4.724  1.1557 -1.0646  2.9734
12697TIP3    H238031   2.900   0.339   4.675 -0.1777 -0.1325 -1.2846
12698TIP3   OH238032   6.111   7.061   3.861  0.1183  0.3393 -0.3430
12698TIP3    H138033   6.117   7.101   3.948  1.0363  0.9277 -0.6751
12698TIP3    H238034   6.151   7.124   3.802  0.0037 -0.3081 -1.1234
12699TIP3   OH238035   2.829   3.914   0.990  0.2047 -0.0744  0.3581
12699TIP3    H138036   2.783   3.965   0.923 -0.9665 -1.6171 -0.0359
12699TIP3    H238037   2.896   3.866   0.942 -0.0859 -0.5327  0.4044
12700TIP3   OH238038   1.015   0.290   2.354 -0.3813  0.0946 -0.4687
12700TIP3    H138039   0.927   0.316   2.380 -0.9726 -1.0078 -1.3288
12700TIP3    H238040   1.072   0.329   2.420 -1.7076 -1.3678  1.5865
12701TIP3   OH238041   7.028   6.663   5.094  0.1589 -0.4935 -0.6049
12701TIP3    H138042   6.971   6.666   5.171  1.6318 -0.2964  0.4862
12701TIP3    H238043   6.968   6.645   5.022 -1.2628 -0.5720  0.5600
12702TIP3   OH238044   0.581   6.089   2.529 -0.0254 -0.8510 -0.3654
12702TIP3    H138045   0.503   6.115   2.577 -1.1318 -2.0497 -1.4661
12702TIP3    H238046   0.616   6.015   2.579  0.1512 -0.5930 -0.1098
12703TIP3   OH238047   3.143   0.052   4.573 -0.5201 -0.7582  0.1347
12703TIP3    H138048   3.134  -0.040   4.597 -3.1640 -0.8681 -1.0725
12703TIP3    H238049   3.053   0.082   4.558  0.0877  2.6557  2.7082
12704TIP3   OH238050   1.484   5.288   6.047 -0.0845  0.0093  0.4305
12704TIP3    H138051   1.562   5.286   6.101 -0.7855  0.8149  1.5151
12704TIP3    H238052   1.460   5.381   6.044  0.2475  0.0510 -1.7216
12705TIP3   OH238053   7.330   7.463   4.157 -0.2645  0.0777 -0.0364
12705TIP3    H138054   7.354   7.451   4.249  1.3955 -0.7320 -0.5534
12705TIP3    H238055   7.322   7.374   4.122  1.4703  0.3701 -1.2475
12706TIP3   OH238056   6.261   5.391   3.697 -0.8325 -0.1938 -0.2510
12706TIP3    H138057   6.230   5.329   3.631  0.2046  1.9855 -2.8385
12706TIP3    H238058   6.353   5.369   3.710 -0.7470  0.1164 -0.3395
12707TIP3   OH238059   7.563   6.906   3.849  0.3327  0.1172  0.0933
12707TIP3    H138060   7.524   6.982   3.892  1.1111 -0.0115  1.0486
12707TIP3    H238061   7.657   6.917   3.862  0.4765 -0.7288 -0.2246
12708TIP3   OH238062   6.557   6.412   5.401  1.0933  0.7200 -0.0792
12708TIP3    H138063   6.480   6.365   5.371  0.6143  0.5147  1.4257
12708TIP3    H238064   6.535   6.505   5.389  0.1912  0.6942  1.3239
12709TIP3   OH238065   4.458   0.679   0.301 -0.7437 -0.1177  0.0850
12709TIP3    H138066   4.461   0.601   0.357 -0.2779 -0.5278 -0.4948
12709TIP3    H238067   4.365   0.701   0.296 -0.8495 -0.4325  0.5329
12710TIP3   OH238068   5.357   6.275   3.827  0.2822 -0.2478 -0.0612
12710TIP3    H138069   5.410   6.346   3.863 -0.4580 -0.1077  0.7889
12710TIP3    H238070   5.323   6.310   3.745  0.1559  0.2799  0.2122
12711TIP3   OH238071   6.954   6.099   3.870  0.0366  0.1727 -0.7120
12711TIP3    H138072   6.945   6.159   3.796  0.9502 -0.3194 -1.2374
12711TIP3    H238073   6.878   6.041   3.863 -0.3858  0.7202 -0.7044
12712TIP3   OH238074   4.987   6.015   4.239  0.1378 -0.0861 -0.3486
12712TIP3    H138075   4.993   5.922   4.262  0.3425 -0.3328 -1.3946
12712TIP3    H238076   5.029   6.060   4.312  0.6455 -0.8561 -0.1600
12713TIP3   OH238077   5.403   6.921   4.638 -0.8473 -0.0168 -0.2568
12713TIP3    H138078   5.498   6.923   4.648 -0.8886 -1.4789  0.4874
12713TIP3    H238079   5.387   6.962   4.553  0.3555  1.3927  0.1835
12714TIP3   OH238080   0.109   5.694   3.131 -0.2125  0.8820 -0.1551
12714TIP3    H138081   0.114   5.756   3.204 -0.6387  0.5760  0.1429
12714TIP3    H238082   0.128   5.609   3.171  0.2630  0.8088 -0.5401
12715TIP3   OH238083   7.405   7.319   4.897  0.2150  0.0247 -0.7230
12715TIP3    H138084   7.342   7.389   4.914  1.5004  0.6879  1.6153
12715TIP3    H238085   7.351   7.240   4.894 -1.0962  0.9293 -2.0459
12716TIP3   OH238086   1.704   7.794   0.255  0.1748 -0.2630 -0.3013
12716TIP3    H138087   1.752   7.750   0.186  0.3566  0.5841 -0.7231
12716TIP3    H238088   1.616   7.757   0.251  0.6911 -1.5705  0.2503
12717TIP3   OH238089   6.070   4.496   4.161 -0.4221  0.0772  0.0853
12717TIP3    H138090   6.032   4.414   4.192  0.7642 -0.1973  0.8673
12717TIP3    H238091   6.147   4.469   4.110 -0.9984  0.6333 -1.0964
12718TIP3   OH238092   7.776   6.666   4.229  0.3412  0.5530 -0.3948
12718TIP3    H138093   7.695   6.694   4.186  1.2432  0.1762 -2.3914
12718TIP3    H238094   7.748   6.599   4.292 -0.7772 -0.4267 -1.9057
12719TIP3   OH238095   0.429   6.113   3.404 -0.2698  0.2884 -0.0436
12719TIP3    H138096   0.492   6.163   3.456 -0.4940  1.2637 -0.6906
12719TIP3    H238097   0.472   6.100   3.320 -1.5764  2.4025 -1.0610
12720TIP3   OH238098   5.708   6.326   4.925 -0.3501  0.0282  0.4178
12720TIP3    H138099   5.704   6.265   4.851 -0.7068 -0.4539  0.8274
12720TIP3    H238100   5.752   6.403   4.890 -1.7941  0.3688 -0.6989
12721TIP3   OH238101   6.947   7.086   4.576  0.3549  0.7471  0.7094
12721TIP3    H138102   6.884   7.069   4.507 -0.9344  2.0552  1.5243
12721TIP3    H238103   7.013   7.018   4.567 -0.9780 -0.4025 -0.4082
12722TIP3   OH238104   0.597   5.820   5.653 -0.2294 -0.1490 -0.0863
12722TIP3    H138105   0.514   5.867   5.654  0.9380  1.9446  1.1304
12722TIP3    H238106   0.651   5.865   5.589 -0.1248 -1.7325 -1.1554
12723TIP3   OH238107   6.735   5.402   4.026 -0.7025  0.1860  0.2193
12723TIP3    H138108   6.678   5.418   4.102  0.4099  1.5456  0.7815
12723TIP3    H238109   6.764   5.311   4.037 -2.8017 -0.5599 -0.1239
12724TIP3   OH238110   7.765   6.350   4.706 -0.4681  0.2774  0.3556
12724TIP3    H138111   7.804   6.320   4.625  0.8444 -0.4873  1.2512
12724TIP3    H238112   7.697   6.286   4.726  0.7035 -0.7756  1.0039
12725TIP3   OH238113   8.279   7.698   3.183 -0.0730  0.0627 -0.5645
12725TIP3    H138114   8.330   7.774   3.211 -0.0422 -0.1301 -0.0977
12725TIP3    H238115   8.227   7.675   3.260  0.8829 -1.1921 -0.2860
12726TIP3   OH238116   7.645   5.563   5.027 -0.3415  0.1884 -0.0171
12726TIP3    H138117   7.579   5.619   4.985 -0.4080 -0.4249 -0.7402
12726TIP3    H238118   7.633   5.579   5.121  0.2121  2.0281 -0.2395
12727TIP3   OH238119   0.027   8.007   2.330  0.0644 -0.1618  0.3462
12727TIP3    H138120   0.100   8.069   2.320  0.0508 -0.1126  0.5455
12727TIP3    H238121   0.069   7.927   2.362 -0.2870  0.6493  2.9229
12728TIP3   OH238122   6.641   7.772   4.730 -0.2533 -0.0853  0.1564
12728TIP3    H138123   6.673   7.849   4.775  0.9484 -1.1396  1.1280
12728TIP3    H238124   6.625   7.708   4.799 -0.7012 -0.9088 -0.6897
12729TIP3   OH238125   1.783   7.058   4.030  0.9166 -0.0115  0.0598
12729TIP3    H138126   1.718   7.016   4.086  1.2016 -1.1500 -0.4396
12729TIP3    H238127   1.796   7.144   4.068  0.0436 -0.2412  0.8968
12730TIP3   OH238128   4.792   7.472   2.539  0.2844  0.3486 -0.6304
12730TIP3    H138129   4.702   7.495   2.563 -0.2807  0.0636 -2.4346
12730TIP3    H238130   4.842   7.483   2.620 -1.2848  0.9806  0.2644
12731TIP3   OH238131   1.950   0.192   2.765  0.7107  0.2976 -0.0058
12731TIP3    H138132   1.862   0.227   2.748 -0.2918 -0.9312  2.3774
12731TIP3    H238133   1.977   0.234   2.846  2.2437  0.4668 -0.5948
12732TIP3   OH238134   0.457   6.299   3.155 -0.1938 -0.4542  0.2845
12732TIP3    H138135   0.416   6.373   3.110 -0.0776 -0.7899 -0.3859
12732TIP3    H238136   0.530   6.338   3.203 -0.6102 -0.0197  0.5646
12733TIP3   OH238137   7.503   5.756   4.927  0.0082 -0.0438  0.9723
12733TIP3    H138138   7.572   5.807   4.885 -0.1064 -0.5714  0.1258
12733TIP3    H238139   7.426   5.768   4.871 -0.0851 -0.9436  0.8977
12734TIP3   OH238140   6.490   6.100   4.858  0.0126  0.5696  1.0568
12734TIP3    H138141   6.550   6.101   4.933 -0.3447 -0.0200  1.3538
12734TIP3    H238142   6.410   6.059   4.891 -0.9980  2.4224  0.9850
12735TIP3   OH238143   0.812   6.864   1.903 -0.1073 -0.4348  0.0947
12735TIP3    H138144   0.766   6.940   1.940  1.3328  0.3374  0.3504
12735TIP3    H238145   0.816   6.802   1.975  1.1077  0.3534  0.7296
12736TIP3   OH238146   2.040   0.654   6.720 -0.9498  0.4719 -0.2167
12736TIP3    H138147   2.127   0.614   6.727 -1.3075 -0.1140  0.9588
12736TIP3    H238148   2.030   0.671   6.626 -0.2571 -0.9940 -0.5784
12737TIP3   OH238149   7.244   7.243   2.072  0.3378  0.1179 -0.8990
12737TIP3    H138150   7.331   7.213   2.047  0.0409 -0.5114 -1.1873
12737TIP3    H238151   7.211   7.175   2.131 -0.6303 -0.5096 -2.1367
12738TIP3   OH238152   7.053   5.533   4.965 -0.0836 -0.4238 -0.0221
12738TIP3    H138153   7.084   5.623   4.969 -0.5955 -0.2088 -0.7744
12738TIP3    H238154   6.976   5.531   5.022  2.0712 -1.2917  2.9663
12739TIP3   OH238155   7.430   7.581   2.672 -0.1381  0.2580  0.0044
12739TIP3    H138156   7.446   7.621   2.757 -2.3911  0.7962  0.2144
12739TIP3    H238157   7.360   7.634   2.633 -2.1804 -2.5631 -0.3309
12740TIP3   OH238158   0.424   7.763   2.680  0.3393  0.6504  0.3224
12740TIP3    H138159   0.503   7.779   2.731  0.3565  0.5986  0.3123
12740TIP3    H238160   0.367   7.712   2.738 -0.0187  1.3825  0.6198
12741TIP3   OH238161   7.013   5.933   3.625 -0.1042 -0.7776 -0.3774
12741TIP3    H138162   6.940   5.922   3.686  0.2146 -2.7558 -0.3235
12741TIP3    H238163   7.046   6.021   3.644 -1.0615 -0.7163  1.1523
12742TIP3   OH238164   3.630   1.117   3.769  1.1636  0.2329 -0.2346
12742TIP3    H138165   3.676   1.075   3.696  1.8758  0.7304 -0.0760
12742TIP3    H238166   3.686   1.190   3.795 -0.5666  1.9562 -1.1980
12743TIP3   OH238167   8.512   5.783   4.960  0.3423 -0.2677 -0.0466
12743TIP3    H138168   8.450   5.852   4.937 -1.1015 -1.6070 -0.2744
12743TIP3    H238169   8.526   5.794   5.054 -0.4275 -0.0720  0.0537
12744TIP3   OH238170   6.747   5.725   5.542  0.7956  0.1817 -0.2708
12744TIP3    H138171   6.757   5.633   5.517 -0.5816 -0.1768  0.4411
12744TIP3    H238172   6.813   5.739   5.610  1.7469  0.0253 -1.1550
12745TIP3   OH238173   6.236   7.890   3.034  0.2156 -0.2109  0.4146
12745TIP3    H138174   6.224   7.810   2.982  0.1955  0.6693 -0.9461
12745TIP3    H238175   6.150   7.905   3.074  0.0155 -0.4664  0.0830
12746TIP3   OH238176   7.213   5.624   2.461  0.2588  0.2792  0.3204
12746TIP3    H138177   7.224   5.653   2.371 -1.4722  1.7840  0.5557
12746TIP3    H238178   7.197   5.705   2.511 -0.4161 -0.6686  1.6894
12747TIP3   OH238179   0.712   6.199   4.748  0.0057 -0.1294  0.1367
12747TIP3    H138180   0.692   6.225   4.658  0.8665  0.6038  0.1410
12747TIP3    H238181   0.686   6.274   4.801 -0.3193 -0.4830  0.4789
12748TIP3   OH238182   7.430   6.433   4.781  0.1004  0.2360 -0.4883
12748TIP3    H138183   7.391   6.407   4.698 -0.9016 -0.2011  0.1091
12748TIP3    H238184   7.388   6.376   4.846  1.4968 -0.0223  0.2095
12749TIP3   OH238185   2.123   0.774   4.656  0.0920  0.4058 -0.4754
12749TIP3    H138186   2.058   0.814   4.598 -0.4889  0.6734  0.3570
12749TIP3    H238187   2.092   0.794   4.744  0.6169 -0.5727 -0.0660
12750TIP3   OH238188   6.370   4.826   5.341  0.3029  0.3557 -0.1714
12750TIP3    H138189   6.293   4.774   5.319 -0.9341  2.2663 -0.5641
12750TIP3    H238190   6.378   4.817   5.436  0.7360 -1.3629 -0.3572
12751TIP3   OH238191   8.221   6.509   5.148  0.1087 -0.0660 -0.1321
12751TIP3    H138192   8.296   6.566   5.166 -0.1927  0.9887 -2.0375
12751TIP3    H238193   8.145   6.564   5.162 -0.2462 -0.5142 -0.2747
12752TIP3   OH238194   8.274   4.544   2.198 -0.3536  0.4093 -0.3234
12752TIP3    H138195   8.238   4.602   2.131  1.0640  0.0814 -1.3738
12752TIP3    H238196   8.265   4.594   2.279  1.0594  2.2392 -1.2539
12753TIP3   OH238197   6.116   7.034   5.927  0.1210  0.1613 -0.3338
12753TIP3    H138198   6.066   6.958   5.956  1.0162 -1.0664 -1.9388
12753TIP3    H238199   6.192   7.037   5.984  0.3898 -0.5045 -0.6595
12754TIP3   OH238200   7.346   4.243   6.714  0.6721 -0.6441  0.3785
12754TIP3    H138201   7.370   4.167   6.767 -0.0294  0.0419  1.7109
12754TIP3    H238202   7.292   4.296   6.772  2.7276  1.8098  0.1240
12755TIP3   OH238203   6.693   5.674   4.938 -0.4925  0.0448  0.2351
12755TIP3    H138204   6.600   5.652   4.939 -0.1960 -1.2696  0.7280
12755TIP3    H238205   6.709   5.718   5.021 -0.3908 -1.0103  0.7810
12756TIP3   OH238206   0.844   6.914   3.366  0.0873  0.0772  0.3745
12756TIP3    H138207   0.854   6.983   3.433 -0.2483 -0.4761  0.9992
12756TIP3    H238208   0.776   6.948   3.308 -3.0416 -1.4794  2.9765
12757TIP3   OH238209   8.238   6.927   1.401  0.3412 -0.3312 -0.1115
12757TIP3    H138210   8.191   6.858   1.354  2.0566 -1.7867  0.2308
12757TIP3    H238211   8.330   6.905   1.388  1.0070  3.2692 -1.9801
12758TIP3   OH238212   0.310   5.218   5.543  0.2699  0.4381  0.3315
12758TIP3    H138213   0.262   5.177   5.471  1.1943  1.2891 -0.7830
12758TIP3    H238214   0.284   5.311   5.539  1.6644  0.8193 -0.0012
12759TIP3   OH238215   4.788   1.858   0.973 -0.1917  0.1532 -1.0332
12759TIP3    H138216   4.792   1.900   1.059  1.2458 -0.5330 -0.7301
12759TIP3    H238217   4.788   1.764   0.993  2.0517 -0.0539 -1.7807
12760TIP3   OH238218   7.421   7.074   4.020  0.0710  0.0008  0.9867
12760TIP3    H138219   7.397   7.157   3.978  0.4504  0.2584  1.2823
12760TIP3    H238220   7.433   7.096   4.113  0.0915 -0.3996  1.0824
12761TIP3   OH238221   8.087   6.864   3.864  0.4279 -0.2868 -0.0232
12761TIP3    H138222   8.039   6.785   3.890 -1.0671  1.4295  2.5409
12761TIP3    H238223   8.171   6.856   3.909 -0.2194  0.1994  1.2925
12762TIP3   OH238224   0.808   7.542   5.087 -0.1274  0.2673  0.3552
12762TIP3    H138225   0.823   7.517   4.995 -0.9785  1.5190 -0.1352
12762TIP3    H238226   0.779   7.461   5.129 -0.7948 -0.0694 -0.7301
12763TIP3   OH238227   8.045   7.288   4.482 -0.0574  0.0867 -0.0045
12763TIP3    H138228   8.054   7.224   4.411 -1.1846  1.5214 -1.4887
12763TIP3    H238229   7.956   7.320   4.473  0.3082  1.4296  1.1003
12764TIP3   OH238230   0.541   7.979   3.735 -0.1811 -0.5842 -0.2083
12764TIP3    H138231   0.621   8.020   3.703 -0.7785 -0.3871 -1.4790
12764TIP3    H238232   0.545   7.989   3.830 -0.2879  2.4459 -0.4800
12765TIP3   OH238233   6.397   7.457   5.601  0.0170 -0.2984 -0.2310
12765TIP3    H138234   6.325   7.448   5.537 -1.1560  1.0919  0.8538
12765TIP3    H238235   6.443   7.373   5.597 -1.8927 -1.3630 -0.6962
12766TIP3   OH238236   7.705   7.812   5.187  0.2934 -0.0894  0.2300
12766TIP3    H138237   7.663   7.759   5.119 -1.0977  0.8246  0.3681
12766TIP3    H238238   7.684   7.903   5.163 -0.0393  0.2504  1.7742
12767TIP3   OH238239   0.642   6.906   2.386 -0.3116 -0.4454  0.5567
12767TIP3    H138240   0.714   6.898   2.323  1.9033 -3.2606  3.3174
12767TIP3    H238241   0.580   6.837   2.361  0.3872 -1.3191  1.2285
12768TIP3   OH238242   3.528   1.123   6.169  0.6225 -0.0012 -0.3782
12768TIP3    H138243   3.529   1.064   6.094  0.5010  0.2319 -0.5612
12768TIP3    H238244   3.520   1.065   6.245 -1.0769 -0.1296 -0.6487
12769TIP3   OH238245   1.051   6.820   4.862  0.5775 -0.4563  0.1732
12769TIP3    H138246   1.111   6.851   4.794  0.2871  0.2508  0.2327
12769TIP3    H238247   1.107   6.806   4.939  0.3625  2.3223  0.8961
12770TIP3   OH238248   0.088   7.393   2.430  0.0281 -0.2268 -0.2060
12770TIP3    H138249   0.073   7.303   2.460  0.7664 -0.3798 -0.2857
12770TIP3    H238250   0.044   7.398   2.345  0.4929 -0.6884 -0.4739
12771TIP3   OH238251   8.241   6.971   2.029 -0.1249 -0.1957 -0.0085
12771TIP3    H138252   8.189   6.957   2.109 -0.9774  1.2265 -0.2887
12771TIP3    H238253   8.315   6.912   2.038 -2.6494 -3.5723 -0.3788
12772TIP3   OH238254   4.871   6.341   6.221  0.3086 -0.1768 -0.4206
12772TIP3    H138255   4.788   6.356   6.175  0.7879 -0.6364 -1.4715
12772TIP3    H238256   4.862   6.253   6.257 -0.6300  0.7361  1.6223
12773TIP3   OH238257   6.007   5.323   4.596  0.3720 -0.2185 -0.0122
12773TIP3    H138258   6.055   5.340   4.676  0.1112  2.4201 -0.3676
12773TIP3    H238259   5.914   5.330   4.621  0.3027  2.0542 -0.7867
12774TIP3   OH238260   0.172   7.075   3.578 -0.4172  0.1988  0.1016
12774TIP3    H138261   0.194   7.006   3.641 -0.6295 -0.4781 -0.5508
12774TIP3    H238262   0.162   7.028   3.495  0.4699  1.1555 -0.5556
12775TIP3   OH238263   0.570   6.927   4.275  0.0554  0.1662 -0.0545
12775TIP3    H138264   0.485   6.885   4.262  0.4264 -0.6199  0.0353
12775TIP3    H238265   0.552   7.001   4.333 -0.9254  1.3002 -1.7812
12776TIP3   OH238266   7.211   7.663   1.512  0.1688  0.0512 -0.4081
12776TIP3    H138267   7.280   7.596   1.517  0.4661  0.1974 -2.0595
12776TIP3    H238268   7.132   7.620   1.544  0.7366 -0.5519  0.1861
12777TIP3   OH238269   7.908   5.519   3.485  0.3473  0.4709  0.2795
12777TIP3    H138270   7.937   5.495   3.573 -0.1459  0.0359  0.3274
12777TIP3    H238271   7.820   5.480   3.477  0.9433 -0.6699 -0.9107
12778TIP3   OH238272   3.152   0.344   5.413 -0.2891 -0.1456  0.1146
12778TIP3    H138273   3.122   0.255   5.394  0.0067 -0.0747 -0.7297
12778TIP3    H238274   3.142   0.390   5.330 -0.5429  0.6404  0.5768
12779TIP3   OH238275   7.964   5.961   3.198 -0.4695  0.5225  0.6641
12779TIP3    H138276   7.949   5.869   3.221  0.3016  0.2496  0.1002
12779TIP3    H238277   7.972   5.961   3.103  0.6032  1.0152  0.7407
12780TIP3   OH238278   7.896   6.865   4.593  0.0358 -0.2047 -0.0105
12780TIP3    H138279   7.972   6.923   4.594 -0.6164  0.7639 -2.2685
12780TIP3    H238280   7.923   6.792   4.537 -0.4123 -0.2479 -0.1722
12781TIP3   OH238281   3.292   2.119   0.323  0.1689  0.2304  0.1776
12781TIP3    H138282   3.335   2.131   0.239 -0.2737  2.1189  0.2121
12781TIP3    H238283   3.216   2.064   0.304  0.1884  0.4730 -0.6049
12782TIP3   OH238284   2.928   0.320   4.290  0.0156  0.6818 -0.0192
12782TIP3    H138285   2.856   0.371   4.327 -0.4357 -0.9181  1.3885
12782TIP3    H238286   2.980   0.293   4.366  0.9120  0.0511 -0.8330
12783TIP3   OH238287   8.404   7.237   3.933  0.2082 -0.1139 -0.3008
12783TIP3    H138288   8.386   7.275   3.847 -0.3618 -1.1585 -0.6540
12783TIP3    H238289   8.499   7.243   3.943  0.4236 -1.2376 -1.6044
12784TIP3   OH238290   7.249   6.682   2.999  0.1844 -0.4601  0.1086
12784TIP3    H138291   7.241   6.587   2.998  0.2918 -0.4686  0.0424
12784TIP3    H238292   7.268   6.704   3.090 -0.2630 -0.4655  0.2016
12785TIP3   OH238293   0.726   7.820   5.433 -0.3420  0.3249  0.3459
12785TIP3    H138294   0.779   7.850   5.359 -0.0503  2.0044  1.2024
12785TIP3    H238295   0.647   7.785   5.393  0.5752 -0.3908 -0.8454
12786TIP3   OH238296   0.226   6.375   4.327 -0.5465 -0.3792 -0.0754
12786TIP3    H138297   0.321   6.381   4.314 -0.6786  0.5335 -0.6720
12786TIP3    H238298   0.197   6.466   4.332 -1.5150 -0.6503 -0.7687
12787TIP3   OH238299   7.465   6.561   3.216 -0.4171  0.1139  0.4803
12787TIP3    H138300   7.410   6.592   3.288 -1.4350  0.1718 -0.3077
12787TIP3    H238301   7.441   6.469   3.205  1.3428 -0.5021  1.6711
12788TIP3   OH238302   8.380   4.576   4.661  0.0312  0.8090  0.4872
12788TIP3    H138303   8.419   4.660   4.635  0.3530  0.7720  0.8509
12788TIP3    H238304   8.376   4.580   4.756  1.1781 -0.0799  0.5901
12789TIP3   OH238305   7.067   7.201   4.018  0.0887 -0.1016 -0.1077
12789TIP3    H138306   7.024   7.160   3.942  0.3143 -0.7884  0.1256
12789TIP3    H238307   7.048   7.142   4.091 -0.8585  1.0111  0.5579
12790TIP3   OH238308   7.255   4.881   0.744  0.7897  0.0291  0.2187
12790TIP3    H138309   7.319   4.927   0.798  1.9714  2.5656 -3.1683
12790TIP3    H238310   7.183   4.943   0.734 -0.2511 -1.1297  0.3729
12791TIP3   OH238311   5.626   5.839   3.793  0.0973  0.1977 -0.0001
12791TIP3    H138312   5.660   5.864   3.880 -3.6999  0.8030  1.4072
12791TIP3    H238313   5.569   5.912   3.768 -0.7049 -1.0601 -1.9194
12792TIP3   OH238314   7.961   7.349   2.679 -0.1883  0.8799 -0.1335
12792TIP3    H138315   7.879   7.392   2.652 -1.5111 -1.7752 -0.5382
12792TIP3    H238316   7.945   7.323   2.770 -0.1624 -0.5112 -0.5265
12793TIP3   OH238317   6.715   4.805   4.045 -0.2858  0.0623 -0.2332
12793TIP3    H138318   6.732   4.716   4.076  0.0111  0.4847  0.8466
12793TIP3    H238319   6.659   4.793   3.968  1.6401 -1.1689 -1.4992
12794TIP3   OH238320   6.056   5.577   6.498 -0.2388  0.0386 -0.0661
12794TIP3    H138321   5.963   5.598   6.488 -0.3553 -0.2274  0.4589
12794TIP3    H238322   6.057   5.487   6.530  0.1983  0.0854  0.0565
12795TIP3   OH238323   6.429   7.713   1.413 -0.2363 -0.1697 -0.0978
12795TIP3    H138324   6.478   7.790   1.385  1.9223 -2.2292 -2.1670
12795TIP3    H238325   6.375   7.690   1.337 -0.1738 -1.2289  0.1708
12796TIP3   OH238326   5.121   0.892   5.915  0.6702  0.0105  0.2720
12796TIP3    H138327   5.118   0.864   6.006 -0.6537 -0.7985 -0.0003
12796TIP3    H238328   5.073   0.824   5.867 -1.3901  1.9909 -0.5954
12797TIP3   OH238329   0.077   6.698   3.766  0.3519 -0.0063  0.1711
12797TIP3    H138330   0.034   6.712   3.681  0.4138 -1.8143 -0.1813
12797TIP3    H238331   0.100   6.786   3.796  1.0419  0.6053 -2.0601
12798TIP3   OH238332   1.027   7.244   6.404 -0.1442  0.1068 -0.3841
12798TIP3    H138333   1.031   7.232   6.499  2.7777  2.3474 -0.1666
12798TIP3    H238334   1.058   7.162   6.368 -1.9523 -1.0215  0.5398
12799TIP3   OH238335   1.383   7.485   4.025  0.1845  0.1772 -0.4342
12799TIP3    H138336   1.381   7.447   4.112  1.2330  1.0251 -0.0310
12799TIP3    H238337   1.303   7.539   4.021 -0.0935 -0.2120 -0.1654
12800TIP3   OH238338   1.580   5.863   5.917  0.1781 -0.1687 -0.3541
12800TIP3    H138339   1.543   5.822   5.840 -1.4899 -1.4108  1.0607
12800TIP3    H238340   1.579   5.795   5.984  1.2705  0.9686  0.8745
12801TIP3   OH238341   1.626   5.894   5.520 -0.1584  0.2271  0.0479
12801TIP3    H138342   1.705   5.839   5.519 -1.9928 -2.5989  1.9956
12801TIP3    H238343   1.575   5.860   5.594 -3.5074  1.5301 -1.5860
12802TIP3   OH238344   1.975   7.805   6.389 -0.3581 -0.0518  0.1963
12802TIP3    H138345   1.984   7.806   6.294 -2.3679 -1.8679 -0.0415
12802TIP3    H238346   1.993   7.895   6.416 -0.0560  0.5361 -1.9088
12803TIP3   OH238347   0.981   6.994   6.924 -0.0666  0.2662 -0.4038
12803TIP3    H138348   1.051   6.975   6.987  1.1305 -1.5893 -2.2374
12803TIP3    H238349   0.976   6.916   6.869 -2.5429  1.0042 -1.3110
12804TIP3   OH238350   7.489   2.684   0.155 -0.3770  0.2200  1.0603
12804TIP3    H138351   7.559   2.729   0.201  0.2511  0.6989 -0.3407
12804TIP3    H238352   7.445   2.752   0.105 -0.1935 -0.5056 -0.1017
12805TIP3   OH238353   2.018   7.353   4.410 -0.0555  0.2839 -0.5591
12805TIP3    H138354   2.052   7.442   4.404 -1.2040  0.6473 -1.9479
12805TIP3    H238355   2.089   7.298   4.377  0.2544  0.7771 -0.7113
12806TIP3   OH238356   4.514   1.109   5.006 -0.2136  0.0594  0.0399
12806TIP3    H138357   4.604   1.100   5.036 -0.4136 -0.4090  0.5053
12806TIP3    H238358   4.514   1.071   4.918 -0.0134 -0.1630  0.1364
12807TIP3   OH238359   1.298   7.863   4.775 -0.0588 -0.3291  0.2487
12807TIP3    H138360   1.354   7.807   4.721 -0.8055 -2.4526  1.5993
12807TIP3    H238361   1.222   7.881   4.720 -0.5151 -1.9386  0.3229
12808TIP3   OH238362   0.527   6.833   5.371  0.2996 -0.4254  0.5329
12808TIP3    H138363   0.553   6.844   5.280  0.6980 -1.5792  0.5032
12808TIP3    H238364   0.593   6.882   5.421  0.0245  0.2887  0.2087
12809TIP3   OH238365   1.787   5.916   3.846  0.0584  0.2841  0.1527
12809TIP3    H138366   1.856   5.974   3.814  0.9909 -1.2520 -0.6397
12809TIP3    H238367   1.795   5.920   3.942  1.3091  0.0636  0.0709
12810TIP3   OH238368   1.263   7.235   6.758  0.5359 -0.0770  0.3456
12810TIP3    H138369   1.263   7.326   6.728  0.2688  0.6153  2.4066
12810TIP3    H238370   1.175   7.203   6.737 -0.2631  0.9659  1.9909
12811TIP3   OH238371   1.709   5.653   4.800  0.0818  0.5280 -0.0704
12811TIP3    H138372   1.729   5.562   4.822 -0.0208 -0.2397 -2.9376
12811TIP3    H238373   1.644   5.679   4.865 -0.7386 -1.8318  0.1270
12812TIP3   OH238374   0.628   6.845   5.117 -0.2320  0.4074  0.1836
12812TIP3    H138375   0.593   6.790   5.047 -0.2361 -0.3628  0.7841
12812TIP3    H238376   0.680   6.911   5.071  0.8133 -0.8424 -0.4927
12813TIP3   OH238377   6.320   3.694   0.110 -0.3119 -0.6190  0.2909
12813TIP3    H138378   6.226   3.708   0.109 -0.2796 -0.3274  0.8712
12813TIP3    H238379   6.357   3.778   0.136  0.0730 -0.8722  0.5832
12814TIP3   OH238380   3.355   6.127   6.042 -0.1691 -0.2534  0.0603
12814TIP3    H138381   3.422   6.062   6.063  0.2568 -0.1943 -1.0709
12814TIP3    H238382   3.303   6.135   6.122  0.8439 -0.6931  0.7736
12815TIP3   OH238383   6.816   3.061   1.459  0.6299 -0.1636  0.3460
12815TIP3    H138384   6.894   3.043   1.407 -0.2213 -0.9013 -0.7097
12815TIP3    H238385   6.798   2.978   1.504 -1.1180 -0.8723 -1.5747
12816TIP3   OH238386   7.882   4.022   0.410  0.5431  0.3789 -0.6566
12816TIP3    H138387   7.886   3.967   0.331 -0.4689  0.7793 -0.9975
12816TIP3    H238388   7.806   4.078   0.396  2.5720  3.0921 -1.0880
12817TIP3   OH238389   0.860   6.169   6.207  0.2504  0.1427 -0.7949
12817TIP3    H138390   0.806   6.090   6.207  1.0149 -0.4070  0.7536
12817TIP3    H238391   0.808   6.235   6.252  0.7715 -0.3351  0.5346
12818TIP3   OH238392   0.895   5.875   6.818  0.5707 -0.7892  0.4792
12818TIP3    H138393   0.870   5.934   6.747  0.3862 -0.6097  0.6926
12818TIP3    H238394   0.886   5.928   6.897 -2.3381 -1.9313  0.9585
12819TIP3   OH238395   1.935   6.676   3.932 -0.4025 -0.1275  0.2322
12819TIP3    H138396   2.030   6.664   3.929 -0.4316 -0.1081 -1.5279
12819TIP3    H238397   1.909   6.642   4.018  1.2683  0.4901  1.0080
12820TIP3   OH238398   6.517   2.064   0.052 -0.5351 -0.2594 -0.0517
12820TIP3    H138399   6.439   2.115   0.075  0.3461  0.1257  2.3278
12820TIP3    H238400   6.586   2.130   0.043  0.0385 -0.7867  0.4255
12821TIP3   OH238401   1.866   7.008   6.703 -0.1602 -0.4319  0.5143
12821TIP3    H138402   1.820   7.091   6.693 -0.0408 -0.3285  0.8118
12821TIP3    H238403   1.903   7.011   6.792 -1.6533 -1.5634  1.1874
12822TIP3   OH238404   7.207   3.588   1.994  0.0769 -0.3131 -0.8889
12822TIP3    H138405   7.229   3.677   2.020  0.4204 -0.7703  0.4234
12822TIP3    H238406   7.250   3.577   1.909 -0.5012  0.9819 -1.3560
12823TIP3   OH238407   6.893   3.725   1.614 -0.0636  0.2415  0.0254
12823TIP3    H138408   6.800   3.718   1.636 -0.1876 -1.1058 -0.8786
12823TIP3    H238409   6.939   3.702   1.695 -0.5235  0.0583  0.2348
12824TIP3   OH238410   1.399   6.711   6.375 -0.1878 -0.0310  0.4733
12824TIP3    H138411   1.445   6.670   6.448  0.1042 -0.7065 -0.0981
12824TIP3    H238412   1.418   6.656   6.299  1.2381  1.8347 -0.5641
12825TIP3   OH238413   7.914   6.075   0.055 -0.2221 -0.4254  0.3845
12825TIP3    H138414   7.906   6.140  -0.015 -0.7362  0.9264  1.6698
12825TIP3    H238415   7.824   6.061   0.085 -0.1613 -2.0355 -0.1288
12826TIP3   OH238416   3.453   1.224   5.840 -0.1149 -0.0934  0.4235
12826TIP3    H138417   3.462   1.303   5.893  0.1436 -0.9520  1.6572
12826TIP3    H238418   3.480   1.251   5.752 -3.0282  2.0381  0.0857
12827TIP3   OH238419   1.691   7.463   4.844  0.0957  0.1253  0.7105
12827TIP3    H138420   1.756   7.443   4.776  1.4934 -0.2192  2.1350
12827TIP3    H238421   1.635   7.385   4.847  1.2160 -0.6664  1.2978
12828TIP3   OH238422   1.491   7.593   6.142  0.0751  0.0259 -0.1180
12828TIP3    H138423   1.578   7.572   6.108 -0.4474  1.0176 -2.1486
12828TIP3    H238424   1.433   7.528   6.101 -0.1022 -0.9105  1.5722
12829TIP3   OH238425   4.374   7.706   6.107  0.0698  0.2171 -0.2529
12829TIP3    H138426   4.396   7.627   6.156 -2.7023 -0.4417  0.0392
12829TIP3    H238427   4.290   7.734   6.144 -0.2962  1.7512 -2.1755
12830TIP3   OH238428   4.288   6.989   5.706 -0.2306 -0.1145  0.3176
12830TIP3    H138429   4.258   7.066   5.657  0.9684  0.0454 -0.1861
12830TIP3    H238430   4.232   6.918   5.675 -1.1105  0.4803  0.5232
12831TIP3   OH238431   5.395   1.634   5.061  0.2319 -0.0145  0.5524
12831TIP3    H138432   5.430   1.720   5.085  1.7363 -0.5472  0.3526
12831TIP3    H238433   5.430   1.574   5.127 -4.2076  0.0949  3.2080
12832TIP3   OH238434   8.387   2.423   1.782 -0.3908  0.0892  0.6128
12832TIP3    H138435   8.320   2.361   1.753 -1.4438  1.6419 -0.3283
12832TIP3    H238436   8.469   2.385   1.753 -1.2133  0.3301 -2.1947
12833TIP3   OH238437   4.462   0.630   5.242 -0.1758  0.2283  0.0026
12833TIP3    H138438   4.442   0.721   5.221  0.0568  0.3375  0.2491
12833TIP3    H238439   4.401   0.608   5.313 -0.0649  0.2681  0.1105
12834TIP3   OH238440   1.698   7.791   5.437 -0.1425 -0.0659  0.1360
12834TIP3    H138441   1.654   7.709   5.413  1.1544 -0.4147 -1.1358
12834TIP3    H238442   1.667   7.811   5.525 -1.9100 -0.9401 -0.2764
12835TIP3   OH238443   0.721   7.292   4.324 -0.2959  0.0236 -0.2335
12835TIP3    H138444   0.774   7.215   4.302  1.4753  1.2190 -0.2054
12835TIP3    H238445   0.657   7.298   4.253 -0.8832 -1.8633  0.1164
12836TIP3   OH238446   6.882   3.030   0.662 -0.3279  0.0842 -0.5147
12836TIP3    H138447   6.874   3.117   0.702  0.4294  0.3029 -0.8349
12836TIP3    H238448   6.793   2.994   0.665 -0.4430  0.4503  0.5552
12837TIP3   OH238449   6.570   5.790   3.232 -0.6067  0.3269 -0.2240
12837TIP3    H138450   6.532   5.859   3.178  0.1938  0.5055 -0.5631
12837TIP3    H238451   6.501   5.768   3.295 -1.0627  1.0435 -0.4698
12838TIP3   OH238452   3.798   2.068   6.547 -0.4494 -0.1411 -0.5056
12838TIP3    H138453   3.826   2.086   6.457 -0.8060 -0.2311 -0.6346
12838TIP3    H238454   3.880   2.064   6.597 -0.3883  2.3889 -0.3718
12839TIP3   OH238455   5.060   0.610   5.872  0.5476  0.0078 -0.1714
12839TIP3    H138456   5.125   0.588   5.939 -0.4840  0.6166  1.0384
12839TIP3    H238457   5.029   0.525   5.840  0.8584 -0.2860  0.3041
12840TIP3   OH238458   2.051   6.260   4.695 -0.2670  0.4932 -0.9491
12840TIP3    H138459   2.105   6.263   4.774  0.5348  1.8354 -1.5309
12840TIP3    H238460   1.998   6.181   4.705 -0.5581  0.9281  1.1790
12841TIP3   OH238461   6.775   3.609   2.245 -0.0560 -0.2905 -0.0631
12841TIP3    H138462   6.753   3.648   2.160  0.2461 -2.9799 -1.4290
12841TIP3    H238463   6.777   3.515   2.228  1.2628 -0.7944  2.6627
12842TIP3   OH238464   5.585   2.381   6.920  0.2834  0.7211  0.2321
12842TIP3    H138465   5.621   2.300   6.884  0.0364  0.4221  0.6531
12842TIP3    H238466   5.598   2.446   6.851 -0.9310 -0.0290 -0.7244
12843TIP3   OH238467   6.531   1.483   6.454  0.0298 -0.1378  0.5574
12843TIP3    H138468   6.566   1.442   6.375  0.2736 -1.6738  1.4360
12843TIP3    H238469   6.604   1.533   6.490  0.6755 -1.5047  1.1705
12844TIP3   OH238470   4.076   0.987   4.190 -0.4982  0.7787  0.4568
12844TIP3    H138471   4.005   1.030   4.141 -0.1443  0.4291 -0.3796
12844TIP3    H238472   4.116   1.057   4.241 -1.0470  1.1031  0.4449
12845TIP3   OH238473   4.761   2.703   2.786 -0.5483 -0.3104  0.3194
12845TIP3    H138474   4.805   2.657   2.858  1.8308 -0.3579 -1.0988
12845TIP3    H238475   4.770   2.645   2.711 -2.2682  0.1110 -0.2304
12846TIP3   OH238476   1.822   7.878   6.029 -0.6154 -0.0187  0.1438
12846TIP3    H138477   1.912   7.906   6.014 -1.1125  0.6556 -1.6373
12846TIP3    H238478   1.830   7.788   6.062  0.6948 -0.1532 -0.5176
12847TIP3   OH238479   6.781   1.944   5.326  0.0736  0.4358  0.2628
12847TIP3    H138480   6.773   2.035   5.354 -4.8197  0.1922  0.1519
12847TIP3    H238481   6.817   1.949   5.237  0.0148  2.2357  0.3274
12848TIP3   OH238482   7.734   0.291   5.377 -0.3408 -0.1617 -0.1470
12848TIP3    H138483   7.695   0.278   5.464 -3.4423 -0.9938 -1.5896
12848TIP3    H238484   7.672   0.347   5.331  1.2892  0.2896 -1.8421
12849TIP3   OH238485   2.427   6.705   4.605 -0.0854  0.0165 -0.0167
12849TIP3    H138486   2.391   6.710   4.694  1.0957 -2.5801  0.6691
12849TIP3    H238487   2.371   6.642   4.560  1.3598 -1.3123 -0.0215
12850TIP3   OH238488   7.047   1.571   4.133  0.6674 -0.5376 -0.0666
12850TIP3    H138489   7.045   1.483   4.095  0.2719 -1.0922  1.2159
12850TIP3    H238490   7.140   1.588   4.151  0.6961 -0.8579  0.0815
12851TIP3   OH238491   5.503   6.720   5.817  0.1373 -0.3554 -0.2468
12851TIP3    H138492   5.432   6.665   5.782 -0.9564 -0.0849  1.5042
12851TIP3    H238493   5.512   6.790   5.752 -0.8731 -0.6542 -0.7284
12852TIP3   OH238494   1.434   7.756   5.893  0.4671 -0.2861  0.2529
12852TIP3    H138495   1.445   7.750   5.988  0.1040 -1.2587  0.2406
12852TIP3    H238496   1.352   7.710   5.876  2.3861 -3.4712 -0.9274
12853TIP3   OH238497   3.964   0.832   6.430 -0.9390 -0.4826  0.2574
12853TIP3    H138498   4.004   0.903   6.482  0.5657 -1.3692  0.3517
12853TIP3    H238499   3.871   0.852   6.430 -0.2900  2.9700 -1.9126
12854TIP3   OH238500   1.317   4.149   0.969  0.6900  0.0993 -0.1707
12854TIP3    H138501   1.344   4.207   0.898 -0.4766  0.7754 -0.0860
12854TIP3    H238502   1.387   4.154   1.033  1.3483  0.1601 -0.8928
12855TIP3   OH238503   5.040   1.239   6.161  0.3252  0.0631  0.1643
12855TIP3    H138504   5.039   1.146   6.184 -1.0376 -0.8046 -3.0789
12855TIP3    H238505   4.965   1.276   6.207 -0.2262 -0.8458  0.0091
12856TIP3   OH238506   5.024   6.303   5.084  0.0221  0.1111 -0.1489
12856TIP3    H138507   5.048   6.299   4.992  1.3413 -0.8131  0.2169
12856TIP3    H238508   4.936   6.267   5.088  0.4859 -1.1177 -0.8766
12857TIP3   OH238509   5.712   0.046   4.935  0.8348  0.2492  0.7574
12857TIP3    H138510   5.771   0.061   4.861  1.9736 -1.7369  1.2020
12857TIP3    H238511   5.763  -0.010   4.994 -1.0933 -0.5604  1.6890
12858TIP3   OH238512   6.274   2.281   1.166  0.3092  0.6785 -0.1488
12858TIP3    H138513   6.262   2.359   1.220 -0.1957 -0.2010  1.0370
12858TIP3    H238514   6.308   2.314   1.082 -2.2158  2.4011 -0.5363
12859TIP3   OH238515   5.644   0.170   6.820 -0.4562 -0.2586  0.2512
12859TIP3    H138516   5.649   0.168   6.724 -0.6495  0.7799  0.2140
12859TIP3    H238517   5.581   0.239   6.839 -1.9336 -1.7882  1.0806
12860TIP3   OH238518   4.451   0.314   6.651 -0.3653 -0.0966 -0.1180
12860TIP3    H138519   4.463   0.264   6.570 -1.2617 -0.6749  0.0973
12860TIP3    H238520   4.375   0.274   6.693 -1.0869  1.4329  0.0737
12861TIP3   OH238521   0.638   4.743   0.360  0.3476 -0.1534  0.2478
12861TIP3    H138522   0.650   4.718   0.268  0.9653  0.7461  0.0860
12861TIP3    H238523   0.650   4.661   0.408 -1.1890 -0.8785 -0.5522
12862TIP3   OH238524   3.238   7.639   4.494  0.0655 -0.2014  0.3443
12862TIP3    H138525   3.331   7.643   4.472  0.4597 -0.5436  1.8682
12862TIP3    H238526   3.207   7.729   4.482  0.7595  0.0674  0.4847
12863TIP3   OH238527   5.236   7.763   4.539  0.2691  0.1135  0.3413
12863TIP3    H138528   5.306   7.769   4.475 -0.2166  0.7904 -0.1333
12863TIP3    H238529   5.156   7.754   4.486  0.0619 -1.4362  0.8773
12864TIP3   OH238530   6.943   3.213   0.088  0.5182 -0.6333 -0.1765
12864TIP3    H138531   6.870   3.270   0.112  0.8522 -0.7034  1.0584
12864TIP3    H238532   6.946   3.215  -0.008 -0.1488  0.5617 -0.1709
12865TIP3   OH238533   1.062   6.048   6.372 -0.4371 -0.2658  0.6408
12865TIP3    H138534   1.013   6.113   6.423  0.5385  0.3946  0.7518
12865TIP3    H238535   1.027   6.056   6.283 -0.0956  0.6380  0.5874
12866TIP3   OH238536   7.086   4.480   1.099  0.0125 -0.1347 -0.2761
12866TIP3    H138537   7.175   4.459   1.074 -0.0201  0.5817 -0.9963
12866TIP3    H238538   7.084   4.575   1.109 -0.5049 -0.2030  0.3828
12867TIP3   OH238539   5.993   1.431   1.909  0.2193 -0.1534  0.2698
12867TIP3    H138540   6.011   1.388   1.992  0.1376  3.5791  2.3080
12867TIP3    H238541   5.898   1.449   1.911  0.0972 -0.6375 -0.9148
12868TIP3   OH238542   5.486   0.592   5.329  0.3078 -0.5279  0.0405
12868TIP3    H138543   5.526   0.614   5.245  0.6356 -1.1238  0.0397
12868TIP3    H238544   5.395   0.622   5.320  1.2012  2.6067  0.7598
12869TIP3   OH238545   6.339   2.694   6.413 -0.0015 -0.6068 -0.0001
12869TIP3    H138546   6.288   2.638   6.471 -0.3850  0.1117  0.3611
12869TIP3    H238547   6.427   2.693   6.450 -0.1789 -0.3802  0.4386
12870TIP3   OH238548   2.654   6.972   5.278  0.0501  0.2812  0.0238
12870TIP3    H138549   2.710   7.028   5.224 -0.0422  1.2656  0.9287
12870TIP3    H238550   2.584   7.030   5.308 -0.2041 -0.3899  0.7473
12871TIP3   OH238551   0.662   5.020   6.508  0.0045 -0.2360  1.0312
12871TIP3    H138552   0.627   4.943   6.464  0.2308  1.2706 -1.9179
12871TIP3    H238553   0.597   5.088   6.491  1.1829  0.9313  1.1159
12872TIP3   OH238554   0.905   7.765   5.632 -0.1743  0.5348 -0.0905
12872TIP3    H138555   0.846   7.789   5.560  0.9874  0.6428 -1.0272
12872TIP3    H238556   0.847   7.733   5.701 -1.4412  2.0211 -0.4313
12873TIP3   OH238557   1.573   6.760   5.097  0.1039 -0.0651 -0.3332
12873TIP3    H138558   1.627   6.727   5.169  0.9397  0.5725 -0.6558
12873TIP3    H238559   1.535   6.681   5.058  0.6908 -0.5125 -0.0079
12874TIP3   OH238560   8.020   3.508   0.662  0.6518  0.0068  0.4085
12874TIP3    H138561   7.977   3.426   0.639 -2.9262  1.5265  1.1386
12874TIP3    H238562   8.077   3.528   0.587 -0.7524 -1.6237 -1.1483
12875TIP3   OH238563   4.882   0.010   6.733  0.1072  0.1938 -0.1329
12875TIP3    H138564   4.801   0.053   6.763  0.5969  1.6066 -0.7813
12875TIP3    H238565   4.886   0.030   6.640  2.0466  1.5297  0.2175
12876TIP3   OH238566   1.354   6.965   5.137  0.5164 -0.0401  0.3715
12876TIP3    H138567   1.277   6.909   5.132  0.3754  0.2776 -1.3965
12876TIP3    H238568   1.426   6.910   5.107  0.4327  0.6045 -1.0514
12877TIP3   OH238569   6.960   0.201   4.990  0.7397  0.0246  1.1081
12877TIP3    H138570   6.876   0.232   4.955  1.0868 -0.8832 -0.6129
12877TIP3    H238571   6.950   0.106   4.994  1.8576 -0.1358  0.3915
12878TIP3   OH238572   2.707   6.502   5.227 -0.2072  0.3713 -0.7650
12878TIP3    H138573   2.759   6.583   5.227 -3.2752  2.4587 -1.0818
12878TIP3    H238574   2.701   6.479   5.134 -0.7696  0.7811 -0.8344
12879TIP3   OH238575   6.804   4.095   1.193 -0.3622  0.7946  0.4337
12879TIP3    H138576   6.788   4.183   1.227 -2.6190 -0.1368  1.9042
12879TIP3    H238577   6.813   4.040   1.271  0.9695 -0.3194 -0.4758
12880TIP3   OH238578   2.804   6.743   5.184 -0.1048  0.3270 -0.1390
12880TIP3    H138579   2.839   6.771   5.100 -0.6231  0.6858 -0.2380
12880TIP3    H238580   2.778   6.825   5.228  0.1609  0.1458  0.3659
12881TIP3   OH238581   6.089   0.628   5.615  0.3302  0.1640  0.2304
12881TIP3    H138582   6.072   0.712   5.658  0.5944 -0.4277  1.5341
12881TIP3    H238583   6.063   0.563   5.680  1.0627 -0.7570 -0.3882
12882TIP3   OH238584   4.152   0.557   5.270 -0.5336 -0.5137  0.1879
12882TIP3    H138585   4.166   0.650   5.286  0.5277 -0.7503  0.6954
12882TIP3    H238586   4.057   0.545   5.275 -0.7297  0.6748 -0.6683
12883TIP3   OH238587   6.637   3.837   0.486  0.0604 -0.0311 -0.2054
12883TIP3    H138588   6.693   3.882   0.422  0.2295  0.4439  0.2782
12883TIP3    H238589   6.551   3.833   0.444  0.6986 -1.7174 -1.4093
12884TIP3   OH238590   3.741   0.365   6.376  0.3867 -0.1973  0.3001
12884TIP3    H138591   3.785   0.438   6.419  0.1810 -1.4930  2.8028
12884TIP3    H238592   3.785   0.357   6.291  1.3211  1.9415  0.5539
12885TIP3   OH238593   0.116   3.722   0.694 -0.0417 -0.4050  0.0413
12885TIP3    H138594   0.129   3.758   0.781 -0.1037 -2.3060  0.8678
12885TIP3    H238595   0.201   3.731   0.651  0.0762  0.2366  0.3971
12886TIP3   OH238596   6.635   0.586   6.792  0.0574 -0.3147  0.2569
12886TIP3    H138597   6.578   0.631   6.855  0.9491  1.5370 -0.2110
12886TIP3    H238598   6.723   0.592   6.830  0.3817 -0.4782 -0.4564
12887TIP3   OH238599   1.517   7.222   5.161 -0.1712 -0.0859  0.2232
12887TIP3    H138600   1.496   7.315   5.154 -0.3363 -0.2333 -1.3224
12887TIP3    H238601   1.445   7.185   5.213  0.2940  0.7626  1.5168
12888TIP3   OH238602   6.079   0.481   6.433  0.5747  0.0538 -0.1972
12888TIP3    H138603   6.083   0.557   6.491 -2.9158 -0.0895  0.3374
12888TIP3    H238604   6.127   0.412   6.479  0.8214  0.9535  0.9094
12889TIP3   OH238605   4.013   0.282   5.913 -0.3385  0.1388  0.2662
12889TIP3    H138606   4.104   0.294   5.887 -0.4582 -0.8236 -0.6240
12889TIP3    H238607   3.962   0.319   5.840 -0.6612  0.7426  0.7943
12890TIP3   OH238608   7.482   3.052   0.780  0.1285  0.7154 -0.7008
12890TIP3    H138609   7.468   3.088   0.692  1.5568  1.1788 -0.7544
12890TIP3    H238610   7.395   3.025   0.809 -0.7042  2.5458 -1.4021
12891TIP3   OH238611   3.869   7.054   5.469 -0.1572  0.2958 -0.0185
12891TIP3    H138612   3.924   7.001   5.412  0.3427  1.4554 -0.6351
12891TIP3    H238613   3.869   7.141   5.429 -0.2810  0.9848  1.4257
12892TIP3   OH238614   0.850   7.336   5.855 -0.3855  0.1286  0.0616
12892TIP3    H138615   0.870   7.265   5.794  0.8071  1.6505 -1.3399
12892TIP3    H238616   0.763   7.366   5.829 -0.8712 -0.7578  0.6249
12893TIP3   OH238617   1.267   7.753   4.146  0.1941  0.0576 -0.2585
12893TIP3    H138618   1.175   7.773   4.130 -0.1537 -1.0191  0.3669
12893TIP3    H238619   1.266   7.677   4.203  1.4854 -0.3205 -0.7120
12894TIP3   OH238620   6.637   0.433   5.336  0.3349 -0.1700  0.0132
12894TIP3    H138621   6.669   0.348   5.307 -3.5995 -1.3578 -1.1424
12894TIP3    H238622   6.665   0.439   5.428  2.1182 -1.9379 -0.3851
12895TIP3   OH238623   4.566   0.382   5.915  0.1014  0.2590 -0.4849
12895TIP3    H138624   4.628   0.330   5.863 -1.4567 -0.0661 -2.0489
12895TIP3    H238625   4.526   0.318   5.975 -1.1815 -0.2000 -1.8127
12896TIP3   OH238626   3.547   0.979   5.931  0.3165  0.5439  0.6953
12896TIP3    H138627   3.548   0.924   5.852  3.3065  1.8241 -0.2420
12896TIP3    H238628   3.532   1.067   5.897  1.0895  1.0281  1.6129
12897TIP3   OH238629   5.198   0.421   6.354 -0.3055  0.1028 -0.1238
12897TIP3    H138630   5.271   0.467   6.393  0.3762 -0.2544 -0.9565
12897TIP3    H238631   5.143   0.394   6.428  1.0932 -0.8031  0.6021
12898TIP3   OH238632   6.348   0.891   3.667  0.3161 -0.0492  0.2330
12898TIP3    H138633   6.338   0.933   3.752 -1.4258  0.0234  0.0063
12898TIP3    H238634   6.376   0.962   3.609  0.3401  0.1609  0.4971
12899TIP3   OH238635   1.767   5.319   4.340  0.0762  0.3151 -0.4795
12899TIP3    H138636   1.833   5.381   4.372  0.3571 -0.4194  0.3917
12899TIP3    H238637   1.763   5.336   4.245  0.0830  1.7133 -0.2436
12900TIP3   OH238638   1.803   6.485   6.473 -0.2885  0.0409  0.1507
12900TIP3    H138639   1.868   6.486   6.403 -1.4780 -4.0263 -1.1434
12900TIP3    H238640   1.853   6.494   6.554  1.5111  0.4648 -0.9911
12901TIP3   OH238641   1.401   7.716   6.835 -0.0865 -0.2119  0.0813
12901TIP3    H138642   1.471   7.662   6.799  0.2970  0.6426 -0.4675
12901TIP3    H238643   1.333   7.653   6.860  1.0299 -1.0823  0.9823
12902TIP3   OH238644   6.306   1.342   6.417  0.4555 -0.2288  0.4154
12902TIP3    H138645   6.371   1.404   6.449  1.6214 -1.2976  0.1545
12902TIP3    H238646   6.271   1.382   6.337  1.6579 -0.2094 -0.0981
12903TIP3   OH238647   0.489   6.308   5.659 -0.1587 -0.2170  0.1473
12903TIP3    H138648   0.504   6.281   5.569 -0.0739  0.3486 -0.0070
12903TIP3    H238649   0.538   6.389   5.669 -1.9544  0.9115  0.0532
12904TIP3   OH238650   8.038   4.333   0.440  0.3207  0.0055  0.1100
12904TIP3    H138651   8.105   4.379   0.389  0.8655 -0.2983  0.5635
12904TIP3    H238652   7.967   4.319   0.377  0.7484  0.1705 -0.4179
12905TIP3   OH238653   2.189   7.227   6.292 -0.3963 -0.0235  0.9140
12905TIP3    H138654   2.122   7.275   6.342 -0.7980  1.4058 -0.9135
12905TIP3    H238655   2.139   7.162   6.242 -0.0124 -1.3541  2.2442
12906TIP3   OH238656   1.597   6.217   5.896 -0.0661  0.3777 -0.2634
12906TIP3    H138657   1.533   6.215   5.825  0.1095  1.1314 -0.4477
12906TIP3    H238658   1.668   6.159   5.867  0.0282  0.7272 -0.7234
12907TIP3   OH238659   3.504   7.186   6.467 -0.4988 -0.1635  0.2948
12907TIP3    H138660   3.588   7.230   6.454 -0.9866  0.5516 -0.5772
12907TIP3    H238661   3.480   7.154   6.380 -0.9821 -0.6217  0.5924
12908TIP3   OH238662   4.537   0.546   4.978 -0.0802 -0.0248  0.6100
12908TIP3    H138663   4.515   0.628   4.934  0.0601  0.3524  1.2357
12908TIP3    H238664   4.539   0.568   5.071 -0.5704 -0.8640  0.8245
12909TIP3   OH238665   0.998   7.789   4.102  0.1113 -0.2488  0.3200
12909TIP3    H138666   0.944   7.710   4.088 -0.4828  0.1044  0.5808
12909TIP3    H238667   0.942   7.860   4.071  0.7862  0.0374 -0.2381
12910TIP3   OH238668   1.636   7.716   3.356 -0.4692  0.1569 -0.7314
12910TIP3    H138669   1.678   7.783   3.302 -1.9834  0.2918 -1.7775
12910TIP3    H238670   1.566   7.762   3.402 -0.4693 -0.3761 -0.1897
12911TIP3   OH238671   5.341   1.438   5.539 -0.7436  0.5778  0.0536
12911TIP3    H138672   5.316   1.507   5.601  0.9321  1.1147  0.1605
12911TIP3    H238673   5.311   1.470   5.454  0.1573  1.5288  0.0822
12912TIP3   OH238674   6.953   4.515   0.020  0.0574 -1.0093 -0.3356
12912TIP3    H138675   6.934   4.493   0.112 -0.0864  0.0952 -0.0911
12912TIP3    H238676   7.044   4.488   0.008  0.3633 -0.3494  0.4021
12913TIP3   OH238677   3.811   0.023   5.901 -0.0232 -0.1073  0.3978
12913TIP3    H138678   3.830   0.101   5.849  1.9280 -0.1048  1.0452
12913TIP3    H238679   3.728  -0.009   5.867  1.1938 -0.1300 -2.7599
12914TIP3   OH238680   5.503   0.206   5.454 -0.9040  0.4887 -0.2388
12914TIP3    H138681   5.424   0.156   5.472 -1.6032  1.9988  1.0730
12914TIP3    H238682   5.540   0.224   5.540 -0.0574  1.2270 -0.7448
12915TIP3   OH238683   5.254   0.156   4.968 -0.2643  0.6575 -0.1289
12915TIP3    H138684   5.341   0.181   4.999 -0.0785 -1.6542  1.4161
12915TIP3    H238685   5.269   0.121   4.880  0.1206  1.8394 -0.5318
12916TIP3   OH238686   5.320   0.445   6.945  0.1410  0.2577 -0.3825
12916TIP3    H138687   5.280   0.396   6.873  2.6755  0.0462 -1.6847
12916TIP3    H238688   5.292   0.536   6.931  0.0034  0.0922 -1.1732
12917TIP3   OH238689   5.389   0.689   4.292  0.1647 -0.5392  0.4834
12917TIP3    H138690   5.478   0.663   4.272  0.0277 -0.5598 -0.0954
12917TIP3    H238691   5.371   0.651   4.379  0.0438 -2.1471 -0.2344
12918TIP3   OH238692   8.061   2.570   1.279  0.2908  0.3987 -0.1353
12918TIP3    H138693   8.018   2.504   1.334  0.4061  1.5819  1.4263
12918TIP3    H238694   8.136   2.524   1.241 -0.9386 -0.9920 -0.9029
12919TIP3   OH238695   2.604   7.628   5.517  1.1704 -0.4152 -0.8872
12919TIP3    H138696   2.635   7.716   5.495  0.6498 -0.3148 -1.2140
12919TIP3    H238697   2.593   7.584   5.433  1.1840 -0.7135 -0.7352
12920TIP3   OH238698   8.129   4.092   0.561 -0.2936  0.3548 -0.2106
12920TIP3    H138699   8.109   4.181   0.531 -2.1599  0.3956  1.0392
12920TIP3    H238700   8.097   4.035   0.492 -0.4947  0.6074 -0.3245
12921TIP3   OH238701   7.183   4.622   0.845 -0.3575  0.0663 -0.2133
12921TIP3    H138702   7.140   4.643   0.928  2.7868 -0.0772  1.5111
12921TIP3    H238703   7.175   4.702   0.793 -1.8203  0.3611  0.4337
12922TIP3   OH238704   8.368   3.548   1.579 -0.1049 -0.4743  0.1200
12922TIP3    H138705   8.380   3.534   1.673 -1.2406 -1.7875  0.1034
12922TIP3    H238706   8.330   3.465   1.548  1.2557 -0.4389 -1.6813
12923TIP3   OH238707   3.449   7.965   6.329 -0.2538  0.7029 -0.2818
12923TIP3    H138708   3.479   7.876   6.348  1.3226  1.0485 -1.0208
12923TIP3    H238709   3.358   7.967   6.358 -0.4459 -1.2902 -0.6985
12924TIP3   OH238710   5.485   2.665   5.096  0.3112 -0.1683  0.6062
12924TIP3    H138711   5.524   2.734   5.043 -0.7196  0.3029  0.4533
12924TIP3    H238712   5.457   2.599   5.032 -2.2687  1.0647  0.4128
12925TIP3   OH238713   7.587   3.788   0.991 -0.0554 -0.1488 -0.4895
12925TIP3    H138714   7.632   3.703   0.986  0.9319  0.3442 -0.2386
12925TIP3    H238715   7.578   3.814   0.899  0.8446  0.0793 -0.5246
12926TIP3   OH238716   7.193   3.347   1.296  0.3242  0.1274 -0.5116
12926TIP3    H138717   7.201   3.439   1.323 -1.9832 -0.7324  3.4300
12926TIP3    H238718   7.282   3.313   1.303  0.9011  1.6241 -0.2980
12927TIP3   OH238719   7.625   2.505   1.205  0.3786 -0.3950 -0.9488
12927TIP3    H138720   7.642   2.596   1.230 -0.6491 -0.2804 -0.6110
12927TIP3    H238721   7.553   2.512   1.142 -1.5482 -1.1441  1.1041
12928TIP3   OH238722   4.275   7.958   5.157  0.0072  0.0662 -0.3201
12928TIP3    H138723   4.311   8.010   5.085 -1.0026 -0.8020 -1.4942
12928TIP3    H238724   4.337   7.886   5.169 -0.1819 -0.1829 -0.8191
12929TIP3   OH238725   2.085   6.957   6.209 -0.0814  0.6328  0.2428
12929TIP3    H138726   2.157   6.899   6.185  0.2821  0.3659  1.9389
12929TIP3    H238727   2.021   6.900   6.252 -0.4911  1.1778  0.3600
12930TIP3   OH238728   3.888   0.048   4.960  0.1130  0.6405 -0.0097
12930TIP3    H138729   3.940  -0.010   5.015 -1.9238 -0.1827  1.1280
12930TIP3    H238730   3.945   0.121   4.940  2.2061 -0.9771 -0.1195
12931TIP3   OH238731   0.566   5.769   6.868  0.5186  0.3457  0.0085
12931TIP3    H138732   0.632   5.701   6.882  0.3206  0.2866  0.6630
12931TIP3    H238733   0.525   5.781   6.954 -0.5862  0.1196 -0.4763
12932TIP3   OH238734   7.917   4.121   0.774 -0.4140  0.1200  0.7022
12932TIP3    H138735   7.831   4.083   0.759 -0.2429  0.0142 -0.0158
12932TIP3    H238736   7.964   4.107   0.692  1.7989 -3.7772  2.4811
12933TIP3   OH238737   7.776   7.803   1.673 -0.5532  0.8500 -0.1735
12933TIP3    H138738   7.782   7.832   1.582  1.0184 -0.2567 -0.4486
12933TIP3    H238739   7.836   7.729   1.678 -1.9997 -0.2543  1.3188
12934TIP3   OH238740   6.977   0.435   6.164  0.1301 -0.5055  0.1438
12934TIP3    H138741   6.882   0.439   6.160 -0.0110 -2.5236  0.9738
12934TIP3    H238742   6.996   0.388   6.245  1.7871 -1.5342 -0.8201
12935TIP3   OH238743   7.732   4.679   0.999 -0.1869  0.0110  0.2392
12935TIP3    H138744   7.695   4.619   0.934  1.3062 -1.3779  0.6286
12935TIP3    H238745   7.666   4.682   1.069 -1.8574  1.6126 -1.3355
12936TIP3   OH238746   4.862   1.411   4.594 -0.4790 -0.0478 -0.2350
12936TIP3    H138747   4.809   1.466   4.537  0.8476  2.0831  0.5374
12936TIP3    H238748   4.828   1.322   4.581 -3.2333  1.0663 -0.8304
12937TIP3   OH238749   3.390   7.734   4.205  0.3083  0.3337 -0.6026
12937TIP3    H138750   3.315   7.789   4.185  0.1362 -0.1633 -1.3497
12937TIP3    H238751   3.466   7.787   4.180  0.2457  1.0795  0.7428
12938TIP3   OH238752   2.153   7.456   4.770 -0.3022  0.2778  0.0447
12938TIP3    H138753   2.095   7.380   4.766  1.0512 -0.6884 -1.9350
12938TIP3    H238754   2.165   7.482   4.679 -0.4526  2.6702  0.6674
12939TIP3   OH238755   6.983   0.305   5.902  0.5975 -0.3698  0.0169
12939TIP3    H138756   6.992   0.354   5.984 -1.7491 -1.2335  0.8533
12939TIP3    H238757   7.054   0.241   5.904  1.0833  0.1900  0.9485
12940TIP3   OH238758   7.842   2.035   0.461 -0.1730  0.4114  0.0626
12940TIP3    H138759   7.812   2.049   0.551 -1.2416 -0.7877 -0.0829
12940TIP3    H238760   7.855   2.123   0.426  0.1355  0.8955  1.3507
12941TIP3   OH238761   5.537   0.932   6.895  0.5985 -0.3445 -0.5320
12941TIP3    H138762   5.609   0.933   6.831  2.2626  0.8001  1.2830
12941TIP3    H238763   5.507   1.023   6.898  0.5616 -0.3788  0.3071
12942TIP3   OH238764   8.217   4.468   0.295  0.4126 -0.0824 -0.0827
12942TIP3    H138765   8.217   4.442   0.203 -0.4784 -0.3799  0.0023
12942TIP3    H238766   8.217   4.564   0.293 -0.9733 -0.0865 -0.3908
12943TIP3   OH238767   5.883   1.004   6.206  0.5141  0.2617 -0.1249
12943TIP3    H138768   5.968   1.047   6.199  0.6132 -0.1754 -1.7006
12943TIP3    H238769   5.828   1.067   6.253  1.6830  0.5668  0.8465
12944TIP3   OH238770   4.102   7.876   6.125  0.8808  0.0196  0.1864
12944TIP3    H138771   4.007   7.868   6.141  0.7774  2.1528  0.7074
12944TIP3    H238772   4.128   7.955   6.170  2.8999 -0.3991 -0.1860
12945TIP3   OH238773   2.527   7.229   4.043 -0.0683 -0.4358  0.7265
12945TIP3    H138774   2.545   7.274   4.126 -0.1929 -1.7588  1.4831
12945TIP3    H238775   2.554   7.139   4.059  1.5721 -0.3258 -1.2504
12946TIP3   OH238776   6.376   0.202   6.285  0.4995  0.5616 -0.1648
12946TIP3    H138777   6.358   0.116   6.322  1.3969  0.6112  0.4009
12946TIP3    H238778   6.380   0.260   6.361  2.2113  0.6917 -0.3248
12947TIP3   OH238779   5.189   1.066   4.953 -0.1347  0.3356  0.9105
12947TIP3    H138780   5.232   1.044   4.870 -1.5862  0.3936  0.1210
12947TIP3    H238781   5.162   1.157   4.943 -1.0832  0.0871  1.0853
12948TIP3   OH238782   1.252   4.410   0.110  0.0709 -0.1714  0.0071
12948TIP3    H138783   1.212   4.323   0.104 -0.9792  0.3539 -0.7478
12948TIP3    H238784   1.345   4.395   0.095 -0.1404 -1.1303 -0.3607
12949TIP3   OH238785   6.812   4.155   0.475 -0.3125 -0.2739 -0.2525
12949TIP3    H138786   6.906   4.148   0.463 -0.2708  0.2449 -0.2221
12949TIP3    H238787   6.777   4.076   0.433  0.1599 -0.6594  0.0774
12950TIP3   OH238788   1.189   6.385   5.674  0.0075 -0.0103  0.7236
12950TIP3    H138789   1.194   6.395   5.769 -1.2092 -1.2448  0.9348
12950TIP3    H238790   1.128   6.313   5.661 -0.0676  0.3484 -1.0106
12951TIP3   OH238791   0.422   4.595   0.166  0.0793 -0.2058  1.2928
12951TIP3    H138792   0.428   4.672   0.222  0.8748  0.1504  0.7302
12951TIP3    H238793   0.402   4.630   0.079  2.7586 -0.4273  0.5383
12952TIP3   OH238794   6.490   1.023   5.424 -0.5396  0.0116 -0.0779
12952TIP3    H138795   6.443   1.101   5.451 -1.0996  0.0641 -1.1843
12952TIP3    H238796   6.478   0.961   5.496 -0.1302  0.9235  0.7764
12953TIP3   OH238797   4.754   0.414   6.134 -0.5706 -0.3253 -0.2759
12953TIP3    H138798   4.795   0.496   6.107  2.3344 -2.2802 -2.0528
12953TIP3    H238799   4.669   0.413   6.089 -0.1433  1.2095 -1.1317
12954TIP3   OH238800   7.475   3.423   0.655  0.1569 -0.2618 -0.6354
12954TIP3    H138801   7.536   3.393   0.722  0.2843 -1.0909 -1.1142
12954TIP3    H238802   7.424   3.493   0.698 -0.6726 -1.6812  0.7441
12955TIP3   OH238803   0.442   2.989   1.348  0.6034 -0.0205  0.0986
12955TIP3    H138804   0.444   2.899   1.314  1.7275 -0.0840  0.3043
12955TIP3    H238805   0.413   3.042   1.274 -0.7571 -0.6348  0.1776
12956TIP3   OH238806   5.724   0.706   0.785  0.2570  0.1196 -0.3091
12956TIP3    H138807   5.663   0.777   0.804  0.9478  0.6256  0.0161
12956TIP3    H238808   5.691   0.668   0.703  0.5367  1.5499 -1.0965
12957TIP3   OH238809   3.544   7.153   4.178 -0.2518 -0.3605 -0.6669
12957TIP3    H138810   3.457   7.191   4.162 -0.4665 -0.1213  0.9888
12957TIP3    H238811   3.571   7.119   4.092 -2.1477 -0.7999 -1.1164
12958TIP3   OH238812   7.865   3.691   0.826  0.0456  0.4746  0.0250
12958TIP3    H138813   7.811   3.732   0.759 -1.8337 -0.4473  0.9275
12958TIP3    H238814   7.919   3.627   0.778  0.9509  1.9727 -0.9848
12959TIP3   OH238815   0.813   5.514   5.313 -0.5177 -0.2414 -0.5547
12959TIP3    H138816   0.812   5.473   5.400  0.9661 -0.2857 -0.5453
12959TIP3    H238817   0.795   5.606   5.329  1.6502  0.0952  0.0064
12960TIP3   OH238818   0.444   5.161   4.996 -0.2284  0.0394 -0.3767
12960TIP3    H138819   0.366   5.129   4.950 -0.3828  0.9486 -0.7548
12960TIP3    H238820   0.493   5.209   4.929  1.0282 -1.1432 -0.3219
12961TIP3   OH238821   2.534   6.875   4.954 -0.4053 -0.4679  0.4265
12961TIP3    H138822   2.600   6.824   4.906  0.0666 -1.6882  2.3246
12961TIP3    H238823   2.575   6.893   5.039 -1.3789  1.3476  0.5416
12962TIP3   OH238824   4.381   7.898   3.827 -0.6933  0.1947  0.3351
12962TIP3    H138825   4.474   7.916   3.834 -1.0120  2.3608 -0.6447
12962TIP3    H238826   4.350   7.895   3.918  0.5842 -2.1325  0.7222
12963TIP3   OH238827   7.034   0.102   6.221  0.5428 -0.3826  0.1797
12963TIP3    H138828   7.067   0.131   6.137  0.8991  1.2175  0.8515
12963TIP3    H238829   7.111   0.100   6.278 -0.0322  0.6685  1.0221
12964TIP3   OH238830   7.446   3.820   0.740 -0.7342  0.1053 -0.0852
12964TIP3    H138831   7.359   3.782   0.744 -0.3129 -0.9420 -0.7340
12964TIP3    H238832   7.481   3.794   0.655  0.4475 -0.0181  0.4180
12965TIP3   OH238833   5.324   1.042   5.785  0.2350 -0.1750 -0.2658
12965TIP3    H138834   5.249   0.986   5.764 -1.4485  1.7780  0.3962
12965TIP3    H238835   5.317   1.058   5.879  1.3012  0.2810 -0.2606
12966TIP3   OH238836   8.468   3.940   0.306  0.2465  0.1057  0.0258
12966TIP3    H138837   8.488   3.932   0.399 -1.7437 -0.6855  0.4195
12966TIP3    H238838   8.529   3.879   0.264  3.0200  2.4434  0.4905
12967TIP3   OH238839   4.626   0.756   6.336  0.4871  0.0844  0.0620
12967TIP3    H138840   4.599   0.696   6.406  0.5165  1.0660  0.9335
12967TIP3    H238841   4.594   0.715   6.256 -0.3556 -0.6101  0.7352
12968TIP3   OH238842   6.654   0.903   5.879  1.0152  0.0891 -0.1141
12968TIP3    H138843   6.697   0.880   5.797  1.3297  2.0595 -0.5108
12968TIP3    H238844   6.717   0.878   5.947  1.2986 -0.3242 -0.5242
12969TIP3   OH238845   3.824   6.468   4.563 -0.3851 -0.3321  0.3354
12969TIP3    H138846   3.797   6.388   4.518  0.6150 -1.1165  1.1092
12969TIP3    H238847   3.801   6.454   4.655  0.6035 -0.1019  0.6263
12970TIP3   OH238848   3.376   7.529   6.764  0.0121 -0.6379 -0.2687
12970TIP3    H138849   3.423   7.472   6.824 -1.0123 -1.7943 -0.5371
12970TIP3    H238850   3.422   7.613   6.769  0.5615 -1.0140  1.3454
12971TIP3   OH238851   7.023   3.729   1.375  0.4276  0.0056  0.0580
12971TIP3    H138852   6.963   3.761   1.308  1.3432  1.5801 -0.0349
12971TIP3    H238853   6.967   3.717   1.453  0.0437  1.8328  0.0909
12972TIP3   OH238854   1.846   4.175   0.443  0.3649  0.6099 -0.3900
12972TIP3    H138855   1.920   4.184   0.504 -1.5017  1.0473  1.8787
12972TIP3    H238856   1.818   4.084   0.454  0.1702  0.6253 -0.7603
12973TIP3   OH238857   4.701   1.804   4.028 -0.0001  0.2983 -0.1286
12973TIP3    H138858   4.667   1.853   4.102 -2.2436 -0.9542 -0.2652
12973TIP3    H238859   4.788   1.841   4.012 -1.2673  3.6434  0.2580
12974TIP3   OH238860   4.311   7.416   5.923  0.9867  0.2254  0.3843
12974TIP3    H138861   4.275   7.502   5.901  1.3305  0.8585  2.1768
12974TIP3    H238862   4.372   7.396   5.852 -2.1765 -0.4834 -2.2660
12975TIP3   OH238863   4.564   0.093   5.642 -0.3485 -0.4616  0.1605
12975TIP3    H138864   4.636   0.072   5.583  1.9643 -0.1311  2.7499
12975TIP3    H238865   4.513   0.013   5.648 -0.1082 -0.7544 -1.5595
12976TIP3   OH238866   4.496   7.001   5.891  0.0420 -0.6168  0.1060
12976TIP3    H138867   4.412   6.994   5.846 -0.2030 -0.6995  0.5692
12976TIP3    H238868   4.537   7.078   5.853 -0.2627 -0.5513 -0.0948
12977TIP3   OH238869   4.120   7.958   5.389 -0.3422  0.0562  0.2743
12977TIP3    H138870   4.173   7.942   5.310  0.1395  0.9065  0.4186
12977TIP3    H238871   4.029   7.957   5.357 -0.1710 -0.0434 -0.2190
12978TIP3   OH238872   6.732   1.674   6.860  0.2185 -0.0763  1.1663
12978TIP3    H138873   6.746   1.756   6.813 -1.3699 -0.2184  0.4266
12978TIP3    H238874   6.772   1.608   6.803 -2.6432 -0.3838 -0.5733
12979TIP3   OH238875   0.031   1.205   5.957  0.2117 -0.4225 -0.0452
12979TIP3    H138876  -0.062   1.189   5.944 -0.1544  3.1129 -2.4971
12979TIP3    H238877   0.036   1.250   6.041 -0.4717  0.5646 -0.5220
12980TIP3   OH238878   4.058   5.951   5.978  0.0498 -0.1584  0.0616
12980TIP3    H138879   4.059   5.858   5.956  0.4020 -0.1574  0.0654
12980TIP3    H238880   4.113   5.992   5.911 -0.2091  0.0639 -0.0147
12981TIP3   OH238881   2.876   6.509   4.417  0.7043 -0.1334 -0.2338
12981TIP3    H138882   2.909   6.538   4.332  0.4258  1.0879  0.0716
12981TIP3    H238883   2.787   6.545   4.422 -0.0089 -1.8565 -0.2708
12982TIP3   OH238884   7.777   1.019   6.739 -0.3787  0.2745  0.3124
12982TIP3    H138885   7.737   1.106   6.731 -2.2935 -0.7191 -1.5009
12982TIP3    H238886   7.841   1.015   6.668  2.0947  1.3620  2.3928
12983TIP3   OH238887   7.356   0.352   5.893  0.7074  0.4482 -0.1907
12983TIP3    H138888   7.331   0.335   5.802  1.5054  0.4678 -0.4108
12983TIP3    H238889   7.315   0.281   5.942 -1.7750  1.7638 -0.2404
12984TIP3   OH238890   5.526   7.712   6.934 -0.4533  0.4009 -0.2511
12984TIP3    H138891   5.438   7.711   6.971  1.0474 -0.0951  3.5044
12984TIP3    H238892   5.543   7.804   6.914 -2.5658  0.2511 -3.0881
12985TIP3   OH238893   6.450   1.481   4.102 -0.2326  0.0337 -0.8046
12985TIP3    H138894   6.544   1.481   4.118 -0.5336  3.1561  1.4537
12985TIP3    H238895   6.413   1.430   4.175 -0.2411 -2.8097 -2.7007
12986TIP3   OH238896   6.513   0.058   5.477  0.0401 -0.1872  0.3652
12986TIP3    H138897   6.499   0.109   5.557  0.9107  0.4203  0.1302
12986TIP3    H238898   6.483  -0.030   5.500  0.4973 -0.0746  1.4391
12987TIP3   OH238899   6.811   1.415   4.642  0.2846  0.1103 -0.1741
12987TIP3    H138900   6.880   1.481   4.632  0.5297 -0.1473 -0.2014
12987TIP3    H238901   6.859   1.333   4.657 -0.0281  0.1338  1.0662
12988TIP3   OH238902   4.410   0.589   5.857 -0.5634 -0.0418 -0.5040
12988TIP3    H138903   4.339   0.531   5.831  0.0030 -1.3987  0.8622
12988TIP3    H238904   4.482   0.530   5.880  0.4171  1.2452 -0.1797
12989TIP3   OH238905   6.295   1.622   2.403 -0.1463  0.1117 -0.1179
12989TIP3    H138906   6.334   1.676   2.472  3.2148 -5.2174  2.4899
12989TIP3    H238907   6.215   1.587   2.442  0.0809 -0.3763 -0.0801
12990TIP3   OH238908   5.562   1.064   5.661  0.3670 -0.3268  0.2675
12990TIP3    H138909   5.549   1.130   5.593  1.1024 -0.3015  0.1411
12990TIP3    H238910   5.477   1.056   5.704  0.5225  1.3937  0.9128
12991TIP3   OH238911   4.879   6.568   4.512 -0.0116  0.5556  0.4715
12991TIP3    H138912   4.835   6.491   4.546  0.3391  0.1404  0.0037
12991TIP3    H238913   4.879   6.630   4.584 -1.3838  0.5717  0.4694
12992TIP3   OH238914   7.451   2.937   0.426  0.2477 -0.0240 -0.0534
12992TIP3    H138915   7.538   2.972   0.409  0.6208 -0.7859  0.2808
12992TIP3    H238916   7.403   3.010   0.467  0.1698  0.9586 -1.8587
12993TIP3   OH238917   1.272   0.935   4.378 -0.8533  0.0403  0.1693
12993TIP3    H138918   1.351   0.890   4.411 -0.1997  1.8660  1.1716
12993TIP3    H238919   1.285   0.938   4.283 -0.4057 -0.9456  0.1847
12994TIP3   OH238920   7.566   0.889   6.848 -0.2184  0.1359  0.0676
12994TIP3    H138921   7.633   0.935   6.797  0.5118  0.4303  1.2618
12994TIP3    H238922   7.560   0.940   6.929 -3.5067  1.4296 -0.9320
12995TIP3   OH238923   6.640   0.407   6.363 -0.2073  0.1961  0.2262
12995TIP3    H138924   6.692   0.326   6.368 -0.8956 -0.3416 -1.0608
12995TIP3    H238925   6.671   0.450   6.284 -1.2595  0.1876 -0.1987
12996TIP3   OH238926   3.818   6.764   5.826 -0.2625  0.9464  0.1229
12996TIP3    H138927   3.852   6.686   5.783 -1.9592 -0.0394  0.5245
12996TIP3    H238928   3.890   6.794   5.882  0.1955 -0.7010  0.4557
12997TIP3   OH238929   1.390   6.231   0.197  0.0511 -0.7073  0.0957
12997TIP3    H138930   1.405   6.237   0.292  0.0481 -1.0306  0.1159
12997TIP3    H238931   1.383   6.138   0.179  2.6550 -0.7885 -0.6287
12998TIP3   OH238932   7.867   3.692   4.625  0.3824 -0.0121  0.4009
12998TIP3    H138933   7.884   3.784   4.642  0.1632  0.1494 -0.2472
12998TIP3    H238934   7.816   3.691   4.544 -0.2975 -0.6524  0.8209
12999TIP3   OH238935   0.952   1.261   5.963  0.8397  0.0943 -0.4910
12999TIP3    H138936   0.968   1.355   5.960  0.3499  0.2777  1.8479
12999TIP3    H238937   1.035   1.223   5.991  1.0063 -0.1675 -1.3282
13000TIP3   OH238938   5.704   7.296   4.606 -0.3119  0.0911  0.6876
13000TIP3    H138939   5.688   7.269   4.516  0.5704 -0.4684  0.6830
13000TIP3    H238940   5.637   7.252   4.658 -0.0589 -0.5912  0.4428
13001TIP3   OH238941   5.581   0.659   3.587  0.0524 -0.0148  0.2357
13001TIP3    H138942   5.642   0.722   3.625 -2.0981  1.3291  1.5473
13001TIP3    H238943   5.581   0.586   3.648  0.0596  0.1321  0.4105
13002TIP3   OH238944   0.218   5.112   0.560  0.5271  0.0555 -0.2634
13002TIP3    H138945   0.132   5.148   0.581  2.3415  3.8732  1.0650
13002TIP3    H238946   0.242   5.152   0.477  0.9155 -1.3045 -0.8314
13003TIP3   OH238947   3.044   7.428   6.147 -0.2130  0.6748 -0.6064
13003TIP3    H138948   3.095   7.357   6.108 -0.2026 -0.5459  1.5258
13003TIP3    H238949   3.089   7.508   6.120 -0.3414 -0.0921 -3.2146
13004TIP3   OH238950   8.129   1.170   4.931 -0.0315  0.2938  0.5574
13004TIP3    H138951   8.137   1.074   4.937 -0.5910  0.3041  1.6651
13004TIP3    H238952   8.132   1.199   5.022  1.3969  1.4433  0.1490
13005TIP3   OH238953   1.703   7.674   6.807  0.8548 -0.9267 -0.0526
13005TIP3    H138954   1.705   7.695   6.714  1.2249 -0.6402  0.0220
13005TIP3    H238955   1.696   7.578   6.810  2.3293 -1.0495 -0.3641
13006TIP3   OH238956   8.440   0.062   3.718  0.0246  0.0539  0.2909
13006TIP3    H138957   8.462  -0.031   3.713  0.4446  0.2347 -2.0306
13006TIP3    H238958   8.349   0.064   3.745  0.4764 -0.9750  1.9582
13007TIP3   OH238959   5.445   1.114   5.033  0.0305 -0.3871  0.0763
13007TIP3    H138960   5.365   1.095   4.984 -0.8065 -0.7169  1.5472
13007TIP3    H238961   5.433   1.069   5.117 -0.0857  3.0457  1.9799
13008TIP3   OH238962   5.572   2.934   4.949 -0.1160 -0.6693 -0.1239
13008TIP3    H138963   5.480   2.958   4.942  0.5526  1.4326 -2.4290
13008TIP3    H238964   5.602   2.977   5.029 -1.0333 -1.0678  0.4428
13009TIP3   OH238965   2.705   3.710   1.724  0.0035  0.1441 -0.1253
13009TIP3    H138966   2.740   3.685   1.638 -3.0311 -1.7123 -0.9030
13009TIP3    H238967   2.771   3.679   1.786  1.8381  0.7176 -1.7112
13010TIP3   OH238968   4.850   1.283   6.372 -0.2311 -0.3291 -0.3955
13010TIP3    H138969   4.768   1.237   6.385 -1.4684  1.7618 -0.6120
13010TIP3    H238970   4.908   1.248   6.441 -1.9051 -0.4124  1.0062
13011TIP3   OH238971   6.756   1.056   6.800 -0.5430 -0.0209  0.7329
13011TIP3    H138972   6.670   1.063   6.844 -0.4701  0.6533  0.7840
13011TIP3    H238973   6.735   1.048   6.707 -0.6874 -0.9267  0.8452
13012TIP3   OH238974   3.395   5.225   2.087  0.1396 -0.3887 -0.0690
13012TIP3    H138975   3.372   5.280   2.012 -0.8901 -0.4402  0.1978
13012TIP3    H238976   3.317   5.172   2.102  0.6030 -0.8858  0.5942
13013TIP3   OH238977   6.831   0.103   6.623 -0.1911 -0.4316 -0.9852
13013TIP3    H138978   6.792   0.056   6.550 -1.3021  0.0646 -0.7211
13013TIP3    H238979   6.759   0.120   6.683  0.3615  0.7741 -0.6346
13014TIP3   OH238980   6.827   0.709   2.432 -0.4630  0.5770  0.1529
13014TIP3    H138981   6.824   0.673   2.521 -1.9749 -0.4848 -0.3012
13014TIP3    H238982   6.776   0.790   2.438 -2.5110 -0.6444 -0.2155
13015TIP3   OH238983   4.092   6.974   5.249 -0.4585  0.0899  0.1309
13015TIP3    H138984   4.007   6.945   5.216 -0.5391 -0.3044  0.6722
13015TIP3    H238985   4.155   6.911   5.213 -0.4173  0.2648 -0.1069
13016TIP3   OH238986   7.576   0.035   5.959  0.0326  0.5012  0.5553
13016TIP3    H138987   7.600   0.110   6.015  1.6618 -0.2913  0.9400
13016TIP3    H238988   7.482   0.025   5.973 -0.1768  2.3503  0.6580
13017TIP3   OH238989   3.871   7.316   6.208 -0.1644 -0.1576 -0.0028
13017TIP3    H138990   3.873   7.287   6.117  0.4780  1.4266 -0.5028
13017TIP3    H238991   3.945   7.376   6.217  0.4126 -1.0929  1.8479
13018TIP3   OH238992   5.068   6.221   6.438  0.3188  0.1908 -0.0967
13018TIP3    H138993   5.002   6.152   6.432  1.6878 -1.1363 -0.5963
13018TIP3    H238994   5.097   6.233   6.347  1.5434 -0.0648  0.2488
13019TIP3   OH238995   1.122   5.320   1.308  0.2330 -0.3128  0.0119
13019TIP3    H138996   1.145   5.375   1.383  0.9199  0.2160 -0.5789
13019TIP3    H238997   1.180   5.349   1.238  1.1897 -2.3523 -0.0916
13020TIP3   OH238998   0.257   2.227   6.639 -0.2649 -0.2346 -0.1848
13020TIP3    H138999   0.262   2.133   6.660  3.3679 -0.3593 -1.2514
13020TIP3    H239000   0.283   2.232   6.548  0.1473  1.8856  0.0412
13021TIP3   OH239001   2.083   6.420   6.423 -0.3889 -0.4537  0.2819
13021TIP3    H139002   2.100   6.509   6.453  0.7057 -1.0227  1.3847
13021TIP3    H239003   2.116   6.417   6.334 -0.0472  0.1185  0.3905
13022TIP3   OH239004   6.977   0.700   4.815 -0.1890 -0.0140 -0.2163
13022TIP3    H139005   6.919   0.694   4.740 -1.1191 -0.2675  0.5067
13022TIP3    H239006   6.919   0.695   4.891  0.8449 -1.0839  0.5347
13023TIP3   OH239007   4.687   1.005   6.875  0.0788 -0.1546  0.0669
13023TIP3    H139008   4.691   1.096   6.848  0.9131  0.3251  1.7362
13023TIP3    H239009   4.776   0.972   6.864 -0.5371 -1.2276 -1.9757
13024TIP3   OH239010   4.775   0.775   5.185 -0.1573 -0.1845  0.2168
13024TIP3    H139011   4.753   0.695   5.234 -0.9366  1.0704  1.9688
13024TIP3    H239012   4.870   0.770   5.172 -0.3636 -1.9809 -0.7764
13025TIP3   OH239013   6.008   0.669   5.179  0.1697 -0.5676 -0.1107
13025TIP3    H139014   6.055   0.706   5.105 -2.5024  0.4258 -1.3741
13025TIP3    H239015   5.929   0.630   5.141  0.1147 -2.5352  1.8918
13026TIP3   OH239016   3.614   7.680   6.127 -0.0309  0.5924 -0.0742
13026TIP3    H139017   3.631   7.588   6.150 -2.2290 -0.4150 -2.2034
13026TIP3    H239018   3.518   7.687   6.126  0.0953  2.5680 -1.2143
13027TIP3   OH239019   0.665   7.377   5.295  0.3930  0.1524 -0.3338
13027TIP3    H139020   0.758   7.361   5.315  0.3189 -0.8135 -0.6994
13027TIP3    H239021   0.652   7.470   5.313  1.1780  0.0742  0.7170
13028TIP3   OH239022   8.152   0.117   5.466  0.0054  0.3308  0.2468
13028TIP3    H139023   8.095   0.061   5.413 -0.2416 -0.0634  0.9191
13028TIP3    H239024   8.162   0.069   5.549  1.1073  0.5170  0.2286
13029TIP3   OH239025   8.475   0.265   5.719 -0.4940  1.0473 -0.0922
13029TIP3    H139026   8.387   0.298   5.736 -1.0996 -0.7013  0.3284
13029TIP3    H239027   8.471   0.233   5.628 -1.0979 -1.4384  0.7764
13030TIP3   OH239028   6.879   0.047   3.319 -0.3019  0.1534  0.4222
13030TIP3    H139029   6.795   0.058   3.275 -0.8031 -1.7201  0.8680
13030TIP3    H239030   6.912   0.136   3.330 -1.7916  0.8571 -0.5741
13031TIP3   OH239031   1.659   7.395   6.781 -0.4210 -0.1397 -0.6588
13031TIP3    H139032   1.732   7.336   6.801  0.0598  0.9844  0.9399
13031TIP3    H239033   1.622   7.359   6.700  1.7420 -0.8625 -1.3728
13032TIP3   OH239034   7.983   1.724   6.245 -0.0526  0.3306 -0.5017
13032TIP3    H139035   7.992   1.629   6.254 -0.8476  0.3058  0.0736
13032TIP3    H239036   7.961   1.754   6.333 -1.9026  0.7858 -1.0892
13033TIP3   OH239037   2.075   7.069   5.258 -0.4080  0.1671  0.1879
13033TIP3    H139038   2.007   7.009   5.288 -1.3469  0.5084 -1.1924
13033TIP3    H239039   2.088   7.129   5.332 -1.3634 -0.1152  0.5926
13034TIP3   OH239040   5.954   0.311   6.259 -0.9450  0.5115 -0.7178
13034TIP3    H139041   5.993   0.371   6.322  0.4171  0.7199 -1.7389
13034TIP3    H239042   5.926   0.236   6.312  1.1550  0.2068  0.0108
13035TIP3   OH239043   7.597   0.739   4.604 -0.4819  0.2990 -0.5069
13035TIP3    H139044   7.607   0.648   4.577 -1.0392 -0.2726  1.1184
13035TIP3    H239045   7.533   0.776   4.543 -2.0851 -1.0770  0.3026
13036TIP3   OH239046   0.556   1.238   3.670  0.3197  0.0526  0.7397
13036TIP3    H139047   0.486   1.222   3.734 -0.6448  0.6457 -0.1566
13036TIP3    H239048   0.510   1.259   3.589  1.5105 -1.5630 -0.3906
13037TIP3   OH239049   4.648   6.980   3.804 -0.3419  0.5508 -0.0244
13037TIP3    H139050   4.692   6.945   3.727  1.1287  0.1811  0.9617
13037TIP3    H239051   4.579   6.917   3.824 -1.0564  0.9003 -1.3083
13038TIP3   OH239052   3.533   5.509   0.659  0.2757  0.3665 -0.3376
13038TIP3    H139053   3.495   5.422   0.671  1.0631  0.0122 -0.3425
13038TIP3    H239054   3.459   5.566   0.642 -0.1109 -0.6094 -2.0221
13039TIP3   OH239055   7.089   0.378   4.161 -0.3016 -0.6616 -0.0021
13039TIP3    H139056   7.128   0.297   4.128 -0.8708 -0.7550 -0.4536
13039TIP3    H239057   7.000   0.354   4.186 -1.1013  0.2257 -1.9047
13040TIP3   OH239058   4.487   7.435   5.465  0.0429  0.1657 -0.6562
13040TIP3    H139059   4.568   7.481   5.448 -1.6144  3.3102 -0.4278
13040TIP3    H239060   4.433   7.498   5.513 -1.6850 -2.6285  1.2424
13041TIP3   OH239061   6.301   1.200   2.077 -0.1103 -0.0977  0.0280
13041TIP3    H139062   6.369   1.252   2.034  0.7106 -1.4010 -0.3166
13041TIP3    H239063   6.321   1.110   2.050 -1.2313 -0.6268  0.9458
13042TIP3   OH239064   4.654   1.122   5.606  0.5976 -0.2376 -0.8251
13042TIP3    H139065   4.640   1.088   5.518 -0.7268  0.2061 -0.8018
13042TIP3    H239066   4.744   1.155   5.606  0.7654 -0.6969 -1.8527
13043TIP3   OH239067   6.759   2.540   5.953 -0.6097  0.0025 -0.2230
13043TIP3    H139068   6.802   2.596   5.889  1.3695  0.1746  1.2196
13043TIP3    H239069   6.773   2.584   6.037 -1.0085 -1.4825  0.6401
13044TIP3   OH239070   0.738   0.071   4.167 -0.3952  0.4288  0.2053
13044TIP3    H139071   0.682  -0.001   4.195  0.2851  0.1251  0.7982
13044TIP3    H239072   0.699   0.149   4.206 -1.1212  0.3835 -0.4218
13045TIP3   OH239073   2.721   3.597   0.392  0.4659  0.0519 -0.2759
13045TIP3    H139074   2.774   3.657   0.445 -0.7964  1.0156 -0.0802
13045TIP3    H239075   2.784   3.535   0.356  1.4530 -0.1150  1.6786
13046TIP3   OH239076   6.126   1.863   5.864 -0.1779  0.1137  0.2462
13046TIP3    H139077   6.147   1.953   5.890  0.6195 -0.0803  0.2732
13046TIP3    H239078   6.208   1.827   5.832 -0.7710 -0.2274 -0.8986
13047TIP3   OH239079   6.872   0.659   6.898  0.2055 -0.3335  0.0291
13047TIP3    H139080   6.952   0.606   6.910  0.0730 -0.4892  0.2293
13047TIP3    H239081   6.823   0.646   6.979  0.2187  0.1794  0.1226
13048TIP3   OH239082   7.620   0.590   5.724  0.5478  0.2092  0.0119
13048TIP3    H139083   7.573   0.661   5.768  0.3736 -0.6592  1.2664
13048TIP3    H239084   7.613   0.610   5.631  2.1610  2.8606  0.4282
13049TIP3   OH239085   4.375   7.365   6.907 -0.1089  0.1502 -0.1767
13049TIP3    H139086   4.376   7.364   7.003 -0.6606  1.4798 -0.1435
13049TIP3    H239087   4.402   7.277   6.882 -0.1590 -0.2741  1.2031
13050TIP3   OH239088   6.296   0.988   3.947 -0.4860 -0.6073  0.2428
13050TIP3    H139089   6.350   1.066   3.956 -1.0047 -0.3010  0.7687
13050TIP3    H239090   6.247   0.984   4.029 -1.2238 -0.9077 -0.2090
13051TIP3   OH239091   0.119   4.319   0.531 -0.0516 -0.3767  0.0673
13051TIP3    H139092   0.163   4.328   0.446  0.7122 -0.7879  0.4162
13051TIP3    H239093   0.177   4.364   0.593 -1.7962  2.0729  0.0006
13052TIP3   OH239094   7.053   2.312   5.423  0.3772  1.1459 -0.1157
13052TIP3    H139095   7.091   2.234   5.464 -1.0874 -0.7717 -2.2734
13052TIP3    H239096   7.102   2.385   5.461  3.7765 -0.9848 -0.1724
13053TIP3   OH239097   2.030   4.408   0.749 -0.0253 -0.2567  0.5388
13053TIP3    H139098   2.077   4.353   0.811  1.4198 -0.3199 -0.5888
13053TIP3    H239099   2.043   4.366   0.664 -0.5403  0.7491 -0.0584
13054TIP3   OH239100   3.601   7.666   5.368  0.0197 -0.6240 -0.5146
13054TIP3    H139101   3.696   7.662   5.355 -0.0239 -2.2468 -0.3377
13054TIP3    H239102   3.588   7.743   5.424  1.3058 -0.8825  0.1630
13055TIP3   OH239103   3.804   6.800   4.896 -0.1126  0.1105 -0.5002
13055TIP3    H139104   3.864   6.767   4.829  1.0562  0.5271  0.3244
13055TIP3    H239105   3.808   6.734   4.965 -0.9938 -0.1098 -0.6565
13056TIP3   OH239106   6.408   7.892   4.907 -0.0736 -0.2791 -0.0374
13056TIP3    H139107   6.368   7.962   4.855  0.3756  0.5882  0.7711
13056TIP3    H239108   6.501   7.913   4.908  0.1259 -1.1622 -0.1935
13057TIP3   OH239109   8.306   0.702   4.614  0.6295  0.5162  0.0080
13057TIP3    H139110   8.322   0.608   4.604  1.2799  0.7630 -1.3878
13057TIP3    H239111   8.269   0.729   4.530  0.0525  1.4345  0.5471
13058TIP3   OH239112   5.013   2.245   6.791  0.1433  0.2517 -0.4566
13058TIP3    H139113   5.083   2.301   6.823 -0.3332  0.6012 -0.0376
13058TIP3    H239114   5.027   2.241   6.696  1.4866 -0.6994 -0.2432
13059TIP3   OH239115   0.227   0.038   5.348 -0.2098  0.2490  0.2093
13059TIP3    H139116   0.232   0.045   5.444 -0.2651  0.5057  0.1920
13059TIP3    H239117   0.225   0.128   5.317  0.1697  0.1658 -0.0563
13060TIP3   OH239118   2.442   5.245   3.729 -0.2591 -0.0190 -0.0929
13060TIP3    H139119   2.485   5.264   3.812 -0.4048 -0.1368  0.0096
13060TIP3    H239120   2.440   5.150   3.724 -1.6899 -0.0349  0.5230
13061TIP3   OH239121   7.461   7.874   5.350  0.2614  0.0494 -0.4889
13061TIP3    H139122   7.519   7.824   5.293  1.3530  0.7783 -0.0386
13061TIP3    H239123   7.397   7.914   5.291  1.3543  0.7631 -1.2086
13062TIP3   OH239124   6.701   7.636   4.381 -0.3365 -0.0296  0.5059
13062TIP3    H139125   6.683   7.610   4.291 -0.3401 -0.1310  0.5360
13062TIP3    H239126   6.635   7.702   4.401  0.6000  1.0988 -0.0669
13063TIP3   OH239127   1.977   7.778   5.436  0.5721  0.1260  0.0120
13063TIP3    H139128   1.888   7.762   5.407  1.3208  0.5816 -2.6624
13063TIP3    H239129   1.974   7.864   5.477 -0.6097 -0.7539  1.8374
13064TIP3   OH239130   5.956   1.123   4.387  0.0979 -0.0479  0.8019
13064TIP3    H139131   6.001   1.096   4.307 -0.2030  0.8717  0.3145
13064TIP3    H239132   5.919   1.209   4.366  0.7143  0.5737  2.1979
13065TIP3   OH239133   5.326   1.341   6.095  0.1958  0.1021  0.2457
13065TIP3    H139134   5.399   1.305   6.045  0.5572 -0.0633  0.8868
13065TIP3    H239135   5.251   1.288   6.070  0.3022  0.2630 -0.4064
13066TIP3   OH239136   5.853   0.455   5.580 -0.3347 -0.0843 -0.3536
13066TIP3    H139137   5.940   0.469   5.544 -0.7400 -0.1496 -1.3594
13066TIP3    H239138   5.822   0.375   5.538 -1.0670  0.1876 -0.3434
13067TIP3   OH239139   4.858   7.104   6.214  0.1030 -0.1428  0.3989
13067TIP3    H139140   4.799   7.144   6.278  0.6142  0.4792  0.4890
13067TIP3    H239141   4.802   7.048   6.162 -0.3771 -0.4120  1.1921
13068TIP3   OH239142   5.391   1.772   4.107 -0.3405 -0.2614  0.0022
13068TIP3    H139143   5.365   1.697   4.160  2.0912 -1.1627 -0.0107
13068TIP3    H239144   5.391   1.739   4.017  0.7258 -0.2412 -0.0062
13069TIP3   OH239145   7.618   1.829   5.764 -0.0185  0.2099 -0.3530
13069TIP3    H139146   7.564   1.799   5.691 -0.3585  1.4751 -0.6433
13069TIP3    H239147   7.597   1.922   5.772  1.7777  0.6179 -0.1808
13070TIP3   OH239148   7.254   0.214   3.784 -0.4207  0.3299 -0.0628
13070TIP3    H139149   7.238   0.305   3.810 -0.0511  0.6894 -1.0315
13070TIP3    H239150   7.194   0.200   3.710 -1.3527 -0.6131  0.8625
13071TIP3   OH239151   7.231   5.625   0.262 -0.0083 -0.5668  0.2873
13071TIP3    H139152   7.245   5.716   0.237  0.0435 -0.5644  0.3265
13071TIP3    H239153   7.290   5.576   0.205 -0.0629 -0.5791  0.2412
13072TIP3   OH239154   4.519   0.765   6.909 -0.2519  0.5429 -0.1903
13072TIP3    H139155   4.509   0.856   6.937 -0.3227  0.4096  0.2161
13072TIP3    H239156   4.590   0.731   6.964 -1.5500 -0.2228  1.0496
13073TIP3   OH239157   4.383   3.190   6.193 -0.0855  0.4123  0.1063
13073TIP3    H139158   4.393   3.101   6.160  0.5613  0.4357  0.2427
13073TIP3    H239159   4.296   3.217   6.162 -0.5981 -0.5274  0.7095
13074TIP3   OH239160   6.386   0.809   4.185 -0.1020  0.0434 -0.8015
13074TIP3    H139161   6.327   0.735   4.197  1.5215 -1.2090 -0.3281
13074TIP3    H239162   6.379   0.858   4.267 -0.7361  0.0849 -0.8803
13075TIP3   OH239163   1.693   4.757   0.442 -0.5284  0.7874  0.3964
13075TIP3    H139164   1.620   4.716   0.488  0.0825 -2.1140 -1.0594
13075TIP3    H239165   1.770   4.705   0.468  0.4397  1.6113 -0.7695
13076TIP3   OH239166   7.087   1.983   4.094 -0.2394 -0.0529  0.3087
13076TIP3    H139167   7.152   2.051   4.078  0.4534 -0.2820  2.0505
13076TIP3    H239168   7.005   2.031   4.108 -0.5235  0.2243 -2.0673
13077TIP3   OH239169   4.667   1.114   6.498 -0.1529 -0.0448 -0.2825
13077TIP3    H139170   4.746   1.062   6.509 -0.2173  0.2532  1.8872
13077TIP3    H239171   4.595   1.051   6.506 -0.1606 -0.0646 -0.5248
13078TIP3   OH239172   1.515   4.052   0.165  0.2371  0.0565 -0.0227
13078TIP3    H139173   1.474   4.035   0.250  1.6591  1.6379  0.9937
13078TIP3    H239174   1.595   4.100   0.186  0.7556  0.1904 -2.2417
13079TIP3   OH239175   0.428   0.764   4.808  0.1533  0.5758  0.0741
13079TIP3    H139176   0.490   0.692   4.822 -1.9336 -1.0212  1.1728
13079TIP3    H239177   0.417   0.804   4.894 -1.5130 -0.1209  0.1966
13080TIP3   OH239178   2.017   6.397   0.190  0.0087  0.1996  0.7698
13080TIP3    H139179   2.112   6.391   0.179 -0.2940 -0.0529 -1.9758
13080TIP3    H239180   1.987   6.451   0.118 -1.9556  0.2841  1.6100
13081TIP3   OH239181   7.026   0.589   2.300  0.0721  0.0095 -0.2059
13081TIP3    H139182   6.971   0.618   2.374 -0.5605 -0.0095 -0.6650
13081TIP3    H239183   7.028   0.664   2.241  1.6125  0.4714  0.4003
13082TIP3   OH239184   5.038   6.942   5.430 -0.3373  0.0035 -0.4243
13082TIP3    H139185   5.113   6.999   5.408 -0.6508  0.5800 -0.0239
13082TIP3    H239186   4.997   6.986   5.504 -1.1467 -0.2476 -0.7233
13083TIP3   OH239187   5.228   7.953   6.489  0.0766 -0.6230 -0.2070
13083TIP3    H139188   5.312   7.910   6.475 -0.4741 -2.1295  0.9577
13083TIP3    H239189   5.184   7.899   6.554 -1.3382  0.7846  0.0355
13084TIP3   OH239190   0.642   3.577   0.798 -0.3988 -0.2484 -0.2561
13084TIP3    H139191   0.577   3.519   0.759  0.8298 -2.3804  0.7738
13084TIP3    H239192   0.603   3.604   0.881 -0.9594  0.3866 -0.7225
13085TIP3   OH239193   1.335   3.182   0.436 -0.3124 -0.4905 -0.0690
13085TIP3    H139194   1.373   3.259   0.393 -0.8791 -0.0349  0.2359
13085TIP3    H239195   1.283   3.141   0.367 -0.9854  0.0795  0.0857
13086TIP3   OH239196   2.516   4.131   0.014 -0.3478 -0.2258  0.3915
13086TIP3    H139197   2.445   4.171  -0.037  1.5757  1.1273 -1.2806
13086TIP3    H239198   2.557   4.205   0.060 -0.0490 -1.0102  1.3937
13087TIP3   OH239199   7.985   2.462   0.985  0.2569  0.3174  0.4362
13087TIP3    H139200   7.944   2.430   1.065  0.1427  0.8886  0.6025
13087TIP3    H239201   8.077   2.435   0.992 -0.4000 -2.4447 -0.6865
13088TIP3   OH239202   1.469   4.768   1.872  0.5087  0.2722  0.1412
13088TIP3    H139203   1.542   4.726   1.826 -0.8532 -1.0433 -0.8593
13088TIP3    H239204   1.445   4.706   1.941 -2.1271 -1.1018 -1.9259
13089TIP3   OH239205   5.860   2.470   4.693  0.1903 -0.1844 -0.2726
13089TIP3    H139206   5.875   2.521   4.772 -1.1444  1.0327 -0.7840
13089TIP3    H239207   5.918   2.510   4.628 -0.9575  0.8316 -0.7113
13090TIP3   OH239208   1.481   4.578   0.052  0.0062  0.1810  0.2907
13090TIP3    H139209   1.549   4.642   0.031 -0.6328  0.1265 -2.0769
13090TIP3    H239210   1.507   4.499   0.006  0.7509 -1.3136  3.1553
13091TIP3   OH239211   2.866   2.090   5.926 -0.0891 -0.4499  0.1612
13091TIP3    H139212   2.916   2.038   5.989  0.3624  2.2936  2.2075
13091TIP3    H239213   2.777   2.091   5.961 -0.1538 -0.1095 -0.0064
13092TIP3   OH239214   0.255   0.890   2.868  0.3378 -0.4427  0.9440
13092TIP3    H139215   0.304   0.808   2.878 -2.1239 -2.0474  0.4270
13092TIP3    H239216   0.250   0.927   2.956  1.0325 -1.1308  1.2732
13093TIP3   OH239217   6.369   0.287   4.801 -0.0452 -0.2205  0.1279
13093TIP3    H139218   6.361   0.263   4.893 -0.2369  0.0697  0.1862
13093TIP3    H239219   6.449   0.340   4.796  0.2607 -0.6826  0.0344
13094TIP3   OH239220   5.291   7.973   4.906  0.0702 -0.6342 -0.0557
13094TIP3    H139221   5.279   7.886   4.945 -0.4404 -0.0731  1.0749
13094TIP3    H239222   5.202   8.002   4.884  0.2710 -0.5432 -0.7493
13095TIP3   OH239223   7.057   0.425   4.616  0.5418  0.7131  0.2109
13095TIP3    H139224   7.115   0.501   4.607  1.2711  0.3166  1.3990
13095TIP3    H239225   7.076   0.390   4.703  0.7020 -1.2329 -0.5644
13096TIP3   OH239226   5.756   1.358   5.279 -0.3932  0.2414 -0.1877
13096TIP3    H139227   5.816   1.367   5.353 -0.4060  0.5830 -0.2197
13096TIP3    H239228   5.778   1.273   5.241  0.1100  0.3879 -0.2292
13097TIP3   OH239229   7.234   1.037   4.830  0.6677 -0.4213  0.7678
13097TIP3    H139230   7.232   0.943   4.815  1.4855 -0.4817  1.0494
13097TIP3    H239231   7.190   1.049   4.914 -1.6555 -0.3128 -0.4115
13098TIP3   OH239232   7.514   4.315   0.595 -0.3617  0.1084  0.2306
13098TIP3    H139233   7.442   4.377   0.581  0.7301  1.1363 -1.0172
13098TIP3    H239234   7.535   4.325   0.688 -0.6629  1.1112  0.2062
13099TIP3   OH239235   2.930   7.209   5.859  0.2149  0.5469 -0.6391
13099TIP3    H139236   2.842   7.195   5.893 -0.1970  1.0656 -1.4919
13099TIP3    H239237   2.926   7.294   5.817  1.5792  1.3601  0.8090
13100TIP3   OH239238   7.678   1.519   4.361  0.2401  0.3668 -0.5142
13100TIP3    H139239   7.636   1.545   4.280 -0.2064 -0.0746 -0.4234
13100TIP3    H239240   7.713   1.431   4.344 -3.5085 -1.5653  1.0604
13101TIP3   OH239241   0.916   0.319   6.005 -0.3155  0.4552 -0.1516
13101TIP3    H139242   0.841   0.352   5.955 -0.0578  1.5363  0.1706
13101TIP3    H239243   0.989   0.320   5.943 -0.1982  0.9499 -0.0056
13102TIP3   OH239244   4.413   6.329   4.915  0.0693  0.3856 -0.2349
13102TIP3    H139245   4.406   6.385   4.838  0.1068 -0.2925 -0.7443
13102TIP3    H239246   4.357   6.254   4.894  3.0051 -1.6066 -1.2303
13103TIP3   OH239247   7.936   1.460   6.328  0.3427 -0.2274 -0.4815
13103TIP3    H139248   7.947   1.405   6.405 -2.4139  0.4406  0.4366
13103TIP3    H239249   7.844   1.451   6.304  0.7150  1.0524 -2.5638
13104TIP3   OH239250   4.740   7.535   5.441  0.5872 -0.4931 -0.3943
13104TIP3    H139251   4.793   7.613   5.454  0.4032 -0.0070 -2.3918
13104TIP3    H239252   4.790   7.481   5.380 -0.9069 -0.3077 -1.8140
13105TIP3   OH239253   0.949   5.468   0.161  0.1016 -0.6054  0.1894
13105TIP3    H139254   0.929   5.377   0.140 -1.4968 -0.1107 -0.5271
13105TIP3    H239255   0.977   5.506   0.078  0.6079 -0.3818  0.4550
13106TIP3   OH239256   8.174   2.721   6.078 -0.2501  0.5015  0.1036
13106TIP3    H139257   8.258   2.675   6.078 -1.9250 -2.7260 -0.0029
13106TIP3    H239258   8.152   2.730   5.985 -0.7839 -0.1288  0.1699
13107TIP3   OH239259   4.486   6.255   5.181  0.2696 -0.2811  0.2016
13107TIP3    H139260   4.453   6.299   5.103  1.9267  2.1591  0.8004
13107TIP3    H239261   4.415   6.262   5.245 -0.5188 -0.9512 -0.5882
13108TIP3   OH239262   6.497   0.075   6.042 -0.1640 -0.2702  0.0262
13108TIP3    H139263   6.446   0.115   6.112  1.9394 -0.0532  1.4677
13108TIP3    H239264   6.513   0.146   5.980 -1.4431 -0.3013 -0.3457
13109TIP3   OH239265   5.956   2.492   6.860 -0.0280 -0.2039  0.0652
13109TIP3    H139266   5.968   2.398   6.847  1.1121 -0.2571  1.3183
13109TIP3    H239267   6.042   2.530   6.841 -0.9749  0.8118 -2.2974
13110TIP3   OH239268   2.108   4.690   0.855 -0.7352  0.0898  0.0453
13110TIP3    H139269   2.095   4.600   0.824  0.6120 -0.4151  0.8773
13110TIP3    H239270   2.063   4.693   0.940 -1.6648  0.5212 -0.4516
13111TIP3   OH239271   8.473   3.133   0.260  0.6517 -0.0216 -0.3574
13111TIP3    H139272   8.479   3.213   0.312 -1.6809 -0.4390  0.6236
13111TIP3    H239273   8.444   3.161   0.174 -0.5071  0.1572  0.0900
13112TIP3   OH239274   2.037   7.329   6.499  0.0055  0.0912 -0.0119
13112TIP3    H139275   2.068   7.418   6.515  1.4124 -0.6645  1.6123
13112TIP3    H239276   1.984   7.307   6.575 -1.1297 -0.1285 -0.8566
13113TIP3   OH239277   2.976   8.040   6.296  0.0188 -0.3897  0.3849
13113TIP3    H139278   2.900   7.986   6.274  1.7181 -2.8000  0.2232
13113TIP3    H239279   3.018   7.994   6.369  1.4134  0.8188  0.3709
13114TIP3   OH239280   6.389   7.230   4.496  0.1453  0.4264 -0.1014
13114TIP3    H139281   6.320   7.217   4.561  2.2051 -1.0340  1.8605
13114TIP3    H239282   6.446   7.297   4.534  0.5015  0.7192 -1.1341
13115TIP3   OH239283   0.976   0.562   4.229 -0.0106  0.3761 -0.2375
13115TIP3    H139284   0.971   0.657   4.241  1.7412  0.4087  0.3754
13115TIP3    H239285   0.885   0.534   4.218 -0.4762  2.2215 -1.2017
13116TIP3   OH239286   5.592   7.817   6.017 -0.2683 -0.0741 -0.3276
13116TIP3    H139287   5.608   7.894   5.962 -0.7102 -0.5363 -1.1266
13116TIP3    H239288   5.526   7.845   6.079  0.7001  0.6503  0.3922
13117TIP3   OH239289   5.752   7.073   3.277  0.4791 -0.3912  0.4906
13117TIP3    H139290   5.847   7.073   3.287  0.5867  1.0996 -0.3788
13117TIP3    H239291   5.732   6.990   3.234  1.3763 -0.7489  0.7638
13118TIP3   OH239292   7.688   1.386   5.530 -0.2928 -0.2613  0.4667
13118TIP3    H139293   7.736   1.431   5.461 -2.4787  0.8933 -0.3405
13118TIP3    H239294   7.734   1.411   5.611  2.6956 -2.1741 -0.5271
13119TIP3   OH239295   5.240   7.276   3.694 -0.3127  0.8818 -0.2988
13119TIP3    H139296   5.162   7.272   3.749 -0.5037  0.1788 -0.6135
13119TIP3    H239297   5.302   7.328   3.744 -0.5336  0.3542  0.5294
13120TIP3   OH239298   3.086   6.809   6.865  0.1933  0.4408  0.3230
13120TIP3    H139299   3.007   6.860   6.850 -0.7252 -1.4069 -1.4101
13120TIP3    H239300   3.057   6.718   6.860  1.9005 -0.2631  2.6833
13121TIP3   OH239301   0.329   0.575   5.490 -0.4370 -0.1829  0.4396
13121TIP3    H139302   0.268   0.636   5.448 -1.5293 -1.2806  0.4130
13121TIP3    H239303   0.416   0.614   5.476 -0.9892  0.5760 -0.9154
13122TIP3   OH239304   4.978   5.402   5.072 -0.4613 -0.2572 -0.0235
13122TIP3    H139305   5.073   5.401   5.078 -0.5471  0.7982  2.0494
13122TIP3    H239306   4.953   5.486   5.112 -2.2540 -0.6181 -0.3705
13123TIP3   OH239307   8.222   0.377   5.135  0.1928 -0.2603 -0.9748
13123TIP3    H139308   8.314   0.355   5.118  0.8408  1.5406  0.0343
13123TIP3    H239309   8.179   0.366   5.050  1.3638 -1.0542 -1.4790
13124TIP3   OH239310   4.185   6.532   3.418 -0.1147  0.0293 -0.3535
13124TIP3    H139311   4.234   6.614   3.420 -0.0182 -0.0166 -0.7186
13124TIP3    H239312   4.157   6.523   3.326 -2.0449  0.7815  0.1394
13125TIP3   OH239313   2.023   3.610   0.254 -0.0611 -0.5865 -0.4068
13125TIP3    H139314   2.049   3.576   0.340 -0.4296 -0.4621 -0.2441
13125TIP3    H239315   2.105   3.638   0.214 -0.3264  3.9148  1.8598
13126TIP3   OH239316   5.953   5.650   5.848 -0.0539 -0.2832  0.4457
13126TIP3    H139317   6.035   5.699   5.853  0.2310 -0.6537 -0.5041
13126TIP3    H239318   5.885   5.715   5.862  0.3708  0.1622  0.4493
13127TIP3   OH239319   7.108   7.010   5.308  0.0631 -0.3935  0.5177
13127TIP3    H139320   7.168   7.018   5.382  0.5636  2.4374 -0.1467
13127TIP3    H239321   7.021   7.017   5.347  0.2961  0.0648  0.9693
13128TIP3   OH239322   0.561   1.659   5.191  0.0390 -0.2640  0.4569
13128TIP3    H139323   0.498   1.607   5.241 -1.2931  0.7416 -0.1448
13128TIP3    H239324   0.647   1.633   5.226 -0.8145  0.0449  2.9251
13129TIP3   OH239325   7.500   7.960   3.398 -0.1722 -0.6685  0.0871
13129TIP3    H139326   7.460   7.992   3.317  0.7925  0.5452  0.0815
13129TIP3    H239327   7.593   7.956   3.379 -0.0913 -1.7526  0.6890
13130TIP3   OH239328   7.321   1.036   4.557 -0.2093  0.2110  0.3683
13130TIP3    H139329   7.294   1.042   4.649  1.3197  1.3528  0.7770
13130TIP3    H239330   7.354   1.124   4.537 -1.7067  0.3426 -1.6668
13131TIP3   OH239331   6.856   7.952   2.982  0.4382  0.2598  0.7206
13131TIP3    H139332   6.777   7.969   3.033 -0.9815 -0.0364 -1.3218
13131TIP3    H239333   6.865   8.029   2.926 -0.9110 -1.5968 -2.1545
13132TIP3   OH239334   6.290   3.909   5.676 -0.0725  0.0356 -0.4259
13132TIP3    H139335   6.316   3.997   5.703  1.2230 -0.1518 -1.0261
13132TIP3    H239336   6.256   3.868   5.756  2.0207  0.1151  0.5347
13133TIP3   OH239337   7.492   2.373   5.332 -0.2674  0.2577 -0.3963
13133TIP3    H139338   7.427   2.313   5.294  0.5479 -1.4786  0.8839
13133TIP3    H239339   7.440   2.431   5.388 -0.9646  0.1950 -0.9608
13134TIP3   OH239340   2.004   3.154   0.150  0.4309  0.1402 -0.6837
13134TIP3    H139341   1.988   3.166   0.244 -1.2725  0.0938 -0.9656
13134TIP3    H239342   2.000   3.242   0.114  1.3531  0.1886 -0.6926
13135TIP3   OH239343   4.813   7.270   2.826  0.6217  0.2180  0.4929
13135TIP3    H139344   4.888   7.211   2.826  0.1170 -0.5189 -2.7437
13135TIP3    H239345   4.849   7.355   2.802  0.4224 -0.2176 -1.4547
13136TIP3   OH239346   6.346   6.245   5.341 -0.0678 -0.1315 -0.1455
13136TIP3    H139347   6.305   6.159   5.353 -0.4501 -0.3675 -2.8148
13136TIP3    H239348   6.288   6.305   5.388 -0.6831 -1.1183  0.3903
13137TIP3   OH239349   4.620   7.168   4.461  0.0022  0.0762  0.3386
13137TIP3    H139350   4.679   7.105   4.418  0.5611  0.0183  1.1773
13137TIP3    H239351   4.678   7.221   4.515 -0.3647  1.8470 -0.9742
13138TIP3   OH239352   5.628   7.599   3.556  0.1954  0.3158  0.7958
13138TIP3    H139353   5.586   7.513   3.552  1.2266 -0.1044 -1.5703
13138TIP3    H239354   5.709   7.584   3.606  0.3440 -0.0722  0.4363
13139TIP3   OH239355   2.721   1.349   5.129  0.3668 -0.4527 -0.1939
13139TIP3    H139356   2.807   1.338   5.088  0.5715  2.6446 -0.7625
13139TIP3    H239357   2.739   1.393   5.212 -0.6395  0.4848 -0.4464
13140TIP3   OH239358   8.101   0.967   4.593  0.0298  0.0251  0.1384
13140TIP3    H139359   8.071   1.058   4.595 -3.2648 -0.9924  0.5320
13140TIP3    H239360   8.093   0.942   4.501 -1.9187 -0.6886  0.4669
13141TIP3   OH239361   2.239   0.992   2.566  0.2510 -0.1675 -0.2626
13141TIP3    H139362   2.208   1.026   2.482  0.0942 -0.9768 -0.5290
13141TIP3    H239363   2.305   1.056   2.594  1.5237 -0.7472 -1.7926
13142TIP3   OH239364   7.232   1.429   3.856 -0.2570  0.1328 -0.0948
13142TIP3    H139365   7.208   1.387   3.774  1.4868 -0.3214 -0.3880
13142TIP3    H239366   7.199   1.370   3.924 -1.9019  0.6276 -0.4568
13143TIP3   OH239367   7.393   0.828   4.382  0.4574 -0.2177 -0.3073
13143TIP3    H139368   7.373   0.901   4.441  0.6517 -0.0926 -0.3978
13143TIP3    H239369   7.433   0.869   4.306 -0.3885 -0.3066 -0.8141
13144TIP3   OH239370   3.110   5.185   3.791 -0.2276  0.8773  0.5294
13144TIP3    H139371   3.076   5.117   3.850  1.6191 -0.6327 -0.1034
13144TIP3    H239372   3.110   5.144   3.705  0.1016  1.9860 -0.0063
13145TIP3   OH239373   7.375   4.834   1.880  0.3711 -0.1829  0.0255
13145TIP3    H139374   7.453   4.852   1.933 -0.5251  0.8512  1.0195
13145TIP3    H239375   7.371   4.739   1.874  1.2680 -0.2613  0.6371
13146TIP3   OH239376   0.185   1.379   4.262  0.5750  0.7709 -1.1884
13146TIP3    H139377   0.140   1.296   4.245 -0.7717  1.0897  0.6740
13146TIP3    H239378   0.154   1.438   4.193 -0.7483  0.5769 -0.7594
13147TIP3   OH239379   5.035   7.982   4.795 -0.3392  0.5755  0.4167
13147TIP3    H139380   5.023   8.073   4.819 -0.1923  0.9610 -0.9530
13147TIP3    H239381   5.054   7.983   4.701  1.2949 -0.7343  0.6993
13148TIP3   OH239382   4.636   6.968   5.144 -0.6919 -0.0713 -0.3450
13148TIP3    H139383   4.708   7.026   5.169 -0.4973 -0.4675  0.0182
13148TIP3    H239384   4.560   7.025   5.136  0.3683  0.9348 -4.0977
13149TIP3   OH239385   2.561   0.333   4.257 -0.1516 -0.2437  0.3738
13149TIP3    H139386   2.557   0.275   4.181 -0.6218  0.7789 -0.4009
13149TIP3    H239387   2.557   0.421   4.220 -0.3399  0.2683  1.5873
13150TIP3   OH239388   5.882   7.382   4.995  0.0592  0.2373  0.1059
13150TIP3    H139389   5.889   7.463   4.944 -2.2889  1.7711  2.1252
13150TIP3    H239390   5.909   7.407   5.083 -0.7072 -1.1619  0.7495
13151TIP3   OH239391   0.385   7.636   2.996 -0.5124  0.2873 -0.3602
13151TIP3    H139392   0.412   7.551   2.963  0.0983 -0.2173  1.3670
13151TIP3    H239393   0.323   7.616   3.066  2.3335  1.0789  2.4986
13152TIP3   OH239394   0.751   0.036   2.885  0.3089  0.5009 -0.2378
13152TIP3    H139395   0.840   0.056   2.917  0.3640  0.6179 -0.4614
13152TIP3    H239396   0.720  -0.034   2.942  0.2832  0.9305  0.2881
13153TIP3   OH239397   6.279   7.225   5.297  0.0347 -0.0828  0.6054
13153TIP3    H139398   6.297   7.315   5.272 -3.2307  0.2866 -0.7122
13153TIP3    H239399   6.271   7.227   5.392 -0.4825  1.1282  0.5431
13154TIP3   OH239400   2.305   0.475   3.689 -0.0385 -0.3038 -0.4452
13154TIP3    H139401   2.304   0.382   3.712 -0.7455 -0.1001  0.3303
13154TIP3    H239402   2.330   0.520   3.769 -1.5592  0.3237 -0.3112
13155TIP3   OH239403   4.006   4.128   0.932  0.1875 -0.1979 -0.3166
13155TIP3    H139404   4.055   4.151   1.011  0.5184 -0.9168 -0.3138
13155TIP3    H239405   3.924   4.091   0.964  0.6266 -1.1608 -0.3053
13156TIP3   OH239406   1.522   0.965   5.698  0.0150 -0.6660 -0.5423
13156TIP3    H139407   1.572   1.033   5.742 -0.4192 -0.8591  0.2608
13156TIP3    H239408   1.439   1.007   5.674 -0.6288 -1.1584  0.7849
13157TIP3   OH239409   8.448   6.408   3.145 -0.0389 -0.1653  0.2255
13157TIP3    H139410   8.382   6.341   3.162  0.0650  0.1316  1.9257
13157TIP3    H239411   8.476   6.437   3.232  2.0515 -0.0144 -0.4575
13158TIP3   OH239412   6.070   7.610   6.618  0.7159 -0.2094  0.0035
13158TIP3    H139413   6.139   7.614   6.552  0.5196 -0.8790 -0.2493
13158TIP3    H239414   6.111   7.566   6.693  0.6450 -0.3717 -0.0516
13159TIP3   OH239415   0.029   7.525   3.570 -0.1556  0.3520 -0.3675
13159TIP3    H139416  -0.021   7.466   3.626  0.0315  1.5163  1.0562
13159TIP3    H239417   0.113   7.481   3.556 -0.0200  0.2739  0.6790
13160TIP3   OH239418   7.934   6.915   3.395  0.5676 -1.0063 -0.1016
13160TIP3    H139419   7.872   6.974   3.438  1.6460  0.0635  0.0065
13160TIP3    H239420   7.893   6.829   3.400  0.0501 -0.6624  1.8636
13161TIP3   OH239421   4.753   4.652   0.019  0.1789  0.7580  0.1183
13161TIP3    H139422   4.781   4.652  -0.072 -1.2086  1.5499 -0.3318
13161TIP3    H239423   4.801   4.724   0.060  0.7716  0.4268  0.0107
13162TIP3   OH239424   7.440   0.621   5.415  0.3328 -0.0893 -0.1497
13162TIP3    H139425   7.508   0.637   5.349  1.9600 -2.2034  0.9287
13162TIP3    H239426   7.437   0.703   5.466 -0.0390  1.0907 -2.0291
13163TIP3   OH239427   0.605   0.447   4.523 -0.6104  0.0924 -0.6016
13163TIP3    H139428   0.511   0.456   4.510 -0.7286  2.2928  1.2939
13163TIP3    H239429   0.642   0.529   4.488  0.4184 -0.0481  0.1301
13164TIP3   OH239430   4.162   3.387   1.407  0.2273  0.0696 -0.4809
13164TIP3    H139431   4.154   3.294   1.431  1.4756  0.1161  0.1809
13164TIP3    H239432   4.181   3.385   1.313  0.0122 -0.3436 -0.5192
13165TIP3   OH239433   5.881   7.927   3.522 -0.3541  0.0796  0.4542
13165TIP3    H139434   5.793   7.929   3.561  0.0131 -1.3276  1.3738
13165TIP3    H239435   5.939   7.915   3.596  0.5845  0.4446 -0.2188
13166TIP3   OH239436   0.388  -0.009   4.797  0.0007  0.0048 -0.7087
13166TIP3    H139437   0.306   0.033   4.822 -1.6802 -3.0111 -0.8930
13166TIP3    H239438   0.446   0.005   4.871 -0.7923  1.8861 -0.4341
13167TIP3   OH239439   0.150   0.134   4.855 -0.2797  0.0095 -0.4805
13167TIP3    H139440   0.059   0.106   4.858 -0.4742  0.6960  0.5285
13167TIP3    H239441   0.160   0.189   4.933  1.1347 -0.4854 -0.3096
13168TIP3   OH239442   3.052   0.109   3.165 -0.3894 -0.3927  0.4273
13168TIP3    H139443   3.110   0.041   3.130 -2.0354 -0.3867 -2.4497
13168TIP3    H239444   3.012   0.068   3.242  1.0022 -1.5393  0.5604
13169TIP3   OH239445   6.648   7.673   2.917  0.1694  0.0566 -0.3258
13169TIP3    H139446   6.739   7.677   2.948  0.3318 -0.3480 -0.7499
13169TIP3    H239447   6.602   7.737   2.971 -0.0473 -2.3284  2.4473
13170TIP3   OH239448   7.280   1.160   5.739  0.0935 -0.7822 -0.0831
13170TIP3    H139449   7.187   1.147   5.762 -0.0646 -0.3926 -0.5038
13170TIP3    H239450   7.283   1.146   5.645  0.5111 -1.0364 -0.0321
13171TIP3   OH239451   4.870   7.729   5.081  0.7321 -0.4086  0.1306
13171TIP3    H139452   4.810   7.657   5.063  0.8975 -0.6243  0.4409
13171TIP3    H239453   4.863   7.786   5.004 -0.0772 -0.2878  0.2863
13172TIP3   OH239454   7.826   0.483   3.789  0.1449 -0.0267 -0.1145
13172TIP3    H139455   7.861   0.552   3.733 -0.9860  0.8231  0.2141
13172TIP3    H239456   7.745   0.456   3.747 -1.6586  1.8521  1.9810
13173TIP3   OH239457   6.157   7.255   4.978 -0.2271 -0.6504 -0.1761
13173TIP3    H139458   6.065   7.239   4.998  0.1412 -0.1942  1.9791
13173TIP3    H239459   6.201   7.175   5.004  0.2681 -0.0376  0.8942
13174TIP3   OH239460   1.869   1.373   4.922  0.0541 -0.3649  0.3373
13174TIP3    H139461   1.934   1.378   4.992 -0.0747  1.2920  0.3562
13174TIP3    H239462   1.834   1.284   4.928 -0.3299 -0.0727  2.7173
13175TIP3   OH239463   0.219   1.253   5.773 -0.2437 -0.0400 -0.0913
13175TIP3    H139464   0.140   1.246   5.827 -1.4353  0.1994 -1.7703
13175TIP3    H239465   0.258   1.165   5.776 -1.2296 -0.4828 -0.2480
13176TIP3   OH239466   7.722   0.720   6.569 -0.1954  0.0825 -0.1435
13176TIP3    H139467   7.715   0.810   6.600  0.3247  0.2338 -0.4647
13176TIP3    H239468   7.776   0.726   6.491 -0.4855 -0.4596 -0.3845
13177TIP3   OH239469   0.312   0.428   1.879  0.0480 -0.2747 -0.0606
13177TIP3    H139470   0.345   0.359   1.936  2.6567  0.4269 -0.6604
13177TIP3    H239471   0.267   0.381   1.808  2.1442 -1.4191 -0.6750
13178TIP3   OH239472   0.913   1.028   3.319 -0.2009 -0.3237  0.4408
13178TIP3    H139473   0.945   1.063   3.236  0.0209 -2.6630 -0.4950
13178TIP3    H239474   0.818   1.041   3.316 -0.2985 -1.2201 -0.5818
13179TIP3   OH239475   0.394   0.035   6.947  0.3919  0.4946 -0.0277
13179TIP3    H139476   0.384   0.127   6.921 -1.0037  0.4175  0.1979
13179TIP3    H239477   0.311  -0.005   6.921  0.3214 -0.3229  1.4762
13180TIP3   OH239478   0.483   0.115   4.580  0.8065 -0.2631  0.0332
13180TIP3    H139479   0.397   0.157   4.583  1.1996  0.4605  2.0452
13180TIP3    H239480   0.485   0.060   4.658  1.1744 -2.3167 -1.4016
13181TIP3   OH239481   7.962   0.912   6.092  0.4482  0.5041  0.2116
13181TIP3    H139482   7.898   0.983   6.084 -0.8838 -0.8258 -1.2755
13181TIP3    H239483   8.028   0.946   6.152 -0.8893  2.4694  0.6158
13182TIP3   OH239484   7.955   0.231   3.812 -0.0160  0.1825  0.1101
13182TIP3    H139485   8.018   0.261   3.878  0.5835  0.0343 -0.3861
13182TIP3    H239486   7.909   0.311   3.785  1.2317  0.5860 -0.8500
13183TIP3   OH239487   2.362   0.070   4.364 -0.5358  0.0100 -0.0972
13183TIP3    H139488   2.337  -0.018   4.394  3.0438 -0.8192  0.6914
13183TIP3    H239489   2.395   0.056   4.276 -0.8781  0.7428 -0.3429
13184TIP3   OH239490   1.746   0.446   3.868 -0.5167 -0.4492  0.4048
13184TIP3    H139491   1.771   0.355   3.885 -2.2558 -1.1485 -0.6773
13184TIP3    H239492   1.651   0.447   3.874 -0.7173  0.7123 -2.1978
13185TIP3   OH239493   0.436   0.695   2.972  0.1095 -0.7459  0.4985
13185TIP3    H139494   0.406   0.667   3.058 -0.3793 -0.1063  0.5321
13185TIP3    H239495   0.476   0.780   2.987 -3.1648  1.0324 -0.4786
13186TIP3   OH239496   1.148   0.846   5.704 -0.4933 -0.3100 -0.0740
13186TIP3    H139497   1.180   0.766   5.661  1.3998 -0.3032  1.2699
13186TIP3    H239498   1.146   0.823   5.797  1.1945  1.5883  0.4413
13187TIP3   OH239499   0.838   0.546   2.411  0.3126 -0.1947  0.8104
13187TIP3    H139500   0.914   0.568   2.356 -0.3060 -0.5591 -0.2037
13187TIP3    H239501   0.805   0.631   2.441 -0.1079  0.1016 -0.4311
13188TIP3   OH239502   0.946   0.213   2.729 -0.3903 -0.2488 -0.1606
13188TIP3    H139503   1.011   0.143   2.724  0.1452  0.2373 -0.1356
13188TIP3    H239504   0.987   0.286   2.683 -1.5408 -0.3939 -1.4370
13189TIP3   OH239505   6.684   0.030   3.114  0.0664 -0.4897 -0.7610
13189TIP3    H139506   6.625   0.105   3.122 -0.5255 -0.9476 -0.8283
13189TIP3    H239507   6.628  -0.046   3.129  0.2426 -1.0394 -2.6745
13190TIP3   OH239508   0.293   1.123   3.601 -0.4723  0.4579  0.2806
13190TIP3    H139509   0.276   1.030   3.582  0.9491  0.3195 -0.3772
13190TIP3    H239510   0.209   1.156   3.634 -0.9967 -1.0594  0.5269
13191TIP3   OH239511   7.406   7.747   4.351  0.6610 -0.5495 -0.0262
13191TIP3    H139512   7.378   7.672   4.403  1.3383 -1.7526 -1.3616
13191TIP3    H239513   7.343   7.816   4.373  0.8293 -1.0692  2.2275
13192TIP3   OH239514   0.195   0.491   4.888 -0.3973  0.7511  0.0717
13192TIP3    H139515   0.290   0.484   4.873 -0.6503 -0.9286 -0.8879
13192TIP3    H239516   0.157   0.480   4.801 -1.5841 -1.6417  0.8343
13193TIP3   OH239517   0.002   1.290   6.225 -0.2213 -0.3073  0.0866
13193TIP3    H139518   0.052   1.362   6.265  1.4921  0.3057 -2.9826
13193TIP3    H239519  -0.029   1.238   6.299  0.2988  2.4161  2.2925
13194TIP3   OH239520   1.359   3.151   1.962 -0.0871  0.2259  0.2756
13194TIP3    H139521   1.324   3.161   2.051 -0.7179  1.4366 -0.0961
13194TIP3    H239522   1.366   3.241   1.929  0.6826 -0.1796 -0.7003
13195TIP3   OH239523   2.924   0.282   2.540 -0.2804  0.0232 -0.5686
13195TIP3    H139524   2.939   0.337   2.617 -0.6043 -0.0379 -0.4613
13195TIP3    H239525   2.859   0.330   2.489  0.1540  0.2090 -0.9542
13196TIP3   OH239526   0.143   0.467   3.802 -0.2949 -0.0880  0.1394
13196TIP3    H139527   0.170   0.396   3.861  0.6637  0.7397  0.6901
13196TIP3    H239528   0.104   0.421   3.727  0.5294 -1.2126  0.3826
13197TIP3   OH239529   5.787   6.489   3.356 -0.4186  0.0178  0.2609
13197TIP3    H139530   5.824   6.578   3.361  1.0074 -0.5233 -0.2384
13197TIP3    H239531   5.860   6.432   3.378 -0.9571 -1.0943 -0.7631
13198TIP3   OH239532   0.821   0.535   1.991 -0.4993  0.1697 -0.7538
13198TIP3    H139533   0.842   0.574   1.906  0.3746  1.3271 -0.0164
13198TIP3    H239534   0.877   0.581   2.053 -0.6710 -1.1141  0.3685
13199TIP3   OH239535   0.677   0.712   3.580 -0.4234 -0.2916  0.4681
13199TIP3    H139536   0.681   0.658   3.659 -0.6093 -1.3056 -0.2004
13199TIP3    H239537   0.683   0.802   3.612  0.9200 -0.7410  1.5290
13200TIP3   OH239538   2.452   0.754   5.459 -0.0033  0.3152 -0.4021
13200TIP3    H139539   2.411   0.824   5.408  0.6505  1.3242  0.4461
13200TIP3    H239540   2.379   0.701   5.490 -0.5347  0.8714 -0.6978
13201TIP3   OH239541   6.829   0.786   5.094 -0.0489 -0.0642  0.4968
13201TIP3    H139542   6.733   0.794   5.087 -0.1477 -1.2271  0.4986
13201TIP3    H239543   6.842   0.721   5.163  0.7935  2.5463  2.9036
13202TIP3   OH239544   2.652   0.740   4.922 -0.0869  0.6812 -0.6977
13202TIP3    H139545   2.644   0.835   4.912 -2.0954  0.4930 -1.0779
13202TIP3    H239546   2.625   0.722   5.012 -1.2730  0.3070 -1.1246
13203TIP3   OH239547   0.864   0.794   0.876  0.1394 -0.4330 -0.5357
13203TIP3    H139548   0.917   0.746   0.812 -0.0980 -1.0092 -0.2983
13203TIP3    H239549   0.798   0.839   0.823  1.0416  0.5154 -0.8586
13204TIP3   OH239550   0.810   1.515   3.257 -0.4078  0.0918 -0.0751
13204TIP3    H139551   0.813   1.539   3.164  0.7391  0.1496 -0.0308
13204TIP3    H239552   0.770   1.428   3.258  0.7240 -0.4402 -0.7307
13205TIP3   OH239553   8.264   1.144   4.337 -0.4488  0.0359  0.1914
13205TIP3    H139554   8.246   1.189   4.419  0.9577  1.3178 -0.1873
13205TIP3    H239555   8.196   1.174   4.277 -1.0804 -0.3931  0.6916
13206TIP3   OH239556   0.695   4.020   1.104 -0.1505 -0.0664 -0.4023
13206TIP3    H139557   0.689   3.941   1.051  2.0128 -0.1613 -0.5397
13206TIP3    H239558   0.644   4.085   1.056 -0.3655 -0.8455 -1.2442
13207TIP3   OH239559   1.653   0.112   5.952  0.2035  0.4243  0.6060
13207TIP3    H139560   1.606   0.098   5.870  0.8678  0.7896  0.1572
13207TIP3    H239561   1.584   0.122   6.018 -0.3322 -1.7996  0.4349
13208TIP3   OH239562   7.043   0.014   4.428  0.3185  0.0082 -0.0652
13208TIP3    H139563   7.128   0.055   4.449 -0.0218  0.7290 -0.0747
13208TIP3    H239564   7.043   0.009   4.332  0.7094 -0.7751 -0.0269
13209TIP3   OH239565   7.029   0.330   1.726  0.6588 -0.5213  0.0738
13209TIP3    H139566   7.092   0.281   1.779 -1.0518 -2.7258  0.1811
13209TIP3    H239567   6.981   0.384   1.789  0.8006 -0.6997  0.3350
13210TIP3   OH239568   5.540   5.174   1.452 -0.6346 -0.1115 -1.1755
13210TIP3    H139569   5.480   5.202   1.522  0.3514  0.3550 -0.5014
13210TIP3    H239570   5.486   5.176   1.373 -1.1845  1.5837 -0.7958
13211TIP3   OH239571   0.102   1.551   4.054 -0.1546  0.2044  0.4789
13211TIP3    H139572   0.082   1.569   3.962  0.9102 -1.5578 -0.1016
13211TIP3    H239573   0.187   1.592   4.068 -0.2084  0.2686  0.6132
13212TIP3   OH239574   5.658   6.639   6.896  0.1526 -0.5799  0.3289
13212TIP3    H139575   5.664   6.715   6.955 -1.2923 -1.6611  1.9079
13212TIP3    H239576   5.745   6.600   6.899  0.7725  0.7327 -0.1162
13213TIP3   OH239577   6.683   1.517   3.096  0.1491 -0.3753 -0.0789
13213TIP3    H139578   6.633   1.440   3.122  0.8041 -0.2537  1.5833
13213TIP3    H239579   6.738   1.538   3.172  0.3806  1.3958 -0.6935
13214TIP3   OH239580   1.048   0.749   3.224 -0.2089  0.0714  0.7361
13214TIP3    H139581   1.020   0.685   3.289 -0.8820 -0.1427  0.2324
13214TIP3    H239582   1.003   0.830   3.250 -0.0504  0.1219  0.8546
13215TIP3   OH239583   6.238   7.662   4.744 -0.4120 -0.1873 -0.2793
13215TIP3    H139584   6.271   7.696   4.661 -0.4283  0.7653  0.0938
13215TIP3    H239585   6.278   7.719   4.810 -2.6343  0.8537  0.1999
13216TIP3   OH239586   2.330   3.559   0.631  0.4196 -0.3846  0.2199
13216TIP3    H139587   2.414   3.604   0.628  1.6179 -2.5583 -0.1464
13216TIP3    H239588   2.322   3.516   0.546 -1.3380  0.2626  0.0374
13217TIP3   OH239589   0.147   0.747   4.988 -0.2529  0.4945  0.5297
13217TIP3    H139590   0.223   0.796   5.019  1.3023  0.0577 -2.3587
13217TIP3    H239591   0.182   0.660   4.967 -1.9567 -0.3194  0.9159
13218TIP3   OH239592   5.494   7.207   6.751  0.1447  0.4930 -0.0962
13218TIP3    H139593   5.539   7.175   6.673 -1.5198  0.0689 -0.9138
13218TIP3    H239594   5.540   7.288   6.774 -1.1388  2.1777 -3.2370
13219TIP3   OH239595   2.457   0.411   3.268 -0.1296  0.2159 -0.3727
13219TIP3    H139596   2.553   0.414   3.275 -0.1761  0.4060  0.2128
13219TIP3    H239597   2.439   0.445   3.180  0.1960  2.8723  0.5399
13220TIP3   OH239598   0.944   0.035   3.060 -0.5235 -0.3058  0.0145
13220TIP3    H139599   0.941   0.112   3.117 -0.4447 -0.9182  0.8605
13220TIP3    H239600   0.923  -0.038   3.118  1.5094 -1.1672 -0.3087
13221TIP3   OH239601   0.771   0.456   6.499  0.2591 -0.7872 -0.5366
13221TIP3    H139602   0.771   0.389   6.430 -0.0646 -0.3810 -0.9285
13221TIP3    H239603   0.695   0.510   6.480  0.8298  0.0218 -0.5297
13222TIP3   OH239604   5.558   6.764   5.044 -0.2681 -0.1551  0.6384
13222TIP3    H139605   5.577   6.845   5.091  0.0328 -0.8242  1.6886
13222TIP3    H239606   5.497   6.789   4.976  1.5455  1.3854 -0.4727
13223TIP3   OH239607   4.400   4.390   0.310 -0.3903  0.2256 -0.0978
13223TIP3    H139608   4.453   4.466   0.285 -0.2297  0.4770  0.9660
13223TIP3    H239609   4.324   4.394   0.252 -0.5823  1.4489  0.2166
13224TIP3   OH239610   6.374   0.094   4.597 -0.1739 -0.4905 -0.3099
13224TIP3    H139611   6.451   0.134   4.556  0.0607 -1.1717 -0.5359
13224TIP3    H239612   6.357   0.148   4.674  0.3385 -0.1445 -0.4383
13225TIP3   OH239613   6.913   7.269   5.495 -0.2682 -0.3135  0.5524
13225TIP3    H139614   6.990   7.326   5.499  0.6141 -1.3003 -1.5325
13225TIP3    H239615   6.946   7.182   5.517 -1.3653 -0.2795  2.4386
13226TIP3   OH239616   7.699   0.174   3.730 -0.2697  0.0381  0.5830
13226TIP3    H139617   7.704   0.168   3.635  1.5179  1.3802  0.5689
13226TIP3    H239618   7.790   0.177   3.760 -0.8037 -0.0786  2.3133
13227TIP3   OH239619   0.984   0.838   4.269 -0.2338 -0.1153  0.5679
13227TIP3    H139620   0.917   0.900   4.240  0.2608  0.2207  0.1181
13227TIP3    H239621   1.067   0.879   4.243  0.1347 -0.5904  0.9895
13228TIP3   OH239622   7.321   6.186   4.931 -0.1910  0.8428 -0.3044
13228TIP3    H139623   7.262   6.257   4.955  1.2883  2.4912 -1.4226
13228TIP3    H239624   7.320   6.127   5.006 -2.6071  1.2670  0.0130
13229TIP3   OH239625   6.169   7.684   2.869 -0.0337 -0.2654 -0.2520
13229TIP3    H139626   6.220   7.631   2.808  0.9509 -1.1092  1.2907
13229TIP3    H239627   6.090   7.632   2.885  0.2139 -0.5511  0.0449
13230TIP3   OH239628   6.336   7.643   1.153  0.0177 -0.3809 -0.2601
13230TIP3    H139629   6.329   7.555   1.118 -0.6145 -0.5255  0.2404
13230TIP3    H239630   6.287   7.697   1.091 -2.1035 -0.8018  0.9929
13231TIP3   OH239631   0.953   1.170   3.576  0.8046  0.8817 -0.6208
13231TIP3    H139632   1.045   1.171   3.603  0.2640 -0.9227  1.5307
13231TIP3    H239633   0.951   1.113   3.499  1.6029  1.6183 -1.1927
13232TIP3   OH239634   7.147   7.554   5.219  0.3737 -0.0316  0.0579
13232TIP3    H139635   7.078   7.528   5.158  0.7747  1.5898 -1.1096
13232TIP3    H239636   7.163   7.476   5.272 -2.2973 -0.4547  0.2893
13233TIP3   OH239637   7.491   7.196   4.258  0.4166 -0.8929 -0.2192
13233TIP3    H139638   7.543   7.273   4.277 -2.5124  0.9623  0.6309
13233TIP3    H239639   7.485   7.149   4.341  2.0325 -1.9632 -0.6899
13234TIP3   OH239640   0.718   0.950   6.245 -0.4725 -0.5397  0.4743
13234TIP3    H139641   0.756   0.862   6.247  0.9207  0.0524  1.0478
13234TIP3    H239642   0.626   0.937   6.224 -0.0180 -2.0594 -0.6275
13235TIP3   OH239643   3.156   0.265   5.791 -0.2870 -0.4432  0.3083
13235TIP3    H139644   3.147   0.227   5.878  2.8532 -2.6765 -0.2464
13235TIP3    H239645   3.236   0.317   5.795 -1.0483  0.8482 -0.7710
13236TIP3   OH239646   2.385   2.299   5.563 -0.7795  0.2294  0.1079
13236TIP3    H139647   2.307   2.254   5.596 -0.9473  1.8601  2.0842
13236TIP3    H239648   2.350   2.380   5.525 -0.2866 -0.2490 -1.3527
13237TIP3   OH239649   0.871   1.611   5.511  0.2175 -0.2154  0.1436
13237TIP3    H139650   0.847   1.602   5.419 -2.1272  0.6330  0.6555
13237TIP3    H239651   0.936   1.542   5.525  0.5718 -0.3943 -2.1073
13238TIP3   OH239652   6.976   7.507   2.414 -0.1767 -0.6522 -0.2931
13238TIP3    H139653   7.065   7.499   2.379 -0.7940 -1.3338 -1.7654
13238TIP3    H239654   6.968   7.435   2.476  0.6269  0.0190  0.6084
13239TIP3   OH239655   8.237   2.563   6.870  0.1848 -0.0245 -0.6384
13239TIP3    H139656   8.172   2.633   6.872  0.4541  0.2484 -1.2035
13239TIP3    H239657   8.270   2.563   6.780 -0.0321 -1.0847 -0.7311
13240TIP3   OH239658   3.386   6.832   5.039  0.1020 -0.8655 -0.1513
13240TIP3    H139659   3.437   6.864   5.113 -1.2318 -0.2506  0.5306
13240TIP3    H239660   3.295   6.850   5.064 -0.2729  1.3013 -2.8277
13241TIP3   OH239661   1.804   0.731   5.244  0.2974 -0.1367  0.2018
13241TIP3    H139662   1.754   0.670   5.191 -0.7257  0.9090 -0.0444
13241TIP3    H239663   1.772   0.718   5.333 -0.3206  0.4248  0.0669
13242TIP3   OH239664   5.080   7.509   6.836 -0.3653  0.5078  0.0850
13242TIP3    H139665   5.010   7.451   6.809 -0.1303  0.5629 -0.6442
13242TIP3    H239666   5.101   7.481   6.925 -0.9179  0.1192  0.0960
13243TIP3   OH239667   7.167   6.991   4.428  0.1328  0.9984 -0.1685
13243TIP3    H139668   7.175   7.086   4.432  0.1062  0.9433  1.4071
13243TIP3    H239669   7.256   6.959   4.442  0.1295  0.7778 -0.6269
13244TIP3   OH239670   2.093  -0.013   3.354 -0.5063 -0.6261  0.4685
13244TIP3    H139671   2.157  -0.058   3.298  0.2135  0.0513  0.7283
13244TIP3    H239672   2.125   0.078   3.357 -0.1810 -0.7792  2.4827
13245TIP3   OH239673   8.190   0.804   4.106 -0.3801 -0.3679 -0.3417
13245TIP3    H139674   8.251   0.755   4.160  0.8986  0.2771 -1.1882
13245TIP3    H239675   8.160   0.741   4.040  1.8554  0.1641 -1.9054
13246TIP3   OH239676   4.749   5.667   4.864 -0.1885 -0.1608 -0.0522
13246TIP3    H139677   4.706   5.708   4.939  0.6676 -0.8887  0.8569
13246TIP3    H239678   4.747   5.734   4.795  0.2331  1.0145  1.0619
13247TIP3   OH239679   6.599   5.396   2.360 -0.1860  0.6024 -0.0160
13247TIP3    H139680   6.519   5.447   2.355 -1.1245 -0.8778 -0.3493
13247TIP3    H239681   6.598   5.358   2.448 -0.4447 -0.3626 -0.4342
13248TIP3   OH239682   0.215   0.288   4.041  0.0170  0.5905  0.0638
13248TIP3    H139683   0.180   0.199   4.034  0.5605  0.4875 -1.5519
13248TIP3    H239684   0.278   0.283   4.112 -1.2211  0.1142  1.1580
13249TIP3   OH239685   6.864   1.554   3.288 -0.0118  0.1724  0.4207
13249TIP3    H139686   6.852   1.512   3.374 -1.7413 -0.7591 -0.2441
13249TIP3    H239687   6.957   1.574   3.283  0.1100  0.2436  2.5294
13250TIP3   OH239688   7.393   0.135   2.417 -0.5866 -0.0719 -0.6166
13250TIP3    H139689   7.404   0.165   2.507 -0.3747  0.1955 -0.7319
13250TIP3    H239690   7.298   0.137   2.402 -0.6217 -0.1332 -0.3938
13251TIP3   OH239691   3.180   1.879   0.012 -0.3151  0.7557  0.1314
13251TIP3    H139692   3.222   1.965   0.004  1.1197  0.1313  0.8576
13251TIP3    H239693   3.248   1.816  -0.012 -1.3858 -0.1838 -0.4806
13252TIP3   OH239694   8.197   1.005   2.974  0.0459 -0.0540  0.3796
13252TIP3    H139695   8.190   0.934   2.910  3.3885 -0.1617  0.0867
13252TIP3    H239696   8.110   1.047   2.971 -0.1681 -0.5363 -3.6760
13253TIP3   OH239697   1.174   0.262   3.404  0.2480  0.1269 -0.8096
13253TIP3    H139698   1.166   0.356   3.390 -0.0129 -0.0811 -2.0672
13253TIP3    H239699   1.090   0.226   3.374 -0.1068 -0.4022  0.7165
13254TIP3   OH239700   1.738   0.364   4.924  0.1256  0.1575  0.5406
13254TIP3    H139701   1.703   0.365   5.013 -2.2522  0.0842 -0.3579
13254TIP3    H239702   1.727   0.453   4.892 -2.5317 -0.6382 -0.9424
13255TIP3   OH239703   2.271   0.930   3.200 -0.9628 -0.0277 -0.1068
13255TIP3    H139704   2.204   0.870   3.169  0.9718 -2.3844  0.0935
13255TIP3    H239705   2.345   0.874   3.223  0.0179  2.1972  2.5684
13256TIP3   OH239706   2.460   0.467   2.999 -0.2706  0.9776  0.2663
13256TIP3    H139707   2.527   0.409   2.962 -0.7775 -0.3295  1.3830
13256TIP3    H239708   2.398   0.480   2.927 -0.3220 -0.1130  0.1027
13257TIP3   OH239709   3.038   3.053   1.700 -0.0219  0.0530 -0.8515
13257TIP3    H139710   3.130   3.069   1.722 -0.2761  0.2790  0.0942
13257TIP3    H239711   3.020   2.966   1.735 -0.3490  0.2848 -0.4418
13258TIP3   OH239712   7.988   7.724   1.968  0.4204 -0.0908  0.4444
13258TIP3    H139713   7.958   7.664   1.900 -0.0069  0.3471  0.2511
13258TIP3    H239714   8.044   7.786   1.922 -0.2032  0.4538  0.4254
13259TIP3   OH239715   1.970   0.734   3.570  0.0415 -0.2822 -0.1334
13259TIP3    H139716   2.050   0.689   3.598 -0.4392 -1.4747 -0.6489
13259TIP3    H239717   1.900   0.692   3.619 -0.1842  1.3867  1.0139
13260TIP3   OH239718   7.990   7.328   4.847 -0.0182  0.7391 -0.9290
13260TIP3    H139719   8.067   7.274   4.829 -0.0726  0.7894 -1.3297
13260TIP3    H239720   7.916   7.273   4.819 -0.2364  0.0848  0.8774
13261TIP3   OH239721   0.274   7.844   3.936 -0.4982 -0.2235 -0.5699
13261TIP3    H139722   0.362   7.879   3.949 -0.6418  0.2869 -0.9878
13261TIP3    H239723   0.284   7.778   3.867 -0.8647  1.5124 -2.3119
13262TIP3   OH239724   6.821   6.263   3.671 -0.1946 -0.6879  0.0939
13262TIP3    H139725   6.751   6.326   3.689 -0.3238 -1.3531  1.9928
13262TIP3    H239726   6.823   6.257   3.576 -2.9349 -0.8984  0.0158
13263TIP3   OH239727   2.396   1.266   3.303  0.4153  0.1432 -0.0484
13263TIP3    H139728   2.452   1.218   3.243 -1.3366 -0.4997 -1.2190
13263TIP3    H239729   2.429   1.245   3.390 -0.3993 -3.3373 -0.5107
13264TIP3   OH239730   1.231   0.992   2.497  0.0297 -0.3828  0.0975
13264TIP3    H139731   1.197   0.981   2.409 -0.0058 -0.4106  0.1144
13264TIP3    H239732   1.159   0.962   2.554 -0.8571  1.8806  0.2038
13265TIP3   OH239733   6.864   7.215   1.960 -0.0707  0.3312  0.5535
13265TIP3    H139734   6.857   7.212   2.056 -0.8430 -0.4362  0.4772
13265TIP3    H239735   6.948   7.259   1.944  1.0245 -1.3182  1.6099
13266TIP3   OH239736   7.955  -0.008   2.552 -0.0467 -0.2618 -0.2675
13266TIP3    H139737   8.033  -0.020   2.498 -0.5915  0.4162 -1.2057
13266TIP3    H239738   7.918   0.075   2.523 -1.0111 -0.4808  0.3235
13267TIP3   OH239739   3.666   0.599   3.392  0.3238 -0.3743  0.3269
13267TIP3    H139740   3.737   0.553   3.436  1.6173  1.1393 -0.1562
13267TIP3    H239741   3.602   0.616   3.461  0.8782 -0.8684  0.9669
13268TIP3   OH239742   3.549   0.667   2.668  0.5213  0.0713 -0.0617
13268TIP3    H139743   3.619   0.602   2.665 -0.3495 -0.8305 -0.8989
13268TIP3    H239744   3.490   0.642   2.598 -0.0561  1.5083 -0.0927
13269TIP3   OH239745   6.850   7.948   4.351  0.1879 -0.2938 -0.6403
13269TIP3    H139746   6.756   7.935   4.334  0.2457  0.4087 -1.5433
13269TIP3    H239747   6.880   8.004   4.279  1.3747 -0.7859 -0.5402
13270TIP3   OH239748   0.280   6.652   4.885  0.2585 -0.5882  0.3825
13270TIP3    H139749   0.321   6.566   4.872 -0.9624 -0.9732 -1.0296
13270TIP3    H239750   0.351   6.707   4.918  1.4133 -1.7757 -0.0561
13271TIP3   OH239751   1.997   0.530   3.793 -0.3468 -0.0661 -0.4160
13271TIP3    H139752   1.912   0.487   3.802  0.1961 -0.7151  1.8735
13271TIP3    H239753   2.032   0.532   3.882  2.1681 -0.0839 -1.3811
13272TIP3   OH239754   1.945   0.926   4.517  0.7429  0.1919  0.6554
13272TIP3    H139755   1.880   0.884   4.461  0.2968  1.8883 -0.1176
13272TIP3    H239756   1.987   0.991   4.461  3.0036 -0.7295  1.1857
13273TIP3   OH239757   6.444   6.803   4.612  0.4313 -0.3471 -0.2827
13273TIP3    H139758   6.379   6.763   4.670  0.0157 -0.9255 -1.1333
13273TIP3    H239759   6.494   6.730   4.577  0.4376 -0.0305 -0.9443
13274TIP3   OH239760   2.797   0.338   5.768  0.5272  0.1506 -0.3095
13274TIP3    H139761   2.848   0.271   5.721  1.8190  0.7736  0.1781
13274TIP3    H239762   2.771   0.400   5.701  0.3349 -0.2108 -0.5738
13275TIP3   OH239763   1.583   7.873   5.679  0.4313  0.8228  0.0959
13275TIP3    H139764   1.569   7.826   5.761  2.3560 -1.8307 -0.9918
13275TIP3    H239765   1.498   7.874   5.636  0.2256 -1.3440  0.3817
13276TIP3   OH239766   1.790   0.167   3.882  0.1434 -0.3827 -0.0974
13276TIP3    H139767   1.737   0.135   3.810 -0.1107  0.8367 -0.4616
13276TIP3    H239768   1.880   0.162   3.851  0.1749 -1.4963  0.1505
13277TIP3   OH239769   2.391   0.349   2.137 -0.7078 -0.2380  0.2561
13277TIP3    H139770   2.476   0.330   2.177  0.0992  0.2939 -1.1887
13277TIP3    H239771   2.365   0.267   2.095 -0.0954  0.0840 -0.7639
13278TIP3   OH239772   2.896   0.854   3.405  0.5441  0.3577  0.3944
13278TIP3    H139773   2.825   0.796   3.431  0.7295  0.0065  0.1131
13278TIP3    H239774   2.862   0.902   3.330 -0.2525  1.8815  1.6856
13279TIP3   OH239775   0.028   6.459   0.459  0.4414  0.2269  0.7083
13279TIP3    H139776   0.070   6.464   0.374 -0.5953 -0.2785  0.1545
13279TIP3    H239777   0.099   6.441   0.520  1.1381  0.2266 -0.0957
13280TIP3   OH239778   7.764   4.332   0.094  0.1632 -0.2396 -0.2059
13280TIP3    H139779   7.714   4.376   0.026 -1.9996 -1.1472  0.7614
13280TIP3    H239780   7.769   4.395   0.165  2.5202  0.7512 -1.1871
13281TIP3   OH239781   8.494   7.297   0.618  0.1072 -0.5167 -0.1949
13281TIP3    H139782   8.550   7.220   0.615 -1.7744 -1.9582  0.2212
13281TIP3    H239783   8.418   7.269   0.670 -0.6020  1.6287 -0.0136
13282TIP3   OH239784   8.247   5.867   2.215  0.2815  0.2040  0.1531
13282TIP3    H139785   8.157   5.835   2.208  0.5801 -0.3620 -1.4317
13282TIP3    H239786   8.242   5.940   2.277 -1.2464  0.1196  0.1580
13283TIP3   OH239787   7.158   4.083   1.209 -0.2859  0.2481  0.2244
13283TIP3    H139788   7.242   4.071   1.164 -0.7608  0.2362 -0.6697
13283TIP3    H239789   7.180   4.135   1.286  0.6729 -0.4450  0.4266
13284TIP3   OH239790   8.483   7.961   0.476 -0.5540  0.3099  0.6435
13284TIP3    H139791   8.548   7.979   0.408 -1.0528 -1.8562 -0.4706
13284TIP3    H239792   8.400   7.986   0.436 -1.0111 -2.2873 -0.1314
13285TIP3   OH239793   7.675   5.452   0.835  0.5763  0.6907  0.3890
13285TIP3    H139794   7.736   5.415   0.771  0.9682  2.0576 -0.0392
13285TIP3    H239795   7.730   5.507   0.891  0.1362 -0.0375  1.5590
13286TIP3   OH239796   7.018   5.248   0.461 -0.1267 -0.4979  0.3407
13286TIP3    H139797   6.934   5.212   0.434  0.0869 -1.0249  0.3752
13286TIP3    H239798   7.024   5.332   0.415 -0.1844 -0.9554 -0.5094
13287TIP3   OH239799   8.214   4.503   1.361 -0.2453 -0.0242  0.1229
13287TIP3    H139800   8.273   4.575   1.337 -1.8341  1.6664  1.1586
13287TIP3    H239801   8.178   4.473   1.278 -0.2423  0.9694 -0.2406
13288TIP3   OH239802   6.666   3.026   2.484 -0.6360  0.2836  0.2295
13288TIP3    H139803   6.612   2.995   2.557  1.4066 -0.5307  1.4661
13288TIP3    H239804   6.675   3.120   2.499  1.7540 -0.2260  2.4869
13289TIP3   OH239805   6.596   5.482   1.689  0.1099  0.3262  0.3179
13289TIP3    H139806   6.585   5.475   1.784 -0.3139  0.4683  0.2783
13289TIP3    H239807   6.624   5.394   1.662 -2.1333 -0.3824  0.2504
13290TIP3   OH239808   8.107   4.872   1.805 -0.0611  0.2152 -0.1940
13290TIP3    H139809   8.121   4.920   1.724  0.2722 -1.8092 -1.3612
13290TIP3    H239810   8.172   4.908   1.866  0.7390  0.6358 -1.2951
13291TIP3   OH239811   8.421   7.538   0.745 -0.1060 -0.2703 -0.6067
13291TIP3    H139812   8.423   7.464   0.684  0.2959 -0.9301  0.2033
13291TIP3    H239813   8.464   7.506   0.824 -1.4182  0.2958  0.3537
13292TIP3   OH239814   1.526   5.861   1.834  0.4055 -0.5908 -0.0221
13292TIP3    H139815   1.603   5.858   1.778 -0.0691 -1.1546 -0.6614
13292TIP3    H239816   1.486   5.775   1.824 -0.2835 -0.3194  0.3391
13293TIP3   OH239817   1.966   7.553   0.684  0.4343  0.2812  0.4327
13293TIP3    H139818   1.887   7.606   0.672 -0.0729 -0.6795 -0.5164
13293TIP3    H239819   2.008   7.552   0.598  0.7819 -0.3180  0.6086
13294TIP3   OH239820   7.374   5.902   1.882 -0.3071 -0.4698  0.4413
13294TIP3    H139821   7.363   5.977   1.940 -1.1665 -0.6560  0.5278
13294TIP3    H239822   7.327   5.926   1.803 -0.0229 -0.6460  0.2190
13295TIP3   OH239823   7.820   6.047   1.636  0.5618  0.2513  0.5858
13295TIP3    H139824   7.898   5.996   1.614  0.0848 -0.6632  0.9839
13295TIP3    H239825   7.761   5.984   1.677 -0.3948  0.9307  0.2747
13296TIP3   OH239826   0.529   4.955   0.518  0.1940 -0.2100 -0.2522
13296TIP3    H139827   0.578   4.887   0.471  0.1784  0.9204 -1.9528
13296TIP3    H239828   0.440   4.946   0.486  0.6188  2.0030 -2.1386
13297TIP3   OH239829   1.037   1.840   5.573 -0.1311 -0.3962 -0.3205
13297TIP3    H139830   1.015   1.758   5.530 -1.5198 -0.6824  0.8769
13297TIP3    H239831   1.015   1.826   5.665 -1.6529  1.7263 -0.3035
13298TIP3   OH239832   2.277   4.689   1.213  0.6347 -0.1756 -0.0756
13298TIP3    H139833   2.361   4.679   1.258  1.4543 -4.1955 -2.2002
13298TIP3    H239834   2.215   4.639   1.266  0.5103 -0.6701 -0.6754
13299TIP3   OH239835   0.728   4.994   2.252 -0.3088  0.2660 -0.1443
13299TIP3    H139836   0.713   5.084   2.224 -0.3579  0.2101 -0.2990
13299TIP3    H239837   0.644   4.951   2.239  0.2836 -0.3563 -2.1954
13300TIP3   OH239838   7.860   6.908   1.910  0.1662  0.1628  0.0621
13300TIP3    H139839   7.785   6.959   1.880  1.6612  2.9043  0.7959
13300TIP3    H239840   7.918   6.972   1.951  2.1486 -2.1452  1.0176
13301TIP3   OH239841   7.106   5.437   1.629  0.2971  0.7371 -0.1780
13301TIP3    H139842   7.163   5.360   1.622 -0.9129 -0.0771 -1.2354
13301TIP3    H239843   7.161   5.510   1.598  1.3033  0.2386  0.4066
13302TIP3   OH239844   7.727   4.673   1.988 -0.2288  0.3148  0.3078
13302TIP3    H139845   7.781   4.615   2.043 -3.4297 -2.6179  0.5210
13302TIP3    H239846   7.762   4.660   1.899  1.2823  0.7170  0.8193
13303TIP3   OH239847   0.786   7.348   1.172  0.2802  0.3142 -0.0141
13303TIP3    H139848   0.845   7.275   1.153 -0.6077 -1.0836  2.3123
13303TIP3    H239849   0.700   7.308   1.180 -0.7103  2.0831 -1.6575
13304TIP3   OH239850   0.444   5.487   1.184  0.2640 -0.0492  0.1491
13304TIP3    H139851   0.468   5.573   1.218  0.4934 -0.4553  1.0255
13304TIP3    H239852   0.391   5.506   1.106  0.7222  0.8740  0.0550
13305TIP3   OH239853   6.133   2.466   5.349 -0.1323  0.0282  0.0292
13305TIP3    H139854   6.210   2.418   5.382  0.2909 -0.9230 -2.2798
13305TIP3    H239855   6.059   2.423   5.392  0.2694 -2.5129 -1.6886
13306TIP3   OH239856   7.360   7.093   0.836 -0.3059  0.5189 -0.2623
13306TIP3    H139857   7.426   7.125   0.898  0.7004 -3.1387  0.6464
13306TIP3    H239858   7.282   7.081   0.889 -0.3974  0.5537 -0.3901
13307TIP3   OH239859   8.057   5.164   0.694  0.0997  0.0448 -0.2907
13307TIP3    H139860   8.136   5.218   0.699 -0.0177  0.1757  0.1615
13307TIP3    H239861   8.077   5.098   0.627  0.6925 -0.0909  0.0237
13308TIP3   OH239862   4.356   0.287   0.876  0.0685 -0.4614 -0.3726
13308TIP3    H139863   4.431   0.247   0.919  1.3966  1.1528 -1.1093
13308TIP3    H239864   4.309   0.333   0.947  0.2958 -0.7053 -0.0661
13309TIP3   OH239865   2.426   5.783   0.716  0.4185 -0.4565  0.3294
13309TIP3    H139866   2.460   5.793   0.627 -1.7679 -2.0354 -0.7229
13309TIP3    H239867   2.431   5.871   0.753  0.4101  0.4274 -1.7028
13310TIP3   OH239868   3.113   1.669   5.128  0.2959 -0.2552  0.5954
13310TIP3    H139869   3.126   1.683   5.221 -0.9326  1.3568  0.5480
13310TIP3    H239870   3.181   1.722   5.086 -0.2648  0.4454  0.5544
13311TIP3   OH239871   0.731   5.404   2.764 -0.7407 -0.3972  0.0790
13311TIP3    H139872   0.796   5.370   2.704 -1.7393 -0.1697 -1.1503
13311TIP3    H239873   0.781   5.432   2.841  0.4204 -1.7184 -0.1696
13312TIP3   OH239874   0.001   4.534   3.404 -0.1462 -0.5174  0.1137
13312TIP3    H139875   0.024   4.582   3.325 -3.2031  2.1641  0.7220
13312TIP3    H239876   0.067   4.560   3.468 -0.1753  0.7044 -0.3446
13313TIP3   OH239877   1.222   5.691   2.717 -0.2870  0.1830  0.2039
13313TIP3    H139878   1.217   5.631   2.642 -1.7155  0.8549 -0.2401
13313TIP3    H239879   1.258   5.772   2.680  1.9870 -0.4849  0.8753
13314TIP3   OH239880   1.356   5.815   1.112 -0.2088  0.0446 -0.2852
13314TIP3    H139881   1.393   5.837   1.198 -0.4751 -0.2947 -0.0824
13314TIP3    H239882   1.327   5.899   1.077  1.0958  0.3716 -0.6136
13315TIP3   OH239883   7.588   6.359   0.242 -0.4389  0.1149 -0.3887
13315TIP3    H139884   7.577   6.271   0.206  4.0993 -0.7039 -0.1216
13315TIP3    H239885   7.534   6.360   0.320 -0.0417 -2.7168 -0.0314
13316TIP3   OH239886   5.796   4.719   0.096 -0.1549  0.6131  0.1565
13316TIP3    H139887   5.757   4.807   0.102 -1.1598  0.1213  0.9300
13316TIP3    H239888   5.739   4.664   0.150  0.3352 -0.5643 -0.5194
13317TIP3   OH239889   6.560   7.379   0.577 -0.1341  0.3168  0.1225
13317TIP3    H139890   6.562   7.474   0.583 -0.9395  0.4174 -0.8888
13317TIP3    H239891   6.625   7.349   0.640  1.2275  1.5852 -0.6455
13318TIP3   OH239892   7.179   3.354   5.291 -0.0978  0.2618 -0.1747
13318TIP3    H139893   7.130   3.288   5.242  0.2501 -0.8442  0.9437
13318TIP3    H239894   7.148   3.345   5.381  1.2767  0.3661  0.3206
13319TIP3   OH239895   8.291   5.005   1.974  0.0615 -0.3837  0.7907
13319TIP3    H139896   8.351   5.077   1.954 -1.0402  0.8843  1.9693
13319TIP3    H239897   8.224   5.045   2.030 -2.5068 -1.4939 -1.3847
13320TIP3   OH239898   7.424   3.982   1.125  0.0782 -0.2579  0.6289
13320TIP3    H139899   7.469   3.909   1.082  0.6579 -0.3633  1.4113
13320TIP3    H239900   7.494   4.044   1.145 -0.3978  0.4577  0.0769
13321TIP3   OH239901   7.871   6.740   2.443  0.2894  0.3769  0.2125
13321TIP3    H139902   7.946   6.690   2.476 -0.1437 -0.9444 -0.7755
13321TIP3    H239903   7.880   6.737   2.348 -1.0580  0.1629  0.0808
13322TIP3   OH239904   7.233   7.652   0.424 -0.3052 -0.6113  0.1340
13322TIP3    H139905   7.142   7.674   0.404 -0.1264 -1.1754 -1.3415
13322TIP3    H239906   7.277   7.649   0.339  1.9027  3.0535  1.0051
13323TIP3   OH239907   5.550   3.275   4.894 -0.5789  0.1149 -0.0779
13323TIP3    H139908   5.501   3.271   4.812 -0.5130  0.2915 -0.1245
13323TIP3    H239909   5.638   3.303   4.868 -0.4288 -0.2757 -0.0036
13324TIP3   OH239910   0.181   7.298   0.421  0.4660 -0.4697  0.5857
13324TIP3    H139911   0.144   7.221   0.378  0.6541  0.1701 -0.7491
13324TIP3    H239912   0.107   7.335   0.471 -0.0239 -0.6640  0.0143
13325TIP3   OH239913   6.861   2.996   6.550  0.2521  0.3433 -0.9261
13325TIP3    H139914   6.836   2.903   6.553  0.2942  0.3879  1.7007
13325TIP3    H239915   6.956   2.994   6.542  0.3345  0.1298 -0.0222
13326TIP3   OH239916   7.120   4.933   2.552 -0.3389 -0.5011 -0.2513
13326TIP3    H139917   7.103   4.884   2.472 -2.2658 -0.9830  0.4094
13326TIP3    H239918   7.186   4.882   2.599 -1.2113 -1.6603 -0.2767
13327TIP3   OH239919   0.399   5.012   0.768 -0.7090 -0.8738  0.2314
13327TIP3    H139920   0.455   5.004   0.691 -0.3545  1.0875  0.2541
13327TIP3    H239921   0.324   5.063   0.738 -0.5060  0.0074  1.2101
13328TIP3   OH239922   0.293   5.831   1.990  0.1883  0.4982  0.2546
13328TIP3    H139923   0.218   5.852   2.046 -0.4076  2.7716 -1.3171
13328TIP3    H239924   0.353   5.785   2.047 -2.4560 -1.5073  1.5296
13329TIP3   OH239925   3.307   1.955   2.396 -0.0044  0.3213  0.0026
13329TIP3    H139926   3.368   1.882   2.378 -1.0181 -0.6365  0.4050
13329TIP3    H239927   3.350   2.005   2.466  0.1425 -0.5797  0.5677
13330TIP3   OH239928   0.324   4.813   1.713 -0.1810  0.2735  0.9216
13330TIP3    H139929   0.310   4.853   1.799  1.2260 -0.6016  1.5729
13330TIP3    H239930   0.412   4.841   1.688  0.2018 -1.1099  0.6750
13331TIP3   OH239931   4.668   1.977   6.294  0.1592 -0.0855  0.4596
13331TIP3    H139932   4.595   1.917   6.279  0.8650 -0.7067 -0.6072
13331TIP3    H239933   4.681   2.020   6.210 -0.1352  1.3460  1.1414
13332TIP3   OH239934   0.013   5.562   0.146  0.3094 -0.0362 -0.7806
13332TIP3    H139935   0.095   5.517   0.165 -0.4923 -2.2391 -2.4617
13332TIP3    H239936   0.030   5.610   0.065  0.4856  1.0529 -0.1239
13333TIP3   OH239937   3.987   3.455   6.654  0.3824 -0.8817 -0.3613
13333TIP3    H139938   4.026   3.467   6.567 -0.3717  0.7836 -0.4844
13333TIP3    H239939   4.036   3.514   6.711  0.5238 -1.5761  0.2527
13334TIP3   OH239940   0.064   6.965   0.885 -0.0013 -0.0349 -0.1356
13334TIP3    H139941  -0.005   6.955   0.950 -0.5723  0.0077 -0.7368
13334TIP3    H239942   0.119   6.887   0.896  1.1463  1.0133  1.8735
13335TIP3   OH239943   8.168   7.633   1.020  0.2463  0.4168  0.0393
13335TIP3    H139944   8.223   7.671   1.089 -0.5780  0.7528  0.5128
13335TIP3    H239945   8.188   7.685   0.942  1.2322 -0.0074  0.0015
13336TIP3   OH239946   7.889   5.516   0.523 -0.3237  0.2427  0.5966
13336TIP3    H139947   7.865   5.431   0.561  0.0767  0.0009  0.3110
13336TIP3    H239948   7.967   5.542   0.570 -0.6956  0.6565  0.9797
13337TIP3   OH239949   0.979   5.281   0.821  0.1026  0.2111  0.0861
13337TIP3    H139950   0.928   5.362   0.808  3.3299  2.1160 -1.4254
13337TIP3    H239951   0.981   5.240   0.734 -0.5700 -0.9356  0.6033
13338TIP3   OH239952   0.033   6.946   0.012  0.4075 -0.0086 -0.2464
13338TIP3    H139953  -0.030   6.880  -0.017  0.4923 -0.9525  1.6533
13338TIP3    H239954   0.105   6.896   0.050  0.9474  1.1518  0.2827
13339TIP3   OH239955   7.849   7.307   0.787  0.1048 -0.0013  0.6144
13339TIP3    H139956   7.893   7.384   0.823 -0.6647  0.6784  0.1105
13339TIP3    H239957   7.756   7.323   0.800 -0.1388 -0.2299 -0.6891
13340TIP3   OH239958   6.156   4.420   0.484 -1.0938  0.4685 -0.0016
13340TIP3    H139959   6.151   4.327   0.502 -0.5903  0.5373  0.4990
13340TIP3    H239960   6.066   4.445   0.463 -1.0582 -0.3252 -1.1719
13341TIP3   OH239961   7.720   5.298   2.305 -0.1012 -0.0053 -0.0422
13341TIP3    H139962   7.662   5.222   2.298 -0.3260 -0.0686  2.0094
13341TIP3    H239963   7.661   5.373   2.301  0.0891  0.0705 -1.7570
13342TIP3   OH239964   6.287   4.758   6.699 -0.0700  0.0331 -0.3079
13342TIP3    H139965   6.310   4.849   6.678  1.7675 -0.5007 -0.7541
13342TIP3    H239966   6.339   4.706   6.637  0.1230 -1.3656  1.0002
13343TIP3   OH239967   0.695   6.962   0.361  0.0583 -0.0173 -0.0360
13343TIP3    H139968   0.743   6.944   0.442 -1.6560  0.1172  1.0369
13343TIP3    H239969   0.748   7.028   0.316  0.8434  0.1784  1.1436
13344TIP3   OH239970   0.403   5.844   0.765 -0.1621  0.2654 -0.1796
13344TIP3    H139971   0.442   5.758   0.778 -1.3886 -0.1700  0.7481
13344TIP3    H239972   0.321   5.841   0.814 -0.4468  1.8049 -0.5201
13345TIP3   OH239973   7.792   7.498   2.344  0.0849 -0.1621 -0.3045
13345TIP3    H139974   7.736   7.561   2.389  1.5510 -0.0975  1.5293
13345TIP3    H239975   7.773   7.511   2.251 -2.3123  0.3985  0.2229
13346TIP3   OH239976   1.550   5.780   0.628  0.1449 -0.4214 -0.1337
13346TIP3    H139977   1.562   5.780   0.723  0.9806  1.5061 -0.2155
13346TIP3    H239978   1.639   5.775   0.592 -0.2460 -2.9564 -0.8465
13347TIP3   OH239979   1.033   4.546   0.175 -0.6509  0.1391  0.2234
13347TIP3    H139980   0.971   4.473   0.178 -0.9869  0.2863 -1.9853
13347TIP3    H239981   1.119   4.504   0.175 -0.8612 -0.5078 -4.3105
13348TIP3   OH239982   1.965   5.956   0.827  0.6570  0.4455  0.0025
13348TIP3    H139983   2.052   5.984   0.800  0.4101  0.6163 -0.6224
13348TIP3    H239984   1.906   6.023   0.792  0.1382 -0.4442 -0.8450
13349TIP3   OH239985   1.312   5.986   0.129  0.0722  0.5199  0.3652
13349TIP3    H139986   1.340   5.954   0.043 -0.2496 -1.5256  0.9958
13349TIP3    H239987   1.247   5.922   0.159  0.3066  1.1048  2.2057
13350TIP3   OH239988   1.441   6.860   3.066  0.1274 -0.3712 -0.4006
13350TIP3    H139989   1.450   6.885   2.974 -0.2546 -1.2533 -0.6809
13350TIP3    H239990   1.444   6.765   3.066 -0.7911 -0.4126  0.3952
13351TIP3   OH239991   2.694   7.911   3.281  0.2832 -0.1427 -0.4579
13351TIP3    H139992   2.761   7.882   3.219 -0.3468 -1.4955 -0.5207
13351TIP3    H239993   2.680   7.836   3.339 -0.9682  0.2229 -0.2595
13352TIP3   OH239994   1.248   7.014   2.146 -0.4218 -0.1085 -0.0935
13352TIP3    H139995   1.179   6.957   2.180  0.7250 -0.4208  1.8103
13352TIP3    H239996   1.298   6.958   2.087  0.0248 -0.7881  0.9045
13353TIP3   OH239997   7.955   6.897   3.103 -0.9088  0.0389  0.1432
13353TIP3    H139998   7.864   6.899   3.073 -1.0547  0.7696  0.6496
13353TIP3    H239999   7.950   6.913   3.197 -0.1586  1.3166 -0.0270
13354TIP3   OH240000   7.953   6.699   0.989 -0.0086  0.5165  0.1056
13354TIP3    H140001   8.023   6.728   0.930 -0.4816 -0.7253 -1.0745
13354TIP3    H240002   7.876   6.746   0.958 -0.3094 -0.3250 -0.4091
13355TIP3   OH240003   6.555   7.539   1.817  0.2512  0.3058 -0.1175
13355TIP3    H140004   6.571   7.461   1.869 -1.6810  0.7535  1.1810
13355TIP3    H240005   6.604   7.609   1.861 -1.7758  0.7873  1.4036
13356TIP3   OH240006   8.454   6.751   0.684 -0.2749  0.2836 -0.1436
13356TIP3    H140007   8.412   6.710   0.609 -0.3776  0.6697 -0.2983
13356TIP3    H240008   8.486   6.835   0.651  1.0329 -0.2097 -0.1431
13357TIP3   OH240009   5.354   3.425   4.508  0.4469 -0.2311  0.1592
13357TIP3    H140010   5.415   3.456   4.440  0.8847 -0.3939  0.4703
13357TIP3    H240011   5.363   3.490   4.578 -0.4826  0.2925 -0.1924
13358TIP3   OH240012   2.679   7.783   1.112  0.1125 -0.3386 -0.0127
13358TIP3    H140013   2.668   7.705   1.167  1.1920  0.4969  1.4497
13358TIP3    H240014   2.773   7.787   1.096 -0.1689 -0.3943 -1.6869
13359TIP3   OH240015   2.027   7.130   0.934 -0.0611 -0.2586 -0.2045
13359TIP3    H140016   2.112   7.157   0.970  0.4588 -2.4116  0.2665
13359TIP3    H240017   2.001   7.202   0.877  1.6098  0.8831  0.4455
13360TIP3   OH240018   5.693   2.145   6.821  0.5465  0.3620  0.6520
13360TIP3    H140019   5.729   2.064   6.858 -3.0368 -0.8302  1.6920
13360TIP3    H240020   5.661   2.119   6.735 -0.7237  0.6525  1.0356
13361TIP3   OH240021   2.231   7.796   0.897  0.2323 -0.2287 -0.1299
13361TIP3    H140022   2.317   7.759   0.918  1.1568  2.0182  0.1523
13361TIP3    H240023   2.194   7.819   0.983  0.1880  0.6553 -0.3896
13362TIP3   OH240024   1.746   4.408   0.748 -0.0713  0.2304  0.0645
13362TIP3    H140025   1.841   4.410   0.751 -0.0084 -1.2674 -0.3319
13362TIP3    H240026   1.725   4.412   0.654 -0.3881  0.3053  0.1378
13363TIP3   OH240027   2.044   6.678   0.051 -0.3834  0.1528 -0.3046
13363TIP3    H140028   1.964   6.630   0.031 -0.5116  0.2808 -0.1109
13363TIP3    H240029   2.034   6.762   0.007  0.3568 -0.4315 -1.6100
13364TIP3   OH240030   7.438   1.076   6.222  0.3354 -0.2113 -0.0716
13364TIP3    H140031   7.414   1.169   6.224 -1.6818 -0.7261  0.0232
13364TIP3    H240032   7.415   1.043   6.309 -1.8046 -1.4828 -1.0855
13365TIP3   OH240033   6.786   2.762   5.365  0.4425  0.3830  0.1590
13365TIP3    H140034   6.873   2.729   5.388  0.3380 -0.3047 -0.4117
13365TIP3    H240035   6.746   2.692   5.313 -0.4597  0.6896  0.4227
13366TIP3   OH240036   8.137   5.626   0.575  0.2956  0.2153  0.8994
13366TIP3    H140037   8.122   5.717   0.550 -0.2213 -0.5013 -1.5053
13366TIP3    H240038   8.212   5.598   0.521 -0.9279 -1.4161  0.0037
13367TIP3   OH240039   7.002   3.953   5.893  0.2957  0.1215 -0.4949
13367TIP3    H140040   7.052   3.929   5.971  0.0852  1.1586 -0.0313
13367TIP3    H240041   6.945   3.877   5.877  0.8395 -0.3821 -0.0613
13368TIP3   OH240042   2.996   4.838   0.606  0.1076  0.1081  0.2139
13368TIP3    H140043   2.969   4.793   0.526 -0.6090 -0.6956  0.9069
13368TIP3    H240044   3.034   4.921   0.575  0.7279 -0.6245 -1.0151
13369TIP3   OH240045   5.322   0.645   4.956 -0.1664  0.0587 -0.1208
13369TIP3    H140046   5.310   0.662   5.050  0.5543 -1.4713  0.2649
13369TIP3    H240047   5.274   0.564   4.940  0.7348 -0.3528 -0.7985
13370TIP3   OH240048   8.414   5.135   0.254  0.0526  0.3057 -0.4207
13370TIP3    H140049   8.337   5.141   0.197  0.9021 -0.2732 -1.6525
13370TIP3    H240050   8.392   5.189   0.330 -1.2609  0.7665 -1.1112
13371TIP3   OH240051   2.270   7.014   0.150  0.1603 -0.1008 -0.2658
13371TIP3    H140052   2.210   6.989   0.221 -0.5714 -2.5964 -1.6702
13371TIP3    H240053   2.332   6.941   0.145  1.2119  0.8377 -1.0927
13372TIP3   OH240054   2.818   5.827   0.348 -0.2640  0.2899  0.2559
13372TIP3    H140055   2.818   5.896   0.414  1.7487  0.4911  0.0966
13372TIP3    H240056   2.824   5.873   0.264  0.5005 -0.0298  0.1217
13373TIP3   OH240057   7.605   1.133   5.509 -0.1887 -0.2616  0.5644
13373TIP3    H140058   7.683   1.101   5.463 -0.1096 -0.0370  0.5459
13373TIP3    H240059   7.636   1.209   5.558  0.2109 -1.6326  2.5562
13374TIP3   OH240060   5.962   3.294   6.645 -0.6760 -0.0669 -0.1906
13374TIP3    H140061   6.048   3.262   6.672 -0.3873  1.2463  0.4780
13374TIP3    H240062   5.901   3.252   6.706 -0.6533 -1.9391 -1.4156
13375TIP3   OH240063   6.479   2.870   6.763  0.0190  0.0015 -0.2560
13375TIP3    H140064   6.527   2.842   6.840  0.4971 -0.8890 -0.8596
13375TIP3    H240065   6.397   2.820   6.767  0.9096 -1.5853 -1.3791
13376TIP3   OH240066   7.071   3.901   5.372  0.8148 -0.1065 -0.6363
13376TIP3    H140067   7.088   3.991   5.342  0.9919 -0.3163 -1.1602
13376TIP3    H240068   6.986   3.879   5.335  1.3016 -0.5789 -1.4599
13377TIP3   OH240069   1.971   7.547   1.498  0.5350  0.6291  0.5369
13377TIP3    H140070   1.901   7.598   1.540  0.1807 -0.0311  0.7557
13377TIP3    H240071   1.931   7.462   1.481  0.7084  0.8594 -1.0593
13378TIP3   OH240072   6.025   4.789   6.134 -0.1847  0.1276 -0.3415
13378TIP3    H140073   6.093   4.764   6.071 -0.6355 -0.5501 -0.5602
13378TIP3    H240074   5.947   4.743   6.104 -0.5223  0.2062  0.4214
13379TIP3   OH240075   7.399   2.151   6.300 -0.3324  0.2706  0.3806
13379TIP3    H140076   7.315   2.125   6.261  0.0926 -1.1959  0.3885
13379TIP3    H240077   7.460   2.153   6.227  0.4401 -2.3703  0.8600
13380TIP3   OH240078   6.395   4.827   5.607 -0.1875  0.1537 -0.5296
13380TIP3    H140079   6.366   4.919   5.600  1.0710  0.4982 -1.2917
13380TIP3    H240080   6.472   4.830   5.662 -0.3581 -0.5056 -0.2495
13381TIP3   OH240081   5.867   3.796   6.348  0.5138  0.1366  0.3703
13381TIP3    H140082   5.890   3.850   6.273  1.1433 -1.4529 -0.6278
13381TIP3    H240083   5.831   3.857   6.412  0.0929  1.5479 -1.1632
13382TIP3   OH240084   3.134   3.822   6.311 -0.0966  0.1601 -0.0539
13382TIP3    H140085   3.039   3.839   6.314  0.1620  1.3848  2.9588
13382TIP3    H240086   3.155   3.792   6.399  2.2514 -0.6331 -0.8626
13383TIP3   OH240087   7.495   1.873   1.657  0.6835  0.0439 -0.8416
13383TIP3    H140088   7.441   1.950   1.642 -0.1074 -0.3726 -0.1908
13383TIP3    H240089   7.506   1.870   1.752 -0.1074 -1.1851 -0.7784
13384TIP3   OH240090   7.086   7.905   1.511  0.0205 -0.4022 -0.1951
13384TIP3    H140091   7.015   7.845   1.490  0.9010 -1.3083 -0.6371
13384TIP3    H240092   7.165   7.850   1.513  0.8145  0.6949 -0.3968
13385TIP3   OH240093   7.842   1.622   1.547 -0.3547 -0.0191 -0.2083
13385TIP3    H140094   7.894   1.698   1.519 -1.3440  1.1762  1.1549
13385TIP3    H240095   7.754   1.656   1.559 -0.7645 -1.3430  0.6312
13386TIP3   OH240096   0.827   0.826   0.157 -0.2402  0.5627 -0.1455
13386TIP3    H140097   0.782   0.882   0.094 -0.2719  2.0869  1.2139
13386TIP3    H240098   0.779   0.837   0.239  1.7178  1.1356  0.9790
13387TIP3   OH240099   1.656   1.146   1.434  0.5318 -0.5523 -0.0336
13387TIP3    H140100   1.695   1.186   1.357 -0.9806  1.0619  0.0074
13387TIP3    H240101   1.565   1.130   1.410  0.5649 -1.9586  0.7158
13388TIP3   OH240102   8.513   7.377   4.732  0.1637  0.2495  0.0279
13388TIP3    H140103   8.447   7.443   4.752 -0.1270 -0.4611  1.4754
13388TIP3    H240104   8.480   7.333   4.654  0.4121  1.8658 -1.0186
13389TIP3   OH240105   7.975   7.597   1.668  0.4659 -0.4207 -0.0698
13389TIP3    H140106   8.055   7.567   1.712  0.3738 -1.6796 -0.7536
13389TIP3    H240107   7.945   7.521   1.619 -1.2957 -0.0245  0.3847
13390TIP3   OH240108   4.748   4.200   5.804  0.6607 -0.2416  0.5117
13390TIP3    H140109   4.773   4.162   5.888  0.4151 -0.5347  0.4516
13390TIP3    H240110   4.800   4.151   5.739 -0.0247 -0.8115  0.3909
13391TIP3   OH240111   3.562   2.386   6.423  0.3286  0.3866 -0.7594
13391TIP3    H140112   3.470   2.361   6.411  0.1811  0.4922  0.1384
13391TIP3    H240113   3.612   2.311   6.388 -0.0820  0.6120 -1.8578
13392TIP3   OH240114   7.367   6.557   1.602 -0.5005  0.2059 -0.2611
13392TIP3    H140115   7.398   6.614   1.532  1.8454  1.3305  1.6336
13392TIP3    H240116   7.399   6.470   1.577 -0.8680  0.3463 -1.2593
13393TIP3   OH240117   6.935   5.753   1.226  0.3510  0.4824  0.1921
13393TIP3    H140118   6.979   5.778   1.308 -3.4955 -0.1454  2.6054
13393TIP3    H240119   6.922   5.659   1.234  1.6211  0.0869 -2.0717
13394TIP3   OH240120   8.329   7.787   1.184 -0.2486  0.7073  0.4017
13394TIP3    H140121   8.393   7.721   1.211 -1.6039 -1.5082 -1.5453
13394TIP3    H240122   8.374   7.839   1.118 -0.2309 -0.4589 -0.5179
13395TIP3   OH240123   0.028   5.371   1.610 -0.3783 -0.4480 -0.3609
13395TIP3    H140124   0.112   5.383   1.656  0.3092 -3.2060 -0.8155
13395TIP3    H240125   0.053   5.351   1.520 -1.6796  2.4963 -1.4575
13396TIP3   OH240126   4.783   3.044   6.288  0.2371  0.2699 -0.0473
13396TIP3    H140127   4.838   3.114   6.324 -1.1431  0.4829  1.7216
13396TIP3    H240128   4.724   3.021   6.360 -0.6671 -1.3140 -1.2774
13397TIP3   OH240129   1.708   0.374   2.474  0.5498 -0.1801  0.0683
13397TIP3    H140130   1.785   0.360   2.529 -0.7550 -0.5610  1.8492
13397TIP3    H240131   1.671   0.457   2.506  0.4965  0.2513 -1.1110
13398TIP3   OH240132   6.683   1.008   1.681  0.2011  0.2619  0.0522
13398TIP3    H140133   6.588   1.000   1.670  0.3648 -0.5882 -0.7860
13398TIP3    H240134   6.716   0.920   1.664  1.1040  0.4565  0.7816
13399TIP3   OH240135   1.223   0.231   1.742 -0.0988  0.0996 -0.3563
13399TIP3    H140136   1.165   0.158   1.719 -0.0582  0.0579 -0.3256
13399TIP3    H240137   1.304   0.190   1.770 -0.4827  0.1239  0.7917
13400TIP3   OH240138   1.256   0.342   0.485 -0.2550 -0.4852  0.0943
13400TIP3    H140139   1.349   0.320   0.491 -0.7110 -2.5115  0.0377
13400TIP3    H240140   1.239   0.392   0.565  0.8759 -0.1412  0.1276
13401TIP3   OH240141   6.348   5.146   1.281  0.1231  0.2307  0.5855
13401TIP3    H140142   6.433   5.177   1.250 -0.8592  1.9205 -0.4613
13401TIP3    H240143   6.346   5.173   1.373 -0.1552  2.0796  0.0450
13402TIP3   OH240144   6.215   7.740   1.612 -0.1389 -0.0678 -0.0553
13402TIP3    H140145   6.289   7.708   1.560  1.0320  1.1348  0.8259
13402TIP3    H240146   6.254   7.803   1.673 -2.1781  1.9063 -0.7350
13403TIP3   OH240147   5.958   2.315   6.591 -0.5430  0.2487  0.8509
13403TIP3    H140148   5.971   2.269   6.673  0.6096 -0.4035  0.3161
13403TIP3    H240149   5.885   2.269   6.549 -0.4268 -0.0988  1.0309
13404TIP3   OH240150   3.085   4.360   6.649  0.5401  0.3064 -0.4718
13404TIP3    H140151   3.121   4.425   6.709  1.1228  0.1931 -0.6917
13404TIP3    H240152   3.115   4.388   6.562  1.4342 -0.6740 -0.4864
13405TIP3   OH240153   7.533   7.670   0.883  0.4029  0.1829 -0.0707
13405TIP3    H140154   7.534   7.753   0.834  2.0717  1.0575  1.3746
13405TIP3    H240155   7.464   7.619   0.842  0.9223  1.3822 -2.5354
13406TIP3   OH240156   5.255   1.601   4.824  0.3327  0.3618 -0.2894
13406TIP3    H140157   5.296   1.629   4.906 -2.8948  3.3839  0.3818
13406TIP3    H240158   5.200   1.527   4.848  0.7702  0.0967 -0.0919
13407TIP3   OH240159   4.471   1.816   6.194  0.0192  0.2498  0.2037
13407TIP3    H140160   4.398   1.821   6.133  2.7681 -0.5188 -3.3161
13407TIP3    H240161   4.505   1.727   6.185  0.7268  0.2282  2.6093
13408TIP3   OH240162   6.396   7.630   2.296 -0.1897 -0.2176 -0.7430
13408TIP3    H140163   6.303   7.607   2.292 -0.2698  0.1394 -0.9458
13408TIP3    H240164   6.427   7.590   2.377 -0.9706  1.3000  0.3180
13409TIP3   OH240165   5.973   5.095   0.817 -0.1983 -0.0774 -0.2454
13409TIP3    H140166   5.945   5.131   0.733 -0.7877  0.5925  0.2277
13409TIP3    H240167   6.053   5.143   0.838 -0.5823  0.4445  0.0349
13410TIP3   OH240168   8.469   0.175   2.918  0.2492  0.2231 -0.1784
13410TIP3    H140169   8.390   0.226   2.902 -1.1484 -2.1745 -1.2641
13410TIP3    H240170   8.493   0.140   2.832  2.3873  0.7717  0.1750
13411TIP3   OH240171   1.110   2.703   3.035  0.4668  0.2608  0.0016
13411TIP3    H140172   1.097   2.615   3.071 -0.3083  0.0523 -0.7565
13411TIP3    H240173   1.022   2.729   3.005  0.7369  1.1974  0.0151
13412TIP3   OH240174   1.464   2.077   0.485  0.0437 -0.2549 -0.1593
13412TIP3    H140175   1.545   2.128   0.488  0.6301 -1.2121  1.1068
13412TIP3    H240176   1.425   2.098   0.401  1.3087  0.6981 -0.5205
13413TIP3   OH240177   0.411   1.062   0.578 -0.1457 -0.1055  0.6802
13413TIP3    H140178   0.460   0.983   0.598  0.0421  0.4106  2.3555
13413TIP3    H240179   0.475   1.133   0.583 -0.4604  0.2394 -0.0627
13414TIP3   OH240180   7.468   7.923   0.296  0.1183  0.3154 -0.5331
13414TIP3    H140181   7.559   7.938   0.322 -0.2361  1.2724  0.2270
13414TIP3    H240182   7.456   7.828   0.301  1.8418 -0.1088 -3.3174
13415TIP3   OH240183   8.444   0.868   2.233 -0.1941  0.0384 -0.3753
13415TIP3    H140184   8.519   0.911   2.192 -0.7764  1.5321  0.0784
13415TIP3    H240185   8.467   0.775   2.236  2.2830  0.6620  1.0977
13416TIP3   OH240186   1.492   0.647   3.197  0.0577 -0.2751 -0.4565
13416TIP3    H140187   1.547   0.571   3.217 -0.6502 -0.7545 -0.3058
13416TIP3    H240188   1.541   0.696   3.131 -0.0537 -1.5156 -1.4695
13417TIP3   OH240189   0.624   1.803   1.657 -0.2110  0.2697 -0.2017
13417TIP3    H140190   0.649   1.805   1.749 -1.0386 -0.7903  0.0557
13417TIP3    H240191   0.702   1.771   1.611 -0.5045 -1.3717  0.4003
13418TIP3   OH240192   8.302   0.473   1.274 -0.4695 -0.2050  0.1827
13418TIP3    H140193   8.305   0.554   1.325 -0.5316 -0.6281  0.8652
13418TIP3    H240194   8.233   0.422   1.315  0.8039 -1.3736  0.8982
13419TIP3   OH240195   1.565   1.770   3.425  0.2154 -0.3689 -0.5582
13419TIP3    H140196   1.506   1.761   3.350  0.6119 -0.7832 -0.8210
13419TIP3    H240197   1.634   1.829   3.393  0.5361 -0.7737 -0.6104
13420TIP3   OH240198   7.600   7.329   1.417  0.0715  1.0017 -0.6989
13420TIP3    H140199   7.527   7.339   1.355 -0.0945 -0.6680 -0.7909
13420TIP3    H240200   7.677   7.351   1.366  0.0643 -1.5733 -1.9069
13421TIP3   OH240201   2.863   1.645   0.814  0.3703 -0.2616  1.2307
13421TIP3    H140202   2.802   1.640   0.740  0.7660 -0.4652  0.9152
13421TIP3    H240203   2.889   1.737   0.818  0.5335 -0.2963  0.9648
13422TIP3   OH240204   6.105   7.444   1.024 -0.4289  0.0559  0.2545
13422TIP3    H140205   6.081   7.527   1.067  3.0332  0.9013  0.7282
13422TIP3    H240206   6.122   7.468   0.933  1.6246  0.1342  0.6257
13423TIP3   OH240207   4.378   1.358   5.331 -0.2199  0.0731 -0.4176
13423TIP3    H140208   4.303   1.298   5.329 -0.3489  0.2735 -2.0035
13423TIP3    H240209   4.400   1.372   5.239  1.9820 -0.2511  0.0300
13424TIP3   OH240210   1.707   0.266   3.061 -0.1331  0.1962 -0.1070
13424TIP3    H140211   1.769   0.317   3.114 -1.4652  1.4566  0.2848
13424TIP3    H240212   1.668   0.330   3.002 -2.0347 -0.2931  0.5817
13425TIP3   OH240213   4.364   4.978   6.659  0.4759 -0.3764  0.1143
13425TIP3    H140214   4.358   5.073   6.654  1.6317 -0.2868  0.2778
13425TIP3    H240215   4.394   4.961   6.749 -2.6366 -1.0636  1.0926
13426TIP3   OH240216   1.978   1.355   0.662 -0.0308  0.0669  0.0485
13426TIP3    H140217   1.959   1.262   0.677 -0.2895 -0.1946 -1.7580
13426TIP3    H240218   1.892   1.396   0.654  0.0832  0.4803  0.8831
13427TIP3   OH240219   6.975   6.191   1.001  0.5118  0.4318 -0.2054
13427TIP3    H140220   6.993   6.235   0.918 -0.9576  0.6644 -0.4275
13427TIP3    H240221   6.879   6.196   1.010  0.3633 -2.0950  0.0963
13428TIP3   OH240222   6.689   3.473   6.963  0.4054  0.6598  0.1205
13428TIP3    H140223   6.746   3.489   6.888 -1.5406 -1.8200 -1.9692
13428TIP3    H240224   6.618   3.537   6.953  0.1496  0.3335 -0.1445
13429TIP3   OH240225   3.503   5.680   6.954  0.2754  0.3830  0.3300
13429TIP3    H140226   3.427   5.625   6.972  1.2543 -1.5170 -1.0679
13429TIP3    H240227   3.499   5.694   6.859  1.4098  0.6614  0.3226
13430TIP3   OH240228   6.890   5.822   2.503  0.2202  0.2497  0.3486
13430TIP3    H140229   6.946   5.854   2.432 -0.4075  2.1192  0.6721
13430TIP3    H240230   6.829   5.762   2.460  1.2161 -0.3011 -0.3226
13431TIP3   OH240231   0.005   1.676   2.073  0.5120 -0.6094  0.7699
13431TIP3    H140232  -0.040   1.758   2.092 -0.8601 -1.3780  0.9339
13431TIP3    H240233   0.036   1.686   1.983  1.2737  0.4912  1.1558
13432TIP3   OH240234   0.486   1.999   1.000 -0.2173 -0.2623  0.2923
13432TIP3    H140235   0.440   2.075   0.965  0.9816  0.2049 -0.2862
13432TIP3    H240236   0.569   1.996   0.952  0.4893 -0.9125  1.5205
13433TIP3   OH240237   3.796   4.398   6.457  0.6943 -0.1529 -0.1304
13433TIP3    H140238   3.801   4.433   6.368 -0.8745  0.1189 -0.1287
13433TIP3    H240239   3.824   4.471   6.513 -1.4216  0.7630 -0.2075
13434TIP3   OH240240   5.929   7.719   3.175  0.0669 -0.0997  0.5302
13434TIP3    H140241   5.850   7.695   3.225 -0.9916 -0.6321 -1.3626
13434TIP3    H240242   6.001   7.708   3.237 -1.1229 -1.7159  1.6615
13435TIP3   OH240243   6.203   7.022   0.121  0.6157  0.2241  0.2846
13435TIP3    H140244   6.250   7.051   0.043  0.6784  1.6089  0.8236
13435TIP3    H240245   6.116   7.061   0.113  0.8917  1.0609  1.3167
13436TIP3   OH240246   5.999   5.122   1.215  0.1434 -0.0893 -0.0957
13436TIP3    H140247   6.060   5.132   1.288  0.9391 -1.9070 -0.4622
13436TIP3    H240248   5.941   5.197   1.221  2.1163  1.4198  0.5703
13437TIP3   OH240249   7.538   7.173   1.018  0.2789  0.1145 -0.0360
13437TIP3    H140250   7.536   7.258   1.062  0.1832 -0.6214  1.4081
13437TIP3    H240251   7.493   7.114   1.078 -0.9352 -0.6728 -1.6758
13438TIP3   OH240252   6.726   5.518   0.658 -0.3054 -0.2270  0.6104
13438TIP3    H140253   6.672   5.545   0.732  3.5111  2.3828  2.6032
13438TIP3    H240254   6.699   5.574   0.585 -0.2160  1.1106  1.6051
13439TIP3   OH240255   5.635   6.459   0.334 -0.0658  0.5874 -0.9321
13439TIP3    H140256   5.594   6.473   0.420  0.2601 -1.1558 -0.4850
13439TIP3    H240257   5.581   6.393   0.292  0.4981  0.5461 -1.5883
13440TIP3   OH240258   7.105   7.068   1.324 -0.3938 -0.0627 -0.5246
13440TIP3    H140259   7.065   7.077   1.410  3.0270  0.0761  1.1539
13440TIP3    H240260   7.079   7.146   1.276 -0.7033  0.8446  1.0948
13441TIP3   OH240261   2.923   4.108   6.803 -0.0783  0.0888  0.4957
13441TIP3    H140262   2.988   4.056   6.755 -0.8585  0.1637 -0.6588
13441TIP3    H240263   2.941   4.198   6.778  0.0574  0.2027  1.0086
13442TIP3   OH240264   2.269   1.567   1.040 -1.0550 -0.2557  0.0861
13442TIP3    H140265   2.359   1.597   1.027 -1.1981 -0.4245 -1.4035
13442TIP3    H240266   2.276   1.499   1.107  0.2659 -1.8813 -1.6314
13443TIP3   OH240267   7.248   6.163   0.578  0.1571 -0.1026  0.5382
13443TIP3    H140268   7.321   6.212   0.540 -2.2338  1.4810 -2.2142
13443TIP3    H240269   7.258   6.075   0.543  0.2979  0.3092 -0.4790
13444TIP3   OH240270   7.746   7.862   2.958 -0.1893  1.0012  0.1632
13444TIP3    H140271   7.722   7.826   2.872 -0.7780  1.8978 -0.0455
13444TIP3    H240272   7.692   7.940   2.968  0.5993  1.4597  0.9196
13445TIP3   OH240273   3.133   4.653   6.419 -0.4536  0.5459 -0.2548
13445TIP3    H140274   3.226   4.632   6.414 -0.7296 -0.4093 -1.8126
13445TIP3    H240275   3.089   4.573   6.390 -1.7174  1.3189 -0.5001
13446TIP3   OH240276   0.601   2.356   2.566 -0.0789  0.1079 -0.7615
13446TIP3    H140277   0.690   2.336   2.537  0.4890 -0.5686  1.3210
13446TIP3    H240278   0.567   2.272   2.597 -0.9136  0.6393 -0.2103
13447TIP3   OH240279   5.706   7.279   2.322  0.0494 -0.0586 -0.2959
13447TIP3    H140280   5.764   7.269   2.398 -2.8830 -1.7917  1.8300
13447TIP3    H240281   5.633   7.332   2.355 -0.2015  1.0254 -2.5424
13448TIP3   OH240282   8.149   6.830   0.814  0.0774 -0.2753 -0.3259
13448TIP3    H140283   8.082   6.817   0.747  0.2802 -0.9221 -0.4084
13448TIP3    H240284   8.231   6.805   0.771  0.1150 -1.4312  0.3874
13449TIP3   OH240285   1.210   2.118   1.867  0.0297  0.0470  0.1071
13449TIP3    H140286   1.284   2.116   1.807  0.2531 -0.0699  0.3820
13449TIP3    H240287   1.153   2.047   1.838  1.1746 -1.4080  1.3202
13450TIP3   OH240288   5.016   2.160   5.778 -0.1819  0.6610  0.1728
13450TIP3    H140289   5.088   2.183   5.720  0.1625  0.2754  0.4464
13450TIP3    H240290   5.038   2.072   5.810  0.6258  1.6591  2.4473
13451TIP3   OH240291   3.510   4.337   5.138 -0.6819  0.1272 -0.3251
13451TIP3    H140292   3.523   4.393   5.214 -0.9179  2.5097 -2.0101
13451TIP3    H240293   3.596   4.329   5.098 -0.7527 -0.2601 -0.4052
13452TIP3   OH240294   1.959   0.115   0.727  0.5591 -0.1863  0.4135
13452TIP3    H140295   2.028   0.142   0.666  1.5032 -0.4496  1.3546
13452TIP3    H240296   1.927   0.198   0.763  0.9632 -0.1095  0.6022
13453TIP3   OH240297   0.298   6.033   1.250 -0.4879 -0.0470 -0.1977
13453TIP3    H140298   0.305   6.039   1.154 -0.8977  0.3744 -0.2051
13453TIP3    H240299   0.205   6.045   1.268 -0.8148 -2.7883  0.0826
13454TIP3   OH240300   2.106   1.419   1.556 -0.4216 -0.1434  0.2809
13454TIP3    H140301   2.074   1.453   1.472  0.8118 -0.2434 -0.2523
13454TIP3    H240302   2.124   1.497   1.608  0.8835  0.0045 -0.3581
13455TIP3   OH240303   5.541   2.349   6.554 -0.6606  0.1434  0.2896
13455TIP3    H140304   5.557   2.256   6.570 -0.8698  0.1494  0.5374
13455TIP3    H240305   5.491   2.378   6.630  0.2251  0.6863  0.6730
13456TIP3   OH240306   2.670   0.922   0.469 -0.2408  0.4799 -0.5300
13456TIP3    H140307   2.734   0.919   0.398  0.5667  0.9335  0.1738
13456TIP3    H240308   2.648   1.015   0.477  0.7480  0.6174  0.7644
13457TIP3   OH240309   0.427   7.025   0.362 -0.0814 -0.1995  0.2479
13457TIP3    H140310   0.515   7.008   0.329 -0.8836  0.6154 -2.5005
13457TIP3    H240311   0.369   6.982   0.298 -1.6696 -1.1122  2.2490
13458TIP3   OH240312   1.722   7.899   1.461 -0.0984  0.0556 -0.1586
13458TIP3    H140313   1.793   7.910   1.398 -0.8624 -0.8505 -1.1965
13458TIP3    H240314   1.732   7.810   1.493  1.3038  1.0380  2.3003
13459TIP3   OH240315   7.491   7.060   1.515 -0.0319  0.6785 -0.4161
13459TIP3    H140316   7.513   7.148   1.485 -1.1103  0.9898 -0.3296
13459TIP3    H240317   7.574   7.024   1.546  0.6573  1.2071 -1.5866
13460TIP3   OH240318   1.039   5.636   0.424 -0.0426 -0.6608 -0.1904
13460TIP3    H140319   1.101   5.586   0.477  0.9751 -1.0137 -1.6802
13460TIP3    H240320   1.017   5.578   0.351 -0.7376  0.1524 -0.6417
13461TIP3   OH240321   0.564   0.093   0.928  0.6211  0.5822  0.1026
13461TIP3    H140322   0.480   0.131   0.952  0.6188  0.5103  0.2064
13461TIP3    H240323   0.610   0.080   1.011 -0.5224 -2.3507  0.3307
13462TIP3   OH240324   3.592   4.713   6.695 -0.2028  0.5978  0.1457
13462TIP3    H140325   3.567   4.715   6.602  0.1779 -0.5443  0.0143
13462TIP3    H240326   3.512   4.687   6.740 -0.9995  3.2903  0.3744
13463TIP3   OH240327   0.710   7.588   1.275 -0.2291  0.2932 -0.1196
13463TIP3    H140328   0.770   7.514   1.274 -0.4932  0.0735  0.3073
13463TIP3    H240329   0.674   7.591   1.187 -2.6775 -2.0747  0.7562
13464TIP3   OH240330   4.516   4.319   6.204  0.3479 -0.0774  0.0539
13464TIP3    H140331   4.480   4.323   6.115 -0.1054 -0.1536  0.2312
13464TIP3    H240332   4.572   4.396   6.211  0.5569 -0.1890 -0.3724
13465TIP3   OH240333   0.121   7.168   3.282 -0.1890  0.2233 -0.0353
13465TIP3    H140334   0.060   7.165   3.208  0.8035 -1.4970 -0.8224
13465TIP3    H240335   0.078   7.224   3.346 -1.8316  0.3988 -1.2535
13466TIP3   OH240336   0.720   6.080   3.121 -0.2614 -0.5458 -0.4318
13466TIP3    H140337   0.777   6.010   3.153 -2.6224 -2.1900  0.3190
13466TIP3    H240338   0.745   6.157   3.172  2.6193 -0.7183 -1.5323
13467TIP3   OH240339   0.086   6.063   1.823  0.2770  0.1680 -0.1473
13467TIP3    H140340   0.099   6.028   1.911 -0.4853  1.1103  0.3496
13467TIP3    H240341   0.014   6.011   1.787  1.0503 -0.6788 -0.4723
13468TIP3   OH240342   2.886   1.151   0.804 -0.1442 -0.6724  0.1069
13468TIP3    H140343   2.953   1.098   0.761 -0.2836 -0.7865  0.0303
13468TIP3    H240344   2.869   1.223   0.742  0.4427 -0.2284  0.4526
13469TIP3   OH240345   0.158   1.049   0.482 -0.2438 -1.1758 -0.1012
13469TIP3    H140346   0.153   0.961   0.520  1.0038 -0.8048  0.9649
13469TIP3    H240347   0.240   1.085   0.515 -1.3509  0.8796  0.5008
13470TIP3   OH240348   2.994   1.397   0.187  0.1271  0.2261 -0.2545
13470TIP3    H140349   2.925   1.340   0.153 -0.9243  0.7400  0.9925
13470TIP3    H240350   3.058   1.337   0.225  0.3154 -0.2456 -1.2993
13471TIP3   OH240351   1.206   5.543   2.932  0.1031 -0.1321 -0.5716
13471TIP3    H140352   1.250   5.595   2.865  0.4929  2.5675  1.7127
13471TIP3    H240353   1.263   5.467   2.944  1.9318  1.2011 -0.6930
13472TIP3   OH240354   3.336   0.282   1.900 -0.1706  0.2321 -0.2501
13472TIP3    H140355   3.348   0.191   1.926  0.0606  0.7062  1.3518
13472TIP3    H240356   3.330   0.279   1.805 -2.3397 -1.7074 -0.0910
13473TIP3   OH240357   8.471   6.759   1.777  0.0145 -0.0031 -0.0972
13473TIP3    H140358   8.546   6.700   1.768  2.1102  2.3622  1.1751
13473TIP3    H240359   8.438   6.744   1.865 -1.0800 -1.1019 -0.6862
13474TIP3   OH240360   1.067   0.207   0.738  0.0797 -0.6365  0.2052
13474TIP3    H140361   1.008   0.165   0.677 -0.9576 -1.1072  1.5127
13474TIP3    H240362   1.152   0.165   0.722  0.3421  0.7492 -2.3649
13475TIP3   OH240363   1.618   5.172   1.806 -0.1956  0.7622  0.3590
13475TIP3    H140364   1.553   5.223   1.757  1.6458  2.5103 -0.3297
13475TIP3    H240365   1.678   5.238   1.841  1.2602 -0.8287  0.9099
13476TIP3   OH240366   3.297   4.031   5.732 -0.0122 -0.3466 -0.0653
13476TIP3    H140367   3.297   4.031   5.636 -0.6234 -0.3481 -0.0640
13476TIP3    H240368   3.205   4.034   5.757  0.1694  2.0337  0.5140
13477TIP3   OH240369   3.816   1.095   6.687 -0.2958  0.7286  0.1329
13477TIP3    H140370   3.804   1.143   6.769 -1.6217 -1.4197  1.2564
13477TIP3    H240371   3.768   1.145   6.622 -1.7439  0.8819  1.3047
13478TIP3   OH240372   5.748   3.054   5.720  0.0716 -0.7871 -0.6585
13478TIP3    H140373   5.748   3.142   5.757  2.1372 -1.5550  1.2015
13478TIP3    H240374   5.663   3.048   5.675  0.2698  2.4458 -1.6064
13479TIP3   OH240375   3.831   4.605   6.624  0.8175  0.0085  0.2558
13479TIP3    H140376   3.870   4.559   6.699  0.0771 -1.5545 -0.3046
13479TIP3    H240377   3.752   4.645   6.660 -0.2647 -1.8880  0.0075
13480TIP3   OH240378   8.131   7.485   2.050 -0.1287  0.5499 -0.2603
13480TIP3    H140379   8.089   7.568   2.074 -0.6874 -0.0573  0.9172
13480TIP3    H240380   8.060   7.421   2.056  0.8106 -0.3886  1.1109
13481TIP3   OH240381   2.416   1.308   2.477  0.6709  0.3135 -0.3037
13481TIP3    H140382   2.393   1.311   2.570  0.5611  2.5934 -0.3668
13481TIP3    H240383   2.356   1.244   2.439  2.1006 -2.1881  1.5300
13482TIP3   OH240384   7.169   7.952   2.077 -0.1652 -0.0688  0.1490
13482TIP3    H140385   7.153   7.862   2.102  0.2421 -0.2158 -0.1169
13482TIP3    H240386   7.094   8.001   2.111 -0.1728 -0.4430  0.6552
13483TIP3   OH240387   7.423   7.760   1.120  0.1720  0.1129  0.2429
13483TIP3    H140388   7.504   7.779   1.166  1.4458 -4.2710  0.0491
13483TIP3    H240389   7.450   7.710   1.043 -2.5764 -0.1354 -0.6381
13484TIP3   OH240390   7.057   6.818   0.386  0.4009  0.4236  0.3248
13484TIP3    H140391   7.070   6.774   0.470 -0.3884 -1.3688 -0.4637
13484TIP3    H240392   7.142   6.855   0.365  1.0508 -0.5748  1.1211
13485TIP3   OH240393   6.725   6.958   1.365  0.3133  0.3455 -0.5400
13485TIP3    H140394   6.789   6.946   1.294  0.7623 -1.8392  0.2015
13485TIP3    H240395   6.768   7.020   1.424  1.5829 -0.7644 -0.2725
13486TIP3   OH240396   4.552   0.393   1.177  0.6111 -0.5584 -0.2832
13486TIP3    H140397   4.640   0.385   1.140  0.4250 -0.2358 -0.8006
13486TIP3    H240398   4.499   0.429   1.106  0.2239 -0.0233  0.2708
13487TIP3   OH240399   8.115   7.343   2.304  0.5228 -0.0377 -0.1423
13487TIP3    H140400   8.067   7.264   2.327  1.3730 -0.1186  1.3665
13487TIP3    H240401   8.194   7.312   2.260  0.0413  0.0371 -1.0700
13488TIP3   OH240402   2.827   6.874   1.242 -0.1130  0.1383  0.0287
13488TIP3    H140403   2.877   6.793   1.238  0.2470  0.3345  0.5054
13488TIP3    H240404   2.782   6.879   1.158 -1.6182 -1.5072  0.7130
13489TIP3   OH240405   6.015   2.975   6.819  0.4829 -0.6023 -0.0952
13489TIP3    H140406   6.025   2.935   6.733  1.5175  0.6894 -0.5769
13489TIP3    H240407   6.068   2.921   6.877 -0.3762 -1.5950 -0.2101
13490TIP3   OH240408   7.745   7.754   0.144  0.0931 -0.0117  0.1710
13490TIP3    H140409   7.778   7.753   0.234  1.1047 -1.2376 -0.1899
13490TIP3    H240410   7.681   7.683   0.141 -1.6614  1.5060  0.5116
13491TIP3   OH240411   7.692   6.842   1.154  0.0136 -0.5859  0.3098
13491TIP3    H140412   7.743   6.913   1.192 -2.6837  1.2698  0.5368
13491TIP3    H240413   7.708   6.849   1.060  0.6948 -0.4699  0.4275
13492TIP3   OH240414   0.990   7.185   1.076 -0.5882  0.2065 -0.2046
13492TIP3    H140415   1.080   7.216   1.061 -1.3519  2.0533 -1.1328
13492TIP3    H240416   0.995   7.139   1.159  1.4481 -0.6672 -0.7564
13493TIP3   OH240417   1.272   0.125   0.220 -0.2326 -0.0570  0.1518
13493TIP3    H140418   1.218   0.070   0.277  1.1904 -1.2275  0.4021
13493TIP3    H240419   1.246   0.099   0.132 -1.2031  0.5262  0.2510
13494TIP3   OH240420   1.639   7.451   0.221 -0.4174  0.1007  0.0233
13494TIP3    H140421   1.680   7.369   0.194 -1.4480 -0.2251 -0.6275
13494TIP3    H240422   1.662   7.461   0.313  1.2110  0.0051 -0.3692
13495TIP3   OH240423   1.265   2.510   2.387  0.4615 -0.1621  0.0762
13495TIP3    H140424   1.212   2.481   2.312 -0.2574  0.7662  0.2197
13495TIP3    H240425   1.348   2.538   2.348  0.9410 -1.8447 -0.1233
13496TIP3   OH240426   0.158   6.183   0.719 -0.0828  0.0127  0.2384
13496TIP3    H140427   0.098   6.165   0.646  1.3353  4.0242 -2.0774
13496TIP3    H240428   0.105   6.232   0.782 -0.4837 -0.6509  0.4179
13497TIP3   OH240429   3.238   6.868   6.320  0.1792 -0.8947  0.2066
13497TIP3    H140430   3.263   6.959   6.301 -0.5885 -1.0265 -1.5159
13497TIP3    H240431   3.315   6.831   6.363  1.6028 -0.2507 -1.6777
13498TIP3   OH240432   7.101   6.337   0.307 -0.7830 -0.2054 -0.1455
13498TIP3    H140433   7.172   6.345   0.244  0.4505  1.4256  1.4179
13498TIP3    H240434   7.041   6.273   0.268  1.4563 -1.5014 -1.5454
13499TIP3   OH240435   8.500   6.908   2.694 -0.4581  0.0758 -0.2254
13499TIP3    H140436   8.550   6.930   2.773  2.1439 -1.1403 -1.4512
13499TIP3    H240437   8.438   6.842   2.723 -0.0808  0.2239  0.9743
13500TIP3   OH240438   1.148   5.815   1.503  0.0254  0.0839  0.0678
13500TIP3    H140439   1.222   5.876   1.504  0.4942 -0.4628 -0.8491
13500TIP3    H240440   1.077   5.865   1.462 -0.3134  0.8182  1.5113
13501TIP3   OH240441   0.777   7.036   0.983 -0.2346  0.2836 -0.1813
13501TIP3    H140442   0.735   7.085   0.913 -1.0225  0.1522  0.1849
13501TIP3    H240443   0.862   7.079   0.996  0.5512 -0.6322 -2.2214
13502TIP3   OH240444   6.231   4.076   6.617  0.5641  0.2343 -0.1856
13502TIP3    H140445   6.220   4.087   6.523  1.2561  1.1986 -0.1644
13502TIP3    H240446   6.187   3.994   6.638  0.2000  0.1464 -1.3101
13503TIP3   OH240447   2.372   2.900   6.131 -0.2614 -0.5143 -0.2672
13503TIP3    H140448   2.455   2.852   6.127 -0.2716 -0.5609  0.0829
13503TIP3    H240449   2.348   2.914   6.040  1.2427  1.3979 -0.4253
13504TIP3   OH240450   2.275   7.196   2.554  0.5552  0.2402  0.3412
13504TIP3    H140451   2.316   7.223   2.637 -1.9750  2.3951  0.9469
13504TIP3    H240452   2.266   7.277   2.505 -0.8427 -0.5598 -0.7436
13505TIP3   OH240453   0.211   5.561   0.391 -0.3333  0.2961  0.0930
13505TIP3    H140454   0.260   5.625   0.339  0.5467 -1.8318 -1.7584
13505TIP3    H240455   0.278   5.512   0.439 -0.6556 -1.7546 -1.4537
13506TIP3   OH240456   5.819   6.884   1.047  1.2379 -0.1449 -0.0545
13506TIP3    H140457   5.858   6.969   1.026 -0.0530  0.3871 -0.3954
13506TIP3    H240458   5.757   6.868   0.976  2.2967 -1.9281 -0.5901
13507TIP3   OH240459   6.578   5.280   1.200  0.4243  0.1219  0.2163
13507TIP3    H140460   6.571   5.286   1.104  0.2723 -0.4497  0.1912
13507TIP3    H240461   6.593   5.370   1.228  2.5003  0.0410 -0.5156
13508TIP3   OH240462   8.406   5.877   0.298  0.0710  0.1426  0.2631
13508TIP3    H140463   8.327   5.862   0.350 -0.9953  2.8262 -0.5177
13508TIP3    H240464   8.382   5.854   0.209  0.4209  0.2085  0.1494
13509TIP3   OH240465   3.558   4.018   6.496 -0.2221 -0.3969 -0.5839
13509TIP3    H140466   3.579   4.035   6.404 -1.4018  0.9800 -0.6220
13509TIP3    H240467   3.617   4.075   6.545 -0.8606  0.2530 -0.5580
13510TIP3   OH240468   4.729   0.335   1.557 -0.1663  0.2096 -0.2230
13510TIP3    H140469   4.716   0.268   1.491 -2.1386 -1.6633  1.9471
13510TIP3    H240470   4.824   0.341   1.568  0.1302 -0.2416 -2.3629
13511TIP3   OH240471   7.529   5.955   2.746 -0.2279  0.2258 -0.3245
13511TIP3    H140472   7.543   6.048   2.762  1.8859 -0.1801  0.4063
13511TIP3    H240473   7.514   5.918   2.833 -2.4147  0.0514 -0.7364
13512TIP3   OH240474   4.868   5.031   6.149  0.0973  0.1947 -0.0835
13512TIP3    H140475   4.840   5.102   6.091  2.3646  0.8215 -0.4612
13512TIP3    H240476   4.947   5.065   6.191  2.3671 -2.7946 -1.7374
13513TIP3   OH240477   4.006   0.464   0.095  0.1237  0.2674 -0.9740
13513TIP3    H140478   3.971   0.444   0.182 -0.5014 -0.4360 -1.3752
13513TIP3    H240479   4.050   0.383   0.069 -0.3248  0.2234 -1.6113
13514TIP3   OH240480   5.414   4.179   6.954 -0.2718 -0.5567  0.0686
13514TIP3    H140481   5.393   4.175   6.861  0.3512  1.4337 -0.1809
13514TIP3    H240482   5.506   4.152   6.960 -0.2319 -0.4190  0.0759
13515TIP3   OH240483   5.172   0.844   3.132  0.4116  0.0794 -0.3136
13515TIP3    H140484   5.098   0.884   3.177 -0.4297 -0.5359 -1.1242
13515TIP3    H240485   5.150   0.851   3.039  1.4123 -0.0314 -0.5652
13516TIP3   OH240486   2.484   1.002   1.051  0.0228  0.1644  0.2860
13516TIP3    H140487   2.509   1.094   1.037  0.9277  0.0823  1.3130
13516TIP3    H240488   2.557   0.952   1.015 -1.9911 -0.2648 -3.4155
13517TIP3   OH240489   8.464   4.425   0.809  0.0516  0.1209 -0.1056
13517TIP3    H140490   8.460   4.521   0.804 -0.0555  0.0748 -1.0086
13517TIP3    H240491   8.415   4.395   0.732 -0.4213 -0.6694  0.4966
13518TIP3   OH240492   4.757   4.877   6.692  0.1539 -0.4839 -0.0546
13518TIP3    H140493   4.757   4.799   6.637  1.4179  0.9894 -2.2614
13518TIP3    H240494   4.838   4.923   6.667  0.8358  0.1629  3.1803
13519TIP3   OH240495   2.187   7.619   3.362  0.0800  0.0032  0.1746
13519TIP3    H140496   2.141   7.559   3.302 -0.2427 -0.1662  0.5923
13519TIP3    H240497   2.277   7.619   3.330 -0.3976  1.0768 -1.2387
13520TIP3   OH240498   4.703   3.325   6.933  0.3664  0.0167  0.0092
13520TIP3    H140499   4.663   3.239   6.921  0.7490 -0.4375  1.8105
13520TIP3    H240500   4.766   3.333   6.861 -0.2715 -0.8456 -0.6559
13521TIP3   OH240501   4.321   3.426   4.790 -0.3361  0.1498  0.4897
13521TIP3    H140502   4.226   3.414   4.792 -0.3102 -0.4320 -1.1722
13521TIP3    H240503   4.356   3.338   4.779  0.2291  0.7078 -2.6913
13522TIP3   OH240504   3.784   2.723   6.156  0.4056  0.3204 -0.2504
13522TIP3    H140505   3.705   2.691   6.199  0.5081 -0.7047 -0.8059
13522TIP3    H240506   3.759   2.731   6.064  0.9476 -0.0413 -0.4320
13523TIP3   OH240507   0.722   6.436   0.090  0.4227 -0.0473 -0.2979
13523TIP3    H140508   0.739   6.511   0.033 -0.2780  1.0906  0.9674
13523TIP3    H240509   0.735   6.360   0.033 -0.3777  1.0537 -2.0129
13524TIP3   OH240510   1.089   2.305   0.949 -0.3922  0.3148 -0.2668
13524TIP3    H140511   1.094   2.283   1.042 -1.1644  2.1696  0.2478
13524TIP3    H240512   1.031   2.238   0.912 -0.6859 -0.0032  0.7409
13525TIP3   OH240513   0.009   5.448   0.554  0.3021 -0.2830  0.1546
13525TIP3    H140514  -0.062   5.492   0.508 -0.4080 -0.3201  1.2132
13525TIP3    H240515   0.081   5.446   0.490 -0.2204  0.8684 -0.4762
13526TIP3   OH240516   0.930   1.996   1.387 -0.2455 -0.2923 -0.0158
13526TIP3    H140517   0.982   1.950   1.452  3.2521  0.8184 -1.8670
13526TIP3    H240518   0.899   1.928   1.328  0.8861 -0.7919 -0.0508
13527TIP3   OH240519   5.457   0.379   2.564 -0.1280  0.0195  0.2212
13527TIP3    H140520   5.493   0.463   2.538 -0.5307  0.2736  0.4912
13527TIP3    H240521   5.532   0.329   2.596 -0.1413  0.8253  1.5083
13528TIP3   OH240522   1.960   7.848   1.822 -0.6076  0.9580  0.0204
13528TIP3    H140523   1.879   7.865   1.869 -1.3851 -0.2007 -0.8657
13528TIP3    H240524   1.981   7.930   1.777 -1.4722  1.1616 -0.0114
13529TIP3   OH240525   1.947   7.088   1.802 -0.0313 -0.1859 -0.0158
13529TIP3    H140526   1.973   7.056   1.888  1.4798  0.6106 -0.1689
13529TIP3    H240527   1.957   7.183   1.807 -0.2447 -0.1039 -0.9715
13530TIP3   OH240528   1.444   8.007   0.348 -0.3548  0.5082 -0.4836
13530TIP3    H140529   1.512   7.975   0.288  0.4324 -1.0877  1.2353
13530TIP3    H240530   1.362   7.973   0.311 -0.2133  2.0282 -2.2854
13531TIP3   OH240531   7.523   6.182   1.787 -0.4648 -0.2213  0.4845
13531TIP3    H140532   7.485   6.148   1.706 -2.4526 -0.6752  1.5780
13531TIP3    H240533   7.457   6.165   1.854  1.6686 -1.0156  2.4630
13532TIP3   OH240534   8.318   6.971   1.014  0.0460 -0.4557  0.2207
13532TIP3    H140535   8.233   6.946   0.977 -0.9925  2.0971  0.8231
13532TIP3    H240536   8.353   6.889   1.049 -3.1045 -1.2079  1.8476
13533TIP3   OH240537   1.171   1.873   0.562 -0.2809  0.3439 -0.1416
13533TIP3    H140538   1.172   1.963   0.594  1.8667  0.5115 -0.6467
13533TIP3    H240539   1.206   1.878   0.473  0.1351 -1.0268 -0.0717
13534TIP3   OH240540   0.487   3.105   0.871  0.1482 -0.0021  0.4054
13534TIP3    H140541   0.560   3.147   0.827 -0.3563  1.0576  0.5624
13534TIP3    H240542   0.410   3.131   0.821 -0.0554 -1.7167 -0.2000
13535TIP3   OH240543   2.481   7.710   1.623  0.0255  0.3864  0.4235
13535TIP3    H140544   2.405   7.654   1.638  0.7733 -0.8719 -0.3778
13535TIP3    H240545   2.463   7.753   1.539 -0.1936  0.7523  0.6576
13536TIP3   OH240546   0.304   6.092   2.349  0.3136 -0.3430  0.0293
13536TIP3    H140547   0.358   6.014   2.359 -0.4197 -0.9669 -0.7840
13536TIP3    H240548   0.232   6.064   2.293  0.8727  1.3344 -1.5556
13537TIP3   OH240549   2.183   0.903   0.353 -0.1951 -0.3252 -0.4580
13537TIP3    H140550   2.088   0.892   0.357 -0.0210 -2.6034 -1.7173
13537TIP3    H240551   2.216   0.855   0.429  0.0220 -0.8425 -0.8720
13538TIP3   OH240552   3.864   1.675   3.244 -0.2115  0.7759 -0.4796
13538TIP3    H140553   3.921   1.616   3.293 -0.5558  1.2290  0.4779
13538TIP3    H240554   3.925   1.730   3.194  0.0940 -0.9052 -2.0207
13539TIP3   OH240555   4.708   0.474   2.132  0.1601 -0.5780  0.3267
13539TIP3    H140556   4.688   0.400   2.189  1.3785 -1.1711 -0.0183
13539TIP3    H240557   4.721   0.436   2.046 -0.3049  0.1659 -0.0770
13540TIP3   OH240558   0.291   7.586   0.657 -0.0080 -1.3080  0.2166
13540TIP3    H140559   0.272   7.494   0.641 -2.7042 -0.8937  0.6989
13540TIP3    H240560   0.280   7.628   0.572 -0.9036 -1.1330  0.4111
13541TIP3   OH240561   1.479   1.543   2.154  0.3780  0.3047 -0.1042
13541TIP3    H140562   1.572   1.563   2.145  0.7796 -1.4460 -0.0828
13541TIP3    H240563   1.474   1.480   2.226 -0.9450  1.1314  0.5607
13542TIP3   OH240564   0.935   7.749   0.281 -0.5102 -0.2889  0.3361
13542TIP3    H140565   0.857   7.802   0.262  0.2114  0.8484  0.4776
13542TIP3    H240566   0.910   7.660   0.255 -1.2136  0.3818 -1.3776
13543TIP3   OH240567   3.287   5.623   6.410  0.3721 -0.2284  0.2168
13543TIP3    H140568   3.365   5.601   6.461  0.8557 -0.3506 -0.5548
13543TIP3    H240569   3.310   5.703   6.364 -0.3123  0.2612  0.7268
13544TIP3   OH240570   3.001   3.604   6.832  0.0009  0.2340  0.2043
13544TIP3    H140571   2.908   3.587   6.817 -0.1422  0.5112  0.7698
13544TIP3    H240572   3.026   3.663   6.761 -0.6536  1.4648  0.9811
13545TIP3   OH240573   1.032   1.407   1.854 -0.3253  0.4971  0.0177
13545TIP3    H140574   1.018   1.320   1.816 -1.2421  1.0335 -0.9201
13545TIP3    H240575   1.110   1.440   1.808 -0.7828  0.7110 -0.6025
13546TIP3   OH240576   0.177   6.735   1.524  0.3457  0.0277  0.7417
13546TIP3    H140577   0.199   6.643   1.534  1.7165  0.2239 -0.3278
13546TIP3    H240578   0.085   6.735   1.499  0.8498 -1.1817 -1.2490
13547TIP3   OH240579   1.358   7.047   1.198  0.1039 -0.1560 -0.6855
13547TIP3    H140580   1.295   7.109   1.235  0.9169  0.7250 -0.7549
13547TIP3    H240581   1.349   6.969   1.253 -0.0104  0.4864  0.2294
13548TIP3   OH240582   7.762   6.837   0.839  0.0281  0.2926  0.1174
13548TIP3    H140583   7.755   6.778   0.764  1.2001  0.1362  0.1239
13548TIP3    H240584   7.719   6.918   0.809 -1.3139 -0.4431  0.0126
13549TIP3   OH240585   1.070   5.744   2.268 -0.4144  0.0354 -0.1820
13549TIP3    H140586   1.127   5.750   2.191 -2.1157  0.0658 -1.4711
13549TIP3    H240587   0.982   5.734   2.232 -1.2734  0.3093  1.7693
13550TIP3   OH240588   1.726   7.450   0.512  0.4243 -0.1264  0.2515
13550TIP3    H140589   1.797   7.426   0.453  0.3514  1.0102 -0.3178
13550TIP3    H240590   1.692   7.367   0.545  2.8103 -0.6520  1.4820
13551TIP3   OH240591   7.561   6.392   1.484 -0.2744  0.4325 -0.2611
13551TIP3    H140592   7.620   6.426   1.416 -2.4091  1.4445 -1.6690
13551TIP3    H240593   7.582   6.299   1.489  1.2555  0.7229 -0.9274
13552TIP3   OH240594   4.820   1.787   6.425  0.2560  0.6420 -0.1461
13552TIP3    H140595   4.781   1.835   6.352 -0.7420  0.8121  0.4863
13552TIP3    H240596   4.894   1.842   6.453 -0.6693  1.6629  0.3479
13553TIP3   OH240597   3.965   0.200   3.202 -0.4437 -0.1001 -0.0111
13553TIP3    H140598   3.904   0.127   3.187  0.4107 -0.8756  0.2910
13553TIP3    H240599   3.971   0.207   3.297  0.3235 -0.3364 -0.0450
13554TIP3   OH240600   8.028   6.132   0.601  0.0111  0.0475  0.3160
13554TIP3    H140601   8.041   6.067   0.670  2.2624 -0.9237 -0.9686
13554TIP3    H240602   8.041   6.216   0.645 -0.6115 -0.4811  1.5091
13555TIP3   OH240603   8.337   7.279   0.236 -0.1371 -0.3413 -0.2382
13555TIP3    H140604   8.308   7.286   0.327  1.8616  0.3755  0.3734
13555TIP3    H240605   8.413   7.220   0.239 -0.9806 -1.5363 -1.6670
13556TIP3   OH240606   5.071   4.156   6.864 -0.2221  0.3785 -0.5584
13556TIP3    H140607   5.075   4.153   6.769 -1.1811  0.2488 -0.6031
13556TIP3    H240608   5.123   4.081   6.893  1.1648  1.1874 -0.9448
13557TIP3   OH240609   6.222   5.019   6.599  0.1994  0.3102  0.2436
13557TIP3    H140610   6.308   5.061   6.595  0.0192  0.7054  0.4880
13557TIP3    H240611   6.218   4.964   6.521  1.8318 -1.9384  1.6905
13558TIP3   OH240612   0.239   1.497   1.456 -0.4674 -0.0249 -0.2933
13558TIP3    H140613   0.239   1.454   1.542 -3.4677  1.2847  0.4281
13558TIP3    H240614   0.189   1.578   1.470 -0.3016  0.5941 -3.0996
13559TIP3   OH240615   3.654   3.169   6.831 -0.7439  0.3442 -0.4579
13559TIP3    H140616   3.563   3.196   6.827 -1.2366 -1.2057  0.0522
13559TIP3    H240617   3.687   3.183   6.742 -1.8659 -0.4011 -0.9963
13560TIP3   OH240618   2.462   0.727   3.251  0.2649  0.5170 -0.7785
13560TIP3    H140619   2.552   0.730   3.283  0.2492 -0.8013 -0.5575
13560TIP3    H240620   2.409   0.723   3.330  0.0703  0.2664 -0.9218
13561TIP3   OH240621   6.158   4.079   4.857  0.4360 -0.2844 -0.3207
13561TIP3    H140622   6.106   4.159   4.853  1.5829  0.4084 -3.0752
13561TIP3    H240623   6.097   4.009   4.831  0.4629  0.3177 -2.0884
13562TIP3   OH240624   6.990   7.113   0.716  0.2337 -0.0903 -0.2787
13562TIP3    H140625   6.924   7.070   0.662  0.1871 -1.6924  1.0007
13562TIP3    H240626   7.065   7.125   0.657 -0.5629  0.1278 -1.2590
13563TIP3   OH240627   4.048   3.362   4.881 -0.0384  0.1340  0.4437
13563TIP3    H140628   4.001   3.394   4.803 -0.5921 -0.3181  0.5869
13563TIP3    H240629   4.016   3.273   4.893  0.1828  0.1426  1.0847
13564TIP3   OH240630   2.526   0.998   0.171 -0.2503 -0.4047  0.4222
13564TIP3    H140631   2.573   1.047   0.237 -0.6372 -0.3813  0.6791
13564TIP3    H240632   2.588   0.989   0.098 -0.3086  0.7760  0.2247
13565TIP3   OH240633   5.260   3.367   5.423  0.3039 -0.0130 -0.1972
13565TIP3    H140634   5.339   3.374   5.370  0.6840  1.0982  0.4934
13565TIP3    H240635   5.289   3.325   5.504  0.2642  0.6750  0.1830
13566TIP3   OH240636   4.501   2.020   5.927 -0.1007  0.2617  0.2920
13566TIP3    H140637   4.565   1.959   5.888 -0.0399  0.0487  0.7263
13566TIP3    H240638   4.550   2.065   5.995 -0.2290  0.5867  0.1699
13567TIP3   OH240639   5.070   3.639   6.146  0.5167 -0.9308 -0.3742
13567TIP3    H140640   5.128   3.683   6.207 -1.1131 -0.4372  0.8555
13567TIP3    H240641   4.983   3.677   6.163 -0.2178 -1.8260 -1.9797
13568TIP3   OH240642   3.275   0.602   2.229  0.0601 -0.5283  0.2784
13568TIP3    H140643   3.234   0.544   2.164 -0.8059  1.5501 -1.1196
13568TIP3    H240644   3.346   0.644   2.181 -0.1756  0.5395  0.8462
13569TIP3   OH240645   4.993   0.328   1.527 -0.0771 -0.0349 -0.1148
13569TIP3    H140646   5.073   0.342   1.578 -0.6442  1.2061  0.4805
13569TIP3    H240647   5.023   0.287   1.446  1.2605  1.1176 -0.2307
13570TIP3   OH240648   1.293   1.374   0.477  0.2499 -0.3299  0.3952
13570TIP3    H140649   1.264   1.445   0.534  1.1572  0.8575 -0.5707
13570TIP3    H240650   1.315   1.418   0.394 -1.0843 -2.0094 -0.8823
13571TIP3   OH240651   4.474   5.080   5.821  0.0394 -0.1359  0.1048
13571TIP3    H140652   4.482   5.054   5.913  2.1683  1.7553  0.4822
13571TIP3    H240653   4.562   5.068   5.785 -0.6523 -0.3218 -1.5479
13572TIP3   OH240654   7.967   7.094   3.714 -0.2521  0.3928  0.1423
13572TIP3    H140655   7.979   7.010   3.758  0.2534  1.5103  2.2138
13572TIP3    H240656   7.991   7.078   3.623  2.3400 -1.0906  1.0536
13573TIP3   OH240657   1.205   0.786   1.831  0.0781  0.6824  0.4395
13573TIP3    H140658   1.210   0.691   1.840  1.3712  0.7110  0.1452
13573TIP3    H240659   1.290   0.817   1.862  1.1265  1.4570 -2.9896
13574TIP3   OH240660   5.383   4.160   6.686  0.1596  0.0555 -0.4435
13574TIP3    H140661   5.404   4.067   6.679  2.1952  0.6193 -2.2020
13574TIP3    H240662   5.334   4.180   6.606 -0.3203  0.4793 -0.0485
13575TIP3   OH240663   0.798   7.594   0.874  0.4054  0.1346  0.2086
13575TIP3    H140664   0.835   7.639   0.798  0.1216  0.9098  0.5249
13575TIP3    H240665   0.730   7.538   0.838 -0.1322  0.9490 -0.0432
13576TIP3   OH240666   6.637   4.748   6.238 -0.3151  0.2314  0.4362
13576TIP3    H140667   6.714   4.703   6.204  0.7834  0.5378  2.3813
13576TIP3    H240668   6.567   4.683   6.235  0.3622 -0.4754 -0.1004
13577TIP3   OH240669   5.518   3.313   6.679 -0.3361 -0.1349  0.2584
13577TIP3    H140670   5.576   3.241   6.654  0.4912  0.6592 -0.1434
13577TIP3    H240671   5.430   3.281   6.660  0.2193  0.3773 -3.6666
13578TIP3   OH240672   4.192   0.062   2.115 -0.5019 -0.0799  0.6090
13578TIP3    H140673   4.264   0.120   2.140  1.1516 -1.8563  0.0360
13578TIP3    H240674   4.189  -0.004   2.184 -1.3065 -0.2710  0.3977
13579TIP3   OH240675   1.194   1.871   0.033  0.3220 -0.1897  0.1014
13579TIP3    H140676   1.207   1.961   0.006 -0.4380 -0.5496 -1.4826
13579TIP3    H240677   1.242   1.819  -0.031 -0.7388 -1.0060 -0.0523
13580TIP3   OH240678   1.745   6.940   0.856 -0.0649  0.4112 -0.4366
13580TIP3    H140679   1.670   6.924   0.912  0.3261 -1.5571 -0.4477
13580TIP3    H240680   1.740   7.034   0.836 -1.4809  0.6703  1.0133
13581TIP3   OH240681   5.517   3.731   6.303 -0.5043 -0.4327  0.0878
13581TIP3    H140682   5.547   3.672   6.234 -1.0661 -2.4879  1.5758
13581TIP3    H240683   5.510   3.676   6.381 -1.9844  1.3881  1.2811
13582TIP3   OH240684   8.056   7.256   1.750  0.1409  0.4695 -0.7488
13582TIP3    H140685   8.093   7.343   1.765  0.9207  0.5190 -2.8937
13582TIP3    H240686   8.096   7.226   1.669  0.1027 -2.0316  0.1003
13583TIP3   OH240687   1.228   0.587   2.394  0.1946  0.1565  0.0581
13583TIP3    H140688   1.207   0.518   2.457  0.1944 -0.4705 -0.6141
13583TIP3    H240689   1.164   0.575   2.324 -0.7944  1.8217  0.6488
13584TIP3   OH240690   1.849   6.577   2.041  0.0553  0.2895  0.3811
13584TIP3    H140691   1.803   6.502   2.003  2.7697 -0.7644 -0.9076
13584TIP3    H240692   1.879   6.627   1.966  1.1078  0.9101  1.2081
13585TIP3   OH240693   0.293   7.369   3.524  0.1671 -0.0336 -0.3582
13585TIP3    H140694   0.328   7.397   3.440  2.4323  0.5882  0.7401
13585TIP3    H240695   0.292   7.274   3.519 -1.4098  0.0255 -1.7128
13586TIP3   OH240696   7.887   1.307   6.657  0.6040 -0.2087  0.1238
13586TIP3    H140697   7.809   1.301   6.602  0.6264 -1.9384  0.2564
13586TIP3    H240698   7.859   1.360   6.732 -0.5810 -1.1871  0.3905
13587TIP3   OH240699   1.957   7.270   0.687  0.2551 -0.4072 -0.3602
13587TIP3    H140700   2.031   7.249   0.629 -0.3864  0.4075 -1.4852
13587TIP3    H240701   1.955   7.366   0.691 -0.3700 -0.4344  0.1595
13588TIP3   OH240702   7.718   7.209   0.516  0.0015  0.4422 -0.3515
13588TIP3    H140703   7.672   7.235   0.596  0.5722 -0.5300  0.3001
13588TIP3    H240704   7.788   7.273   0.508 -0.8737  1.3599 -0.8272
13589TIP3   OH240705   0.050   6.274   1.495  0.0669  0.1640  0.0028
13589TIP3    H140706   0.076   6.190   1.458 -1.4949  0.2757 -1.4374
13589TIP3    H240707  -0.040   6.261   1.524  0.0139  1.1735  0.3240
13590TIP3   OH240708   8.120   7.265   0.053 -0.2586  0.0625  0.0147
13590TIP3    H140709   8.116   7.179   0.012  2.4729  0.4622 -1.1302
13590TIP3    H240710   8.188   7.257   0.120 -0.0173  1.3072 -0.0651
13591TIP3   OH240711   8.144   7.197   0.467 -0.1247  0.3730 -0.3084
13591TIP3    H140712   8.056   7.236   0.467 -0.5080 -0.4594 -2.0222
13591TIP3    H240713   8.161   7.179   0.560 -0.6538  2.9389  0.3553
13592TIP3   OH240714   7.368   7.129   2.404  0.4132  0.0835  0.1427
13592TIP3    H140715   7.414   7.211   2.420 -0.7002  0.8546 -0.5715
13592TIP3    H240716   7.426   7.062   2.440  2.4694  0.9477 -1.4710
13593TIP3   OH240717   1.853   5.794   1.002 -0.2878  0.1401 -0.0464
13593TIP3    H140718   1.767   5.829   1.028 -0.6711 -0.1684 -0.9034
13593TIP3    H240719   1.877   5.844   0.924 -0.7557 -1.3526 -1.1787
13594TIP3   OH240720   0.055   1.196   2.585 -0.3180 -0.3235  0.6572
13594TIP3    H140721   0.025   1.172   2.498  0.8193  1.4576 -0.2573
13594TIP3    H240722   0.123   1.132   2.606 -0.3839 -0.5697  0.1166
13595TIP3   OH240723   3.209   3.673   6.069  0.4406 -0.7202  0.2485
13595TIP3    H140724   3.227   3.757   6.112  0.3870 -1.1231  1.0747
13595TIP3    H240725   3.135   3.691   6.011  1.0142  0.0200 -0.2604
13596TIP3   OH240726   3.456   0.982   2.280 -0.0092  0.2741 -0.3208
13596TIP3    H140727   3.410   0.934   2.211 -1.2752  0.6136  0.2690
13596TIP3    H240728   3.424   0.944   2.361  0.4900  0.7541  0.1040
13597TIP3   OH240729   3.373   0.554   2.492 -0.3364 -0.2662  0.0389
13597TIP3    H140730   3.356   0.473   2.445 -0.8962 -0.7876  1.1237
13597TIP3    H240731   3.292   0.570   2.541  0.3488  0.1050  1.0545
13598TIP3   OH240732   2.374   0.104   2.020 -0.0446  0.0678 -0.0387
13598TIP3    H140733   2.437   0.039   2.052 -0.5523  0.8729  2.8075
13598TIP3    H240734   2.335   0.064   1.943  1.9164 -1.6473 -0.2040
13599TIP3   OH240735   2.858   2.905   5.187  0.4220 -0.0725 -0.1956
13599TIP3    H140736   2.909   2.963   5.244 -0.2249  0.2638  0.0472
13599TIP3    H240737   2.895   2.818   5.203  2.2654  0.4320 -1.5379
13600TIP3   OH240738   0.713   6.519   0.649  0.4098  0.0042 -0.3532
13600TIP3    H140739   0.649   6.508   0.579 -0.3240  0.3175  0.2578
13600TIP3    H240740   0.697   6.607   0.682 -1.0393 -1.0663  1.9416
13601TIP3   OH240741   5.551   0.874   3.375 -0.2995  0.2440  0.0036
13601TIP3    H140742   5.515   0.949   3.422 -1.6592 -0.1260 -0.4342
13601TIP3    H240743   5.569   0.810   3.444  0.3010  0.7433  0.3142
13602TIP3   OH240744   4.752   3.025   6.898 -0.0442  0.1805  0.6220
13602TIP3    H140745   4.767   2.955   6.961  0.6914  0.3178  0.6004
13602TIP3    H240746   4.824   3.086   6.911 -0.7362  0.9882  0.7080
13603TIP3   OH240747   2.515   5.964   6.038  0.1877 -0.1184  0.3821
13603TIP3    H140748   2.486   6.032   6.098 -0.8375 -0.2164 -0.0018
13603TIP3    H240749   2.601   5.994   6.007  0.5078  0.1577  1.5242
13604TIP3   OH240750   1.447   0.155   1.546 -0.1235  0.4443  0.7106
13604TIP3    H140751   1.427   0.062   1.532  0.1481  0.6887 -1.3640
13604TIP3    H240752   1.383   0.202   1.493  0.9072  1.4035  0.2930
13605TIP3   OH240753   0.274   7.591   2.447  0.2843 -0.0144  0.3110
13605TIP3    H140754   0.205   7.525   2.459  1.9365 -1.3913  2.6091
13605TIP3    H240755   0.242   7.668   2.494 -1.7667  0.9961 -2.5910
13606TIP3   OH240756   8.361   7.365   4.196  0.4331 -0.4840 -0.2395
13606TIP3    H140757   8.342   7.301   4.127  0.5802 -1.1125  0.2970
13606TIP3    H240758   8.283   7.420   4.200 -0.1417 -1.3063  0.0341
13607TIP3   OH240759   7.740   5.763   0.682  0.0937 -0.1181  0.6275
13607TIP3    H140760   7.704   5.844   0.646  0.9247  0.4373  1.0333
13607TIP3    H240761   7.758   5.709   0.605 -0.8464 -0.0871  0.3792
13608TIP3   OH240762   7.684   6.034   1.949  0.1661 -0.5940 -0.2115
13608TIP3    H140763   7.609   5.984   1.917 -0.8460  0.1638  0.9149
13608TIP3    H240764   7.673   6.121   1.912  1.2383 -0.8473 -1.1438
13609TIP3   OH240765   8.216   4.315   1.091 -0.2172 -0.4731 -0.0586
13609TIP3    H140766   8.220   4.219   1.089  0.8426 -0.4171 -1.9824
13609TIP3    H240767   8.173   4.339   1.009 -1.6928  0.6552  1.0382
13610TIP3   OH240768   7.732   4.159   1.691 -0.0995 -0.0695 -0.3483
13610TIP3    H140769   7.819   4.120   1.685  0.4249  1.1085 -0.5024
13610TIP3    H240770   7.744   4.235   1.747 -0.8917  0.4737 -0.9116
13611TIP3   OH240771   0.913   5.274   2.623 -0.2813 -0.2418  0.3227
13611TIP3    H140772   0.892   5.196   2.571 -0.5555  1.4344 -2.1378
13611TIP3    H240773   1.001   5.257   2.657  0.0742 -1.1812 -1.0483
13612TIP3   OH240774   0.505   4.926   2.517 -0.2758 -0.2843  0.3887
13612TIP3    H140775   0.570   4.875   2.566  0.2675  0.4267  0.4181
13612TIP3    H240776   0.482   4.871   2.442  3.2758  1.0403 -1.8061
13613TIP3   OH240777   7.923   0.451   1.176  0.2345 -0.4128  0.0965
13613TIP3    H140778   7.951   0.445   1.084 -0.1092 -0.4955 -0.0054
13613TIP3    H240779   7.971   0.526   1.211  0.7388 -0.6780 -0.0152
13614TIP3   OH240780   8.150   6.199   2.091  0.0778  0.1506  0.0197
13614TIP3    H140781   8.155   6.209   1.996 -0.0829  1.0757  0.1067
13614TIP3    H240782   8.068   6.242   2.116  0.0095 -0.2809  0.5524
13615TIP3   OH240783   8.267   6.412   2.306  0.2535 -0.3900 -0.0075
13615TIP3    H140784   8.225   6.344   2.253 -0.8256 -0.6208  1.1239
13615TIP3    H240785   8.293   6.367   2.386  0.6317  0.2658  0.2370
13616TIP3   OH240786   4.775   3.659   6.444  0.4085 -0.1102 -0.0383
13616TIP3    H140787   4.685   3.649   6.414  0.2328 -0.6880  0.6656
13616TIP3    H240788   4.799   3.573   6.478  0.5581  0.5400  1.5595
13617TIP3   OH240789   2.226   1.274   0.077 -0.2612  0.1516  0.2079
13617TIP3    H140790   2.180   1.202   0.120 -1.4218 -1.1341 -3.0262
13617TIP3    H240791   2.157   1.337   0.056 -0.1618 -0.4492 -2.0514
13618TIP3   OH240792   7.119   5.377   0.684  0.4308 -0.5382  0.4271
13618TIP3    H140793   7.056   5.345   0.619 -0.7162  1.1149  0.6847
13618TIP3    H240794   7.161   5.452   0.642 -0.7447  0.9155  1.7649
13619TIP3   OH240795   4.096   0.443   0.681  0.2649 -1.0964 -0.5862
13619TIP3    H140796   4.020   0.390   0.702 -0.3060  0.2567  0.8701
13619TIP3    H240797   4.167   0.406   0.733 -0.3534  0.1091  1.1738
13620TIP3   OH240798   2.224   7.607   1.188 -0.7479 -0.1409 -0.7576
13620TIP3    H140799   2.258   7.590   1.100 -1.8170  1.0220 -1.4285
13620TIP3    H240800   2.135   7.573   1.186 -1.1290  0.8022 -0.4746
13621TIP3   OH240801   1.422   6.311   1.459 -0.3014  0.1909  0.0529
13621TIP3    H140802   1.346   6.346   1.412 -0.9641 -0.0307  0.9459
13621TIP3    H240803   1.419   6.354   1.544 -0.1440 -0.7649  0.5471
13622TIP3   OH240804   0.949   3.369   5.248 -0.1212  0.5293 -0.3052
13622TIP3    H140805   0.856   3.381   5.230 -0.5092  0.9835  1.7890
13622TIP3    H240806   0.962   3.411   5.334  1.9335  0.1648 -0.4117
13623TIP3   OH240807   3.375   7.697   2.666  0.0940  0.5953 -0.1689
13623TIP3    H140808   3.470   7.709   2.671  0.5641 -2.4820 -0.3760
13623TIP3    H240809   3.358   7.684   2.573 -0.4998  0.8776 -0.0992
13624TIP3   OH240810   5.819  -0.026   1.520  0.5281  0.2427  0.1848
13624TIP3    H140811   5.816   0.066   1.545 -1.1139  0.2768 -0.0598
13624TIP3    H240812   5.738  -0.040   1.470  0.1639 -1.6166  1.2376
13625TIP3   OH240813   1.536   7.158   1.726  0.5351  0.1128  0.1138
13625TIP3    H140814   1.444   7.174   1.748  1.1236  0.8682  2.1648
13625TIP3    H240815   1.561   7.082   1.779  0.7828 -0.8165 -1.3111
13626TIP3   OH240816   5.993   0.102   2.881 -0.5229  0.0258  0.6015
13626TIP3    H140817   5.900   0.101   2.905 -0.6804  0.0371 -0.0148
13626TIP3    H240818   6.014   0.194   2.867  0.1766  0.2780  3.0372
13627TIP3   OH240819   5.946   0.979   0.448 -0.8201  0.4551  0.3508
13627TIP3    H140820   5.892   0.985   0.526 -1.0150  2.0517  0.1127
13627TIP3    H240821   5.899   1.030   0.382  0.6469  1.2993 -0.0596
13628TIP3   OH240822   3.483   1.100   0.593 -0.0572  0.1208 -0.3102
13628TIP3    H140823   3.439   1.144   0.665 -0.8756 -0.1739 -0.6271
13628TIP3    H240824   3.569   1.075   0.628 -0.4406  0.0045  0.5441
13629TIP3   OH240825   6.548   3.897   5.966  0.3325  0.4706  0.2526
13629TIP3    H140826   6.455   3.920   5.963 -0.1401 -1.5144 -1.8632
13629TIP3    H240827   6.557   3.843   6.045 -0.3655  0.4372  0.3128
13630TIP3   OH240828   2.515   6.808   1.296 -0.1603  0.3531  0.3388
13630TIP3    H140829   2.479   6.737   1.242 -0.1623  1.4373 -1.1036
13630TIP3    H240830   2.443   6.831   1.355 -0.3183 -0.5066  0.4969
13631TIP3   OH240831   4.095   0.531   2.838 -0.0546  0.0775  0.0023
13631TIP3    H140832   4.066   0.618   2.809 -0.2668  0.2866  0.8204
13631TIP3    H240833   4.024   0.500   2.894  0.3773 -0.2943  0.3414
13632TIP3   OH240834   0.851   6.946   0.576 -0.2910 -0.0376 -0.4201
13632TIP3    H140835   0.924   7.006   0.592  0.8393 -1.4884 -0.0390
13632TIP3    H240836   0.861   6.877   0.641 -3.7459  1.2509  1.5997
13633TIP3   OH240837   1.658   7.169   6.104 -0.4401  0.3803 -0.3902
13633TIP3    H140838   1.653   7.188   6.010  0.1732  3.7995  0.1836
13633TIP3    H240839   1.747   7.195   6.128 -1.3977  1.8914  1.5881
13634TIP3   OH240840   4.891   0.077   0.960  0.0999 -0.3698  0.0450
13634TIP3    H140841   4.971   0.051   0.915  0.8695  0.3988  0.9575
13634TIP3    H240842   4.824   0.016   0.928  0.8600 -0.4865 -1.3492
13635TIP3   OH240843   5.402   1.083   1.709 -0.2321  0.1095 -0.5697
13635TIP3    H140844   5.382   0.989   1.707  1.7671 -0.3291 -1.2791
13635TIP3    H240845   5.433   1.099   1.798 -3.2028  0.7113  0.4136
13636TIP3   OH240846   2.434   1.096   0.419  0.1554 -0.0363 -0.1564
13636TIP3    H140847   2.354   1.132   0.457  0.0944 -1.0849  0.7134
13636TIP3    H240848   2.404   1.036   0.351  0.1623 -1.5666  1.1801
13637TIP3   OH240849   2.144   7.572   0.449  0.4188  0.1726 -0.8609
13637TIP3    H140850   2.216   7.519   0.481 -0.9107 -0.9276  0.3556
13637TIP3    H240851   2.174   7.662   0.460  1.9412 -0.2861 -1.1890
13638TIP3   OH240852   5.172   0.075   0.844  0.3189  0.1463 -0.5699
13638TIP3    H140853   5.224   0.018   0.901 -1.0492 -0.4244  0.1423
13638TIP3    H240854   5.212   0.065   0.757  1.0370 -0.7219 -0.1517
13639TIP3   OH240855   6.806   5.514   6.724  0.2424 -0.4979  0.0687
13639TIP3    H140856   6.763   5.428   6.719  0.5237 -0.6638  0.4822
13639TIP3    H240857   6.735   5.576   6.739  0.2924 -0.9405  2.2896
13640TIP3   OH240858   2.282   7.259   0.928  0.4292 -0.3012  0.5729
13640TIP3    H140859   2.350   7.324   0.912 -0.0165 -0.1904 -0.8644
13640TIP3    H240860   2.330   7.183   0.962  1.1370  0.1562  0.6170
13641TIP3   OH240861   6.808   4.218   4.813  0.2615 -0.1306  0.3855
13641TIP3    H140862   6.760   4.239   4.893  0.0345 -0.7008  0.4068
13641TIP3    H240863   6.899   4.210   4.841  0.3420  0.7583  0.3833
13642TIP3   OH240864   5.067   1.225   0.657 -0.3018  0.0771  0.3324
13642TIP3    H140865   5.112   1.309   0.651  0.2958 -0.0719  2.3319
13642TIP3    H240866   4.996   1.240   0.718 -0.9581 -0.5583 -0.2609
13643TIP3   OH240867   5.493   0.157   0.723  0.0257  0.1190  0.2741
13643TIP3    H140868   5.442   0.225   0.678  0.4595 -0.6285 -1.3750
13643TIP3    H240869   5.507   0.089   0.657  0.2273 -1.2518  1.6991
13644TIP3   OH240870   2.709   7.012   2.463 -0.2901  0.2818 -0.2959
13644TIP3    H140871   2.689   6.986   2.553  0.8481 -0.8604 -0.3522
13644TIP3    H240872   2.681   7.103   2.457 -0.9088  0.1864  1.0428
13645TIP3   OH240873   2.527   7.423   1.212  0.4335  0.2147 -0.0804
13645TIP3    H140874   2.594   7.358   1.234  1.8192  1.7479  0.3250
13645TIP3    H240875   2.513   7.412   1.118 -1.1308 -2.3021  0.4004
13646TIP3   OH240876   7.401   7.881   1.515 -0.1860  0.3587 -0.2797
13646TIP3    H140877   7.387   7.869   1.609  1.6758 -2.8210 -0.3332
13646TIP3    H240878   7.366   7.801   1.475  0.8557  0.7826 -2.1137
13647TIP3   OH240879   7.305   6.344   4.546  0.6039 -0.1941 -0.7272
13647TIP3    H140880   7.273   6.260   4.580 -2.2351  0.9640 -0.4232
13647TIP3    H240881   7.324   6.327   4.454  0.4827 -1.2801 -0.5589
13648TIP3   OH240882   4.609   1.468   2.916 -0.3111 -0.3135 -0.4902
13648TIP3    H140883   4.613   1.563   2.932 -2.0864 -0.2728 -0.2225
13648TIP3    H240884   4.629   1.429   3.001 -2.3176 -0.1404  0.0911
13649TIP3   OH240885   6.889   2.713   5.810 -0.1968  0.2294  0.0045
13649TIP3    H140886   6.891   2.722   5.715 -1.0356  1.2138  0.0692
13649TIP3    H240887   6.906   2.802   5.842 -0.3142 -0.0249  0.7706
13650TIP3   OH240888   1.289   7.098   0.208  0.0292  0.5547 -0.4017
13650TIP3    H140889   1.384   7.092   0.218 -0.1516  0.0777  1.2476
13650TIP3    H240890   1.273   7.075   0.117  1.3558 -1.2024 -0.2266
13651TIP3   OH240891   5.706   1.399   1.930 -0.0066  0.2867  0.0579
13651TIP3    H140892   5.667   1.476   1.887  2.5473  0.9084 -1.2655
13651TIP3    H240893   5.706   1.422   2.023  0.8879  1.9982 -0.3357
13652TIP3   OH240894   1.726   2.997   0.342  0.4080 -0.2244  0.4158
13652TIP3    H140895   1.649   3.042   0.377 -0.4550 -1.1569 -0.2296
13652TIP3    H240896   1.797   3.061   0.347 -0.6971  1.0515 -0.1096
13653TIP3   OH240897   1.708   7.174   0.741 -0.5511 -0.3548  0.1938
13653TIP3    H140898   1.802   7.190   0.727 -0.7298  0.8052  0.2938
13653TIP3    H240899   1.675   7.149   0.655 -0.2781 -0.0813  0.0075
13654TIP3   OH240900   5.809   3.153   6.839 -0.1186  0.1409 -0.0413
13654TIP3    H140901   5.891   3.108   6.823 -0.5018 -0.0926 -1.3979
13654TIP3    H240902   5.747   3.083   6.862  0.0894  0.3329  1.1500
13655TIP3   OH240903   6.158   2.436   6.449  0.0063  0.0145 -0.0140
13655TIP3    H140904   6.238   2.444   6.501 -0.4494  1.3908  0.5054
13655TIP3    H240905   6.101   2.380   6.500  0.7462 -1.2296 -0.5320
13656TIP3   OH240906   8.081   5.448   0.319 -0.2038  0.6062  0.4340
13656TIP3    H140907   8.056   5.484   0.234 -0.5933  1.5383  0.9438
13656TIP3    H240908   8.002   5.456   0.372  0.0060 -0.0728  0.8554
13657TIP3   OH240909   4.036   0.532   1.482 -0.3435 -0.2729  0.6631
13657TIP3    H140910   4.103   0.588   1.443  0.1659 -0.6655  0.9704
13657TIP3    H240911   4.065   0.520   1.572  1.0042 -3.2761 -0.1276
13658TIP3   OH240912   7.248   0.091   0.677 -0.6005  0.1400  0.0176
13658TIP3    H140913   7.155   0.071   0.685 -0.8188  0.0061 -2.4026
13658TIP3    H240914   7.253   0.150   0.601  1.2525  0.3340  0.2688
13659TIP3   OH240915   5.331   1.378   0.371  0.0117 -1.0692  0.2044
13659TIP3    H140916   5.406   1.330   0.405  0.4702 -1.4426 -1.3079
13659TIP3    H240917   5.366   1.431   0.300 -1.0657 -0.8954 -0.2064
13660TIP3   OH240918   4.339   0.849   1.925  0.2186  0.2629  0.0288
13660TIP3    H140919   4.301   0.763   1.908  1.4533 -0.3029  0.0018
13660TIP3    H240920   4.391   0.837   2.004 -0.2800  1.2133  0.5142
13661TIP3   OH240921   5.178   0.438   0.515 -0.4553  0.3693  0.5810
13661TIP3    H140922   5.221   0.456   0.598  0.1408 -0.9744  0.5803
13661TIP3    H240923   5.117   0.511   0.503 -0.1242  0.8767  1.9030
13662TIP3   OH240924   4.586   1.080   1.212 -0.3709 -0.1063 -0.6742
13662TIP3    H140925   4.527   1.068   1.287  0.8701 -0.4014  0.2701
13662TIP3    H240926   4.604   0.992   1.181  0.3726 -0.0709 -0.3387
13663TIP3   OH240927   4.527   0.110   2.265 -0.3721 -0.3943 -0.1329
13663TIP3    H140928   4.534   0.028   2.313  3.2160  0.4020  0.9001
13663TIP3    H240929   4.592   0.102   2.194 -3.2146 -0.2146 -2.8614
13664TIP3   OH240930   7.404   6.947   1.897 -0.4876 -0.2430 -0.0254
13664TIP3    H140931   7.312   6.973   1.893 -0.9518 -1.9394 -0.8080
13664TIP3    H240932   7.404   6.853   1.876  1.2957 -0.5285  1.1193
13665TIP3   OH240933   5.952   4.446   6.512  0.0146  0.1672  0.1862
13665TIP3    H140934   6.000   4.459   6.431 -0.3079 -0.9529 -0.1956
13665TIP3    H240935   6.016   4.408   6.572  0.4692  1.7623  0.7164
13666TIP3   OH240936   7.317   5.550   6.051  0.3891 -0.4257  0.2750
13666TIP3    H140937   7.257   5.574   6.121  1.1357 -0.3438  0.9024
13666TIP3    H240938   7.272   5.481   6.002  0.0087 -0.7272  1.0436
13667TIP3   OH240939   0.523   5.572   2.697  0.1977 -0.3820 -0.2617
13667TIP3    H140940   0.597   5.524   2.734 -0.1642 -1.5878 -1.0526
13667TIP3    H240941   0.556   5.609   2.615  0.7419  1.5265  0.7995
13668TIP3   OH240942   0.765   0.475   1.345 -0.7760 -0.2436  0.2670
13668TIP3    H140943   0.813   0.405   1.300 -1.7877 -0.8765  0.1563
13668TIP3    H240944   0.821   0.498   1.419  0.1370 -0.3277 -0.3881
13669TIP3   OH240945   3.641   0.722   1.522  0.2372  0.2906 -0.2043
13669TIP3    H140946   3.599   0.650   1.568 -0.9458  0.1084 -1.5455
13669TIP3    H240947   3.691   0.680   1.452  1.8286  0.5818  0.7310
13670TIP3   OH240948   1.071   4.211   6.042  0.1912 -0.2147  0.0957
13670TIP3    H140949   1.017   4.241   5.969  0.8149 -0.1445 -0.3406
13670TIP3    H240950   1.150   4.178   6.000  0.9044  0.5990  0.7944
13671TIP3   OH240951   1.283   7.293   0.660 -0.6641 -0.0537 -0.6664
13671TIP3    H140952   1.243   7.227   0.716 -0.9028 -0.0908 -0.8788
13671TIP3    H240953   1.248   7.274   0.572 -1.2285  0.7338 -0.6211
13672TIP3   OH240954   5.798   1.943   1.587 -0.5806  0.1331 -0.3288
13672TIP3    H140955   5.838   1.862   1.556  0.6491  0.5742  0.1019
13672TIP3    H240956   5.787   1.996   1.508  0.3001  0.2755 -0.3575
13673TIP3   OH240957   1.775   0.457   1.038 -0.8757 -0.3832 -0.2235
13673TIP3    H140958   1.830   0.453   1.117  0.3735 -2.8306 -1.1561
13673TIP3    H240959   1.705   0.394   1.055  0.1307 -1.9195 -1.5472
13674TIP3   OH240960   7.617   7.527   0.185 -0.4203 -0.2004 -0.2034
13674TIP3    H140961   7.573   7.466   0.125 -0.2043  0.8161 -1.4028
13674TIP3    H240962   7.709   7.500   0.183 -0.5118 -0.5490  0.1480
13675TIP3   OH240963   2.362   6.936   0.587  0.4897 -0.2329 -0.2026
13675TIP3    H140964   2.314   6.854   0.593  0.7586 -0.2838  1.5175
13675TIP3    H240965   2.423   6.934   0.661  0.1068  1.7383  0.1959
13676TIP3   OH240966   1.119   6.842   0.952  0.1164 -0.0234 -0.1865
13676TIP3    H140967   1.124   6.838   1.047 -0.8400  0.0104 -0.1305
13676TIP3    H240968   1.194   6.790   0.922  0.7989  0.5064  0.5744
13677TIP3   OH240969   2.010   7.508   1.854  0.1786  0.1537 -0.4150
13677TIP3    H140970   1.978   7.598   1.841  0.0227  0.5369  2.3611
13677TIP3    H240971   1.957   7.456   1.794  0.3406  1.9154 -2.1460
13678TIP3   OH240972   3.135   0.267   0.644 -0.0492 -0.5666 -0.3992
13678TIP3    H140973   3.158   0.280   0.552  1.1529  0.6841  0.0587
13678TIP3    H240974   3.070   0.334   0.662  0.3344 -0.2712 -0.1143
13679TIP3   OH240975   2.702   0.908   1.960 -0.7505 -0.4035 -0.6596
13679TIP3    H140976   2.680   0.980   1.902 -1.4980 -0.7153 -0.7765
13679TIP3    H240977   2.722   0.835   1.901  1.2249  0.0301 -0.5694
13680TIP3   OH240978   5.018   1.132   2.090  0.7911 -0.4922 -0.3498
13680TIP3    H140979   4.974   1.099   2.012  2.3447 -0.4245 -1.2736
13680TIP3    H240980   5.073   1.060   2.119 -0.3010 -0.7667  1.1181
13681TIP3   OH240981   2.188   7.183   0.574 -0.3091  0.5730 -0.1597
13681TIP3    H140982   2.240   7.105   0.592 -0.4828  0.5777  0.3717
13681TIP3    H240983   2.191   7.193   0.478  1.0611  0.8462 -0.1041
13682TIP3   OH240984   7.963   3.366   6.655  0.4560 -0.4056 -0.2454
13682TIP3    H140985   8.021   3.385   6.728 -0.0615  1.9920 -0.4118
13682TIP3    H240986   8.004   3.409   6.580 -1.5350  1.4333 -0.3363
13683TIP3   OH240987   5.175   0.257   1.349  0.8554  0.0624 -0.8738
13683TIP3    H140988   5.154   0.187   1.287  1.2818  0.0536 -1.0090
13683TIP3    H240989   5.264   0.284   1.326  0.9582  0.1652 -0.3642
13684TIP3   OH240990   3.894   0.223   1.039 -0.5881  0.1114  0.6213
13684TIP3    H140991   3.914   0.199   0.948  0.4054  0.5104  0.7267
13684TIP3    H240992   3.950   0.166   1.092 -2.9822 -1.9117  1.1003
13685TIP3   OH240993   6.521   5.832   5.628 -0.0835 -0.0101 -0.2751
13685TIP3    H140994   6.604   5.803   5.590 -0.7781 -1.1213 -0.9644
13685TIP3    H240995   6.529   5.811   5.721 -0.4076 -2.0888 -0.6825
13686TIP3   OH240996   4.170   3.539   6.886  0.0697 -0.4934 -0.3009
13686TIP3    H140997   4.165   3.447   6.912 -1.1492 -0.4285 -0.2819
13686TIP3    H240998   4.250   3.545   6.834 -0.1002 -1.6732 -0.7088
13687TIP3   OH240999   2.209   6.626   2.436 -0.2258  0.1554  0.2421
13687TIP3    H141000   2.296   6.666   2.442 -0.3775  0.4068  0.8207
13687TIP3    H241001   2.219   6.540   2.477 -0.3374  0.3358  0.6541
13688TIP3   OH241002   3.387   0.786   0.600 -1.1618  0.3012 -0.1236
13688TIP3    H141003   3.429   0.872   0.593 -0.4981 -0.0204 -0.0381
13688TIP3    H241004   3.338   0.790   0.683  1.6974 -0.6440  1.6614
13689TIP3   OH241005   5.432   2.146   3.267 -0.0752  0.6156  0.2819
13689TIP3    H141006   5.516   2.159   3.222 -0.5162  0.0628 -0.7275
13689TIP3    H241007   5.372   2.207   3.223 -0.0013  1.6540  1.5960
13690TIP3   OH241008   6.704   1.602   0.747 -0.6182 -0.4022 -0.8782
13690TIP3    H141009   6.779   1.644   0.789 -1.2813  1.2003 -1.2746
13690TIP3    H241010   6.657   1.560   0.819  0.3363 -0.9263 -0.5504
13691TIP3   OH241011   8.267   2.978   5.537  0.1040  0.4376 -0.2983
13691TIP3    H141012   8.222   3.003   5.618  1.8266 -0.7731  1.0712
13691TIP3    H241013   8.359   2.972   5.562  0.5791 -0.5481 -2.1999
13692TIP3   OH241014   1.268   7.648   1.024  0.0320  0.1957  0.3105
13692TIP3    H141015   1.308   7.573   0.981  0.8101  1.2448 -0.8374
13692TIP3    H241016   1.174   7.636   1.012 -0.0514 -2.2797  3.0149
13693TIP3   OH241017   0.344   7.490   0.926 -0.6759 -0.5240  0.5760
13693TIP3    H141018   0.342   7.536   0.843 -0.2506 -1.9854 -0.2550
13693TIP3    H241019   0.252   7.480   0.951 -0.9490 -2.5912 -1.1404
13694TIP3   OH241020   5.108   3.656   6.797 -0.0658 -0.7292  0.3343
13694TIP3    H141021   5.050   3.620   6.864  1.4819  0.0440  2.1377
13694TIP3    H241022   5.189   3.606   6.807  0.1592 -0.6454 -1.0124
13695TIP3   OH241023   7.127   3.059   5.728 -0.4251 -0.6529 -0.4305
13695TIP3    H141024   7.197   3.124   5.728  0.1973 -1.3103 -0.8960
13695TIP3    H241025   7.067   3.088   5.659 -1.3345  0.6653  0.8921
13696TIP3   OH241026   5.588   1.168   1.370 -0.1795  0.2708 -0.3871
13696TIP3    H141027   5.569   1.260   1.393 -0.5939  0.2440 -0.6337
13696TIP3    H241028   5.511   1.138   1.324 -0.1755 -0.3066 -0.0252
13697TIP3   OH241029   4.089   0.489   2.323 -0.4499 -0.2225 -0.2089
13697TIP3    H141030   4.130   0.481   2.409  0.0854  0.6768 -0.3750
13697TIP3    H241031   3.995   0.485   2.341 -0.3162 -1.5962  0.2476
13698TIP3   OH241032   6.302   0.866   1.048  0.1353  0.1078  0.2406
13698TIP3    H141033   6.355   0.843   0.972  0.4802 -0.0858  0.5334
13698TIP3    H241034   6.353   0.835   1.123  0.0596  0.7965  0.5834
13699TIP3   OH241035   3.737   6.396   1.177 -0.2180 -0.4162 -0.5377
13699TIP3    H141036   3.798   6.421   1.108 -0.1445  1.6442  0.2354
13699TIP3    H241037   3.667   6.349   1.132  1.2131 -1.5787 -1.6197
13700TIP3   OH241038   8.413   3.589   6.710 -0.3104  0.6230  0.2122
13700TIP3    H141039   8.466   3.571   6.633  0.5528  1.5466  0.5808
13700TIP3    H241040   8.337   3.636   6.676 -2.9350 -4.1504 -0.8567
13701TIP3   OH241041   6.591   4.749   6.683  0.8936 -0.1244 -0.1109
13701TIP3    H141042   6.606   4.680   6.619  1.7709  0.4282 -0.5028
13701TIP3    H241043   6.621   4.711   6.766 -1.5161 -1.3433  0.2400
13702TIP3   OH241044   1.565   0.585   2.553  0.4311  0.1856  0.4067
13702TIP3    H141045   1.478   0.612   2.583  0.3216  1.1888 -0.7474
13702TIP3    H241046   1.625   0.623   2.617  0.3052  3.6680 -1.3825
13703TIP3   OH241047   7.832   4.358   6.056  0.1664  0.2039 -0.6879
13703TIP3    H141048   7.870   4.328   5.974 -1.2412  0.5953 -1.5078
13703TIP3    H241049   7.892   4.328   6.123  0.9299 -0.8031 -1.8070
13704TIP3   OH241050   7.619   5.256   0.145  0.9190 -0.0924 -0.1829
13704TIP3    H141051   7.598   5.203   0.221 -0.1896  0.3857 -0.1450
13704TIP3    H241052   7.626   5.193   0.073 -3.1774 -0.0578 -0.7009
13705TIP3   OH241053   0.332   7.680   1.275 -0.0636 -0.1796  0.2112
13705TIP3    H141054   0.354   7.742   1.206 -0.2365  0.3249  0.6019
13705TIP3    H241055   0.345   7.593   1.236 -1.5136  0.0777 -0.8830
13706TIP3   OH241056   4.276   1.188   1.955 -0.1862  0.4231 -0.1102
13706TIP3    H141057   4.300   1.121   2.019  1.6976  0.1640 -1.0750
13706TIP3    H241058   4.180   1.188   1.956 -0.1935 -1.1589  1.0645
13707TIP3   OH241059   3.668   0.427   1.149  0.3777  0.0948  0.1614
13707TIP3    H141060   3.599   0.424   1.082  0.3923  0.1620  0.1429
13707TIP3    H241061   3.684   0.336   1.172  0.8095  0.0330 -0.3744
13708TIP3   OH241062   4.981   0.851   2.012  0.6095  0.2022 -0.3765
13708TIP3    H141063   4.923   0.798   2.066  1.4487 -0.4004 -0.0468
13708TIP3    H241064   4.958   0.829   1.922 -1.2097  1.6574 -0.2986
13709TIP3   OH241065   0.204   7.730   0.444 -0.2392  0.1596  0.0124
13709TIP3    H141066   0.232   7.821   0.448  1.7672 -0.4184 -0.3750
13709TIP3    H241067   0.148   7.726   0.366 -0.1902  1.0092 -0.0739
13710TIP3   OH241068   4.496   0.350   0.213  0.3977  0.0860 -0.3209
13710TIP3    H141069   4.440   0.352   0.136  1.3013 -0.9036 -1.0262
13710TIP3    H241070   4.442   0.386   0.283 -1.1851 -1.0473 -0.9291
13711TIP3   OH241071   4.777   0.354   0.204 -0.0907  0.2689  0.2968
13711TIP3    H141072   4.794   0.338   0.297  0.3884  0.0714  0.1785
13711TIP3    H241073   4.696   0.306   0.186  0.4421 -0.6755  0.3384
13712TIP3   OH241074   0.025   2.875   6.864  0.5178  0.1282 -0.2465
13712TIP3    H141075   0.101   2.845   6.912 -0.1080  1.0121  1.3361
13712TIP3    H241076  -0.005   2.799   6.814  0.9145 -0.9147  1.1038
13713TIP3   OH241077   1.998   6.850   0.911 -0.4089 -0.2761 -0.1498
13713TIP3    H141078   1.911   6.882   0.887 -0.3517  0.1049  0.1511
13713TIP3    H241079   2.050   6.929   0.927  0.3889 -0.4655 -1.6737
13714TIP3   OH241080   6.452   0.088   0.719 -0.0108  0.1681  0.9990
13714TIP3    H141081   6.480   0.130   0.799 -0.0482  1.7898  0.1744
13714TIP3    H241082   6.532   0.050   0.682  0.0789 -0.2091  1.5799
13715TIP3   OH241083   6.340   1.302   6.758 -0.7127  0.8163  0.0763
13715TIP3    H141084   6.371   1.225   6.711 -0.1702  1.7311 -1.0969
13715TIP3    H241085   6.411   1.365   6.750 -1.4052  1.6551  0.4728
13716TIP3   OH241086   4.426   0.471   0.456 -0.3498 -0.2601 -0.1771
13716TIP3    H141087   4.456   0.466   0.547 -2.2242  2.3358  0.6488
13716TIP3    H241088   4.368   0.396   0.445  1.1087 -1.4667  0.2898
13717TIP3   OH241089   1.229   7.282   1.254  0.1072 -0.4866  0.0117
13717TIP3    H141090   1.304   7.340   1.255 -1.8514  2.1266 -0.4125
13717TIP3    H241091   1.188   7.294   1.340 -1.3815  0.2584 -0.7765
13718TIP3   OH241092   3.698   7.010   0.693 -0.5229 -0.1222 -0.1107
13718TIP3    H141093   3.706   7.064   0.615 -0.7534 -0.0833 -0.1083
13718TIP3    H241094   3.720   7.069   0.766 -0.0066 -0.2399 -0.1707
13719TIP3   OH241095   6.549   5.236   6.305  0.4145  0.3841  0.1600
13719TIP3    H141096   6.507   5.215   6.388  2.3892  0.9651  1.3596
13719TIP3    H241097   6.556   5.152   6.259 -1.9499  0.2806 -0.0443
13720TIP3   OH241098   8.298   4.654   5.629  0.1751  0.2898 -0.1560
13720TIP3    H141099   8.273   4.714   5.699 -0.7342  2.5780 -2.3415
13720TIP3    H241100   8.218   4.605   5.610 -0.0893  0.9400 -0.7651
13721TIP3   OH241101   1.525   3.153   6.602 -0.2147  0.5844  0.2172
13721TIP3    H141102   1.476   3.081   6.641  0.0615  0.0858 -0.3418
13721TIP3    H241103   1.609   3.153   6.648 -0.6865  1.3708  1.1008
13722TIP3   OH241104   5.600   3.571   6.100  0.1239 -0.1162  0.2523
13722TIP3    H141105   5.505   3.565   6.104  0.0504 -0.0692 -1.3404
13722TIP3    H241106   5.631   3.485   6.129 -0.5065 -1.5469 -3.0425
13723TIP3   OH241107   1.816   6.263   2.050  0.5531  0.4977 -0.1007
13723TIP3    H141108   1.896   6.315   2.052 -0.6766  2.4233  0.4041
13723TIP3    H241109   1.788   6.260   2.142  0.4029 -0.7656 -0.1776
13724TIP3   OH241110   5.793   4.233   6.923  0.3007 -0.1398 -0.2203
13724TIP3    H141111   5.733   4.161   6.903  0.2139 -0.1367  0.0281
13724TIP3    H241112   5.737   4.311   6.927  0.2889 -0.1740  0.2486
13725TIP3   OH241113   1.720   7.897   2.411  0.0248  0.5391  0.0963
13725TIP3    H141114   1.665   7.829   2.451 -1.1146  0.6810 -1.2009
13725TIP3    H241115   1.778   7.924   2.482 -1.0843 -0.1387  1.3056
13726TIP3   OH241116   2.280   6.694   0.621  0.2568  0.0184  0.0281
13726TIP3    H141117   2.205   6.681   0.563  1.5636  0.5572 -1.8371
13726TIP3    H241118   2.244   6.684   0.709 -1.8009 -0.7072 -0.8556
13727TIP3   OH241119   6.827   5.223   6.644 -0.4705  0.1250 -0.1860
13727TIP3    H141120   6.756   5.161   6.658  0.1450 -0.5336  0.0654
13727TIP3    H241121   6.907   5.174   6.665  0.0095  1.0905  0.3107
13728TIP3   OH241122   7.332   6.898   0.395  0.7117 -0.4153 -0.3740
13728TIP3    H141123   7.355   6.855   0.478  1.4172  0.0738 -0.3118
13728TIP3    H241124   7.403   6.960   0.380  0.7337 -0.7113 -1.4997
13729TIP3   OH241125   4.549   5.789   5.901 -0.3672  0.0864  0.4663
13729TIP3    H141126   4.642   5.771   5.910 -0.7057 -2.4028 -0.4040
13729TIP3    H241127   4.522   5.739   5.824 -2.4107  0.7844  0.6801
13730TIP3   OH241128   1.843   7.814   0.704  0.3119  0.0760  0.4023
13730TIP3    H141129   1.823   7.840   0.794 -1.5739 -0.7224  0.2431
13730TIP3    H241130   1.777   7.858   0.650 -0.6956 -2.1286 -0.2246
13731TIP3   OH241131   2.669   6.719   0.146  0.1833 -0.2590  0.2562
13731TIP3    H141132   2.681   6.809   0.116  0.1261 -0.7802 -1.4325
13731TIP3    H241133   2.617   6.678   0.076  0.0323 -1.5414  1.1058
13732TIP3   OH241134   6.224   0.839   1.425  0.1653 -0.3012  0.1675
13732TIP3    H141135   6.253   0.775   1.359  0.8960  0.4422 -0.2430
13732TIP3    H241136   6.132   0.818   1.439  0.0154 -0.5253 -1.0363
13733TIP3   OH241137   6.382   0.439   1.791  0.1241  0.1003  0.8707
13733TIP3    H141138   6.464   0.470   1.752 -1.2759  0.5012 -1.8703
13733TIP3    H241139   6.390   0.344   1.790  1.7327  0.1601  3.3282
13734TIP3   OH241140   2.326   5.969  -0.008 -0.6951  0.2060 -0.1075
13734TIP3    H141141   2.324   5.892   0.048  1.8777  0.8575  0.9140
13734TIP3    H241142   2.419   5.988  -0.021 -1.2769  2.8256 -0.7751
13735TIP3   OH241143   7.117   0.262   0.473 -0.5317 -0.0608  0.0335
13735TIP3    H141144   7.195   0.222   0.434 -1.2966 -0.2037 -1.3658
13735TIP3    H241145   7.149   0.340   0.516  0.3963 -0.1277 -0.5205
13736TIP3   OH241146   1.545   7.754   2.553 -0.1395 -0.6841 -0.3619
13736TIP3    H141147   1.496   7.677   2.525 -2.2162 -0.1537  1.6996
13736TIP3    H241148   1.582   7.730   2.638 -2.4768  1.2367  1.2490
13737TIP3   OH241149   3.590   6.779   2.378  0.7378  0.8104 -0.7282
13737TIP3    H141150   3.605   6.712   2.312  0.9780  1.8614 -1.7573
13737TIP3    H241151   3.496   6.777   2.394  0.8867 -0.4974  0.0410
13738TIP3   OH241152   4.171   0.177   1.638  0.3832  0.0838 -0.9576
13738TIP3    H141153   4.110   0.108   1.664 -0.6412  0.9337 -1.0935
13738TIP3    H241154   4.251   0.130   1.613  1.0959 -0.8408  2.7657
13739TIP3   OH241155   1.818   6.997   0.334 -0.6600 -0.0176  0.3533
13739TIP3    H141156   1.810   7.010   0.239 -0.9340 -0.5991  0.2934
13739TIP3    H241157   1.776   6.912   0.350  0.6483 -0.5972  0.7922
13740TIP3   OH241158   3.269   5.494   2.440 -0.4013  0.1773 -0.3709
13740TIP3    H141159   3.323   5.475   2.363  0.2806  2.9215 -0.5942
13740TIP3    H241160   3.332   5.520   2.508 -1.2178  0.4860  0.2805
13741TIP3   OH241161   7.768   3.175   5.867 -0.3449 -0.2397  0.1149
13741TIP3    H141162   7.832   3.244   5.882 -1.2471  0.6892 -0.2121
13741TIP3    H241163   7.703   3.216   5.809 -1.1692 -1.1923  0.3644
13742TIP3   OH241164   5.431   1.579   5.935  0.0472 -0.0667  0.2171
13742TIP3    H141165   5.350   1.539   5.967 -0.7933 -0.3667 -2.2064
13742TIP3    H241166   5.493   1.507   5.929 -0.4166 -0.3977 -0.7629
13743TIP3   OH241167   3.526   0.475   1.618 -0.3736 -0.3533 -0.3260
13743TIP3    H141168   3.588   0.439   1.681 -0.1488  2.4286  1.1202
13743TIP3    H241169   3.539   0.423   1.539  1.5391 -1.8785  0.9588
13744TIP3   OH241170   6.815   2.761   6.889  0.3649 -0.1036 -0.6913
13744TIP3    H141171   6.799   2.696   6.821 -1.3498 -0.8296  0.3764
13744TIP3    H241172   6.816   2.711   6.971 -1.3910  1.2235  0.1895
13745TIP3   OH241173   2.712   7.646   3.398 -0.3751  0.2635  0.2144
13745TIP3    H141174   2.702   7.554   3.374 -0.6070  0.3002  0.1694
13745TIP3    H241175   2.797   7.650   3.441 -0.7116 -0.1108  0.9123
13746TIP3   OH241176   1.867   7.054   1.146  0.6421 -0.5242  0.6864
13746TIP3    H141177   1.900   7.108   1.074 -1.0963 -3.0158 -2.0757
13746TIP3    H241178   1.778   7.086   1.162  0.6682 -0.6225  1.0348
13747TIP3   OH241179   2.403   0.089   0.826 -0.5330 -0.3583 -0.4636
13747TIP3    H141180   2.489   0.046   0.827 -0.7075 -0.6963 -0.0556
13747TIP3    H241181   2.397   0.133   0.910 -0.7259 -0.2624 -0.5273
13748TIP3   OH241182   2.109   0.709   1.666 -0.0720  0.2227  0.2054
13748TIP3    H141183   2.026   0.677   1.631  0.1882 -0.5941  0.3293
13748TIP3    H241184   2.088   0.796   1.701 -0.7433  0.2589 -0.2828
13749TIP3   OH241185   5.889   5.577   6.908  0.2478 -0.0059 -0.4766
13749TIP3    H141186   5.861   5.508   6.969  0.6739 -1.4324 -1.8816
13749TIP3    H241187   5.828   5.650   6.926  1.4764  0.2976  2.9087
13750TIP3   OH241188   4.840   1.516   1.890 -0.3304 -0.6382  0.1330
13750TIP3    H141189   4.925   1.475   1.877 -0.0125 -0.4459  1.5613
13750TIP3    H241190   4.857   1.610   1.883  0.0027 -0.4857  2.6747
13751TIP3   OH241191   2.694   7.692   1.774  0.0265  0.1205 -0.4772
13751TIP3    H141192   2.626   7.679   1.708  0.8411  0.4309 -1.3955
13751TIP3    H241193   2.722   7.783   1.761  1.4964 -0.3863 -0.9658
13752TIP3   OH241194   6.288   4.613   5.769  0.1932 -0.2143  0.1182
13752TIP3    H141195   6.256   4.678   5.832  1.4779 -0.6249  1.2375
13752TIP3    H241196   6.328   4.664   5.700  2.0320  0.2046  1.4555
13753TIP3   OH241197   6.965   7.475   0.651  0.1740  0.1673 -0.2679
13753TIP3    H141198   6.955   7.552   0.594 -1.3327  1.2701  1.4354
13753TIP3    H241199   7.019   7.415   0.600  1.1809  2.2450 -1.7581
13754TIP3   OH241200   0.941   7.605   1.111 -0.2838  0.1076  0.0208
13754TIP3    H141201   0.934   7.519   1.154 -0.4752  0.3119  0.3990
13754TIP3    H241202   0.870   7.606   1.047  0.8839 -0.7757 -1.3168
13755TIP3   OH241203   1.277   6.709   2.514 -0.1818 -0.2047  0.3270
13755TIP3    H141204   1.305   6.800   2.523 -1.4150  0.0254  2.0144
13755TIP3    H241205   1.188   6.714   2.480 -0.2637 -0.7793  0.4524
13756TIP3   OH241206   0.167   5.792   2.873 -0.0181  0.6636 -0.1465
13756TIP3    H141207   0.263   5.802   2.878  0.0730 -0.8565  2.0523
13756TIP3    H241208   0.140   5.779   2.964 -2.5413  2.7213 -0.5695
13757TIP3   OH241209   1.835   5.883   1.409  0.6817 -0.1298 -0.5500
13757TIP3    H141210   1.923   5.847   1.401  0.1992 -1.0617 -1.8386
13757TIP3    H241211   1.825   5.940   1.332  0.7504  1.2749  0.4652
13758TIP3   OH241212   6.018   0.428   1.470 -0.6682 -0.0413  0.1151
13758TIP3    H141213   5.999   0.493   1.402  1.3906 -1.0704 -1.4499
13758TIP3    H241214   6.063   0.478   1.538  1.7545  0.0548 -1.4957
13759TIP3   OH241215   4.246   0.130   0.658 -0.7038  0.2782  0.7715
13759TIP3    H141216   4.284   0.184   0.727  0.4512 -0.4163  0.6876
13759TIP3    H241217   4.224   0.193   0.589  1.7553  0.5388  0.1722
13760TIP3   OH241218   6.741   7.912   0.225 -0.2422  0.2386  0.0901
13760TIP3    H141219   6.782   7.882   0.305 -0.8898 -0.3815  0.1903
13760TIP3    H241220   6.782   7.861   0.155 -0.5033 -0.0427  0.1425
13761TIP3   OH241221   7.045   1.547   6.023 -0.4731  0.1678  0.1950
13761TIP3    H141222   7.092   1.536   5.941 -1.5824 -0.5893 -0.3531
13761TIP3    H241223   7.094   1.614   6.071  2.8745 -2.6529  0.8909
13762TIP3   OH241224   2.349   7.864   0.182 -0.3196  1.0764  0.9550
13762TIP3    H141225   2.298   7.893   0.258 -0.9467 -2.0441  1.7831
13762TIP3    H241226   2.306   7.784   0.154  3.0090 -0.5986  0.4736
13763TIP3   OH241227   4.864   0.098   0.250  0.6810  0.4229 -0.7502
13763TIP3    H141228   4.769   0.084   0.243  0.6872  0.0381 -0.1212
13763TIP3    H241229   4.872   0.178   0.302  0.7052 -0.1739  0.1895
13764TIP3   OH241230   3.043   0.486   1.423  0.0088  0.2927  0.1166
13764TIP3    H141231   2.984   0.490   1.498  2.7948  1.9737  2.3181
13764TIP3    H241232   3.109   0.422   1.447 -0.5421 -1.1434 -2.0788
13765TIP3   OH241233   8.104   4.474   5.531 -0.7865  0.3629 -0.1367
13765TIP3    H141234   8.045   4.518   5.470 -1.0463 -0.3000 -0.3738
13765TIP3    H241235   8.086   4.381   5.518 -1.3033  0.2307  1.4238
13766TIP3   OH241236   6.731   0.719   1.608  0.0466 -0.0427  0.0110
13766TIP3    H141237   6.747   0.755   1.521 -0.0636 -2.1675 -0.9093
13766TIP3    H241238   6.819   0.707   1.645  0.1465 -0.3557 -0.3229
13767TIP3   OH241239   7.687   4.243   6.333 -0.0641  0.1088 -0.4597
13767TIP3    H141240   7.750   4.315   6.328 -0.3274  0.2759 -1.4708
13767TIP3    H241241   7.709   4.186   6.259  0.0488 -0.7802  0.2432
13768TIP3   OH241242   8.045   3.292   5.955 -0.6378 -0.2911  0.0067
13768TIP3    H141243   8.004   3.344   6.024  0.6106  0.5784  0.1075
13768TIP3    H241244   8.101   3.354   5.908 -0.1284 -1.2577 -0.6840
13769TIP3   OH241245   8.196   4.220   6.967 -0.4992 -0.2070  0.0782
13769TIP3    H141246   8.150   4.274   6.902 -1.9013 -0.1518  1.1027
13769TIP3    H241247   8.196   4.132   6.930 -0.2523  0.0547 -0.5441
13770TIP3   OH241248   2.122   3.728   6.659 -0.8532 -0.2032 -0.6330
13770TIP3    H141249   2.119   3.681   6.575 -2.5741 -1.6695  0.2211
13770TIP3    H241250   2.180   3.803   6.642  0.5139 -1.6292 -2.5326
13771TIP3   OH241251   6.088   0.000   0.948  0.2846 -0.1969 -0.4115
13771TIP3    H141252   6.005   0.022   0.906 -0.4177  0.0758  1.0939
13771TIP3    H241253   6.120   0.083   0.982  1.5535 -0.1701 -1.6129
13772TIP3   OH241254   0.356   4.585   6.308 -0.3645  0.2878  0.1798
13772TIP3    H141255   0.322   4.659   6.358 -2.7464 -1.3669  1.0448
13772TIP3    H241256   0.406   4.534   6.371 -0.0533  0.2828 -0.0645
13773TIP3   OH241257   2.770   6.270   0.217  0.8900 -0.0179 -0.7041
13773TIP3    H141258   2.716   6.338   0.256  1.4654  0.3011 -0.4561
13773TIP3    H241259   2.736   6.261   0.128 -0.1912 -0.5003 -0.2475
13774TIP3   OH241260   3.780   7.223   0.841  0.0424 -0.4565  0.0109
13774TIP3    H141261   3.859   7.261   0.803 -2.1003  1.8238 -2.3883
13774TIP3    H241262   3.724   7.298   0.858 -1.7775 -2.0688  1.3362
13775TIP3   OH241263   8.096   4.098   6.440  0.2134  0.0174 -0.0343
13775TIP3    H141264   8.098   4.193   6.435 -1.5374  0.1305  1.1239
13775TIP3    H241265   8.029   4.078   6.505 -0.4646 -2.0412 -1.3025
13776TIP3   OH241266   0.626   4.846   5.834 -0.2702  0.3910  0.1026
13776TIP3    H141267   0.639   4.927   5.884  0.5751 -0.1437  0.7630
13776TIP3    H241268   0.531   4.834   5.832 -0.3467  0.8340  0.9138
13777TIP3   OH241269   3.673   6.854   1.272  0.5311 -0.0982  0.1461
13777TIP3    H141270   3.759   6.880   1.304 -0.0497  1.8132  0.2213
13777TIP3    H241271   3.651   6.920   1.206  0.4743 -2.3535 -2.1800
13778TIP3   OH241272   5.861   1.030   0.710  0.1256  0.2095 -0.0327
13778TIP3    H141273   5.770   1.015   0.735  0.2506  1.8171  1.4583
13778TIP3    H241274   5.912   1.000   0.785  1.0165 -2.9960 -1.8065
13779TIP3   OH241275   0.310   6.231   5.154  0.3151 -0.0526  0.6762
13779TIP3    H141276   0.217   6.230   5.176  0.6275 -0.0663  2.0437
13779TIP3    H241277   0.344   6.311   5.194  1.1807 -0.7864  1.4579
13780TIP3   OH241278   7.505   4.967   5.192  0.8816  0.0297 -0.0472
13780TIP3    H141279   7.433   4.984   5.131  0.0457  0.6243  1.0715
13780TIP3    H241280   7.464   4.973   5.278  1.8114 -1.8793  0.5499
13781TIP3   OH241281   5.712   0.743   0.129  0.1275 -0.1927  0.2925
13781TIP3    H141282   5.727   0.834   0.105 -0.1955  0.0309  0.9261
13781TIP3    H241283   5.795   0.699   0.111  0.7555  0.5288  1.4241
13782TIP3   OH241284   7.540   5.299   6.572  0.1170 -0.4299 -0.0807
13782TIP3    H141285   7.474   5.331   6.634 -1.9859 -1.6378 -1.6388
13782TIP3    H241286   7.490   5.271   6.496  2.5618 -0.2683 -1.7962
13783TIP3   OH241287   7.936   1.089   1.811  0.5999 -0.2651  0.4547
13783TIP3    H141288   8.026   1.121   1.797  0.5214  0.4979  1.5692
13783TIP3    H241289   7.881   1.157   1.774  0.4674 -0.0978  0.9503
13784TIP3   OH241290   1.960   4.470   5.559 -0.1169  0.1294  0.4878
13784TIP3    H141291   1.882   4.417   5.549 -0.2330  0.6656 -1.7132
13784TIP3    H241292   1.928   4.556   5.584 -0.0765 -0.2228  1.7705
13785TIP3   OH241293   8.330   3.558   3.955 -0.5516 -0.0094  0.3587
13785TIP3    H141294   8.321   3.465   3.973 -0.0953 -0.0861  0.2008
13785TIP3    H241295   8.307   3.602   4.037 -0.9009 -0.2566  0.3904
13786TIP3   OH241296   6.574   2.469   6.422 -0.3000  0.3085  0.3438
13786TIP3    H141297   6.499   2.457   6.480 -0.4580  2.6708  0.6803
13786TIP3    H241298   6.610   2.554   6.447 -0.1466  1.2061 -2.7170
13787TIP3   OH241299   2.191   7.513   0.828  0.0599  0.0406  0.0705
13787TIP3    H141300   2.144   7.433   0.854  1.1700 -0.9541 -0.9234
13787TIP3    H241301   2.123   7.572   0.797 -0.5895 -1.2708 -1.0763
13788TIP3   OH241302   7.668   0.148   0.530 -0.2418 -0.2785 -0.2370
13788TIP3    H141303   7.651   0.141   0.624  0.1175 -0.5331 -0.1853
13788TIP3    H241304   7.764   0.145   0.524 -0.2859 -1.0284 -0.6642
13789TIP3   OH241305   7.256   5.398   5.598 -0.3223 -0.1244  0.2965
13789TIP3    H141306   7.233   5.306   5.608  1.3187 -0.5577  0.1477
13789TIP3    H241307   7.222   5.439   5.678 -0.8972 -0.8839  0.4498
13790TIP3   OH241308   0.702   3.459   5.221 -0.5500  0.1569  0.0240
13790TIP3    H141309   0.620   3.422   5.254 -0.2612  0.9563  1.6625
13790TIP3    H241310   0.679   3.545   5.188 -0.9125 -0.7890 -2.2964
13791TIP3   OH241311   5.484   0.327   0.449  0.0670 -0.1023  0.2445
13791TIP3    H141312   5.445   0.376   0.377  1.1916  0.4551  0.0172
13791TIP3    H241313   5.424   0.253   0.462 -0.9076  0.5764 -0.2976
13792TIP3   OH241314   2.559   7.719  -0.014  0.1028 -0.6232 -0.5097
13792TIP3    H141315   2.601   7.805  -0.007  2.1463 -1.5089 -1.4815
13792TIP3    H241316   2.598   7.667   0.056 -0.1557 -1.1443 -0.7462
13793TIP3   OH241317   7.210   3.178   6.159  0.2890 -0.7537  0.0845
13793TIP3    H141318   7.127   3.188   6.112 -0.0303 -4.4504 -0.2590
13793TIP3    H241319   7.191   3.211   6.248 -0.7937  0.7287 -0.6713
13794TIP3   OH241320   1.238   6.364   1.063  0.0506 -0.4459  0.1134
13794TIP3    H141321   1.161   6.419   1.051 -1.1571 -1.6951  1.7558
13794TIP3    H241322   1.312   6.424   1.061 -0.9314  0.7317 -1.8119
13795TIP3   OH241323   2.926   2.399   1.105 -0.2598  0.0062  0.1924
13795TIP3    H141324   2.932   2.487   1.142 -0.0625 -0.2320  0.7310
13795TIP3    H241325   3.016   2.376   1.082 -0.2804 -0.1430  0.2605
13796TIP3   OH241326   7.806   5.273   6.935  0.3286 -0.0659  0.0206
13796TIP3    H141327   7.860   5.231   6.868  0.5401  3.0056 -1.8241
13796TIP3    H241328   7.864   5.281   7.011  0.6260 -2.0180  0.0287
13797TIP3   OH241329   6.986   3.840   4.190 -0.7266 -0.9297  0.3275
13797TIP3    H141330   7.051   3.870   4.126  0.6256  0.0513  2.1153
13797TIP3    H241331   6.903   3.877   4.159  0.4563  2.4443  0.9551
13798TIP3   OH241332   3.984   0.269   1.424  0.0514 -0.0505  0.7714
13798TIP3    H141333   4.056   0.219   1.386 -0.0586 -0.5379  1.1984
13798TIP3    H241334   4.020   0.357   1.439 -0.2869  0.5341 -1.6569
13799TIP3   OH241335   7.768   4.272   6.857  0.0063  0.2494  0.7074
13799TIP3    H141336   7.730   4.204   6.801  2.7133 -0.2419 -0.6146
13799TIP3    H241337   7.743   4.246   6.945 -0.4272 -1.5455  0.0969
13800TIP3   OH241338   5.800   5.766   5.279 -0.4431  0.7954  0.2095
13800TIP3    H141339   5.863   5.744   5.347  0.2087 -1.0809 -0.9670
13800TIP3    H241340   5.770   5.682   5.246 -2.2287  1.6736 -0.4923
13801TIP3   OH241341   2.227   4.116   6.098  0.0560  0.0439  0.0682
13801TIP3    H141342   2.153   4.176   6.087 -1.7171 -2.0456  0.2481
13801TIP3    H241343   2.193   4.045   6.153  2.1085 -1.0947 -0.0656
13802TIP3   OH241344   5.691   6.777   0.618  0.6352  0.0023 -0.2992
13802TIP3    H141345   5.644   6.763   0.700 -1.7845 -0.4897 -1.7076
13802TIP3    H241346   5.732   6.693   0.599 -1.4814 -0.8944 -1.1653
13803TIP3   OH241347   5.415   5.908   0.147 -0.4971 -0.0408  0.2024
13803TIP3    H141348   5.408   5.995   0.186 -1.2213 -0.0970  0.2152
13803TIP3    H241349   5.391   5.921   0.056 -1.7429 -0.4201  0.4682
13804TIP3   OH241350   5.788   1.027   1.501 -0.3627 -0.2010 -0.3250
13804TIP3    H141351   5.717   1.066   1.448  0.0898 -0.5841 -1.2330
13804TIP3    H241352   5.792   1.081   1.579 -0.4918  0.9083 -1.0674
13805TIP3   OH241353   6.662   1.950   1.221 -0.6397  0.0944  0.3460
13805TIP3    H141354   6.593   1.945   1.288  0.1064 -1.7136  0.9968
13805TIP3    H241355   6.614   1.952   1.138 -1.5412  1.1671  0.8768
13806TIP3   OH241356   5.154   0.652   0.070 -0.3677 -0.4516 -0.4787
13806TIP3    H141357   5.105   0.668  -0.010  0.8765 -1.0878 -1.3750
13806TIP3    H241358   5.121   0.569   0.103 -1.8293  0.4490  0.4131
13807TIP3   OH241359   7.987   1.216   1.335  0.0428  0.0133  0.0181
13807TIP3    H141360   8.023   1.128   1.345 -0.1098  0.1914  2.4793
13807TIP3    H241361   7.899   1.202   1.301 -0.2170 -0.8473  1.0092
13808TIP3   OH241362   7.340   0.947   0.547  0.3889 -0.3146 -0.4168
13808TIP3    H141363   7.386   1.019   0.591  2.3849 -1.4798 -0.5578
13808TIP3    H241364   7.281   0.991   0.486  1.3632  1.2287 -0.2884
13809TIP3   OH241365   1.389   5.608   6.568 -0.4841  0.2824  0.4419
13809TIP3    H141366   1.423   5.678   6.512 -0.3861 -1.0300 -1.2057
13809TIP3    H241367   1.423   5.628   6.655  1.2234  1.1833 -0.3890
13810TIP3   OH241368   7.071   0.614   2.002 -0.3743 -0.6038  0.4732
13810TIP3    H141369   7.160   0.577   2.000 -0.0449  0.0517  2.0119
13810TIP3    H241370   7.086   0.708   2.011 -1.2118 -0.1905 -2.2563
13811TIP3   OH241371   1.499   1.384   3.552  0.6397 -0.1084 -0.0678
13811TIP3    H141372   1.465   1.424   3.471  1.0190  0.4299  0.0353
13811TIP3    H241373   1.428   1.395   3.615  0.4132 -0.3639 -0.2783
13812TIP3   OH241374   8.133   0.006   2.353 -0.3721  0.3256  0.3637
13812TIP3    H141375   8.126  -0.066   2.291  1.5425 -0.1928  0.7440
13812TIP3    H241376   8.140   0.084   2.298 -0.8799  0.0863 -0.0507
13813TIP3   OH241377   1.334   0.637   2.050 -0.1412 -0.3825  0.1501
13813TIP3    H141378   1.282   0.564   2.085  0.1156 -1.6798 -2.0619
13813TIP3    H241379   1.416   0.596   2.021  0.7786  1.1123  0.5445
13814TIP3   OH241380   7.643   1.510   0.729 -0.3384  0.2277  0.6993
13814TIP3    H141381   7.700   1.534   0.656 -2.1009 -0.7613 -1.0649
13814TIP3    H241382   7.702   1.478   0.797  1.3706  1.6370 -0.1160
13815TIP3   OH241383   2.912   7.696   2.358 -0.1844 -0.0739  0.7325
13815TIP3    H141384   2.951   7.752   2.425  1.0927 -1.3409  1.0859
13815TIP3    H241385   2.986   7.672   2.302 -1.1812  0.7069 -0.9629
13816TIP3   OH241386   6.975   1.604   1.771  0.2368  0.5414  0.5907
13816TIP3    H141387   6.960   1.562   1.856 -1.4203  1.0989  0.5817
13816TIP3    H241388   6.931   1.548   1.708 -0.2185  1.1807  0.3360
13817TIP3   OH241389   7.089   1.876   1.115 -0.5151 -0.2971  0.2178
13817TIP3    H141390   7.083   1.966   1.081  0.2384 -0.2012  0.3351
13817TIP3    H241391   7.041   1.878   1.197  0.8113  0.3774  0.9853
13818TIP3   OH241392   5.668   7.987   0.984  0.1769  0.2275 -0.0368
13818TIP3    H141393   5.739   8.043   1.013 -0.4653 -0.1954  2.4878
13818TIP3    H241394   5.639   7.942   1.064 -1.5470 -1.1287 -1.3910
13819TIP3   OH241395   3.434   7.028   2.106 -0.4398  0.3799  0.2597
13819TIP3    H141396   3.436   7.065   2.194 -0.0024 -0.3797  0.5815
13819TIP3    H241397   3.353   6.977   2.103  0.6443 -1.4540  1.0243
13820TIP3   OH241398   4.879   7.677   1.690  0.1635  0.1766 -0.4038
13820TIP3    H141399   4.825   7.748   1.724  0.4097  0.1525  0.0403
13820TIP3    H241400   4.834   7.648   1.610 -0.1805  0.5229 -0.3346
13821TIP3   OH241401   0.518   2.460   2.790 -0.0846 -0.1115  0.8294
13821TIP3    H141402   0.535   2.427   2.702 -1.6912  0.2421  0.3671
13821TIP3    H241403   0.478   2.545   2.777  1.6164  0.8994  1.9651
13822TIP3   OH241404   7.620   1.095   0.857 -0.8624  0.1231  0.5267
13822TIP3    H141405   7.659   1.010   0.835  0.6546  0.4665  1.8507
13822TIP3    H241406   7.613   1.139   0.772  2.0521  0.2203  0.2746
13823TIP3   OH241407   7.063   0.870   2.125 -0.0944 -0.8246 -0.3039
13823TIP3    H141408   7.074   0.929   2.050 -0.8703 -0.1609  0.1033
13823TIP3    H241409   7.093   0.920   2.200 -1.9714 -0.4594  0.2369
13824TIP3   OH241410   6.247   0.404   0.818 -0.4718 -0.7325  0.1810
13824TIP3    H141411   6.172   0.458   0.796 -0.0108 -0.1782 -0.0471
13824TIP3    H241412   6.215   0.344   0.885 -1.0117 -0.2388  0.3665
13825TIP3   OH241413   7.185   0.135   1.418  0.1819 -0.3254  0.2563
13825TIP3    H141414   7.246   0.062   1.433  1.4415  0.6188 -0.2284
13825TIP3    H241415   7.200   0.161   1.328 -1.0202 -0.1396  0.0982
13826TIP3   OH241416   4.181   7.851   3.222 -0.3512  0.1534  0.2282
13826TIP3    H141417   4.265   7.831   3.264 -0.6323  1.9690  1.7186
13826TIP3    H241418   4.151   7.930   3.266 -2.7300 -0.3272 -0.4817
13827TIP3   OH241419   0.262   0.450   1.025  0.0745 -0.0734  0.0791
13827TIP3    H141420   0.291   0.540   1.044 -1.1057 -0.1160  2.2142
13827TIP3    H241421   0.177   0.461   0.982 -0.1732 -0.1836  0.5450
13828TIP3   OH241422   0.935   4.914   5.631 -0.2450  0.4219 -0.1796
13828TIP3    H141423   0.997   4.982   5.606 -0.1457  0.4718  0.2059
13828TIP3    H241424   0.853   4.960   5.648 -0.0703  0.4886  0.4735
13829TIP3   OH241425   6.811   0.357   2.545  0.4393  0.6464  0.2455
13829TIP3    H141426   6.725   0.319   2.564  0.4392 -0.8798 -2.5404
13829TIP3    H241427   6.874   0.290   2.572  0.6760  0.7991  0.0766
13830TIP3   OH241428   8.445   2.458   1.456 -0.1483  0.2687  0.4845
13830TIP3    H141429   8.384   2.522   1.494 -0.8961  0.1142 -0.4503
13830TIP3    H241430   8.390   2.385   1.429  0.4249  0.2367 -0.6124
13831TIP3   OH241431   6.612   3.898   2.946 -0.2361  0.4019  0.4970
13831TIP3    H141432   6.575   3.909   3.034 -0.1422 -0.5784  0.6579
13831TIP3    H241433   6.537   3.907   2.887 -0.7496 -1.6552  0.8294
13832TIP3   OH241434   6.718   0.099   1.661  0.1934  0.0641 -0.0996
13832TIP3    H141435   6.761   0.184   1.664  0.1428  0.0934 -0.1764
13832TIP3    H241436   6.671   0.099   1.577 -0.3874  0.2404  0.2196
13833TIP3   OH241437   3.356   7.975   2.744 -0.0050  0.0319 -0.4984
13833TIP3    H141438   3.269   7.986   2.707 -0.5993 -0.1629  0.8155
13833TIP3    H241439   3.384   7.888   2.713 -0.4619 -0.1014 -0.5360
13834TIP3   OH241440   0.971   2.565   0.967 -0.4162  0.1302 -0.4130
13834TIP3    H141441   1.030   2.490   0.955  0.4018  0.6713  0.1767
13834TIP3    H241442   0.946   2.561   1.059 -0.2335  0.6863 -0.3392
13835TIP3   OH241443   2.302   1.390   1.245  0.4971  0.0999  0.0692
13835TIP3    H141444   2.257   1.306   1.237  0.2958 -0.1055  2.9385
13835TIP3    H241445   2.274   1.424   1.330  1.0167  2.8176 -0.8046
13836TIP3   OH241446   3.107   2.791   2.615 -0.1897  0.4214 -0.1918
13836TIP3    H141447   3.085   2.853   2.685  0.4677  1.5768 -0.9968
13836TIP3    H241448   3.198   2.767   2.633 -0.4920 -0.4465  0.2083
13837TIP3   OH241449   2.934   5.232   6.179  0.8418 -0.2097 -0.3102
13837TIP3    H141450   2.896   5.311   6.218  0.3819 -0.2634 -0.6400
13837TIP3    H241451   2.927   5.165   6.247 -1.3269 -0.7021 -0.9741
13838TIP3   OH241452   0.008   0.660   1.310  0.4586 -0.3136  0.1722
13838TIP3    H141453  -0.025   0.670   1.220 -0.0495 -0.4566  0.3419
13838TIP3    H241454   0.103   0.658   1.300  0.3730 -1.3601 -0.4681
13839TIP3   OH241455   1.022   0.570   2.199  0.0894  0.1529  0.4430
13839TIP3    H141456   1.068   0.499   2.154 -1.4739 -0.3619 -0.4044
13839TIP3    H241457   1.042   0.648   2.147 -1.3225 -0.3617 -0.9305
13840TIP3   OH241458   1.490   2.258   2.028  0.0368  0.2470  0.2801
13840TIP3    H141459   1.495   2.189   2.094 -1.0738 -2.3258 -2.2198
13840TIP3    H241460   1.569   2.247   1.975 -0.1612  0.8631 -0.1539
13841TIP3   OH241461   0.937   1.787   1.189 -0.2270  0.9009 -0.5994
13841TIP3    H141462   0.846   1.791   1.218  0.2663  0.3089  1.1252
13841TIP3    H241463   0.932   1.769   1.095 -1.8722  0.2126 -0.3981
13842TIP3   OH241464   2.252   1.330   2.950 -0.1555 -0.1701 -0.1450
13842TIP3    H141465   2.210   1.253   2.989  0.4775  1.7174  4.5949
13842TIP3    H241466   2.180   1.390   2.932 -0.6798 -1.8407 -4.0989
13843TIP3   OH241467   7.033   1.285   2.276  0.5718 -0.7948  0.0856
13843TIP3    H141468   7.058   1.207   2.324 -1.0754 -2.1563 -1.1965
13843TIP3    H241469   6.939   1.273   2.258  0.3352  1.3936 -0.2541
13844TIP3   OH241470   0.802   3.374   1.712 -0.0725  0.1030 -0.2166
13844TIP3    H141471   0.861   3.396   1.640 -0.2591 -1.3851 -0.8440
13844TIP3    H241472   0.813   3.280   1.724 -1.3241  0.0435  0.5559
13845TIP3   OH241473   7.419   6.577   0.829 -0.1318  0.1759  0.0525
13845TIP3    H141474   7.450   6.592   0.918 -0.6510  1.2666  0.0624
13845TIP3    H241475   7.329   6.546   0.839 -0.2606  0.4994 -0.1020
13846TIP3   OH241476   3.247   4.513   2.750 -0.4744  0.1235 -0.2432
13846TIP3    H141477   3.194   4.590   2.770 -0.3525  0.2302 -0.3347
13846TIP3    H241478   3.327   4.547   2.712 -0.7984 -0.0839 -1.1345
13847TIP3   OH241479   3.251   0.567   3.385 -0.1106 -0.0642  0.1971
13847TIP3    H141480   3.233   0.658   3.411 -2.7342 -0.3798 -0.3651
13847TIP3    H241481   3.205   0.557   3.302  0.6560 -1.7357 -0.0376
13848TIP3   OH241482   2.997   0.889   1.379 -1.1093  0.2784 -0.6161
13848TIP3    H141483   2.950   0.840   1.446  1.1862 -0.7210  0.3181
13848TIP3    H241484   3.087   0.857   1.385 -0.5098  1.4165 -3.0176
13849TIP3   OH241485   3.294   5.948   6.850 -0.3217  0.0068 -0.1400
13849TIP3    H141486   3.215   5.903   6.880 -0.3467  1.1775  1.6091
13849TIP3    H241487   3.261   6.028   6.808 -0.0657  0.7031  0.9664
13850TIP3   OH241488   7.073   2.045   2.572  0.4334  0.6421 -0.3206
13850TIP3    H141489   7.039   2.098   2.500 -0.3451  1.4837  0.6452
13850TIP3    H241490   7.161   2.079   2.588 -0.9821  3.4832  2.0034
13851TIP3   OH241491   3.111   7.104   6.504  0.1137  0.0282 -0.3595
13851TIP3    H141492   3.180   7.053   6.545 -0.0036 -0.4320 -0.7236
13851TIP3    H241493   3.137   7.112   6.412 -0.4889 -0.4646 -0.5806
13852TIP3   OH241494   0.665   1.146   0.711  0.2211 -0.0754 -0.5247
13852TIP3    H141495   0.702   1.090   0.642  0.1837  0.3380 -0.8804
13852TIP3    H241496   0.740   1.166   0.768  0.4218  0.2418 -0.8953
13853TIP3   OH241497   2.958   2.801   1.785  0.3008 -0.8867 -0.0280
13853TIP3    H141498   2.953   2.781   1.691 -0.9982 -1.4231  0.1451
13853TIP3    H241499   2.874   2.771   1.820  0.2478  0.5320  1.0751
13854TIP3   OH241500   3.218   0.538   0.824 -0.9383 -0.4124 -0.1953
13854TIP3    H141501   3.285   0.527   0.756 -0.8591 -0.2926 -0.1369
13854TIP3    H241502   3.136   0.515   0.781 -1.2832  2.4464 -1.1912
13855TIP3   OH241503   2.269   3.007   0.878 -0.0104 -0.0318  0.2278
13855TIP3    H141504   2.274   3.078   0.942 -0.0556  0.1632  0.0153
13855TIP3    H241505   2.320   2.936   0.917  0.3997  0.2700  0.2438
13856TIP3   OH241506   2.162   4.724   6.497  0.0233  0.3959  0.4174
13856TIP3    H141507   2.097   4.691   6.560 -0.5284  0.3510 -0.1757
13856TIP3    H241508   2.121   4.712   6.412 -0.5213  3.3468  0.2146
13857TIP3   OH241509   1.586   2.282   6.530 -0.1295  0.4472  0.0378
13857TIP3    H141510   1.524   2.278   6.457 -0.7393  1.9521  0.4444
13857TIP3    H241511   1.536   2.323   6.601  0.8433  0.1771  0.8927
13858TIP3   OH241512   2.978   0.489   0.682  0.2841  0.2415  0.5568
13858TIP3    H141513   2.946   0.507   0.771  0.5818  0.1474  0.6834
13858TIP3    H241514   2.923   0.543   0.626 -0.6087 -0.5105  0.7092
13859TIP3   OH241515   8.050   1.425   1.131  0.3371 -0.4456 -0.4754
13859TIP3    H141516   8.062   1.380   1.215 -1.4479  0.4291  0.2765
13859TIP3    H241517   8.105   1.377   1.070  0.3660 -2.1315  0.8446
13860TIP3   OH241518   0.720   0.788   2.482  0.1567  0.0643  0.5755
13860TIP3    H141519   0.766   0.868   2.507 -0.9583  1.2077 -0.8601
13860TIP3    H241520   0.665   0.815   2.407 -1.8489 -1.5230  1.4238
13861TIP3   OH241521   0.418   2.461   3.046 -0.1121 -0.4671  0.2926
13861TIP3    H141522   0.442   2.446   2.955 -0.0365  0.6690  0.1094
13861TIP3    H241523   0.364   2.541   3.043 -2.4352 -1.9571  0.8936
13862TIP3   OH241524   0.946   1.685   0.939  0.0944 -0.2620 -0.3960
13862TIP3    H141525   1.029   1.671   0.894  0.1694 -0.0301 -0.3296
13862TIP3    H241526   0.884   1.705   0.868  0.2504  0.2770 -0.3843
13863TIP3   OH241527   1.062   1.246   0.824 -0.2938 -0.2430  0.5383
13863TIP3    H141528   0.981   1.285   0.793  0.1842  1.1795  1.0383
13863TIP3    H241529   1.037   1.201   0.905 -0.7845 -0.6929  0.1380
13864TIP3   OH241530   7.820   3.040   0.700 -0.0076  0.4271 -0.2524
13864TIP3    H141531   7.872   2.962   0.681 -0.7872 -0.0398 -0.4606
13864TIP3    H241532   7.734   3.021   0.663 -0.6615  0.7478  1.1013
13865TIP3   OH241533   1.524   2.498   2.284 -0.4064 -0.1922 -0.4618
13865TIP3    H141534   1.529   2.477   2.191  1.8518  0.5795 -0.5399
13865TIP3    H241535   1.593   2.445   2.324  2.1473  3.2720  0.0055
13866TIP3   OH241536   7.160   1.589   0.158  0.3974  0.6127 -0.7017
13866TIP3    H141537   7.222   1.635   0.215  0.6044  0.8367 -1.1137
13866TIP3    H241538   7.083   1.577   0.213  0.4058  1.2890 -0.5346
13867TIP3   OH241539   3.556   4.337   6.330  0.2016  0.1099 -0.4933
13867TIP3    H141540   3.493   4.407   6.347  0.2666  0.4510 -1.6185
13867TIP3    H241541   3.639   4.370   6.364  0.2664  0.6546 -1.1715
13868TIP3   OH241542   0.083   2.076   1.920 -0.8993  0.3749  0.4513
13868TIP3    H141543   0.032   2.045   1.994 -0.5726 -0.6160  0.2819
13868TIP3    H241544   0.128   2.154   1.951 -0.7253 -0.0664  1.3128
13869TIP3   OH241545   1.325   4.726   6.054  0.0055  0.3669  0.0020
13869TIP3    H141546   1.357   4.776   5.979 -0.2451 -0.6479 -0.7934
13869TIP3    H241547   1.236   4.701   6.030  0.7465 -1.9738 -0.3856
13870TIP3   OH241548   2.040   2.191   3.391  0.4133  0.3757 -0.6422
13870TIP3    H141549   2.134   2.181   3.410  0.0357 -0.8799  0.6464
13870TIP3    H241550   2.017   2.113   3.341 -0.4803 -0.6395  1.2699
13871TIP3   OH241551   0.945   4.751   6.236  0.1232 -0.4139 -0.3918
13871TIP3    H141552   0.914   4.837   6.205 -1.1743 -0.3149  1.0780
13871TIP3    H241553   1.030   4.769   6.275  0.0159  0.1393 -0.4093
13872TIP3   OH241554   7.220   2.068   1.455  1.1279  0.2118 -0.2277
13872TIP3    H141555   7.252   2.082   1.365  2.1251  0.5548  0.1705
13872TIP3    H241556   7.181   1.981   1.452 -0.7231  1.0582 -1.5077
13873TIP3   OH241557   1.965   5.910   6.544  0.5151 -0.3348 -0.3751
13873TIP3    H141558   1.887   5.856   6.554  1.9499 -1.8085  3.8737
13873TIP3    H241559   1.947   5.988   6.597  1.3920 -0.0822 -0.4410
13874TIP3   OH241560   0.198   3.235   0.977 -0.5432 -0.4539  0.4538
13874TIP3    H141561   0.154   3.250   0.893 -0.1223  0.9896  0.4677
13874TIP3    H241562   0.178   3.313   1.029 -0.1669 -0.9882  1.4178
13875TIP3   OH241563   1.963   1.752   1.424  0.4616 -0.4000 -0.0906
13875TIP3    H141564   1.960   1.750   1.328 -0.7932 -0.1391 -0.0676
13875TIP3    H241565   2.052   1.780   1.445 -0.1864  2.7117 -1.2222
13876TIP3   OH241566   0.437   2.319   2.162  0.4916 -0.1147 -0.2835
13876TIP3    H141567   0.412   2.341   2.252 -1.6684 -0.9450 -0.6439
13876TIP3    H241568   0.532   2.309   2.165  0.3948 -0.5826  2.0148
13877TIP3   OH241569   6.747   2.144   2.007 -0.0888 -0.3535 -0.1982
13877TIP3    H141570   6.718   2.058   1.977 -2.9138  0.1494  0.9206
13877TIP3    H241571   6.701   2.207   1.950 -1.2716  0.4589  1.5895
13878TIP3   OH241572   8.468   3.081   1.692 -0.1778  0.2017 -0.2121
13878TIP3    H141573   8.406   3.064   1.762 -0.3074  1.4057 -0.0175
13878TIP3    H241574   8.485   2.996   1.653 -1.6458 -0.1936 -0.0117
13879TIP3   OH241575   1.715   0.112   2.154 -0.2102 -0.4909 -0.0436
13879TIP3    H141576   1.700   0.206   2.137 -1.8870 -0.7795 -0.2477
13879TIP3    H241577   1.627   0.074   2.158  0.4868 -2.3556 -1.6081
13880TIP3   OH241578   0.875   1.435   0.679  0.1878  0.1280 -0.1118
13880TIP3    H141579   0.848   1.428   0.588  0.3610  2.1960 -0.3460
13880TIP3    H241580   0.957   1.485   0.676  0.2733  0.0781  1.1637
13881TIP3   OH241581   7.652   1.335   0.998  0.6485  0.7247 -0.2443
13881TIP3    H141582   7.642   1.264   0.934  0.0803  3.2285 -3.0140
13881TIP3    H241583   7.564   1.349   1.033  0.8128 -0.1170  0.5124
13882TIP3   OH241584   0.352   1.650   2.317 -0.1678 -0.5222 -0.2027
13882TIP3    H141585   0.399   1.634   2.236 -0.1914 -2.5577  0.1548
13882TIP3    H241586   0.414   1.628   2.386 -0.5190  0.0812  0.3099
13883TIP3   OH241587   0.961   2.596   2.024  0.3759  0.1531  0.1295
13883TIP3    H141588   0.870   2.619   2.042 -0.4134 -0.2193 -3.0756
13883TIP3    H241589   0.958   2.503   2.000  1.9076 -0.4028  2.0402
13884TIP3   OH241590   2.116   2.317   1.108 -0.4956 -0.1033 -0.2766
13884TIP3    H141591   2.040   2.334   1.163  1.2682 -0.5879  2.3701
13884TIP3    H241592   2.131   2.223   1.115 -0.2480 -0.1758 -1.5929
13885TIP3   OH241593   4.388   6.568   0.918  0.1115 -0.0934  0.4928
13885TIP3    H141594   4.444   6.504   0.874  0.2807  0.0411  0.5118
13885TIP3    H241595   4.345   6.519   0.988  1.7982  0.2764  1.8084
13886TIP3   OH241596   2.692   1.201   1.614  0.3311  0.9100  0.0254
13886TIP3    H141597   2.639   1.140   1.666  0.1667  1.8589  0.9975
13886TIP3    H241598   2.730   1.260   1.679 -0.5178  2.6303 -1.0190
13887TIP3   OH241599   7.412   2.363   1.809 -0.7255  0.3408 -0.1505
13887TIP3    H141600   7.322   2.338   1.829 -1.4317  1.1294 -2.2153
13887TIP3    H241601   7.425   2.446   1.856 -1.3601  0.6625 -0.5422
13888TIP3   OH241602   0.411   3.160   1.636  0.2991  0.3661 -0.1225
13888TIP3    H141603   0.390   3.082   1.688  1.4688 -0.3610 -0.7159
13888TIP3    H241604   0.424   3.229   1.700 -2.8527  0.6203  0.3299
13889TIP3   OH241605   2.197   5.148   6.673 -0.0521 -0.4989  0.2008
13889TIP3    H141606   2.183   5.141   6.578 -0.7984 -0.2238  0.2895
13889TIP3    H241607   2.285   5.184   6.682  0.2566 -1.0905 -0.3818
13890TIP3   OH241608   0.731   2.256   2.126  0.0516  0.3736  0.2018
13890TIP3    H141609   0.810   2.249   2.180  1.5640  1.0584 -1.8584
13890TIP3    H241610   0.726   2.173   2.079 -1.5920 -0.4539  1.8073
13891TIP3   OH241611   8.223   1.033   2.272  0.0411  0.1793 -0.1219
13891TIP3    H141612   8.294   0.969   2.266 -1.4116 -1.2628 -2.3523
13891TIP3    H241613   8.148   0.984   2.303 -0.2325  1.5644  1.5275
13892TIP3   OH241614   1.956   3.076   0.903 -0.0915 -0.1631 -0.0479
13892TIP3    H141615   1.995   3.125   0.975 -0.1032 -1.7674  1.0855
13892TIP3    H241616   1.899   3.139   0.859  0.3381  0.9858  1.0046
13893TIP3   OH241617   7.762   1.902   1.609  0.1646 -0.5735  0.9083
13893TIP3    H141618   7.673   1.874   1.627  0.5835 -2.4203  0.2640
13893TIP3    H241619   7.775   1.979   1.664 -1.5254 -0.7920  1.6453
13894TIP3   OH241620   1.456   0.202   2.433  0.3365  0.2341 -0.0031
13894TIP3    H141621   1.468   0.296   2.446 -1.9742  0.4669  0.6766
13894TIP3    H241622   1.545   0.166   2.433  1.1689  2.2030  1.3734
13895TIP3   OH241623   8.367   2.296   2.496  0.4517 -0.5706 -0.7956
13895TIP3    H141624   8.381   2.205   2.471  0.0637 -0.4634 -1.3934
13895TIP3    H241625   8.369   2.345   2.414 -0.7475 -0.2126 -0.6222
13896TIP3   OH241626   0.562   2.060   1.574  0.0818  0.3174 -0.3866
13896TIP3    H141627   0.548   1.965   1.584  1.0958  0.2277  0.2264
13896TIP3    H241628   0.627   2.081   1.640  0.2260  1.3658 -0.8630
13897TIP3   OH241629   0.696   2.072   0.591  0.3772  0.1176 -0.5809
13897TIP3    H141630   0.701   2.024   0.508  1.5562  0.2204 -0.5775
13897TIP3    H241631   0.779   2.120   0.596 -0.7592  2.1482 -0.5687
13898TIP3   OH241632   2.383   4.808   6.796  0.2575 -0.6146 -0.1827
13898TIP3    H141633   2.407   4.810   6.703 -0.4307 -2.0870 -0.4110
13898TIP3    H241634   2.373   4.900   6.820  0.0039 -0.2312 -1.6854
13899TIP3   OH241635   1.307   4.058   1.435  0.1835  0.4526  0.5729
13899TIP3    H141636   1.272   4.128   1.381 -1.4635 -1.4463 -0.9088
13899TIP3    H241637   1.241   4.045   1.504 -0.1228 -0.4259  0.1280
13900TIP3   OH241638   8.245   2.654   1.860 -0.5041 -0.0208 -0.4274
13900TIP3    H141639   8.296   2.593   1.807 -0.6164 -1.3550  0.9825
13900TIP3    H241640   8.303   2.729   1.874 -0.2889  0.1185 -1.9750
13901TIP3   OH241641   1.138   2.552   3.455  0.1792 -0.7025  0.2310
13901TIP3    H141642   1.187   2.623   3.413 -0.4091  0.2662  1.1587
13901TIP3    H241643   1.187   2.473   3.433  1.6150  0.1390  0.3282
13902TIP3   OH241644   3.920   5.173   5.386 -0.1522 -0.2134  0.3625
13902TIP3    H141645   3.912   5.193   5.479 -1.7467  1.6338 -0.1319
13902TIP3    H241646   4.004   5.214   5.361 -0.8653  1.3909  0.5011
13903TIP3   OH241647   7.913   1.998   0.098  0.9326 -0.1709  0.2886
13903TIP3    H141648   7.873   2.062   0.040 -1.0823 -1.0068  0.7263
13903TIP3    H241649   8.006   2.024   0.102  0.1278  2.8351  0.6330
13904TIP3   OH241650   3.000   4.951   6.809 -0.2813 -0.5226  0.0329
13904TIP3    H141651   2.932   4.903   6.855 -0.3142 -0.2258  0.2989
13904TIP3    H241652   3.052   4.884   6.764  0.0790 -0.8553  0.9374
13905TIP3   OH241653   7.083   2.334   1.159  0.3962  0.5890  0.0766
13905TIP3    H141654   7.166   2.287   1.165 -0.2268 -0.4923  0.4319
13905TIP3    H241655   7.018   2.266   1.143 -0.7220  1.1370  2.0459
13906TIP3   OH241656   1.964   2.391   1.331  0.4155  0.1796 -0.0661
13906TIP3    H141657   1.919   2.428   1.407  0.4059 -0.2665  0.1439
13906TIP3    H241658   1.925   2.305   1.319  0.0261  0.4682 -0.9162
13907TIP3   OH241659   3.556   6.232   4.791 -0.1900 -0.0630 -0.4309
13907TIP3    H141660   3.489   6.229   4.722 -0.0636  0.5073 -0.5858
13907TIP3    H241661   3.556   6.144   4.828 -2.2555  0.3930  0.7362
13908TIP3   OH241662   1.655   2.417   1.636  0.4281 -0.5516  0.2606
13908TIP3    H141663   1.678   2.489   1.577 -1.3626 -3.0778 -3.7466
13908TIP3    H241664   1.734   2.363   1.639  0.4865 -0.4766  0.0911
13909TIP3   OH241665   0.039   1.398   0.514  0.2864 -0.1162 -0.2521
13909TIP3    H141666  -0.007   1.329   0.561 -0.2403  0.3271 -0.1203
13909TIP3    H241667  -0.029   1.459   0.488  1.1251  1.9821  2.3385
13910TIP3   OH241668   0.254   2.336   1.947  0.4542  0.1092 -0.2580
13910TIP3    H141669   0.295   2.356   2.031  1.1531 -1.2868 -0.2697
13910TIP3    H241670   0.315   2.278   1.903  0.0047  0.6770 -1.6687
13911TIP3   OH241671   1.515   4.141   6.675  0.0535  0.0839 -0.1963
13911TIP3    H141672   1.594   4.123   6.624 -0.4289  1.3893 -1.4454
13911TIP3    H241673   1.548   4.171   6.760  0.8782 -1.0201 -0.1174
13912TIP3   OH241674   2.202   1.864   2.670  0.5338  0.1794 -0.6972
13912TIP3    H141675   2.285   1.894   2.707  0.3292  2.2160 -1.7826
13912TIP3    H241676   2.217   1.862   2.575 -0.4702 -0.0138 -0.8627
13913TIP3   OH241677   7.567   1.652   1.536 -0.5906 -0.1573 -0.2368
13913TIP3    H141678   7.510   1.643   1.459 -0.7285 -0.0590 -0.1469
13913TIP3    H241679   7.530   1.726   1.584 -0.0004  0.3092 -0.5071
13914TIP3   OH241680   2.772   1.377   2.904  0.1955  0.0480  0.0624
13914TIP3    H141681   2.802   1.377   2.995 -0.5639  1.4923  0.3135
13914TIP3    H241682   2.680   1.400   2.908  0.2090  0.3699 -1.1025
13915TIP3   OH241683   3.657   5.474   5.197  0.5621  0.0401 -0.2693
13915TIP3    H141684   3.579   5.453   5.147  1.3303  0.7071 -1.7754
13915TIP3    H241685   3.630   5.546   5.255 -0.4994 -1.1726  0.7829
13916TIP3   OH241686   1.989   3.801   6.202  0.6833  0.2062  0.3771
13916TIP3    H141687   2.018   3.767   6.117 -0.7760 -0.1482 -0.0045
13916TIP3    H241688   1.975   3.894   6.188 -0.0929  0.0473  0.0662
13917TIP3   OH241689   5.906   7.539   1.878 -0.9993  0.4674 -0.1815
13917TIP3    H141690   5.861   7.514   1.959 -1.0254  2.9705  0.6257
13917TIP3    H241691   5.994   7.564   1.907  0.2367 -2.1696 -1.4543
13918TIP3   OH241692   2.317   5.291   5.571 -0.8136  0.3590  0.2435
13918TIP3    H141693   2.254   5.253   5.632  1.3716 -1.5562  1.3872
13918TIP3    H241694   2.330   5.224   5.505  0.6831  0.3379  0.5260
13919TIP3   OH241695   6.519   1.167   2.532  0.7597 -0.1666  0.1903
13919TIP3    H141696   6.467   1.199   2.458  0.6242 -1.5306 -0.3117
13919TIP3    H241697   6.457   1.167   2.606  0.5207 -0.1310 -0.0097
13920TIP3   OH241698   0.543   1.330   0.224 -0.3193  0.9733 -0.2812
13920TIP3    H141699   0.458   1.322   0.266  0.1702  0.3164  0.5937
13920TIP3    H241700   0.525   1.377   0.142 -1.6445  0.0432 -0.5347
13921TIP3   OH241701   6.104   7.402   1.388  0.2984 -0.1074  0.2736
13921TIP3    H141702   6.171   7.469   1.400 -0.3918  0.5288  0.6915
13921TIP3    H241703   6.133   7.350   1.313 -0.0714  1.8122 -1.2333
13922TIP3   OH241704   0.265   3.080   3.168  0.3584 -0.0138 -0.0888
13922TIP3    H141705   0.235   3.040   3.087 -1.9836  0.6664  0.4111
13922TIP3    H241706   0.257   3.011   3.234 -0.2314  0.1975  0.0650
13923TIP3   OH241707   7.533   2.446   0.274  0.1951 -0.2336  0.3114
13923TIP3    H141708   7.468   2.432   0.343  0.0654 -0.4405  0.1475
13923TIP3    H241709   7.515   2.534   0.241 -0.3571 -0.5051 -0.1096
13924TIP3   OH241710   2.111   6.569   5.967 -0.4261 -0.1641  0.2904
13924TIP3    H141711   2.171   6.496   5.984 -0.9528 -0.4193  1.0834
13924TIP3    H241712   2.154   6.620   5.898  0.0126 -1.1483 -0.1745
13925TIP3   OH241713   7.372   2.487   0.482  0.2868 -0.5801 -0.1805
13925TIP3    H141714   7.451   2.541   0.491  0.2526 -0.7725  1.4751
13925TIP3    H241715   7.301   2.550   0.469  0.1810 -0.1591  2.2165
13926TIP3   OH241716   2.346   3.197   6.228 -0.0179 -0.0598 -0.3706
13926TIP3    H141717   2.405   3.134   6.269 -0.7361 -0.1684  0.4997
13926TIP3    H241718   2.296   3.235   6.300 -2.5408 -1.5449 -1.2586
13927TIP3   OH241719   2.950   5.120   5.367  0.7438  0.5935 -0.0019
13927TIP3    H141720   3.042   5.127   5.394  0.4591 -0.7438  1.3454
13927TIP3    H241721   2.938   5.028   5.344 -0.9291  0.1700  2.3925
13928TIP3   OH241722   4.494   3.192   2.201 -0.3751  0.0820 -0.2829
13928TIP3    H141723   4.494   3.283   2.172 -0.5300  0.3214  0.4620
13928TIP3    H241724   4.420   3.153   2.156  0.9319 -0.2176 -2.2578
13929TIP3   OH241725   1.257   2.654   0.822  0.5295 -0.0865 -0.0238
13929TIP3    H141726   1.321   2.641   0.892  0.2598  0.6200  0.3587
13929TIP3    H241727   1.286   2.733   0.777  0.9516 -0.7767 -1.0000
13930TIP3   OH241728   6.755   0.222   1.263  0.1498  0.4687 -0.4203
13930TIP3    H141729   6.771   0.128   1.273  1.2754  0.6948 -0.0609
13930TIP3    H241730   6.784   0.242   1.174 -0.2447  0.4566 -0.5563
13931TIP3   OH241731   3.121   4.714   5.562  0.3268 -0.4258  0.0419
13931TIP3    H141732   3.204   4.669   5.546  1.0215  1.3840 -1.8121
13931TIP3    H241733   3.137   4.767   5.640  0.8427 -0.3405 -0.1144
13932TIP3   OH241734   8.005   1.927   0.937 -0.7656  0.2722 -0.3610
13932TIP3    H141735   8.025   1.859   1.002 -0.8748  0.6912  0.1109
13932TIP3    H241736   7.971   1.878   0.861  0.6646 -0.3172 -0.6257
13933TIP3   OH241737   2.940   4.817   5.363  0.3184  0.2278  0.2477
13933TIP3    H141738   2.974   4.779   5.444  1.8864 -0.7475 -0.8369
13933TIP3    H241739   2.891   4.745   5.322  0.9261  0.2012 -0.4515
13934TIP3   OH241740   7.299   1.640   2.404  0.2058 -0.2088  0.1428
13934TIP3    H141741   7.339   1.726   2.417 -0.9314  0.0376  2.1641
13934TIP3    H241742   7.374   1.580   2.399  1.0736  1.0306 -2.7719
13935TIP3   OH241743   0.057   1.487   2.630 -0.1508 -0.2182 -0.3068
13935TIP3    H141744   0.056   1.528   2.543  1.7418  0.3970 -0.0635
13935TIP3    H241745   0.043   1.394   2.612 -0.7232  0.0362 -1.1997
13936TIP3   OH241746   0.459   1.515   0.052  0.4540 -0.0568  0.0477
13936TIP3    H141747   0.411   1.487  -0.026 -0.8842 -1.9017  1.4940
13936TIP3    H241748   0.405   1.586   0.088 -0.2678 -0.8883  0.6467
13937TIP3   OH241749   2.010   3.185   2.148  0.3968 -0.0955 -0.4522
13937TIP3    H141750   2.102   3.161   2.135  0.7328  0.3626  0.9797
13937TIP3    H241751   1.963   3.102   2.141  1.4058 -1.0780  3.1053
13938TIP3   OH241752   2.337   3.503   2.519  0.2826  0.6773  0.2013
13938TIP3    H141753   2.270   3.531   2.457 -0.7537 -3.5627 -0.8110
13938TIP3    H241754   2.290   3.489   2.601  0.0368 -1.3507 -0.2476
13939TIP3   OH241755   1.690   0.093   1.303  0.8905 -0.0776  0.2310
13939TIP3    H141756   1.705   0.064   1.214 -1.9621 -0.1635 -0.2836
13939TIP3    H241757   1.648   0.018   1.346  0.0226  0.7824  0.9249
13940TIP3   OH241758   2.919   4.391   3.491 -0.0740  0.1185  0.4246
13940TIP3    H141759   2.859   4.370   3.420  0.1778  0.4117  0.1204
13940TIP3    H241760   3.006   4.368   3.457  0.0977  0.6993  0.4589
13941TIP3   OH241761   2.402   2.266   2.247 -0.1558 -0.1452 -0.4984
13941TIP3    H141762   2.315   2.261   2.286  0.5724 -0.7192  1.1232
13941TIP3    H241763   2.459   2.291   2.320  0.9326  0.9742 -1.6959
13942TIP3   OH241764   0.597   0.572   1.138 -0.1372 -0.0726  0.5107
13942TIP3    H141765   0.564   0.658   1.161 -1.2479 -0.6336  1.0095
13942TIP3    H241766   0.660   0.551   1.207 -1.3374 -0.5190  1.4754
13943TIP3   OH241767   1.115   0.376   0.157  0.2321 -0.1236 -0.2040
13943TIP3    H141768   1.049   0.420   0.210  0.7042 -0.0812  0.3657
13943TIP3    H241769   1.065   0.321   0.096 -0.3497 -3.1016  2.7714
13944TIP3   OH241770   1.702   1.716   2.292  0.0003 -0.0570 -0.4034
13944TIP3    H141771   1.766   1.714   2.364  0.1801  0.3312 -0.5541
13944TIP3    H241772   1.756   1.721   2.213 -0.0787 -3.5191 -0.7426
13945TIP3   OH241773   3.532   2.552   2.232 -0.4076 -0.3605 -0.5069
13945TIP3    H141774   3.600   2.596   2.180 -0.1400  1.9357  1.7182
13945TIP3    H241775   3.461   2.615   2.236 -0.3174 -0.3979  2.1161
13946TIP3   OH241776   1.197   2.725   0.441  0.1567 -0.2588 -0.7268
13946TIP3    H141777   1.170   2.813   0.416 -0.0929  0.0182  0.4891
13946TIP3    H241778   1.141   2.703   0.516  1.4765 -0.7188  0.1534
13947TIP3   OH241779   2.210   4.180   6.844  0.3015  0.3256  0.2749
13947TIP3    H141780   2.143   4.226   6.894 -0.4515  0.3444 -0.7256
13947TIP3    H241781   2.255   4.249   6.795  0.4164  0.2080  0.2125
13948TIP3   OH241782   0.498   5.435   5.387 -0.7975  0.0081  0.4909
13948TIP3    H141783   0.551   5.378   5.331  1.6796  2.8498 -0.1737
13948TIP3    H241784   0.479   5.381   5.464  0.3250 -2.1704 -0.7093
13949TIP3   OH241785   1.046   2.622   0.634  0.1205 -0.0110  0.3925
13949TIP3    H141786   1.119   2.582   0.682 -1.8962 -0.5143  3.2309
13949TIP3    H241787   0.970   2.569   0.659 -1.3255  0.8398 -2.0470
13950TIP3   OH241788   2.075   1.792   1.970  0.4016  0.2545 -0.2647
13950TIP3    H141789   2.150   1.828   2.017  0.8111  0.2905 -0.9412
13950TIP3    H241790   2.090   1.815   1.878 -1.0714  1.3689 -0.2437
13951TIP3   OH241791   4.614   4.977   6.305  0.4543  0.0275  0.1636
13951TIP3    H141792   4.707   4.984   6.282  0.3165 -0.3374 -0.5088
13951TIP3    H241793   4.606   4.888   6.340 -0.1742 -0.8945 -2.2494
13952TIP3   OH241794   3.135   5.794   5.794  0.4193 -0.1526 -0.2179
13952TIP3    H141795   3.134   5.736   5.718  1.3014 -0.4504 -0.0118
13952TIP3    H241796   3.151   5.735   5.868  0.7365  0.2737  0.0591
13953TIP3   OH241797   0.100   2.072   1.363  0.2689 -0.1713  0.3457
13953TIP3    H141798   0.196   2.071   1.354  0.3435 -1.1629  1.2380
13953TIP3    H241799   0.083   2.142   1.425  0.2401  1.6366 -1.6342
13954TIP3   OH241800   0.506   0.859   0.337 -0.0473  0.2053  0.6119
13954TIP3    H141801   0.530   0.774   0.373  0.3481 -0.4908 -1.2612
13954TIP3    H241802   0.413   0.851   0.316  0.2387 -0.1583 -0.5810
13955TIP3   OH241803   2.379   5.755   6.778 -0.0735  0.1281  0.3067
13955TIP3    H141804   2.405   5.713   6.697 -0.0694 -0.7063  0.7363
13955TIP3    H241805   2.319   5.825   6.751 -0.5426 -0.5265 -0.3717
13956TIP3   OH241806   7.946   3.469   0.350 -0.0704  0.1743 -0.5319
13956TIP3    H141807   7.863   3.433   0.380  0.2622 -0.7605 -0.7403
13956TIP3    H241808   7.921   3.535   0.285 -0.6350 -0.3481 -0.8499
13957TIP3   OH241809   0.236   2.940   2.905  0.2765  0.7904 -0.7369
13957TIP3    H141810   0.149   2.973   2.927 -0.9217 -2.0852 -0.9362
13957TIP3    H241811   0.245   2.959   2.811 -0.0420  1.3044 -0.6676
13958TIP3   OH241812   7.266   2.215   0.850 -0.2828 -0.3423 -0.3226
13958TIP3    H141813   7.361   2.227   0.840 -0.1939  0.2567  1.0271
13958TIP3    H241814   7.256   2.185   0.941 -1.4363  0.2582 -0.2468
13959TIP3   OH241815   8.160   1.308   2.223 -0.3458  0.0649  1.0786
13959TIP3    H141816   8.241   1.341   2.184 -1.8409  0.4032 -1.8930
13959TIP3    H241817   8.169   1.213   2.221  0.1762  0.1083  1.2522
13960TIP3   OH241818   8.174   3.719   0.994  0.0729 -0.3269  0.1615
13960TIP3    H141819   8.109   3.783   0.964 -0.6291 -1.9863 -1.9795
13960TIP3    H241820   8.258   3.758   0.970 -0.3197  0.0731 -0.5814
13961TIP3   OH241821   1.655   2.542   1.166 -0.2350 -0.6161  0.5887
13961TIP3    H141822   1.739   2.570   1.201 -0.4337 -0.4306  0.9215
13961TIP3    H241823   1.664   2.551   1.071 -0.2177  0.3702  0.6740
13962TIP3   OH241824   8.444   2.379   0.655 -0.2197 -0.2325 -0.0838
13962TIP3    H141825   8.531   2.415   0.671  0.0498 -1.1021  0.4539
13962TIP3    H241826   8.454   2.285   0.670 -0.8305 -0.5867 -1.7842
13963TIP3   OH241827   1.587   3.162   0.523 -0.2407 -0.4885  0.1465
13963TIP3    H141828   1.627   3.248   0.538  1.2338 -1.0992 -0.1794
13963TIP3    H241829   1.493   3.180   0.516  0.1608  1.2321 -0.9876
13964TIP3   OH241830   0.228   1.476   0.317 -0.6608  0.1459  0.2097
13964TIP3    H141831   0.185   1.452   0.234  1.1379 -0.8416 -0.4636
13964TIP3    H241832   0.162   1.458   0.384 -0.7986 -2.7969 -0.6702
13965TIP3   OH241833   0.274   1.088   0.075  0.3813 -0.2776  0.4583
13965TIP3    H141834   0.260   1.051  -0.012  1.1637  1.6276 -0.4996
13965TIP3    H241835   0.256   1.015   0.135 -3.6733 -0.6529 -1.1057
13966TIP3   OH241836   1.753   0.395   2.190  0.2787 -0.2948 -0.3741
13966TIP3    H141837   1.697   0.393   2.267 -0.3375  2.2504 -0.7056
13966TIP3    H241838   1.842   0.395   2.224  0.0075  1.6559  0.4074
13967TIP3   OH241839   7.168   0.229   1.147 -0.1360  0.3030 -0.0442
13967TIP3    H141840   7.180   0.209   1.054  1.3417 -1.8627  0.5761
13967TIP3    H241841   7.128   0.316   1.148  0.4117  0.6169 -2.6880
13968TIP3   OH241842   1.904   3.126   5.998  0.5970  0.2318  0.6361
13968TIP3    H141843   1.973   3.189   6.017  0.9164  0.0983 -0.0298
13968TIP3    H241844   1.945   3.064   5.937 -0.6831  1.2593 -1.3196
13969TIP3   OH241845  -0.011   1.963   2.163  0.7106  0.3162 -0.4386
13969TIP3    H141846   0.079   1.975   2.194  0.8325  0.5144 -0.8767
13969TIP3    H241847  -0.065   1.985   2.239  1.0381 -0.1461 -0.0635
13970TIP3   OH241848   6.127   7.111   1.736 -0.3957 -0.4196 -0.0447
13970TIP3    H141849   6.045   7.077   1.699 -0.6820 -1.9652  1.9296
13970TIP3    H241850   6.099   7.174   1.802  0.0156 -0.7061  0.4051
13971TIP3   OH241851   7.348   2.287   2.361  0.0883 -0.1571 -0.1766
13971TIP3    H141852   7.364   2.309   2.269 -0.3704  1.4291  0.1101
13971TIP3    H241853   7.271   2.338   2.385 -1.0069 -2.0771  0.5423
13972TIP3   OH241854   7.995   0.347   0.938  0.7889  0.0659  0.2149
13972TIP3    H141855   7.929   0.298   0.987 -1.0164 -1.6457 -3.7131
13972TIP3    H241856   8.038   0.281   0.883  0.3459  2.3327 -3.0160
13973TIP3   OH241857   8.198   1.595   1.560  0.4530  0.1892 -0.6538
13973TIP3    H141858   8.200   1.653   1.636  2.5318 -0.9092  0.1787
13973TIP3    H241859   8.139   1.524   1.586 -1.4930  1.5005 -1.3852
13974TIP3   OH241860   5.623   7.322   1.823 -0.5180 -0.1578  0.4974
13974TIP3    H141861   5.692   7.293   1.763 -0.7934 -0.4139  0.3027
13974TIP3    H241862   5.654   7.296   1.910 -0.7745 -1.0567  0.3238
13975TIP3   OH241863   3.211   5.221   5.480 -0.0208  0.2114  0.0678
13975TIP3    H141864   3.270   5.238   5.407 -0.7204  2.2030 -0.0533
13975TIP3    H241865   3.267   5.185   5.549  0.8694 -0.3792 -0.9567
13976TIP3   OH241866   7.732   1.565   0.217  0.0608  0.4343  0.3956
13976TIP3    H141867   7.784   1.629   0.167 -0.8205 -0.0982 -1.2347
13976TIP3    H241868   7.656   1.615   0.247  0.2766  0.5941  0.6863
13977TIP3   OH241869   7.750   1.565   1.077  0.5192  0.4836 -0.0723
13977TIP3    H141870   7.702   1.484   1.060 -1.3482  1.3337  0.9035
13977TIP3    H241871   7.837   1.551   1.040 -0.0067 -1.6936 -0.5146
13978TIP3   OH241872   2.730   4.360   1.004  0.7239  0.4989  0.3819
13978TIP3    H141873   2.788   4.334   0.932  0.7327 -1.6110  1.1174
13978TIP3    H241874   2.645   4.321   0.982  0.7885 -0.3633  1.6037
13979TIP3   OH241875   0.670   2.692   2.028 -0.1773  0.2892  0.1330
13979TIP3    H141876   0.649   2.757   1.962  1.4544  0.0298 -0.6646
13979TIP3    H241877   0.617   2.616   2.005 -0.2278  0.4868 -0.3949
13980TIP3   OH241878   0.664   1.421   1.474  0.6281 -0.2966 -0.5011
13980TIP3    H141879   0.588   1.371   1.504  0.7562 -0.0614  0.2366
13980TIP3    H241880   0.695   1.375   1.396  0.2854 -0.9212 -0.2673
13981TIP3   OH241881   2.579   2.307   0.041 -0.5518 -0.4142  0.2841
13981TIP3    H141882   2.667   2.339   0.058 -0.3245  0.1616 -1.8538
13981TIP3    H241883   2.592   2.233  -0.018 -1.3963 -1.5999  1.5302
13982TIP3   OH241884   0.842   1.779   3.098 -0.4980  0.1531  0.1418
13982TIP3    H141885   0.802   1.701   3.059  1.5346 -0.3600 -0.9958
13982TIP3    H241886   0.796   1.852   3.057 -0.7776 -0.4381 -0.6120
13983TIP3   OH241887   0.619   0.847   1.196  0.9335 -0.3299  0.4879
13983TIP3    H141888   0.554   0.903   1.153  0.4739 -2.1380 -1.2348
13983TIP3    H241889   0.702   0.870   1.153  0.8940 -0.3191  0.4163
13984TIP3   OH241890   2.837   0.797   2.722  0.5476  0.3374 -0.5593
13984TIP3    H141891   2.890   0.802   2.642  1.6499  0.4057  0.1677
13984TIP3    H241892   2.848   0.882   2.763  0.3705  0.1347 -0.0888
13985TIP3   OH241893   1.299   1.257   2.483  0.3336  0.2223 -0.1528
13985TIP3    H141894   1.285   1.276   2.391 -2.7059 -0.0548  0.2186
13985TIP3    H241895   1.259   1.171   2.496 -1.2172  1.2064  1.8763
13986TIP3   OH241896   0.921   3.160   0.177 -0.7619 -0.5149 -0.4310
13986TIP3    H141897   0.857   3.188   0.243  0.2290  0.8685 -0.0374
13986TIP3    H241898   0.908   3.221   0.104  1.1969  0.8171  0.2994
13987TIP3   OH241899   4.790   1.145   1.709 -0.2477  0.0474 -0.0768
13987TIP3    H141900   4.885   1.144   1.718 -0.5249 -0.4461  3.1097
13987TIP3    H241901   4.769   1.062   1.666  0.6788 -0.1747 -0.1034
13988TIP3   OH241902   2.667   0.696   1.746  0.1439  0.5631 -0.7387
13988TIP3    H141903   2.576   0.705   1.774 -0.8032 -0.3414 -3.3574
13988TIP3    H241904   2.698   0.617   1.790 -0.6164  0.3747 -0.5209
13989TIP3   OH241905   0.263   1.238   2.361 -0.3160  0.1763  0.6882
13989TIP3    H141906   0.175   1.200   2.360  0.5965 -1.9942 -0.8634
13989TIP3    H241907   0.275   1.273   2.273  0.5912 -0.0680  0.7131
13990TIP3   OH241908   2.813   1.950   3.090 -0.3952 -0.3812  0.8882
13990TIP3    H141909   2.867   1.974   3.165  1.3459 -0.7718 -0.2022
13990TIP3    H241910   2.822   1.855   3.083 -0.3547 -0.3187  0.0499
13991TIP3   OH241911   2.230   3.482   0.896  0.0955 -0.2865  0.5123
13991TIP3    H141912   2.234   3.573   0.926 -1.8126 -0.1105  0.2440
13991TIP3    H241913   2.270   3.483   0.809  1.7873 -0.0527  1.2678
13992TIP3   OH241914   2.536   3.778   1.047  0.0956  0.2906 -0.1927
13992TIP3    H141915   2.613   3.730   1.016 -0.4085 -0.4541 -0.3198
13992TIP3    H241916   2.543   3.864   1.007  0.1021 -0.2561 -1.3945
13993TIP3   OH241917   3.313   1.960   1.253  1.0752 -0.2722  0.0332
13993TIP3    H141918   3.390   1.980   1.200  0.7607 -1.0247 -0.7249
13993TIP3    H241919   3.246   1.934   1.190  0.0918  0.6682  0.6544
13994TIP3   OH241920   2.776   0.824   2.244  0.3511 -0.0552 -0.1454
13994TIP3    H141921   2.722   0.746   2.255 -2.3618  1.7947  0.2056
13994TIP3    H241922   2.756   0.855   2.156  1.7411  0.0006 -0.4453
13995TIP3   OH241923   7.640   3.433   1.267  0.3169 -0.4756  0.9180
13995TIP3    H141924   7.692   3.449   1.346 -1.2773  0.0185  1.8919
13995TIP3    H241925   7.679   3.491   1.201  1.7047 -0.9495  1.2959
13996TIP3   OH241926   2.335   0.810   0.586  0.0188 -0.0847 -0.0144
13996TIP3    H141927   2.310   0.790   0.676 -0.7002 -0.5777 -0.3183
13996TIP3    H241928   2.403   0.877   0.594 -0.9782  0.8309  0.8461
13997TIP3   OH241929   0.298   2.330   1.216 -1.0284  0.5926  0.5355
13997TIP3    H141930   0.289   2.403   1.278 -0.5737  0.3258  0.9190
13997TIP3    H241931   0.349   2.265   1.264  0.0290  0.7127 -0.4136
13998TIP3   OH241932   2.421   2.381   1.953  0.0038  0.1528  0.1370
13998TIP3    H141933   2.398   2.344   2.038  0.1811 -1.1889 -0.3918
13998TIP3    H241934   2.515   2.401   1.960  0.7722 -2.8982 -0.7799
13999TIP3   OH241935   2.312   2.471   1.708  0.1103  0.3051 -0.4161
13999TIP3    H141936   2.376   2.540   1.719 -0.1461  0.4148  0.4442
13999TIP3    H241937   2.314   2.422   1.790 -0.5586  0.0179 -0.5601
14000TIP3   OH241938   4.673   4.555   6.217 -0.2432  0.1979 -0.2267
14000TIP3    H141939   4.728   4.540   6.140  1.5467  0.5111  0.9697
14000TIP3    H241940   4.714   4.505   6.287 -0.2881  2.0610  1.1907
14001TIP3   OH241941   2.299   1.822   2.121  0.4318  0.2469  0.1590
14001TIP3    H141942   2.296   1.741   2.071 -0.7789  1.5006 -1.8515
14001TIP3    H241943   2.387   1.857   2.106  0.3793  0.1606 -0.3464
14002TIP3   OH241944   1.463   1.933   1.191  0.5230  0.3619 -0.1137
14002TIP3    H141945   1.520   1.873   1.143 -0.8667 -1.1560  0.0998
14002TIP3    H241946   1.417   1.877   1.255 -1.5849  1.4536 -0.6274
14003TIP3   OH241947   3.513   2.562   3.449  0.0682 -0.1142  0.0448
14003TIP3    H141948   3.572   2.486   3.448 -0.6588 -0.6811 -2.4491
14003TIP3    H241949   3.563   2.631   3.405 -0.0997  0.2054  0.3600
14004TIP3   OH241950   5.330   5.690   6.657  0.2212  0.1736 -0.4597
14004TIP3    H141951   5.285   5.623   6.708 -0.4712  0.2128 -1.0204
14004TIP3    H241952   5.375   5.641   6.588  0.0959  0.2416 -0.5899
14005TIP3   OH241953   1.671   5.037   6.768  0.1506  0.0213 -0.4605
14005TIP3    H141954   1.600   5.056   6.707  1.2435  0.5135 -1.6099
14005TIP3    H241955   1.733   4.986   6.717  1.1791  0.6063  0.1846
14006TIP3   OH241956   1.862   2.860   1.280  0.4180  0.5816  0.6052
14006TIP3    H141957   1.953   2.834   1.263  0.7102  1.0371  1.4110
14006TIP3    H241958   1.823   2.872   1.194  1.2383  0.7622  0.2577
14007TIP3   OH241959   0.891   1.179   0.504  0.3782  0.2406 -0.2003
14007TIP3    H141960   0.825   1.113   0.486  0.2947  0.2029  0.2245
14007TIP3    H241961   0.864   1.256   0.453 -0.5683  0.5713  0.7586
14008TIP3   OH241962   0.612   1.400   0.792  0.1089 -0.0323 -0.0800
14008TIP3    H141963   0.588   1.307   0.797 -0.2584 -0.2012 -3.3518
14008TIP3    H241964   0.694   1.400   0.742 -0.7196  1.4904 -1.4721
14009TIP3   OH241965   6.874   6.993   1.816 -0.5397  0.1327 -0.4154
14009TIP3    H141966   6.844   6.925   1.877  0.5829 -0.8552 -0.9534
14009TIP3    H241967   6.847   7.076   1.857 -0.2916 -0.5472  1.1588
14010TIP3   OH241968   3.138   0.548   0.066  0.2029  0.0320  0.5068
14010TIP3    H141969   3.166   0.618   0.007  0.0823  0.8558  1.4155
14010TIP3    H241970   3.058   0.514   0.026  2.0687 -1.8718 -1.7387
14011TIP3   OH241971   8.315   7.702   2.240  0.4660  0.3695 -0.5574
14011TIP3    H141972   8.338   7.641   2.170  0.2075 -1.7132  1.1202
14011TIP3    H241973   8.221   7.690   2.252  0.4998  0.7428  0.1044
14012TIP3   OH241974   0.721   1.735   1.894  0.0271 -0.7211 -0.3322
14012TIP3    H141975   0.681   1.674   1.957 -0.0404 -0.3350  0.0014
14012TIP3    H241976   0.782   1.681   1.844 -0.7405 -1.2626 -0.6891
14013TIP3   OH241977   3.450   3.308   2.516  0.1495 -0.1337  0.2078
14013TIP3    H141978   3.506   3.265   2.581 -0.1227 -0.3077  0.3289
14013TIP3    H241979   3.507   3.373   2.475  0.5986 -0.6743 -0.0441
14014TIP3   OH241980   0.507   1.384   2.363  0.3083 -0.2867  0.2185
14014TIP3    H141981   0.419   1.348   2.372  0.0111  0.0299 -1.2369
14014TIP3    H241982   0.543   1.340   2.286  0.7503  0.8991 -0.2636
14015TIP3   OH241983   1.592   3.092   2.102 -0.4340 -0.4599 -0.0105
14015TIP3    H141984   1.521   3.119   2.044 -0.2597  0.5325  0.2221
14015TIP3    H241985   1.578   3.143   2.182  1.0062  0.3616 -0.2634
14016TIP3   OH241986   4.074   3.863   2.637  0.1562 -0.1867  0.5672
14016TIP3    H141987   4.102   3.860   2.545  0.9551  3.1186  0.6455
14016TIP3    H241988   3.983   3.893   2.633  1.3196  3.6419  0.9458
14017TIP3   OH241989   0.385   3.220   1.213 -0.1896 -0.1098  0.0059
14017TIP3    H141990   0.463   3.266   1.243 -0.3197  0.2563 -0.2211
14017TIP3    H241991   0.358   3.266   1.134 -0.5020 -0.3795 -0.0469
14018TIP3   OH241992   1.584   1.896   0.861  0.6066  0.3928 -0.0420
14018TIP3    H141993   1.561   1.988   0.851 -0.3920  0.0415 -1.0122
14018TIP3    H241994   1.529   1.850   0.798  0.0722 -1.0231  1.4211
14019TIP3   OH241995   5.822   7.305   3.963 -0.0363 -0.0360  0.0989
14019TIP3    H141996   5.845   7.291   4.054  0.3281 -1.8113 -0.2417
14019TIP3    H241997   5.741   7.254   3.950 -0.3667  0.6115 -0.4391
14020TIP3   OH241998   3.512   1.578   0.849 -0.0571 -0.4657 -0.0574
14020TIP3    H141999   3.586   1.550   0.795  0.1364 -1.9574  0.9572
14020TIP3    H242000   3.444   1.602   0.786  1.5762  1.8309 -1.0285
14021TIP3   OH242001   5.449   0.925   6.492 -0.1059  0.1316 -0.4637
14021TIP3    H142002   5.382   0.920   6.423  0.6588 -1.0675 -1.1258
14021TIP3    H242003   5.516   0.983   6.457 -2.3797  4.2635  1.6055
14022TIP3   OH242004   2.136   0.928   2.224  0.2310 -0.0860  0.2248
14022TIP3    H142005   2.119   0.840   2.257  0.3700  0.0354  0.6267
14022TIP3    H242006   2.162   0.915   2.133  0.9509 -0.5197  0.4873
14023TIP3   OH242007   3.087   7.389   6.774 -0.0867  0.0195  0.1676
14023TIP3    H142008   3.072   7.362   6.684 -1.5138  1.1396  0.0471
14023TIP3    H242009   3.180   7.410   6.779  0.4515 -2.1780 -0.4532
14024TIP3   OH242010   2.133   1.892   1.694  0.3651  0.5555  0.0546
14024TIP3    H142011   2.225   1.896   1.721  0.5190  0.5789 -0.4647
14024TIP3    H242012   2.124   1.959   1.627 -0.5157  1.8955  1.4594
14025TIP3   OH242013   0.915   1.765   1.622 -0.2601  0.1378 -0.3395
14025TIP3    H142014   0.890   1.674   1.638 -0.7248  0.2105 -0.6255
14025TIP3    H242015   1.009   1.761   1.601  0.2447  0.0014  1.8763
14026TIP3   OH242016   2.844   1.599   0.515 -0.6786  0.4834  0.2323
14026TIP3    H142017   2.909   1.620   0.448  0.1291 -0.0545  0.8334
14026TIP3    H242018   2.794   1.680   0.525 -0.1511  0.8850 -0.2936
14027TIP3   OH242019   0.459   3.144   0.171  0.2198  0.6505  0.3083
14027TIP3    H142020   0.446   3.238   0.180  1.5437  0.8704 -0.0668
14027TIP3    H242021   0.397   3.117   0.103  0.3412  1.3578 -0.0793
14028TIP3   OH242022   3.485   2.253   1.073 -0.2565  0.4403 -0.1895
14028TIP3    H142023   3.540   2.322   1.035  1.8089 -0.2928  1.3621
14028TIP3    H242024   3.406   2.253   1.019  2.1382  0.0681 -3.9374
14029TIP3   OH242025   2.794   2.695   2.312 -0.0005 -0.3132 -0.2021
14029TIP3    H142026   2.792   2.644   2.393  1.5002 -0.2405 -0.0979
14029TIP3    H242027   2.851   2.769   2.332 -0.3970  0.2173 -1.0277
14030TIP3   OH242028   3.580   5.932   6.092 -0.7002  0.2535 -0.5815
14030TIP3    H142029   3.551   5.916   6.003 -0.3420  0.3430 -0.7135
14030TIP3    H242030   3.510   5.895   6.147 -0.1934 -1.1708 -0.8872
14031TIP3   OH242031   2.199   0.923   1.437  0.1417  0.3503  0.2060
14031TIP3    H142032   2.170   0.931   1.528 -0.1062 -1.0731  0.2645
14031TIP3    H242033   2.294   0.910   1.444  0.2559  1.1808  0.2115
14032TIP3   OH242034   1.999   1.500   3.002  0.0064 -0.2263 -0.3091
14032TIP3    H142035   2.005   1.594   2.982  0.9944 -0.3132 -0.4429
14032TIP3    H242036   1.921   1.492   3.057 -1.4370  0.3375 -2.2150
14033TIP3   OH242037   1.689   7.087   1.495 -0.0427 -0.0509 -0.7816
14033TIP3    H142038   1.671   6.993   1.489  2.2659 -0.5548 -0.5972
14033TIP3    H242039   1.624   7.120   1.556 -0.3583 -1.7153 -0.1703
14034TIP3   OH242040   1.410   1.632   0.708  0.7268 -0.0031 -0.0409
14034TIP3    H142041   1.378   1.546   0.737 -3.2452  0.9805 -1.1773
14034TIP3    H242042   1.462   1.614   0.630 -2.0743 -1.2468 -1.6978
14035TIP3   OH242043   2.030   0.326   2.164  0.3444  0.6955  0.1135
14035TIP3    H142044   2.098   0.269   2.201 -0.2980 -0.6089 -0.6709
14035TIP3    H242045   2.008   0.286   2.080  2.0561  3.8687 -1.9146
14036TIP3   OH242046   2.484   1.865   1.810 -0.3778 -0.0963  0.0987
14036TIP3    H142047   2.492   1.942   1.753  2.1025  0.6100  1.3037
14036TIP3    H242048   2.479   1.901   1.898  4.1040 -1.2522  0.9814
14037TIP3   OH242049   1.743   1.594   3.544  0.2501  0.2189 -0.2635
14037TIP3    H142050   1.677   1.627   3.483 -0.6060 -0.1059  0.4682
14037TIP3    H242051   1.721   1.501   3.555 -0.7016  0.6473  1.8719
14038TIP3   OH242052   6.941   7.927   0.451 -0.4229  0.1726 -0.0580
14038TIP3    H142053   6.953   8.007   0.502  0.3089  0.0437 -0.0257
14038TIP3    H242054   7.013   7.928   0.387  0.5488 -1.2593  0.9852
14039TIP3   OH242055   1.299   2.882   1.857  0.3624 -0.0249  0.1237
14039TIP3    H142056   1.334   2.833   1.931  0.7836  0.2524  0.1102
14039TIP3    H242057   1.310   2.974   1.882  1.6089  0.0769 -0.8014
14040TIP3   OH242058   3.585   6.219   6.206 -0.0740  0.3051 -0.4518
14040TIP3    H142059   3.545   6.199   6.291  1.8606  0.7827  0.5834
14040TIP3    H242060   3.610   6.133   6.171  0.6551  0.2260  0.2370
14041TIP3   OH242061   4.502   3.346   4.468  0.2361 -0.4654 -0.2237
14041TIP3    H142062   4.520   3.435   4.501 -2.5632  0.7356 -1.6967
14041TIP3    H242063   4.469   3.299   4.545  1.1856 -0.0796  0.4374
14042TIP3   OH242064   1.045   1.484   0.296  0.3972 -1.0637  0.0833
14042TIP3    H142065   1.026   1.436   0.377  0.1980  0.4321  0.9425
14042TIP3    H242066   1.135   1.515   0.306  0.5639 -1.3409 -0.5175
14043TIP3   OH242067   1.241   1.501   1.711  0.5179  0.3660 -0.6515
14043TIP3    H142068   1.214   1.592   1.694  1.2041  0.3714 -1.7469
14043TIP3    H242069   1.252   1.463   1.624  0.5020 -0.6991 -0.1933
14044TIP3   OH242070   3.646   6.742   5.576  0.2762 -0.0302 -0.4949
14044TIP3    H142071   3.555   6.712   5.569  0.2733 -0.2172  0.2865
14044TIP3    H242072   3.660   6.794   5.497 -1.2130  1.8242  0.3940
14045TIP3   OH242073   1.901   1.637   2.471  0.0747  0.3587 -0.1822
14045TIP3    H142074   1.965   1.565   2.474  1.7309  1.7832 -0.4477
14045TIP3    H242075   1.864   1.639   2.560  1.1072  0.1353  0.2672
14046TIP3   OH242076   1.452   0.895   1.240 -0.0010 -0.0562  0.1511
14046TIP3    H142077   1.537   0.853   1.231 -0.3044 -0.5764 -0.3285
14046TIP3    H242078   1.400   0.862   1.167 -0.5460  0.4286  0.3075
14047TIP3   OH242079   8.451   1.513   1.061  0.1289  0.1892 -0.0102
14047TIP3    H142080   8.545   1.534   1.063  0.2706 -0.3648 -0.7038
14047TIP3    H242081   8.419   1.538   1.147  1.1096 -0.5066  0.5658
14048TIP3   OH242082   2.932   1.030   1.737  0.3605  0.3512  0.4749
14048TIP3    H142083   2.861   1.075   1.784  1.0139  1.8096  0.0769
14048TIP3    H242084   3.011   1.052   1.785  0.7286 -0.1071  0.0866
14049TIP3   OH242085   5.152   5.120   6.467  0.2885  0.6040  0.0588
14049TIP3    H142086   5.172   5.031   6.437 -0.0144  0.8740 -0.9680
14049TIP3    H242087   5.058   5.130   6.450  0.2353  0.9849  0.5491
14050TIP3   OH242088   8.290   2.677   1.558  0.2822 -0.1936  0.3377
14050TIP3    H142089   8.200   2.677   1.524  0.1426  1.5207  0.6822
14050TIP3    H242090   8.281   2.708   1.648  1.0660 -1.3547  0.8209
14051TIP3   OH242091   0.433   6.701   1.062  0.1449 -0.2695  0.3100
14051TIP3    H142092   0.370   6.746   1.005  0.6689 -0.0429 -0.0965
14051TIP3    H242093   0.400   6.611   1.067 -0.1625 -0.1765  0.0212
14052TIP3   OH242094   1.512   1.656   1.212  0.1890  0.0820  0.3348
14052TIP3    H142095   1.439   1.646   1.152  0.6299 -0.4827 -0.1151
14052TIP3    H242096   1.479   1.621   1.296  0.1472 -0.7620 -0.0262
14053TIP3   OH242097   2.546   1.269   1.083  0.6737 -0.0474 -0.8578
14053TIP3    H142098   2.484   1.325   1.128 -0.2506  0.0427 -2.2092
14053TIP3    H242099   2.620   1.326   1.063  0.2666  0.3901 -1.1245
14054TIP3   OH242100   0.213   1.077   0.849 -0.1297 -0.7153  0.4255
14054TIP3    H142101   0.146   1.143   0.866  0.5115  0.2809 -0.8183
14054TIP3    H242102   0.282   1.124   0.804  0.0872 -2.3516 -1.0258
14055TIP3   OH242103   7.511   1.199   0.613  0.0203 -0.2924  0.0344
14055TIP3    H142104   7.500   1.277   0.558  2.9213  0.2604  0.1304
14055TIP3    H242105   7.570   1.142   0.563 -0.2876 -1.4299  0.9329
14056TIP3   OH242106   0.639   1.927   0.363 -0.4094  0.1147 -0.1198
14056TIP3    H142107   0.714   1.952   0.309 -0.1468 -0.4067 -0.0020
14056TIP3    H242108   0.563   1.943   0.307 -0.1247 -0.6551 -0.7512
14057TIP3   OH242109   1.102   2.918   0.713 -0.3206 -0.3668 -0.7339
14057TIP3    H142110   1.049   2.851   0.756 -0.8566  0.6848  0.2759
14057TIP3    H242111   1.142   2.966   0.786 -0.6525  0.9705 -1.4311
14058TIP3   OH242112   1.807   2.158   1.375 -0.2030  0.1425  0.0218
14058TIP3    H142113   1.778   2.146   1.284  2.8711 -1.5918 -0.8108
14058TIP3    H242114   1.777   2.078   1.420 -4.0698  2.1635  1.2841
14059TIP3   OH242115   7.971   3.044   0.385  0.1846  0.3755 -0.2822
14059TIP3    H142116   7.981   2.960   0.429  1.3597 -0.0819 -1.4116
14059TIP3    H242117   8.056   3.062   0.345 -0.4666  1.4142 -1.2572
14060TIP3   OH242118   3.797   1.008   2.742 -0.0473 -0.4585 -0.3443
14060TIP3    H142119   3.809   1.063   2.820 -1.7176 -0.5414 -0.0295
14060TIP3    H242120   3.705   0.982   2.744  0.4938 -2.5321 -0.9829
14061TIP3   OH242121   1.942   0.791   0.020  0.5991 -0.1955 -0.0486
14061TIP3    H142122   2.005   0.807   0.090  1.1961  0.9501 -0.8275
14061TIP3    H242123   1.973   0.845  -0.053  0.4876 -2.0562 -1.5038
14062TIP3   OH242124   2.215   1.258   0.518  0.1160 -0.2712  0.5333
14062TIP3    H142125   2.183   1.269   0.608 -0.6659 -0.0082  0.2290
14062TIP3    H242126   2.244   1.345   0.491 -0.9848 -0.0445  0.0387
14063TIP3   OH242127   0.272   4.326   0.965  0.0152 -0.5737  0.7164
14063TIP3    H142128   0.301   4.400   1.018  0.5541 -2.6234  3.3953
14063TIP3    H242129   0.187   4.302   1.001  0.1693 -1.7125  0.3366
14064TIP3   OH242130   3.882   2.875   3.574  0.6316 -0.4153  0.0164
14064TIP3    H142131   3.898   2.797   3.626  0.9252 -0.1785  0.2818
14064TIP3    H242132   3.879   2.946   3.638  0.3600 -0.2093 -0.2237
14065TIP3   OH242133   1.641   3.068   2.390 -0.3840  0.2208  0.3512
14065TIP3    H142134   1.725   3.029   2.416 -0.1931 -0.4842 -1.1946
14065TIP3    H242135   1.596   2.997   2.343 -1.5423  0.8180  0.5431
14066TIP3   OH242136   3.338   1.781   1.465  0.6901 -0.7119  0.2537
14066TIP3    H142137   3.261   1.727   1.450 -0.0193  0.0860  0.9977
14066TIP3    H242138   3.328   1.854   1.404  2.0407 -1.7734 -1.3160
14067TIP3   OH242139   3.923   5.163   6.773  0.4633 -0.3052 -0.1833
14067TIP3    H142140   3.845   5.214   6.796 -0.0514 -1.1887  0.0387
14067TIP3    H242141   3.962   5.141   6.858  0.4125 -0.7090 -0.2660
14068TIP3   OH242142   2.688   2.535   1.311 -0.1909  0.3022 -0.4104
14068TIP3    H142143   2.664   2.445   1.287 -1.3029  0.7021 -0.8063
14068TIP3    H242144   2.675   2.538   1.406  2.7067 -0.8186  0.0645
14069TIP3   OH242145   5.401   5.175   6.698 -0.0825 -0.0586 -0.0885
14069TIP3    H142146   5.436   5.258   6.731 -1.8141  0.9958 -0.8683
14069TIP3    H242147   5.326   5.157   6.755 -0.3562 -0.5392 -0.6008
14070TIP3   OH242148   2.019   3.573   1.687  0.7232  0.2935 -0.4327
14070TIP3    H142149   1.926   3.555   1.706  0.8831 -0.0565  0.0255
14070TIP3    H242150   2.016   3.637   1.616  0.1060 -2.0539 -2.6431
14071TIP3   OH242151   0.140   1.591   0.684 -0.2121  0.3067 -0.6437
14071TIP3    H142152   0.136   1.523   0.616  2.0391  0.3954 -0.9094
14071TIP3    H242153   0.229   1.584   0.719 -0.8638  1.2878  1.2454
14072TIP3   OH242154   3.629   5.153   6.535  0.3488  0.2504 -0.4080
14072TIP3    H142155   3.648   5.082   6.596 -2.0349  0.5797  0.7628
14072TIP3    H242156   3.704   5.211   6.542  2.1814 -1.9521 -1.1318
14073TIP3   OH242157   7.153   1.356   0.580  0.1737 -0.3776  0.2407
14073TIP3    H142158   7.069   1.401   0.592  0.3652  0.0040  0.1641
14073TIP3    H242159   7.219   1.421   0.605  0.4356 -0.7797  0.5972
14074TIP3   OH242160   3.756   3.239   1.815  0.2404  0.1597  0.6703
14074TIP3    H142161   3.753   3.334   1.823 -1.2030  0.1110  0.8350
14074TIP3    H242162   3.691   3.208   1.878 -1.4876 -0.8159 -1.5401
14075TIP3   OH242163   2.807   2.726   0.882 -0.3705  0.0248  0.3503
14075TIP3    H142164   2.780   2.739   0.973  0.8014  1.0873  0.5556
14075TIP3    H242165   2.902   2.716   0.887 -0.5452 -2.3957 -0.4882
14076TIP3   OH242166   1.054   1.613   0.559 -0.1703 -0.2478 -0.1706
14076TIP3    H142167   1.114   1.685   0.539  0.1350 -0.6282 -0.6491
14076TIP3    H242168   0.984   1.622   0.495 -0.6211  0.1845  0.3764
14077TIP3   OH242169   6.883   0.806   6.046 -0.5398 -0.1188  0.6372
14077TIP3    H142170   6.950   0.796   5.979 -0.9701 -1.3587  0.3636
14077TIP3    H242171   6.928   0.790   6.129 -0.5644 -1.3620  0.4241
14078TIP3   OH242172   2.610   3.225   1.381  0.1903 -0.1904  0.1013
14078TIP3    H142173   2.634   3.317   1.364  0.3984  0.0030  1.4097
14078TIP3    H242174   2.651   3.205   1.465 -0.3893 -1.2937  0.1244
14079TIP3   OH242175   4.897   5.832   6.825  0.0229  0.1687 -0.5945
14079TIP3    H142176   4.844   5.905   6.794  0.2269  1.1478  1.3115
14079TIP3    H242177   4.977   5.872   6.858  0.1386 -0.9025  0.4664
14080TIP3   OH242178   0.153   0.898   1.046 -0.0915 -0.3174  0.1337
14080TIP3    H142179   0.154   0.974   0.987  0.6557 -0.6257 -0.2524
14080TIP3    H242180   0.062   0.894   1.077 -0.4177  0.0398 -0.7392
14081TIP3   OH242181   4.048   6.589   6.611 -0.0472  0.0805  0.6203
14081TIP3    H142182   4.062   6.497   6.633  0.9730  0.3955  1.3158
14081TIP3    H242183   4.132   6.619   6.577 -0.3980  0.7445  0.3160
14082TIP3   OH242184   1.071   3.100   1.237 -0.3110 -0.1056  0.2956
14082TIP3    H142185   1.002   3.106   1.304 -1.4483 -0.5933 -0.8045
14082TIP3    H242186   1.062   3.012   1.202 -0.3203  0.4533 -1.1166
14083TIP3   OH242187   0.571   0.514   0.862 -0.0263  0.1513  0.3022
14083TIP3    H142188   0.580   0.594   0.809 -0.0768 -0.1658 -0.1870
14083TIP3    H242189   0.614   0.536   0.944 -0.3344  0.8028  0.2988
14084TIP3   OH242190   3.112   2.059   1.072  0.4907  0.2169  0.3913
14084TIP3    H142191   3.047   2.040   1.139  0.7932  1.2508  0.9874
14084TIP3    H242192   3.163   2.132   1.107  1.6528 -0.2461 -0.2882
14085TIP3   OH242193   5.249   6.546   6.301  0.1327  0.2878 -0.0657
14085TIP3    H142194   5.260   6.634   6.265 -0.0524  0.6888  0.8487
14085TIP3    H242195   5.188   6.557   6.373  0.2634 -0.5606  0.1805
14086TIP3   OH242196   1.392   6.612   2.242  0.3809  0.2015 -0.4440
14086TIP3    H142197   1.365   6.628   2.332 -1.7369  0.0658 -1.0368
14086TIP3    H242198   1.476   6.656   2.234  1.1581 -0.7624  1.9299
14087TIP3   OH242199   6.314   7.250   1.546 -0.0028  0.4163 -0.4190
14087TIP3    H142200   6.231   7.251   1.595  0.1372  1.0619 -0.1900
14087TIP3    H242201   6.363   7.324   1.582  1.5562 -1.2829  0.9885
14088TIP3   OH242202   0.827   4.836   6.671  0.0794 -0.1551  0.5394
14088TIP3    H142203   0.764   4.894   6.628  0.1121 -0.4546  0.0878
14088TIP3    H242204   0.846   4.768   6.606  1.2167  0.1839  0.5111
14089TIP3   OH242205   0.449   1.826   0.662  0.2710  0.1681 -0.1284
14089TIP3    H142206   0.449   1.921   0.652  0.3694  0.0453 -1.4288
14089TIP3    H242207   0.437   1.793   0.573  0.0018 -1.0345  0.3464
14090TIP3   OH242208   0.159   1.219   2.889 -0.0938 -0.5240  0.0384
14090TIP3    H142209   0.169   1.274   2.811 -4.6647 -0.1259 -0.3812
14090TIP3    H242210   0.126   1.136   2.855  1.4170 -1.6666  1.2556
14091TIP3   OH242211   4.203   4.752   6.910 -0.2509 -0.5924  0.2441
14091TIP3    H142212   4.294   4.776   6.898 -0.1792 -2.3710 -3.4164
14091TIP3    H242213   4.205   4.659   6.934 -1.0974 -0.9114 -0.8652
14092TIP3   OH242214   2.740   2.895   0.383  0.1605 -0.7702  0.0329
14092TIP3    H142215   2.683   2.820   0.400 -1.4461  0.0002 -1.7968
14092TIP3    H242216   2.721   2.957   0.454  0.8353 -1.6828  1.0340
14093TIP3   OH242217   0.953   2.056   0.882  0.5385 -0.3714 -0.1954
14093TIP3    H142218   1.001   2.033   0.802 -1.1500  1.0162 -1.6448
14093TIP3    H242219   0.865   2.020   0.868 -0.0423  0.7119  0.6292
14094TIP3   OH242220   0.855   7.789   0.682 -0.3114  0.2885  0.0666
14094TIP3    H142221   0.884   7.855   0.744 -1.2169  1.0529 -0.3254
14094TIP3    H242222   0.915   7.798   0.608  1.0402 -0.9087  0.9784
14095TIP3   OH242223   5.187   3.906   6.894  0.1665 -0.6061 -0.2572
14095TIP3    H142224   5.270   3.859   6.898  0.9345  0.6664 -1.0225
14095TIP3    H242225   5.142   3.870   6.818 -0.3034 -1.8016  0.5783
14096TIP3   OH242226   1.066   2.530   1.312 -0.0626 -0.0672 -0.4028
14096TIP3    H142227   1.026   2.580   1.383 -0.5561 -0.4229 -0.4278
14096TIP3    H242228   1.101   2.452   1.354 -0.4592 -0.3366 -0.5611
14097TIP3   OH242229   0.195   1.360   2.127  0.3946 -0.4523  0.0098
14097TIP3    H142230   0.163   1.271   2.111  1.7706 -0.3925 -3.4219
14097TIP3    H242231   0.119   1.416   2.117  0.2941 -0.8970 -1.7954
14098TIP3   OH242232   1.159   2.562   0.063 -0.2451 -0.0394 -0.0018
14098TIP3    H142233   1.157   2.657   0.059 -0.1603  0.0655  2.0979
14098TIP3    H242234   1.068   2.536   0.044 -0.5721  0.5109  0.8062
14099TIP3   OH242235   2.637   0.529   1.360 -0.1173 -0.3703  0.2027
14099TIP3    H142236   2.566   0.589   1.338 -1.3372 -1.6484  0.5871
14099TIP3    H242237   2.602   0.475   1.430  1.0412 -1.3976  0.0106
14100TIP3   OH242238   8.293   2.802   0.034 -0.7728  0.2175  0.4416
14100TIP3    H142239   8.373   2.788   0.085 -1.2132 -0.2338  1.0196
14100TIP3    H242240   8.322   2.801  -0.057  0.1803  2.0919  0.7162
14101TIP3   OH242241   0.865   4.055   0.472  0.1384 -0.2460  0.4827
14101TIP3    H142242   0.883   3.972   0.516  0.3801  0.5851  1.9758
14101TIP3    H242243   0.952   4.093   0.456 -0.0504  1.1121  2.5351
14102TIP3   OH242244   2.766   4.589   6.368 -0.1521 -0.8615  0.0167
14102TIP3    H142245   2.793   4.599   6.277  2.1040 -0.5811  0.6916
14102TIP3    H242246   2.765   4.495   6.383  2.1227 -0.8442  0.4395
14103TIP3   OH242247   2.583   0.770   0.782 -0.0936 -0.2239 -0.5660
14103TIP3    H142248   2.640   0.710   0.733  1.4672 -0.2787  1.2611
14103TIP3    H242249   2.642   0.815   0.842 -2.2646 -1.9207  3.0051
14104TIP3   OH242250   7.446   4.708   5.444  0.2103 -0.0919  0.6431
14104TIP3    H142251   7.355   4.696   5.472  0.0951 -0.6979  0.0395
14104TIP3    H242252   7.456   4.802   5.437 -0.7165 -0.0444 -0.3305
14105TIP3   OH242253   1.843   4.947   5.034  0.3383 -0.1547 -0.1784
14105TIP3    H142254   1.903   4.999   4.980 -0.1330  1.8211  1.1438
14105TIP3    H242255   1.897   4.875   5.067  1.4708  0.4527 -0.6739
14106TIP3   OH242256   2.829   1.939   2.521  0.5253 -0.1520  0.1295
14106TIP3    H142257   2.821   1.857   2.474  0.6883 -0.8162  1.2365
14106TIP3    H242258   2.742   1.980   2.514 -1.2848 -2.9664  4.1480
14107TIP3   OH242259   3.811   3.690   5.593  0.1663  0.1726  0.5612
14107TIP3    H142260   3.801   3.723   5.682  1.1226  0.7757  0.4556
14107TIP3    H242261   3.895   3.726   5.564  0.1193 -0.4718 -0.3839
14108TIP3   OH242262   2.853   1.346   0.618  0.4952  0.2258 -0.4949
14108TIP3    H142263   2.830   1.439   0.612 -0.1631  0.0069 -1.4036
14108TIP3    H242264   2.770   1.300   0.614  0.8414 -0.4173 -0.3197
14109TIP3   OH242265   1.847   2.732   4.378  0.5803  0.3159 -0.1131
14109TIP3    H142266   1.903   2.655   4.374 -0.7736 -0.6880 -0.2603
14109TIP3    H242267   1.885   2.793   4.314  0.8143 -0.8131 -1.0704
14110TIP3   OH242268   2.184   4.906   5.802 -0.1177 -0.4824 -0.3521
14110TIP3    H142269   2.178   4.891   5.896 -1.8176 -1.6293 -0.6086
14110TIP3    H242270   2.276   4.888   5.780  0.6731  1.3622  1.3122
14111TIP3   OH242271   2.893   2.935   3.621 -0.7624 -0.0790 -0.3617
14111TIP3    H142272   2.918   2.898   3.706 -0.5355 -1.2604 -0.9281
14111TIP3    H242273   2.834   3.007   3.642 -0.1008  0.1333  0.8291
14112TIP3   OH242274   3.151   5.314   6.516  0.7949  0.4570  0.0723
14112TIP3    H142275   3.240   5.306   6.550  0.8800 -0.4466 -0.3793
14112TIP3    H242276   3.158   5.379   6.446  0.7648  1.7288  1.2104
14113TIP3   OH242277   4.269   0.666   1.470  0.8307  0.4668 -0.3790
14113TIP3    H142278   4.232   0.747   1.505  0.4901  0.1609 -0.0218
14113TIP3    H242279   4.329   0.636   1.538 -1.4011 -1.2377  0.9016
14114TIP3   OH242280   4.939   5.564   6.958 -0.1987 -0.3645 -0.2174
14114TIP3    H142281   5.026   5.530   6.935  0.3243  1.4286 -0.9749
14114TIP3    H242282   4.917   5.623   6.886 -2.0078 -0.7035  0.0350
14115TIP3   OH242283   2.999   1.916   0.854 -0.5489 -0.2709  0.0390
14115TIP3    H142284   2.950   1.977   0.799  0.0708  0.5296  0.3608
14115TIP3    H242285   3.021   1.966   0.932 -1.0462 -1.2713  0.8362
14116TIP3   OH242286   1.016   5.736   6.059 -0.2933 -0.1274  0.2928
14116TIP3    H142287   0.963   5.709   6.134  1.2301  0.6363  1.6631
14116TIP3    H242288   0.973   5.695   5.984 -3.4622  1.3581  1.2111
14117TIP3   OH242289   1.170   1.171   0.085 -0.0310  0.4406  0.2382
14117TIP3    H142290   1.139   1.184   0.175  0.4063  1.9755  0.1891
14117TIP3    H242291   1.225   1.247   0.068  0.8144 -0.4215 -0.9424
14118TIP3   OH242292   1.706   2.350   2.472 -0.2158  0.1643  0.0820
14118TIP3    H142293   1.724   2.412   2.543 -1.2686  0.4448  0.1080
14118TIP3    H242294   1.696   2.266   2.516  0.8804  0.0261  0.0818
14119TIP3   OH242295   3.589   1.283   1.788 -0.0152  0.2764 -0.5687
14119TIP3    H142296   3.587   1.348   1.718 -1.4722 -1.0651 -1.8062
14119TIP3    H242297   3.500   1.249   1.792 -0.2754  1.1579  2.7783
14120TIP3   OH242298   2.400   3.343   2.973 -0.1710 -0.1114  0.1259
14120TIP3    H142299   2.374   3.252   2.985 -0.4351 -0.0846 -0.2583
14120TIP3    H242300   2.479   3.339   2.920  0.0776 -0.1387  0.4915
14121TIP3   OH242301   4.530   0.731   2.109 -0.4352 -0.4684 -0.6076
14121TIP3    H142302   4.603   0.672   2.090 -0.2573 -0.4252 -0.0676
14121TIP3    H242303   4.507   0.712   2.200  0.6712  1.4068  0.0842
14122TIP3   OH242304   4.066   2.205   2.066 -0.1141  0.4133  0.0193
14122TIP3    H142305   4.142   2.239   2.019  0.8177  0.1681  1.3190
14122TIP3    H242306   4.010   2.169   1.997  0.0934  2.2192 -1.1165
14123TIP3   OH242307   2.468   1.182   1.430  0.0243  0.4702 -0.0847
14123TIP3    H142308   2.520   1.128   1.371 -0.8947 -0.3238 -0.1852
14123TIP3    H242309   2.530   1.212   1.496  0.6635 -0.2404 -0.3513
14124TIP3   OH242310   3.337   6.281   5.799  0.0819 -0.5643 -0.5299
14124TIP3    H142311   3.344   6.238   5.884 -0.0583 -0.8210 -0.6503
14124TIP3    H242312   3.258   6.244   5.759 -0.0335 -0.2056 -0.6361
14125TIP3   OH242313   3.410   5.284   6.637  0.2129  0.1670 -0.0077
14125TIP3    H142314   3.443   5.258   6.723  1.5452  1.5151 -0.0887
14125TIP3    H242315   3.472   5.245   6.575 -0.9949 -1.1766 -0.3990
14126TIP3   OH242316   1.621   2.955   0.822  0.7475  0.1684  0.1017
14126TIP3    H142317   1.634   2.910   0.738  1.6282  0.5559  0.0177
14126TIP3    H242318   1.683   2.913   0.881  1.8170  1.4648 -0.0592
14127TIP3   OH242319   3.322   4.601   6.748 -0.3078  0.7144  0.2729
14127TIP3    H142320   3.331   4.604   6.844 -1.4371  0.8863  0.3899
14127TIP3    H242321   3.236   4.641   6.732 -0.2023  0.5057 -0.7987
14128TIP3   OH242322   3.075   2.744   0.945 -0.1392  0.2370 -0.1315
14128TIP3    H142323   3.069   2.726   1.038 -0.3526  0.5002 -0.0942
14128TIP3    H242324   3.169   2.757   0.929 -0.0278 -0.4521 -0.0777
14129TIP3   OH242325   4.748   0.835   2.728 -0.5205 -0.6886 -0.3530
14129TIP3    H142326   4.671   0.879   2.763  0.3927 -0.0064  0.8155
14129TIP3    H242327   4.789   0.793   2.804 -0.2536 -1.8373 -1.1182
14130TIP3   OH242328   3.070   0.070   0.821  0.0854 -0.2045 -0.1243
14130TIP3    H142329   3.084   0.130   0.747  0.5357 -1.3420 -0.9793
14130TIP3    H242330   3.069  -0.017   0.781 -0.2075 -0.7908  1.1497
14131TIP3   OH242331   2.724   0.057   0.746  0.1659  1.0287 -0.1341
14131TIP3    H142332   2.815   0.028   0.746 -0.0881  0.1842  0.7659
14131TIP3    H242333   2.703   0.071   0.654  0.4712 -1.1380 -0.5722
14132TIP3   OH242334   6.308   5.219   6.821  0.1485  0.2751 -0.4515
14132TIP3    H142335   6.229   5.241   6.871  0.2450  1.1708 -0.6839
14132TIP3    H242336   6.379   5.266   6.866  0.8262 -1.7591  0.6963
14133TIP3   OH242337   1.861   7.608   4.539 -0.3386  0.0525 -0.1628
14133TIP3    H142338   1.916   7.605   4.461  0.4454  0.8645  0.3500
14133TIP3    H242339   1.852   7.517   4.566 -1.1214 -0.2957 -1.5471
14134TIP3   OH242340   1.591   0.604   0.849  0.0576 -0.4625  0.7214
14134TIP3    H142341   1.505   0.606   0.891 -0.1644 -2.9672  0.4168
14134TIP3    H242342   1.651   0.574   0.917  0.4709 -0.1087  0.5222
14135TIP3   OH242343   5.869   3.724   5.908 -0.0540  0.1071  0.3240
14135TIP3    H142344   5.813   3.649   5.927  0.4850 -0.0096  1.4988
14135TIP3    H242345   5.897   3.711   5.818  1.7445 -2.2419  1.1653
14136TIP3   OH242346   3.566   1.000   1.412  0.0383 -0.5258 -0.3877
14136TIP3    H142347   3.510   0.924   1.424  0.1292 -0.5148  0.1159
14136TIP3    H242348   3.641   0.984   1.469 -1.1171  1.1023  1.6375
14137TIP3   OH242349   0.638   1.659   0.485  0.0377  0.4637  0.4547
14137TIP3    H142350   0.671   1.585   0.433 -1.2112  1.1724 -1.4099
14137TIP3    H242351   0.673   1.736   0.441 -0.5136  1.0560  1.0440
14138TIP3   OH242352   4.909   0.672   2.261 -0.3098 -0.7705  0.3141
14138TIP3    H142353   4.982   0.614   2.240 -0.0821 -0.9430  1.5552
14138TIP3    H242354   4.831   0.622   2.235 -0.2357 -2.5094  3.2183
14139TIP3   OH242355   6.949   4.765   6.642 -0.4869 -0.5390  0.1790
14139TIP3    H142356   6.929   4.732   6.730 -0.4198 -0.1697  0.3356
14139TIP3    H242357   6.876   4.735   6.588 -0.6951 -0.4869  0.4293
14140TIP3   OH242358   3.187   0.458   2.034 -0.0520 -0.2935 -0.0779
14140TIP3    H142359   3.104   0.424   2.001 -0.3514  2.4124 -2.4050
14140TIP3    H242360   3.253   0.420   1.976  0.1656 -1.2432  0.7994
14141TIP3   OH242361   3.761   5.995   6.941  0.0293  0.5855 -0.2887
14141TIP3    H142362   3.804   5.910   6.927 -1.8447 -0.4595  0.0646
14141TIP3    H242363   3.833   6.057   6.949  1.4538 -0.9970 -0.4265
14142TIP3   OH242364   1.511   0.741   0.629 -0.1274 -0.3836  0.3140
14142TIP3    H142365   1.528   0.698   0.713  1.1746 -0.8546 -0.1755
14142TIP3    H242366   1.568   0.818   0.630  1.1131 -1.2576 -0.7913
14143TIP3   OH242367   0.145   6.560   0.755 -0.3367 -0.9405 -0.2704
14143TIP3    H142368   0.066   6.600   0.719 -0.6224 -1.0062  0.2801
14143TIP3    H242369   0.114   6.505   0.826  0.2766 -0.3924  0.4260
14144TIP3   OH242370   4.562   4.829   5.345  0.0124 -0.9624  0.0895
14144TIP3    H142371   4.607   4.816   5.428 -1.4724  0.8813  1.2194
14144TIP3    H242372   4.628   4.869   5.288  1.0672 -2.3331  0.3006
14145TIP3   OH242373   2.456   2.850   1.531  0.5676 -0.9877  0.0209
14145TIP3    H142374   2.523   2.884   1.590 -1.1104 -0.3517  1.5718
14145TIP3    H242375   2.381   2.830   1.587 -0.7269 -1.2595 -1.7457
14146TIP3   OH242376   8.153   1.645   2.551  0.5553  0.3846 -0.4290
14146TIP3    H142377   8.133   1.559   2.514  0.1565  0.0091  0.6667
14146TIP3    H242378   8.169   1.700   2.474  2.0307 -0.9432 -1.1225
14147TIP3   OH242379   1.455   2.160   0.223  0.3542 -0.2187  0.1732
14147TIP3    H142380   1.418   2.170   0.135  0.5315 -2.0039 -0.1170
14147TIP3    H242381   1.550   2.160   0.209  0.3823 -0.4852  0.3763
14148TIP3   OH242382   4.660   5.013   5.156 -0.3275 -0.3670 -0.5011
14148TIP3    H142383   4.607   5.077   5.108  0.6647  1.9404  1.3563
14148TIP3    H242384   4.744   5.013   5.111  0.4115  1.3662  0.8026
14149TIP3   OH242385   1.285   1.158   1.685  0.1185  0.0825 -0.0112
14149TIP3    H142386   1.349   1.177   1.753 -2.4512  0.0312  2.5655
14149TIP3    H242387   1.288   1.233   1.626  2.0432  0.3704  0.4296
14150TIP3   OH242388   1.144   2.164   0.065  0.4355 -0.2487 -0.5157
14150TIP3    H142389   1.145   2.180   0.160  1.0179  0.1529 -0.5855
14150TIP3    H242390   1.163   2.250   0.027 -0.7258 -0.2032 -1.0295
14151TIP3   OH242391   0.515   0.172   1.707  0.7024  0.1455 -0.3915
14151TIP3    H142392   0.430   0.128   1.711  0.8685 -0.2274 -0.8571
14151TIP3    H242393   0.542   0.180   1.798  0.1902  0.2199 -0.2445
14152TIP3   OH242394   3.736   2.735   2.781  0.3069  0.1484 -0.0600
14152TIP3    H142395   3.680   2.786   2.840  2.6525  1.0734  1.4340
14152TIP3    H242396   3.766   2.798   2.716 -1.0270 -0.5388 -1.3767
14153TIP3   OH242397   2.923   6.327   6.185 -0.7157 -0.2020 -0.9212
14153TIP3    H142398   2.909   6.361   6.096 -1.7256  0.1494 -0.6349
14153TIP3    H242399   2.996   6.265   6.176 -0.2189  0.4976 -1.8299
14154TIP3   OH242400   3.794   2.359   4.541 -0.0208 -0.1125 -0.4824
14154TIP3    H142401   3.798   2.263   4.549 -0.9369 -0.0421  1.0396
14154TIP3    H242402   3.725   2.385   4.602 -0.4890  1.4369 -1.6658
14155TIP3   OH242403   3.015   3.558   1.469 -0.3158  0.7558  0.3987
14155TIP3    H142404   2.958   3.633   1.483 -0.0847  0.9600  0.2421
14155TIP3    H242405   3.097   3.595   1.435 -0.8402  0.2719 -1.4484
14156TIP3   OH242406   2.570   1.628   1.688  0.2850  0.7465 -0.2119
14156TIP3    H142407   2.540   1.702   1.741 -0.6899 -0.1255  0.4846
14156TIP3    H242408   2.641   1.589   1.740 -0.6729 -0.1104  0.4681
14157TIP3   OH242409   2.214   4.565   0.124  0.5915 -0.1793  0.0624
14157TIP3    H142410   2.248   4.537   0.039 -1.6378 -0.4459 -0.7769
14157TIP3    H242411   2.269   4.639   0.149  3.1964 -1.9846 -0.1675
14158TIP3   OH242412   1.688   2.697   3.180  0.4064  0.4382  0.3416
14158TIP3    H142413   1.780   2.710   3.202  0.0951  2.6007  0.4493
14158TIP3    H242414   1.645   2.681   3.264  0.8644 -1.8267  0.1621
14159TIP3   OH242415   2.473   2.695   1.805  0.4032 -0.1106  0.1834
14159TIP3    H142416   2.541   2.760   1.788  0.7421 -0.4822  0.1237
14159TIP3    H242417   2.457   2.700   1.899 -1.3552  1.8340 -0.1599
14160TIP3   OH242418   0.170   0.745   0.491 -0.0284  0.5216 -0.3653
14160TIP3    H142419   0.082   0.714   0.509  0.8053 -1.4651  0.3202
14160TIP3    H242420   0.217   0.737   0.574  1.1986  0.2083 -1.0705
14161TIP3   OH242421   1.976   2.412   0.915 -0.1065 -0.4608  0.1658
14161TIP3    H142422   1.925   2.338   0.882 -0.1616 -0.2249 -0.2756
14161TIP3    H242423   2.039   2.372   0.976 -0.4043 -0.8223  0.2362
14162TIP3   OH242424   1.047   2.339   1.909 -0.1833 -0.3816 -0.8862
14162TIP3    H142425   1.081   2.253   1.882  1.2474  0.6149 -2.3401
14162TIP3    H242426   0.995   2.369   1.834 -0.3287  0.2019 -0.5520
14163TIP3   OH242427   2.918   2.286   1.957 -0.0523  0.0558  0.8940
14163TIP3    H142428   2.935   2.357   2.019 -0.3976 -1.0240  2.2429
14163TIP3    H242429   2.963   2.210   1.995  2.5784  0.1277 -1.8544
14164TIP3   OH242430   2.397   2.495   3.062  0.0583 -0.2573  0.2140
14164TIP3    H142431   2.453   2.469   3.135  1.9485  0.9063 -0.7800
14164TIP3    H242432   2.414   2.588   3.050 -1.5590 -0.0473 -0.5882
14165TIP3   OH242433   1.625   7.144   1.219 -0.0665 -0.3771 -0.0121
14165TIP3    H142434   1.540   7.103   1.208 -0.2995 -0.2046  1.0441
14165TIP3    H242435   1.646   7.131   1.312  0.5973  0.4523 -0.0375
14166TIP3   OH242436   3.933   4.141   6.452  0.2610 -0.4807 -0.1851
14166TIP3    H142437   3.922   4.235   6.465  1.5811 -0.1714 -1.1224
14166TIP3    H242438   3.906   4.102   6.535  0.2455  0.7737  0.4171
14167TIP3   OH242439   4.239   4.350   6.929  0.2391 -0.9356 -0.1868
14167TIP3    H142440   4.319   4.378   6.974  0.5569 -1.7564 -0.2318
14167TIP3    H242441   4.258   4.363   6.836 -0.4644  0.8837 -0.1144
14168TIP3   OH242442   5.751   7.507   1.038  0.4071  0.2364  0.4397
14168TIP3    H142443   5.825   7.554   0.999  0.7471 -0.8868 -0.3007
14168TIP3    H242444   5.679   7.570   1.035  1.2497  1.2391  0.8857
14169TIP3   OH242445   7.203   7.825   0.785  0.0208  0.4755  0.3382
14169TIP3    H142446   7.123   7.876   0.792 -0.5671 -0.3856 -0.1106
14169TIP3    H242447   7.182   7.740   0.823  1.2535  0.8244  1.8725
14170TIP3   OH242448   0.153   1.312   0.095  0.3976  0.3511 -0.0842
14170TIP3    H142449   0.197   1.362   0.025  1.5657  1.2440  1.2573
14170TIP3    H242450   0.200   1.229   0.097  0.4650  0.3841 -0.2745
14171TIP3   OH242451   1.078   7.852   0.553 -0.0795  0.6245  0.2407
14171TIP3    H142452   1.145   7.783   0.554 -0.0295  0.6664 -0.0034
14171TIP3    H242453   1.091   7.895   0.468 -1.7743 -0.6901 -0.7288
14172TIP3   OH242454   5.238   5.909   5.285  0.2445  0.4326 -0.6824
14172TIP3    H142455   5.260   5.851   5.212 -1.1854  1.1824 -1.7501
14172TIP3    H242456   5.303   5.978   5.282  0.8967 -0.1718 -0.5040
14173TIP3   OH242457   3.069   6.207   5.722  0.3226 -0.0031  0.8261
14173TIP3    H142458   3.008   6.168   5.659  0.1135 -0.2374  1.1767
14173TIP3    H242459   3.033   6.185   5.808 -0.9167  2.6753  1.0562
14174TIP3   OH242460   8.322   6.634   0.478 -0.3161  0.0855  0.2165
14174TIP3    H142461   8.390   6.568   0.466 -0.1100  0.2038  0.7021
14174TIP3    H242462   8.259   6.617   0.408  0.8609  0.7938 -1.0189
14175TIP3   OH242463   0.025   1.301   0.884 -0.0742  0.1642 -0.1847
14175TIP3    H142464   0.012   1.381   0.934 -1.3511 -0.3370  0.3109
14175TIP3    H242465  -0.027   1.313   0.804  0.8045  0.3701 -0.7374
14176TIP3   OH242466   4.036   6.285   6.574 -0.1004 -0.0100 -0.0846
14176TIP3    H142467   3.960   6.255   6.523 -0.9709 -0.2366  1.3299
14176TIP3    H242468   4.065   6.208   6.622 -0.2343  0.5581  0.9340
14177TIP3   OH242469   0.440   2.704   1.312  0.1171 -0.8458  0.1699
14177TIP3    H142470   0.348   2.679   1.315 -0.0547 -0.0876  1.6278
14177TIP3    H242471   0.483   2.631   1.268 -0.7655 -2.5406  2.0169
14178TIP3   OH242472   6.019   1.122   1.329 -0.0683 -0.1912  0.0721
14178TIP3    H142473   5.984   1.091   1.412  0.3596 -3.0584 -0.7446
14178TIP3    H242474   5.944   1.125   1.270  0.1518 -1.2828 -0.2789
14179TIP3   OH242475   6.250   1.737   0.266 -0.1408  0.0316 -0.2844
14179TIP3    H142476   6.331   1.788   0.271 -0.5969  0.9242 -1.7465
14179TIP3    H242477   6.278   1.646   0.269  0.6579  0.3257  2.7938
14180TIP3   OH242478   1.468   3.421   0.350  0.6973  0.0858  0.3483
14180TIP3    H142479   1.545   3.391   0.301  0.2384 -0.6001  0.0313
14180TIP3    H242480   1.486   3.513   0.369  1.7988 -0.1838  0.6663
14181TIP3   OH242481   3.228   6.224   6.732 -0.3112  0.0534 -0.5008
14181TIP3    H142482   3.185   6.277   6.799  1.4625 -0.1132  0.8245
14181TIP3    H242483   3.301   6.279   6.702  1.1102 -1.3023  0.3665
14182TIP3   OH242484   3.219   1.236   0.251 -0.4707 -0.0201 -0.0867
14182TIP3    H142485   3.281   1.275   0.312 -1.3439 -0.0821  0.8515
14182TIP3    H242486   3.240   1.142   0.251 -0.8710 -0.1099  0.5891
14183TIP3   OH242487   3.954   0.333   0.336 -0.3137  0.3957  0.3258
14183TIP3    H142488   3.902   0.253   0.342 -0.2285  0.3229  0.0957
14183TIP3    H242489   3.903   0.398   0.385  0.6369 -0.3225  2.3083
14184TIP3   OH242490   6.218   4.838   5.906 -0.5238 -0.0076  0.5362
14184TIP3    H142491   6.160   4.913   5.888  0.0113  0.2312 -0.2347
14184TIP3    H242492   6.306   4.872   5.892 -0.2128 -0.4496  1.4397
14185TIP3   OH242493   7.933   7.876   1.107 -0.2971  0.2708  0.0018
14185TIP3    H142494   7.968   7.793   1.074  1.5794  1.0894 -0.1507
14185TIP3    H242495   7.991   7.943   1.070 -1.9529  1.6924 -0.1152
14186TIP3   OH242496   5.096   1.387   1.847  0.4588 -0.4931 -0.4584
14186TIP3    H142497   5.180   1.410   1.807  0.8495 -0.1538  0.5521
14186TIP3    H242498   5.080   1.297   1.819  1.3619 -0.7026 -0.3238
14187TIP3   OH242499   5.145   0.342   0.935  0.1349 -0.6064  0.1060
14187TIP3    H142500   5.208   0.397   0.888 -0.6992  1.8011  1.6822
14187TIP3    H242501   5.165   0.253   0.907  1.3885  0.4899 -2.7362
14188TIP3   OH242502   7.670   7.838   1.187  0.2083  0.4629 -0.0939
14188TIP3    H142503   7.675   7.926   1.224  1.9593  0.5283 -0.4747
14188TIP3    H242504   7.740   7.835   1.123 -1.6227 -0.2741 -2.1279
14189TIP3   OH242505   4.186   1.349   3.003  0.1590  0.0960 -0.1061
14189TIP3    H142506   4.255   1.309   2.949  0.3622  0.6729 -0.2866
14189TIP3    H242507   4.216   1.337   3.093 -0.3513 -1.1796 -0.0950
14190TIP3   OH242508   7.217   2.813   6.736  0.4876  0.2703  0.4777
14190TIP3    H142509   7.208   2.774   6.823  0.0574  0.5688  0.5693
14190TIP3    H242510   7.193   2.743   6.676 -0.0545  0.3171  0.6326
14191TIP3   OH242511   4.863   0.519   1.856  0.2314 -0.4570  0.1358
14191TIP3    H142512   4.902   0.446   1.904 -0.1746  0.1284  1.3775
14191TIP3    H242513   4.772   0.493   1.843  0.3754 -0.6718 -0.4171
14192TIP3   OH242514   5.778   5.545   6.611  0.3940  0.4446  0.2066
14192TIP3    H142515   5.819   5.459   6.614  0.9280  0.6285 -1.4314
14192TIP3    H242516   5.807   5.588   6.691  1.3023 -0.3671  0.3243
14193TIP3   OH242517   2.680   1.005   1.356  0.3104  0.2911 -0.4151
14193TIP3    H142518   2.765   0.962   1.360  1.6416  2.6789 -1.9828
14193TIP3    H242519   2.691   1.085   1.407 -1.2311  0.2547  0.0036
14194TIP3   OH242520   1.446   6.995   0.894  0.4481  0.1935 -0.2485
14194TIP3    H142521   1.406   6.914   0.925 -1.2271  0.2970 -2.0269
14194TIP3    H242522   1.431   7.057   0.965  2.7290 -1.3016  1.6016
14195TIP3   OH242523   5.113   0.516   2.209  0.1068  0.1780  0.3593
14195TIP3    H142524   5.187   0.577   2.199  0.7929 -0.8986 -1.3993
14195TIP3    H242525   5.155   0.430   2.217 -0.9496 -0.3755 -0.0862
14196TIP3   OH242526   0.495   4.229   6.104 -0.0559  0.2146  0.3907
14196TIP3    H142527   0.505   4.324   6.111 -2.1471  0.4950 -0.1015
14196TIP3    H242528   0.413   4.217   6.056  0.7803 -1.8392 -0.5920
14197TIP3   OH242529   5.371   6.722   6.678 -0.1074 -0.2773 -0.5123
14197TIP3    H142530   5.313   6.654   6.643 -0.2870  0.0599 -0.8819
14197TIP3    H242531   5.338   6.803   6.640 -0.3849  0.1180  0.5548
14198TIP3   OH242532   5.406   4.235   5.911  0.1597 -0.4832  0.4296
14198TIP3    H142533   5.501   4.230   5.913  0.1805 -0.3728 -0.3691
14198TIP3    H242534   5.380   4.189   5.832 -0.3844  0.4426  0.0560
14199TIP3   OH242535   3.463   6.859   0.609 -0.2323 -0.5530 -0.0355
14199TIP3    H142536   3.456   6.764   0.618  0.8630 -1.1233 -4.1768
14199TIP3    H242537   3.550   6.881   0.642 -0.4512 -0.9630  0.8325
14200TIP3   OH242538   4.522   1.099   2.336  0.3322  0.2930  0.3930
14200TIP3    H142539   4.571   1.033   2.386 -1.8091 -0.6859  1.2609
14200TIP3    H242540   4.450   1.050   2.296 -0.4559  1.8647 -0.1301
14201TIP3   OH242541   4.651   1.157   2.048  0.0755  0.5460  0.0095
14201TIP3    H142542   4.612   1.220   1.987 -0.1377  0.0371 -0.3817
14201TIP3    H242543   4.578   1.127   2.102 -0.6997 -2.6415 -2.6655
14202TIP3   OH242544   6.245   1.730   0.561  0.1848  0.0699  0.7621
14202TIP3    H142545   6.167   1.751   0.613  0.9079 -1.3390  2.4606
14202TIP3    H242546   6.211   1.715   0.472 -1.4676 -0.4021  1.4556
14203TIP3   OH242547   3.975   5.527   6.418 -0.1556 -0.4650 -0.2080
14203TIP3    H142548   3.910   5.504   6.352  1.3166 -2.7572 -0.9163
14203TIP3    H242549   4.033   5.590   6.374 -0.5446 -0.2012 -0.3390
14204TIP3   OH242550   7.353   4.519   6.578 -0.1844 -0.3168  0.0302
14204TIP3    H142551   7.320   4.522   6.667 -0.3635 -1.9899  0.0517
14204TIP3    H242552   7.353   4.425   6.556 -0.5556  0.1005 -1.8669
14205TIP3   OH242553   1.479   7.404   1.211  0.1872  0.0344  0.2116
14205TIP3    H142554   1.519   7.357   1.137 -0.2326  0.2936 -0.1835
14205TIP3    H242555   1.537   7.386   1.285  1.2564  0.7082 -0.4352
14206TIP3   OH242556   6.781   4.639   6.471 -0.1908 -0.6778  0.2670
14206TIP3    H142557   6.854   4.606   6.419 -0.6327 -0.0928 -0.7394
14206TIP3    H242558   6.731   4.693   6.410 -1.9975 -1.8312  0.6938
14207TIP3   OH242559   8.181   3.491   5.812  0.6046  0.0584  0.0053
14207TIP3    H142560   8.203   3.563   5.872  0.2483 -0.1205  0.3583
14207TIP3    H242561   8.265   3.461   5.778  0.7525  0.6833 -0.1926
14208TIP3   OH242562   4.950   5.280   6.709  0.1491  0.0142  0.0042
14208TIP3    H142563   5.028   5.234   6.679  0.8519  0.5667  0.9337
14208TIP3    H242564   4.959   5.369   6.675  0.5910  0.4425  1.2228
14209TIP3   OH242565   7.931   5.239   6.043  0.2703 -0.2508 -0.6556
14209TIP3    H142566   7.989   5.313   6.062 -1.4586  0.8990  0.2760
14209TIP3    H242567   7.880   5.228   6.123 -2.7434  0.5873 -2.4072
14210TIP3   OH242568   3.970   1.607   0.648  0.0678 -0.3870 -0.0657
14210TIP3    H142569   3.946   1.679   0.706 -1.3677 -0.3741 -0.6398
14210TIP3    H242570   4.053   1.574   0.682  2.1129  3.2256 -1.3518
14211TIP3   OH242571   2.255   0.936   1.148  0.0454 -0.1796  0.1513
14211TIP3    H142572   2.236   0.950   1.241  1.8789  1.1828  0.3391
14211TIP3    H242573   2.344   0.969   1.136 -0.9317  1.6616 -2.5430
14212TIP3   OH242574   5.871   6.434   6.140 -0.2266 -0.5451 -0.6327
14212TIP3    H142575   5.808   6.506   6.140  0.1072 -0.2436  0.1941
14212TIP3    H242576   5.891   6.420   6.232 -1.1724 -2.4784 -0.7008
14213TIP3   OH242577   4.377   0.360   1.454 -0.5373 -0.4219  0.3216
14213TIP3    H142578   4.361   0.403   1.538 -1.2190  0.9692 -0.4925
14213TIP3    H242579   4.425   0.425   1.403  0.1707 -1.3846 -0.2534
14214TIP3   OH242580   6.785   3.369   6.150  0.3417  0.4676  0.7676
14214TIP3    H142581   6.823   3.373   6.062  2.5289 -0.2163  1.6253
14214TIP3    H242582   6.813   3.450   6.192 -0.8550  0.8799  0.7871
14215TIP3   OH242583   3.477   3.458   1.133  0.0142 -0.0240  0.4073
14215TIP3    H142584   3.539   3.510   1.185 -0.2090 -0.3892  1.0417
14215TIP3    H242585   3.486   3.493   1.044  1.6211 -0.5251  0.3579
14216TIP3   OH242586   0.561   7.892   1.578 -0.3561 -0.4462  0.3368
14216TIP3    H142587   0.544   7.882   1.672  1.7180  0.1558  0.7992
14216TIP3    H242588   0.535   7.983   1.559 -0.5688 -0.4994  0.3738
14217TIP3   OH242589   1.086   6.952   2.358  0.0188 -0.3324  0.2638
14217TIP3    H142590   1.016   7.017   2.359 -0.4159 -0.7992  0.8426
14217TIP3    H242591   1.041   6.868   2.351  0.6254 -0.5197 -1.5610
14218TIP3   OH242592   6.992   1.603   0.395 -0.0297 -0.2719  0.0776
14218TIP3    H142593   7.032   1.605   0.482  2.1813 -0.1058 -0.9147
14218TIP3    H242594   6.964   1.693   0.380  0.3831 -0.1061  0.2728
14219TIP3   OH242595   0.087   4.939   6.688 -0.3077 -0.0483  0.0505
14219TIP3    H142596   0.111   4.970   6.601  1.2401  1.0414  0.8389
14219TIP3    H242597  -0.008   4.943   6.691 -0.3238  0.5891 -1.3338
14220TIP3   OH242598   5.917   0.272   3.247 -0.2917  0.0213 -0.8141
14220TIP3    H142599   5.973   0.340   3.210  0.2787  0.8865  1.5302
14220TIP3    H242600   5.974   0.196   3.256 -0.5027 -0.2776 -1.9154
14221TIP3   OH242601   4.945   4.543   6.716 -0.5419 -0.1349 -0.1407
14221TIP3    H142602   4.976   4.631   6.737  0.2011 -0.8450  1.8659
14221TIP3    H242603   4.864   4.557   6.668 -0.9663  1.6321  1.0318
14222TIP3   OH242604   4.833   3.945   6.917  0.4292 -0.1722 -0.2137
14222TIP3    H142605   4.905   4.008   6.921  0.3300  0.0081 -1.0770
14222TIP3    H242606   4.859   3.875   6.976 -0.4684  1.6984  2.4857
14223TIP3   OH242607   3.943   2.950   1.173 -0.1039  0.2503  0.2803
14223TIP3    H142608   3.981   2.866   1.200  0.7909  1.1281  1.7864
14223TIP3    H242609   3.851   2.931   1.158  0.0451 -0.9585  0.8366
14224TIP3   OH242610   5.110   6.126   6.780 -0.0898 -0.1449 -0.3833
14224TIP3    H142611   5.150   6.079   6.706 -1.2244 -1.0044 -0.4597
14224TIP3    H242612   5.142   6.080   6.857 -0.2101 -0.2601 -0.4031
14225TIP3   OH242613   3.808   0.621   1.334 -0.3534  0.5344  0.2595
14225TIP3    H142614   3.893   0.617   1.379 -1.2097 -0.5874  1.7917
14225TIP3    H242615   3.798   0.535   1.295 -1.5307  0.1043  1.4715
14226TIP3   OH242616   4.768   4.678   6.510 -0.5589  0.2545 -0.4135
14226TIP3    H142617   4.824   4.717   6.443  0.4652  0.2187  0.4021
14226TIP3    H242618   4.758   4.587   6.483 -0.1195  0.2312 -0.5050
14227TIP3   OH242619   2.716   5.030   6.449  0.4138 -0.2132 -0.1892
14227TIP3    H142620   2.687   5.121   6.461 -0.0327 -0.3109 -0.5099
14227TIP3    H242621   2.810   5.037   6.432  0.1745  0.2758 -1.3584
14228TIP3   OH242622   4.678   5.796   6.469 -0.8584  0.1552  0.2659
14228TIP3    H142623   4.717   5.763   6.388 -0.5710  0.7005  0.1785
14228TIP3    H242624   4.699   5.729   6.534  0.7671  0.7318  0.3608
14229TIP3   OH242625   4.745   4.725   5.534 -0.8204  0.6288 -0.0082
14229TIP3    H142626   4.785   4.792   5.589 -1.8148  0.9828  0.3017
14229TIP3    H242627   4.793   4.645   5.555 -1.2859  0.7330  1.5048
14230TIP3   OH242628   6.553   5.787   6.284 -0.5123  0.0685 -0.7797
14230TIP3    H142629   6.565   5.846   6.210 -1.8247 -0.0466 -1.0852
14230TIP3    H242630   6.577   5.840   6.360  0.5779  0.2691 -1.2455
14231TIP3   OH242631   5.096   0.449   2.494 -0.1217 -0.1143  0.4740
14231TIP3    H142632   5.098   0.471   2.400 -0.5449  2.0163  0.9374
14231TIP3    H242633   5.131   0.360   2.498  0.3889 -0.0494 -1.6595
14232TIP3   OH242634   3.489   1.710   1.876  0.0818  0.2834 -0.4791
14232TIP3    H142635   3.549   1.688   1.946 -3.2325 -3.1776  1.4699
14232TIP3    H242636   3.502   1.641   1.810 -1.2126 -0.0736 -0.3726
14233TIP3   OH242637   3.693   6.098   5.383  0.4600  0.4928  0.5828
14233TIP3    H142638   3.788   6.090   5.384  0.6271  0.9451 -3.2664
14233TIP3    H242639   3.663   6.025   5.329 -1.1914  1.6350 -0.0819
14234TIP3   OH242640   4.417   2.351   2.099  0.3943  0.3945 -0.1928
14234TIP3    H142641   4.424   2.260   2.070 -0.2044 -0.3496  1.9080
14234TIP3    H242642   4.403   2.401   2.019 -1.6451 -1.6456 -1.1520
14235TIP3   OH242643   3.492   0.928   0.986 -0.0817 -0.1374 -0.0853
14235TIP3    H142644   3.544   0.886   1.054 -0.5947 -1.2645 -0.3759
14235TIP3    H242645   3.468   1.013   1.023  1.0937 -0.0271  0.4473
14236TIP3   OH242646   2.796   1.375   1.403 -0.1487 -0.9939 -0.4849
14236TIP3    H142647   2.715   1.351   1.449  0.1797 -0.4403  0.4054
14236TIP3    H242648   2.845   1.293   1.396 -0.4864 -1.2023 -0.4116
14237TIP3   OH242649   5.539   0.230   1.528  0.0502  0.3261  0.6739
14237TIP3    H142650   5.629   0.246   1.556  0.3308 -1.9251  1.1315
14237TIP3    H242651   5.544   0.221   1.432 -0.0095  2.1710  0.4860
14238TIP3   OH242652   6.016   6.038   5.555  0.1349 -0.0623 -0.1535
14238TIP3    H142653   6.007   6.121   5.601 -0.4469  0.0070 -0.3793
14238TIP3    H242654   6.106   6.037   5.523 -0.4658  1.4887 -2.0300
14239TIP3   OH242655   1.795   1.835   1.020 -0.7048  0.4070  0.0533
14239TIP3    H142656   1.868   1.809   0.963 -1.4562 -0.2877 -0.6064
14239TIP3    H242657   1.718   1.830   0.963 -1.2918  0.9831  0.7928
14240TIP3   OH242658   4.895   5.195   6.409  0.0210  0.2099  0.1110
14240TIP3    H142659   4.841   5.152   6.476 -0.1634 -0.4779 -0.4827
14240TIP3    H242660   4.840   5.266   6.377  0.5170  1.2123  1.4455
14241TIP3   OH242661   1.533   1.847   1.946 -0.3172  0.7186 -0.0968
14241TIP3    H142662   1.456   1.796   1.973  0.6135 -0.1816  0.9172
14241TIP3    H242663   1.604   1.783   1.944  0.5306  1.6624 -0.4452
14242TIP3   OH242664   7.001   2.679   6.488  0.2559  0.2430  1.1308
14242TIP3    H142665   7.037   2.708   6.404 -1.3453  0.9473  0.6521
14242TIP3    H242666   7.057   2.607   6.516  2.1926  1.5256  0.5934
14243TIP3   OH242667   6.409   4.700   6.942 -0.7122 -0.0401  0.3611
14243TIP3    H142668   6.351   4.739   6.877 -1.5648  0.1531  1.2221
14243TIP3    H242669   6.485   4.669   6.892  0.2211  3.1506 -0.2731
14244TIP3   OH242670   3.043   3.883   1.534 -0.7046  0.5982 -0.1814
14244TIP3    H142671   3.047   3.951   1.466  0.4524 -0.0877 -0.8163
14244TIP3    H242672   3.133   3.878   1.567 -0.5447 -1.3398 -0.8563
14245TIP3   OH242673   1.669   2.391   2.882 -0.3588  0.0414 -0.1052
14245TIP3    H142674   1.678   2.485   2.866 -1.7591  0.2174  0.0427
14245TIP3    H242675   1.658   2.383   2.976  1.8273 -0.4665  0.1247
14246TIP3   OH242676   5.352   1.479   1.076 -0.6635 -0.2979  0.1386
14246TIP3    H142677   5.374   1.386   1.066 -0.6343 -0.0796 -1.9985
14246TIP3    H242678   5.428   1.526   1.041  0.5245  0.6255  3.6849
14247TIP3   OH242679   3.095   1.757   1.320 -0.0693  0.3509  0.2917
14247TIP3    H142680   3.020   1.734   1.374 -0.1178 -0.7489 -0.2375
14247TIP3    H242681   3.077   1.846   1.290 -1.1205  0.1269  0.2444
14248TIP3   OH242682   5.829   3.905   6.690  0.3081  0.1858  0.4210
14248TIP3    H142683   5.918   3.896   6.724  0.3109  1.6924  0.8313
14248TIP3    H242684   5.775   3.922   6.767 -0.3628 -0.8216  0.1852
14249TIP3   OH242685   5.418   4.685   6.479  0.1666 -0.2938 -0.0254
14249TIP3    H142686   5.470   4.706   6.401  0.8774 -0.5266  0.3769
14249TIP3    H242687   5.398   4.592   6.470 -0.9022 -0.0110 -0.5979
14250TIP3   OH242688   4.224   3.018   2.522 -0.3026  0.2984 -0.1629
14250TIP3    H142689   4.198   2.931   2.551  1.8500  0.4021  2.1911
14250TIP3    H242690   4.268   3.004   2.439 -0.6786 -0.7531 -0.1886
14251TIP3   OH242691   3.395   0.079   1.011  0.4356  0.0152  0.0007
14251TIP3    H142692   3.463   0.068   0.945  0.3909  1.9596 -0.3886
14251TIP3    H242693   3.442   0.099   1.092  0.4396 -1.2846  0.3275
14252TIP3   OH242694   1.600   3.053   1.120 -0.2183  0.0278 -0.2858
14252TIP3    H142695   1.659   3.116   1.162 -0.8983 -0.2981  1.1463
14252TIP3    H242696   1.659   2.997   1.068  0.4971  1.1526 -0.7128
14253TIP3   OH242697   2.233   7.591   1.629  0.1592  0.3959 -0.0224
14253TIP3    H142698   2.197   7.523   1.686  1.1264 -0.4580 -0.4168
14253TIP3    H242699   2.169   7.599   1.558  0.0607 -0.1545 -0.0029
14254TIP3   OH242700   2.815   2.404   0.120 -0.1859 -0.1711 -0.2067
14254TIP3    H142701   2.878   2.434   0.185 -0.8517  1.3111 -0.2235
14254TIP3    H242702   2.800   2.481   0.064 -1.3362 -0.7600 -0.7239
14255TIP3   OH242703   5.181   0.157   2.938  0.6290 -0.0219  0.3714
14255TIP3    H142704   5.260   0.116   2.972  0.6704 -0.6012 -0.3864
14255TIP3    H242705   5.138   0.195   3.014  0.8038 -1.1388  1.0425
14256TIP3   OH242706   7.689   3.031   4.272 -0.5073  1.0845  0.1328
14256TIP3    H142707   7.657   2.962   4.213  1.1677  0.4521 -0.0739
14256TIP3    H242708   7.666   3.113   4.228 -2.7574  0.6788  0.5137
14257TIP3   OH242709   3.475   1.385   0.248 -0.2713 -0.1891 -0.5669
14257TIP3    H142710   3.464   1.400   0.154 -1.9396 -1.5384 -0.6133
14257TIP3    H242711   3.564   1.414   0.266  0.8954 -2.0234 -3.0104
14258TIP3   OH242712   5.064   0.877   1.539 -0.2619 -0.1587  0.0112
14258TIP3    H142713   5.014   0.854   1.617  0.0164 -0.4455  0.1070
14258TIP3    H242714   5.078   0.972   1.546  2.9010 -0.7172  2.1956
14259TIP3   OH242715   1.722   7.634   0.973 -0.0450  0.4203 -0.2763
14259TIP3    H142716   1.801   7.584   0.994 -0.5049  0.2116  0.9931
14259TIP3    H242717   1.650   7.574   0.992 -0.5188  0.3255 -2.1818
14260TIP3   OH242718   4.063   3.166   1.078 -0.5070 -0.8109  0.5043
14260TIP3    H142719   3.985   3.221   1.067 -0.7902 -1.5494 -1.4199
14260TIP3    H242720   4.029   3.081   1.104 -0.3423 -1.1161 -0.2692
14261TIP3   OH242721   1.376   0.800   0.396  0.0939 -0.0640 -0.7758
14261TIP3    H142722   1.402   0.797   0.488 -3.1321  0.5726  0.1995
14261TIP3    H242723   1.366   0.893   0.377 -3.0120 -0.3092 -0.6048
14262TIP3   OH242724   5.279   1.473   1.494 -0.4144  0.2970 -0.0953
14262TIP3    H142725   5.257   1.512   1.409 -0.2955  0.2151 -0.1641
14262TIP3    H242726   5.233   1.528   1.558 -1.8070 -0.6099 -0.3152
14263TIP3   OH242727   5.097   4.907   5.882  0.6681 -0.1696 -0.2859
14263TIP3    H142728   5.072   4.983   5.933 -0.5745 -0.6284 -0.1905
14263TIP3    H242729   5.169   4.937   5.827  0.5685  0.9118  0.1743
14264TIP3   OH242730   5.365   4.882   6.668  0.2343 -0.5749  0.0390
14264TIP3    H142731   5.374   4.964   6.621  0.4269 -1.4675 -1.5363
14264TIP3    H242732   5.352   4.816   6.599  0.1102 -1.8575  1.2570
14265TIP3   OH242733   3.869   0.716   0.734  0.4321  0.1271  0.2497
14265TIP3    H142734   3.880   0.622   0.721 -1.1662  0.2295 -2.3573
14265TIP3    H242735   3.787   0.723   0.784  1.5210  0.0785  2.0542
14266TIP3   OH242736   0.899   0.472   0.294 -0.7813 -0.2114  0.4049
14266TIP3    H142737   0.821   0.454   0.347 -0.3494  0.4822  1.2984
14266TIP3    H242738   0.918   0.565   0.310  0.3663 -0.4340  0.3957
14267TIP3   OH242739   6.955   6.040   5.568  0.0094  0.3296  0.4124
14267TIP3    H142740   6.873   6.077   5.536 -0.4268  0.5876  1.7851
14267TIP3    H242741   7.023   6.090   5.523 -0.5866  0.6894 -0.0994
14268TIP3   OH242742  -0.027   4.680   6.596 -0.4946  0.3493  0.2336
14268TIP3    H142743   0.024   4.742   6.648 -0.0213  0.4530 -0.3572
14268TIP3    H242744   0.030   4.605   6.585  0.1442  1.1081 -1.7905
14269TIP3   OH242745   3.083   0.830   1.887 -0.4161  0.7587  0.4185
14269TIP3    H142746   3.035   0.877   1.819 -1.5676  0.9074  1.3056
14269TIP3    H242747   3.015   0.794   1.944  0.5081  0.0985  1.1304
14270TIP3   OH242748   4.411   5.750   6.638  0.0962  0.7461 -0.3670
14270TIP3    H142749   4.475   5.813   6.671  1.4338 -0.7017 -0.1361
14270TIP3    H242750   4.415   5.760   6.543 -1.2889  2.5204 -0.2667
14271TIP3   OH242751   5.255   0.529   0.782  0.4536  0.2923  0.4022
14271TIP3    H142752   5.348   0.521   0.802  0.6903  0.6636 -0.5117
14271TIP3    H242753   5.235   0.621   0.800  0.5526  0.5068 -0.5375
14272TIP3   OH242754   3.499   7.472   0.407 -0.3770 -0.4780  0.0780
14272TIP3    H142755   3.431   7.406   0.410  0.8972 -1.7658  2.0801
14272TIP3    H242756   3.491   7.519   0.490  0.9344 -0.4226  0.1928
14273TIP3   OH242757   2.480   0.308   0.676  0.0610  0.5342  0.2407
14273TIP3    H142758   2.558   0.307   0.731  0.0217 -0.9593  0.2833
14273TIP3    H242759   2.423   0.241   0.714 -1.3559  1.7902  0.3765
14274TIP3   OH242760   1.495   4.211   1.156 -0.5423  0.1595 -0.2002
14274TIP3    H142761   1.575   4.230   1.108 -0.1762 -1.9077 -0.4685
14274TIP3    H242762   1.523   4.200   1.247 -0.1405 -2.6271 -0.6094
14275TIP3   OH242763   3.797   1.222   0.496  0.8833 -0.1191 -0.7962
14275TIP3    H142764   3.880   1.209   0.450  0.6459 -0.1541 -1.2177
14275TIP3    H242765   3.788   1.144   0.552  1.4570  0.2034 -0.2471
14276TIP3   OH242766   1.808   1.586   0.381 -0.0912  0.4645  0.3809
14276TIP3    H142767   1.870   1.648   0.342 -1.0139  1.0141 -0.2364
14276TIP3    H242768   1.799   1.517   0.315 -0.5581  0.6716  0.2247
14277TIP3   OH242769   4.395   6.867   0.992 -0.3173 -0.7947  0.7346
14277TIP3    H142770   4.456   6.884   0.919 -1.3499  0.4948  0.1593
14277TIP3    H242771   4.356   6.783   0.970  0.0691 -0.8605  0.2739
14278TIP3   OH242772   5.670   2.006   2.039 -0.5695 -0.1732  0.1522
14278TIP3    H142773   5.643   1.947   2.110  0.5847  0.2659  0.9728
14278TIP3    H242774   5.753   1.971   2.008 -0.0174  0.8442  0.4462
14279TIP3   OH242775   2.866   7.456   3.136  0.6658 -0.3587  0.4679
14279TIP3    H142776   2.940   7.402   3.107 -0.4212 -2.7437  2.0070
14279TIP3    H242777   2.907   7.537   3.168  2.6985 -1.9780  2.0982
14280TIP3   OH242778   4.814   3.368   2.659  0.1586  0.1653 -0.1418
14280TIP3    H142779   4.836   3.284   2.699 -0.0893  0.1406 -0.0565
14280TIP3    H242780   4.720   3.377   2.673  0.1836  0.4527 -0.1606
14281TIP3   OH242781   6.091   6.493   5.912  0.1672 -0.0170  0.0117
14281TIP3    H142782   6.022   6.458   5.855  1.1694 -0.0953 -1.1796
14281TIP3    H242783   6.161   6.427   5.908  0.5386  0.3252  0.7677
14282TIP3   OH242784   6.080   5.486   6.229 -0.0840  0.1158 -0.4236
14282TIP3    H142785   6.094   5.538   6.308 -0.6183  0.6578 -0.6805
14282TIP3    H242786   6.091   5.396   6.257  0.5624  0.3536  0.0932
14283TIP3   OH242787   3.534   3.364   2.038 -0.0376  0.0335  0.1498
14283TIP3    H142788   3.477   3.414   1.980  0.3952  0.0969 -0.2230
14283TIP3    H242789   3.540   3.417   2.117 -0.8694 -0.1941  0.3707
14284TIP3   OH242790   7.418   3.212   1.018 -0.3215 -0.1718 -0.3335
14284TIP3    H142791   7.327   3.229   0.992 -0.3111  1.2232  0.4524
14284TIP3    H242792   7.467   3.287   0.983  0.1616  0.2218  1.1530
14285TIP3   OH242793   3.651   2.301   0.542  0.1098  0.2195  0.3160
14285TIP3    H142794   3.671   2.337   0.455 -1.7826 -0.3804 -0.3893
14285TIP3    H242795   3.641   2.207   0.527 -0.7374  0.1832  1.0846
14286TIP3   OH242796   7.193   6.883   3.943 -0.3134  0.0148  0.3251
14286TIP3    H142797   7.121   6.887   4.007  0.7983 -0.2799  1.6145
14286TIP3    H242798   7.271   6.902   3.994  0.4568  1.0594 -1.2123
14287TIP3   OH242799   6.834   3.720   5.873  0.1976 -0.6023 -0.0907
14287TIP3    H142800   6.750   3.765   5.864 -0.6271 -1.5073  2.6965
14287TIP3    H242801   6.865   3.708   5.783 -1.7243  1.4661 -1.0518
14288TIP3   OH242802   0.755   6.646   4.749 -0.4886 -0.1854 -0.5987
14288TIP3    H142803   0.820   6.576   4.739 -0.8210 -0.1957 -3.1957
14288TIP3    H242804   0.798   6.723   4.711 -0.7168  0.6620  0.8283
14289TIP3   OH242805   4.029   4.023   6.237  0.0013 -0.2431  0.0858
14289TIP3    H142806   4.026   4.094   6.173  2.5671  0.5135  0.7407
14289TIP3    H242807   3.990   4.060   6.316  0.4089  0.1229  0.1203
14290TIP3   OH242808   1.942   7.393   0.350  0.1831 -1.0655 -0.4697
14290TIP3    H142809   1.991   7.312   0.348 -0.1287 -1.2376 -1.0900
14290TIP3    H242810   2.005   7.459   0.377  0.4322 -1.5153  0.0495
14291TIP3   OH242811   6.664   4.153   5.885  0.3347  0.1364 -0.2745
14291TIP3    H142812   6.646   4.062   5.911 -0.2049 -0.0170 -1.1470
14291TIP3    H242813   6.651   4.204   5.964 -1.0495 -0.3443 -0.1697
14292TIP3   OH242814   3.974   2.732   2.927 -0.3014  0.2154  0.2441
14292TIP3    H142815   4.024   2.661   2.885 -0.0148  0.0965  0.7858
14292TIP3    H242816   3.888   2.728   2.885  0.3036  0.7534 -1.0713
14293TIP3   OH242817   2.390   6.682   1.031  0.5316 -0.0322  0.4012
14293TIP3    H142818   2.314   6.625   1.019  1.9764 -2.3945  2.1608
14293TIP3    H242819   2.354   6.758   1.078 -1.1048 -0.1914 -0.5343
14294TIP3   OH242820   1.938   0.703   2.918 -0.6688  0.8132  0.5088
14294TIP3    H142821   2.023   0.706   2.874 -0.8954  0.1144  0.0054
14294TIP3    H242822   1.925   0.791   2.951 -0.6688  1.4670 -1.1859
14295TIP3   OH242823   1.742   1.041   2.075 -0.0218 -0.5708  0.7366
14295TIP3    H142824   1.719   1.020   1.984  0.9608 -0.7595  0.5253
14295TIP3    H242825   1.736   0.958   2.121 -2.1034 -0.1905  1.2020
14296TIP3   OH242826   7.596   2.984   6.004 -0.1225  0.0782 -0.1413
14296TIP3    H142827   7.558   2.948   5.923 -0.5611  1.8159 -0.7432
14296TIP3    H242828   7.672   3.034   5.974  0.0694  0.2250  0.5886
14297TIP3   OH242829   3.217   4.925   6.340  0.1440 -0.4508  0.2252
14297TIP3    H142830   3.172   4.892   6.262 -0.2619 -1.0875  0.7276
14297TIP3    H242831   3.224   4.849   6.397  1.1274 -0.1640  0.4972
14298TIP3   OH242832   2.655   1.845   1.381  0.0288 -0.2349  0.4960
14298TIP3    H142833   2.675   1.935   1.406 -0.6309  0.4545 -1.4098
14298TIP3    H242834   2.574   1.824   1.428  0.1632  0.1654  0.9137
14299TIP3   OH242835   5.200   6.987   5.717 -0.2732 -0.1287 -0.0830
14299TIP3    H142836   5.209   6.940   5.800 -1.2761 -0.2618 -0.0452
14299TIP3    H242837   5.107   7.008   5.711 -0.8392 -2.9059 -2.6572
14300TIP3   OH242838   5.253   1.466   2.506  0.0553 -0.4006  0.2226
14300TIP3    H142839   5.200   1.420   2.441  0.4680  1.9416 -1.8848
14300TIP3    H242840   5.217   1.440   2.590 -1.3076 -2.5759 -1.0009
14301TIP3   OH242841   1.151   0.500   1.776  0.6903 -0.4423 -0.2684
14301TIP3    H142842   1.180   0.414   1.746 -1.3731 -1.4557  0.4915
14301TIP3    H242843   1.086   0.527   1.711  3.9209  2.2370 -2.5171
14302TIP3   OH242844   2.167   0.378   0.337 -0.5174 -0.3864 -0.1837
14302TIP3    H142845   2.246   0.391   0.285  0.5014  0.1131  1.4227
14302TIP3    H242846   2.128   0.465   0.343 -0.2542 -0.3041  0.4369
14303TIP3   OH242847   0.433   5.790   6.410  0.3489 -0.2892  0.7080
14303TIP3    H142848   0.507   5.839   6.446 -0.0173 -0.0735  1.1819
14303TIP3    H242849   0.406   5.731   6.481 -0.3179  0.0680  0.7613
14304TIP3   OH242850   2.135   6.674   0.336 -0.0275  0.1771  0.5947
14304TIP3    H142851   2.191   6.752   0.327  3.5753 -2.3870 -0.2532
14304TIP3    H242852   2.102   6.657   0.248  0.0953  0.1023  0.5629
14305TIP3   OH242853   6.989   7.612   1.105 -0.2208 -0.8548 -0.4684
14305TIP3    H142854   6.937   7.563   1.168 -0.3655  2.3783  2.0098
14305TIP3    H242855   6.941   7.693   1.091  3.0137  1.2766  0.2250
14306TIP3   OH242856   3.061  -0.005   2.789  0.3149  0.5632  0.1762
14306TIP3    H142857   3.080   0.076   2.835  1.9614  1.2148 -1.5773
14306TIP3    H242858   3.134  -0.063   2.811  0.1984  0.2757 -0.1864
14307TIP3   OH242859   3.737   1.412   0.312  0.2365 -0.3542  0.3615
14307TIP3    H142860   3.800   1.476   0.345  0.7663 -0.9203  0.4481
14307TIP3    H242861   3.737   1.342   0.378 -0.3301 -0.4520  0.2585
14308TIP3   OH242862   6.065   1.585   1.344  0.1137  0.0999 -0.0798
14308TIP3    H142863   6.121   1.529   1.289  0.4604  0.3111  0.0545
14308TIP3    H242864   6.101   1.673   1.332 -0.1788  0.2329  0.0270
14309TIP3   OH242865   1.165   3.851   6.441 -0.1592 -0.0754 -0.3282
14309TIP3    H142866   1.142   3.931   6.393 -0.7485 -0.2767 -0.3894
14309TIP3    H242867   1.080   3.816   6.469  0.1398 -0.3384  0.2436
14310TIP3   OH242868   6.295   5.803   6.523 -0.1788 -0.3268  0.4721
14310TIP3    H142869   6.308   5.723   6.573  0.5624  0.0498  0.8956
14310TIP3    H242870   6.374   5.809   6.469  0.6157  1.0545  1.7546
14311TIP3   OH242871   1.146   1.427   1.255 -0.0510  0.0591  0.6034
14311TIP3    H142872   1.053   1.435   1.233  0.0077  0.2707  0.4256
14311TIP3    H242873   1.178   1.517   1.254  0.3841 -0.1022 -0.3739
14312TIP3   OH242874   6.309   3.224   5.216 -0.2331  0.3796  0.6107
14312TIP3    H142875   6.315   3.271   5.299 -0.0026  2.2480 -0.4339
14312TIP3    H242876   6.399   3.216   5.186 -0.4619  1.4542 -0.3930
14313TIP3   OH242877   3.748   0.858   0.365  0.5986  0.4828  0.2803
14313TIP3    H142878   3.662   0.820   0.349  0.5778  0.6896 -0.1048
14313TIP3    H242879   3.732   0.933   0.421  0.5023  0.6413  0.0436
14314TIP3   OH242880   8.052   5.028   6.283 -0.3920 -0.3578 -0.1044
14314TIP3    H142881   8.045   4.946   6.331 -1.8505 -0.6290 -0.7709
14314TIP3    H242882   7.964   5.066   6.286  0.1231  0.8905 -0.3280
14315TIP3   OH242883   3.612   7.104   3.333 -0.3069  0.0325  0.1379
14315TIP3    H142884   3.633   7.116   3.240  0.9651 -1.1824  0.2503
14315TIP3    H242885   3.693   7.124   3.379  0.0697 -2.7191  0.7398
14316TIP3   OH242886   5.631   2.897   3.205 -0.0275  0.5752 -0.2231
14316TIP3    H142887   5.640   2.804   3.225  1.2967  0.7881  0.2041
14316TIP3    H242888   5.545   2.905   3.164 -0.2817 -0.7829  0.0496
14317TIP3   OH242889   2.090   1.976   0.497 -0.4577 -0.7387  0.1923
14317TIP3    H142890   2.170   1.926   0.480  0.6445  1.3617 -1.0226
14317TIP3    H242891   2.071   2.020   0.414 -0.3123  2.3142  1.7134
14318TIP3   OH242892   4.592   1.395   2.636  0.4212  0.7563  0.2231
14318TIP3    H142893   4.634   1.311   2.619  1.4666  1.1125  0.9982
14318TIP3    H242894   4.600   1.408   2.730  0.1486  1.6498  0.1306
14319TIP3   OH242895   6.427   5.650   5.423  0.1489 -0.3430  0.3686
14319TIP3    H142896   6.473   5.708   5.483 -0.5332 -1.8839  2.4578
14319TIP3    H242897   6.339   5.642   5.460 -0.4862 -0.7883 -1.2133
14320TIP3   OH242898   7.661   3.503   6.192  0.1829 -0.4382  0.3848
14320TIP3    H142899   7.588   3.442   6.183  1.1004 -1.2871 -1.7739
14320TIP3    H242900   7.707   3.497   6.108  2.1745  0.7858  1.3570
14321TIP3   OH242901   0.722   5.101   5.591 -0.4138 -0.0577  0.6737
14321TIP3    H142902   0.773   5.138   5.520 -1.5215 -0.8380 -0.5591
14321TIP3    H242903   0.692   5.177   5.642 -2.0039  0.7308 -1.3690
14322TIP3   OH242904   4.328   1.850   1.486 -0.2574 -0.1185  0.1847
14322TIP3    H142905   4.279   1.905   1.548 -0.1331  1.2487 -0.8862
14322TIP3    H242906   4.391   1.911   1.446  0.7861 -1.3579 -0.0775
14323TIP3   OH242907   5.095   1.256   0.259  0.3973  0.2807 -0.3105
14323TIP3    H142908   5.017   1.228   0.306  1.6849 -0.9012  1.1932
14323TIP3    H242909   5.148   1.302   0.324  3.0920 -3.0575  0.0550
14324TIP3   OH242910   6.432   5.525   6.381 -0.2654  0.0264 -0.3270
14324TIP3    H142911   6.443   5.439   6.340  0.6959  0.2983 -0.6464
14324TIP3    H242912   6.498   5.580   6.340 -0.0675  0.6101  0.7510
14325TIP3   OH242913   3.288   7.766   1.421 -0.4699 -0.3475  0.1859
14325TIP3    H142914   3.222   7.783   1.354  0.6072  1.3256 -0.4985
14325TIP3    H242915   3.275   7.674   1.445 -1.4986 -0.7028 -1.6297
14326TIP3   OH242916   2.748   7.928   1.391  0.0757 -0.5150  0.4065
14326TIP3    H142917   2.666   7.944   1.436  0.2999  1.1344  0.2599
14326TIP3    H242918   2.736   7.843   1.348 -0.7576 -1.2813  2.1297
14327TIP3   OH242919   5.964   3.919   6.080 -0.1032  0.1565  0.3995
14327TIP3    H142920   5.936   3.838   6.038 -1.5847  1.5096 -1.3017
14327TIP3    H242921   6.055   3.929   6.054  0.0514 -0.8765  0.5040
14328TIP3   OH242922   7.960   4.124   6.689 -0.3116 -0.1036 -0.5396
14328TIP3    H142923   7.944   4.192   6.755 -2.3578 -0.8972 -0.1894
14328TIP3    H242924   8.011   4.057   6.734 -1.1402 -0.3359  0.0571
14329TIP3   OH242925   5.637   6.247   4.068  0.2852  0.0576  0.3629
14329TIP3    H142926   5.644   6.328   4.017 -0.0508  0.7607  1.4130
14329TIP3    H242927   5.548   6.215   4.051  0.5469 -0.2962 -0.3495
14330TIP3   OH242928   1.962   3.870   0.722  0.4869 -0.3105  0.4311
14330TIP3    H142929   1.930   3.945   0.772  2.1901 -0.0167  1.1102
14330TIP3    H242930   1.968   3.901   0.632  0.0922  0.0098  0.5147
14331TIP3   OH242931   0.454   4.978   5.594  0.2277 -0.1903 -0.0414
14331TIP3    H142932   0.423   5.068   5.607  0.9585  0.2626 -1.2258
14331TIP3    H242933   0.549   4.984   5.605  0.3545 -0.6713 -0.7855
14332TIP3   OH242934   7.128   5.810   5.057  0.0545  0.2089 -0.2191
14332TIP3    H142935   7.153   5.757   5.133 -0.2209  1.5148  0.7989
14332TIP3    H242936   7.085   5.887   5.094 -0.4921  0.6486 -1.7243
14333TIP3   OH242937   8.028   4.350   6.464  0.1743  0.1140 -0.6724
14333TIP3    H142938   8.002   4.342   6.556 -0.9599 -0.0899 -0.9972
14333TIP3    H242939   7.958   4.403   6.424  1.0324  0.8163 -1.2635
14334TIP3   OH242940   6.281   5.577   4.382  0.3136  0.0878 -0.2736
14334TIP3    H142941   6.357   5.592   4.439  0.7115  0.7645 -0.9671
14334TIP3    H242942   6.288   5.485   4.357  0.5962  0.0021  0.1138
14335TIP3   OH242943   5.340   3.539   6.084 -0.9187  0.1204  0.0551
14335TIP3    H142944   5.251   3.512   6.061 -1.1919 -0.1340  1.3523
14335TIP3    H242945   5.344   3.527   6.179 -0.0774  1.8457  0.2465
14336TIP3   OH242946   8.460   4.166   6.875 -0.0842 -0.0109 -0.2385
14336TIP3    H142947   8.371   4.187   6.905  0.3399  0.5812  0.6315
14336TIP3    H242948   8.516   4.190   6.948  0.5982 -2.6240  0.1252
14337TIP3   OH242949   6.713   3.905   6.638 -0.0463  0.2150 -0.1422
14337TIP3    H142950   6.636   3.897   6.694  0.9849  0.9141  1.4203
14337TIP3    H242951   6.775   3.840   6.671  0.6056  0.6938 -0.3915
14338TIP3   OH242952   5.212   0.880   1.808 -0.4999  0.5090  0.7808
14338TIP3    H142953   5.260   0.798   1.821 -1.1302  0.1508  0.8694
14338TIP3    H242954   5.131   0.869   1.858 -1.2338  0.6206 -0.3690
14339TIP3   OH242955   3.260   1.458   1.686 -0.0035 -0.5082 -0.5004
14339TIP3    H142956   3.353   1.468   1.665 -0.1009  1.7204  0.0119
14339TIP3    H242957   3.214   1.475   1.604 -0.0671  0.8450 -0.1825
14340TIP3   OH242958   7.076   5.237   6.404  0.0678 -0.4231  0.2476
14340TIP3    H142959   7.034   5.297   6.466 -0.1387  0.3528 -0.6376
14340TIP3    H242960   7.018   5.160   6.403 -0.5855  0.0675  0.0867
14341TIP3   OH242961   6.936   4.217   6.158  0.2523  0.2105  0.1429
14341TIP3    H142962   6.952   4.203   6.064  1.3436  0.0127  0.3630
14341TIP3    H242963   7.017   4.254   6.191  1.2758 -3.2699  1.7709
14342TIP3   OH242964   7.491   3.924   3.910 -0.3920 -0.1709 -0.2490
14342TIP3    H142965   7.429   3.894   3.844 -1.0856 -1.7146  1.0651
14342TIP3    H242966   7.463   3.882   3.991 -0.1325  2.4114  1.2604
14343TIP3   OH242967   0.146   7.468   4.216 -0.4167 -0.1149  0.8260
14343TIP3    H142968   0.138   7.518   4.297 -1.2899 -0.2053  0.8103
14343TIP3    H242969   0.064   7.485   4.169 -0.1683 -0.5202  0.2293
14344TIP3   OH242970   7.644   2.849   4.013  0.0143 -0.6507  0.3271
14344TIP3    H142971   7.669   2.759   3.991 -0.1968 -0.2053 -1.7809
14344TIP3    H242972   7.712   2.903   3.973  1.0607  0.0892  2.9775
14345TIP3   OH242973   5.892   1.702   2.611 -0.3311  0.4891 -0.2041
14345TIP3    H142974   5.850   1.623   2.645 -0.8273  0.4388 -0.9277
14345TIP3    H242975   5.825   1.770   2.618  0.8413  1.4341  2.6512
14346TIP3   OH242976   6.493   2.717   2.862  0.1773  0.0861  0.3943
14346TIP3    H142977   6.568   2.769   2.891 -0.5527  1.1327  0.4276
14346TIP3    H242978   6.527   2.665   2.789  0.9396  0.5472  0.4174
14347TIP3   OH242979   8.047   3.391   1.483  0.3517  0.6301 -0.0180
14347TIP3    H142980   8.139   3.399   1.507  0.0680  1.5576  0.7522
14347TIP3    H242981   8.039   3.302   1.450  1.1592 -0.0229  1.4995
14348TIP3   OH242982   6.911   2.434   0.602 -0.1057 -0.2745  0.1655
14348TIP3    H142983   6.895   2.365   0.667 -1.1999  1.1050  1.4088
14348TIP3    H242984   6.905   2.390   0.518 -0.9997 -1.6659  0.9400
14349TIP3   OH242985   7.792   2.182   3.231 -0.1379  0.4988  0.4898
14349TIP3    H142986   7.800   2.273   3.202  0.7888  0.1509 -0.3719
14349TIP3    H242987   7.795   2.131   3.150  1.9145 -0.4495  1.1312
14350TIP3   OH242988   6.505   4.408   2.942 -0.3514 -0.8451 -0.2046
14350TIP3    H142989   6.491   4.492   2.986 -0.6675 -0.4797 -0.9816
14350TIP3    H242990   6.423   4.361   2.954 -0.9158 -0.2145 -1.5310
14351TIP3   OH242991   3.755   7.257   1.384 -0.0553  0.5928  0.4948
14351TIP3    H142992   3.786   7.330   1.438 -0.2199  2.4058 -1.7836
14351TIP3    H242993   3.835   7.221   1.345 -0.0405 -0.0523  1.1081
14352TIP3   OH242994   1.400   7.080   6.155 -0.5011 -0.1081  0.0514
14352TIP3    H142995   1.349   7.143   6.206 -0.5446  0.7483 -1.0295
14352TIP3    H242996   1.489   7.115   6.155 -0.7831  0.6322 -1.6176
14353TIP3   OH242997   0.886   2.324   2.488  0.3865  0.4048  0.2036
14353TIP3    H142998   0.964   2.310   2.541  0.0161  0.9054  0.8877
14353TIP3    H242999   0.917   2.318   2.398  1.0272 -0.4189  0.4652
14354TIP3   OH243000   5.961   1.391   2.683  0.0176 -0.3254  0.4212
14354TIP3    H143001   6.025   1.374   2.613 -1.6870  2.2378 -1.8542
14354TIP3    H243002   6.012   1.388   2.763  2.3179 -1.9064 -1.0202
14355TIP3   OH243003   6.483   1.744   2.583  0.4140  0.1646 -0.0403
14355TIP3    H143004   6.504   1.694   2.662  1.4702  1.2979  0.4026
14355TIP3    H243005   6.418   1.808   2.612  0.7116  0.5028 -0.1155
14356TIP3   OH243006   7.372   0.384   1.799 -0.0993  0.1669  0.4074
14356TIP3    H143007   7.367   0.295   1.765  2.3083  0.1879 -0.0882
14356TIP3    H243008   7.336   0.377   1.888 -1.8761 -0.8545 -0.3625
14357TIP3   OH243009   6.630   1.446   1.009  0.1194 -0.0693 -0.4964
14357TIP3    H143010   6.642   1.351   1.014 -1.5857 -0.3122 -1.0411
14357TIP3    H243011   6.688   1.481   1.078 -1.0255 -1.6380  1.3009
14358TIP3   OH243012   5.232   0.838   3.649 -0.4624 -0.1831 -0.1876
14358TIP3    H143013   5.234   0.929   3.678  0.5005 -0.1910 -0.2320
14358TIP3    H243014   5.323   0.815   3.633 -0.7661 -0.9121 -0.9443
14359TIP3   OH243015   0.288   2.940   3.751  0.5490  0.1714  0.1680
14359TIP3    H143016   0.208   2.928   3.802  0.2436  0.8736 -0.1362
14359TIP3    H243017   0.352   2.885   3.794  0.5492  1.4752  1.8967
14360TIP3   OH243018   2.393   7.841   6.663 -1.0015  0.5893  0.0522
14360TIP3    H143019   2.401   7.847   6.567 -0.0364  1.4992  0.1854
14360TIP3    H243020   2.454   7.906   6.696 -0.6694 -0.3607  1.3228
14361TIP3   OH243021   6.700   2.150   0.954 -0.1162  0.1521 -0.3638
14361TIP3    H143022   6.741   2.210   0.892 -0.4878  0.8500  0.0680
14361TIP3    H243023   6.627   2.111   0.906  0.2036 -0.0483 -0.6838
14362TIP3   OH243024   5.383   1.094   1.199  0.2402 -0.7774 -0.2196
14362TIP3    H143025   5.298   1.092   1.242  0.0569 -0.6270 -0.5716
14362TIP3    H243026   5.378   1.026   1.132 -0.1117  0.1773 -1.1812
14363TIP3   OH243027   7.844   1.957   2.214 -0.1146 -0.4740  0.0455
14363TIP3    H143028   7.829   1.887   2.278 -2.5253 -0.0319  0.0258
14363TIP3    H243029   7.793   2.031   2.248  0.7364  0.6184 -1.0135
14364TIP3   OH243030   7.008   1.765   2.197  0.3730  0.5140  0.3097
14364TIP3    H143031   7.042   1.711   2.268 -0.0395  0.3786  0.4040
14364TIP3    H243032   7.005   1.853   2.233  0.7169  0.5441  0.2682
14365TIP3   OH243033   1.145   5.254   6.533  0.2032 -0.1535 -0.2285
14365TIP3    H143034   1.167   5.177   6.586  1.9768  0.0542 -0.6127
14365TIP3    H243035   1.107   5.218   6.453 -0.4513 -0.5566  0.2557
14366TIP3   OH243036   1.587   6.658   6.582  0.1870  0.4389  0.2807
14366TIP3    H143037   1.672   6.638   6.542 -0.2295  0.4333 -0.6122
14366TIP3    H243038   1.608   6.677   6.674  1.0217 -0.6169  0.3237
14367TIP3   OH243039   2.019   7.802   1.117  0.1171  0.1662  0.4838
14367TIP3    H143040   2.040   7.844   1.200  0.1428 -0.8822  1.0091
14367TIP3    H243041   1.963   7.729   1.140 -1.0825  0.7267 -0.5656
14368TIP3   OH243042   7.560   3.252   0.285  0.2542 -0.3120 -0.2494
14368TIP3    H143043   7.628   3.259   0.218 -0.6903  0.1816 -1.1553
14368TIP3    H243044   7.489   3.203   0.243 -0.3767  0.0731  0.3616
14369TIP3   OH243045   0.069   2.761   2.166 -0.1659  0.2848 -0.1789
14369TIP3    H143046   0.045   2.686   2.112 -0.9396 -0.8488  1.6827
14369TIP3    H243047   0.137   2.806   2.116 -0.2396 -1.2166 -1.6775
14370TIP3   OH243048   6.337   2.738   0.774  0.0783 -0.2819 -0.0092
14370TIP3    H143049   6.372   2.706   0.691  3.2088 -0.2787  1.2298
14370TIP3    H243050   6.317   2.660   0.824  2.4614 -0.3658  0.8927
14371TIP3   OH243051   1.398   6.215   6.267  0.3075 -0.0709 -0.1329
14371TIP3    H143052   1.390   6.300   6.311  0.3314  0.0105 -0.2870
14371TIP3    H243053   1.412   6.153   6.338 -1.0564 -0.1369  0.0877
14372TIP3   OH243054   7.679   3.072   0.441 -0.4786 -0.0012 -0.2853
14372TIP3    H143055   7.646   3.155   0.406 -1.1573 -0.7834 -1.5331
14372TIP3    H243056   7.773   3.085   0.447 -0.6453  1.0784  0.1045
14373TIP3   OH243057   6.303   2.550   2.657  0.7975  0.3322  0.2113
14373TIP3    H143058   6.213   2.534   2.627  1.0700 -0.0137 -0.4223
14373TIP3    H243059   6.309   2.504   2.741  0.9345 -1.1720 -0.6023
14374TIP3   OH243060   5.230   1.992   1.866 -0.5068 -0.3887  0.2064
14374TIP3    H143061   5.152   1.936   1.860 -0.3771 -0.5621  0.1488
14374TIP3    H243062   5.300   1.940   1.828 -0.1382 -0.6447  1.2292
14375TIP3   OH243063   0.728   4.227   0.263 -0.1134  0.3103  0.4620
14375TIP3    H143064   0.823   4.229   0.258 -0.0717  1.3994  1.4297
14375TIP3    H243065   0.709   4.167   0.335 -0.1753 -0.2416 -0.0103
14376TIP3   OH243066   1.498   6.474   6.879 -0.6588 -0.2483 -0.3400
14376TIP3    H143067   1.424   6.524   6.846 -0.1326  0.3583 -0.6260
14376TIP3    H243068   1.574   6.511   6.833  0.1263  0.8563  1.8030
14377TIP3   OH243069   7.483   1.065   0.058  0.0772 -0.1081 -0.2163
14377TIP3    H143070   7.573   1.035   0.067 -0.2968 -0.8302  1.2349
14377TIP3    H243071   7.449   1.018  -0.018 -0.0324 -2.2398  1.1085
14378TIP3   OH243072   7.435   2.930   3.157 -0.3930  0.3454 -0.1593
14378TIP3    H143073   7.403   2.975   3.235 -0.3323  0.0351  0.0451
14378TIP3    H243074   7.528   2.913   3.174 -0.4659 -0.0560 -0.1371
14379TIP3   OH243075   8.002   2.672   1.564  0.3220 -0.1467 -0.5051
14379TIP3    H143076   7.916   2.690   1.526  1.0884  1.5848 -1.5128
14379TIP3    H243077   8.007   2.577   1.572 -0.7168 -0.3991 -2.7425
14380TIP3   OH243078   7.990   3.038   1.011 -0.3206  0.4111  0.2668
14380TIP3    H143079   8.064   3.076   0.965  1.6100  0.2246  3.0871
14380TIP3    H243080   7.990   2.945   0.985 -1.4315  1.0200 -2.0279
14381TIP3   OH243081   5.911   1.452   0.683 -0.2744  0.4457 -0.8121
14381TIP3    H143082   5.962   1.533   0.682  0.5475 -0.0725 -1.9419
14381TIP3    H243083   5.964   1.390   0.633 -0.3946 -1.0905  0.9330
14382TIP3   OH243084   6.482   3.086   0.222 -0.0658 -0.0963 -0.4788
14382TIP3    H143085   6.526   3.063   0.140 -2.7132 -0.3670 -1.8822
14382TIP3    H243086   6.457   3.178   0.212 -1.4813 -0.4650 -0.5298
14383TIP3   OH243087   4.129   7.202   6.400 -0.4449 -0.2440 -0.2762
14383TIP3    H143088   4.193   7.161   6.459  0.1904  0.3766 -0.5210
14383TIP3    H243089   4.048   7.154   6.416 -0.3574  0.0918  1.3153
14384TIP3   OH243090   0.389   2.698   2.739  0.9274  0.7840  0.5817
14384TIP3    H143091   0.382   2.777   2.686  2.0268 -0.8651 -2.1725
14384TIP3    H243092   0.298   2.670   2.753  0.5630  2.2439  1.1581
14385TIP3   OH243093   7.977   3.236   0.583 -0.1755  0.2270 -0.2133
14385TIP3    H143094   7.919   3.181   0.635 -0.8931  0.5388 -0.6689
14385TIP3    H243095   7.977   3.196   0.496 -1.9872  1.8345 -0.9903
14386TIP3   OH243096   5.787   1.173   1.194 -0.1397 -0.1264 -0.1733
14386TIP3    H143097   5.719   1.214   1.246 -0.0825  0.4541 -0.5464
14386TIP3    H243098   5.818   1.243   1.136  4.2451  1.1659  3.3467
14387TIP3   OH243099   7.993   3.075   1.312 -0.2679  0.4967 -0.0607
14387TIP3    H143100   7.983   3.072   1.217 -0.2315 -1.9003 -0.0199
14387TIP3    H243101   8.070   3.022   1.330  1.5136  3.3658  1.1152
14388TIP3   OH243102   2.168   4.439   0.364 -0.4576  0.1767 -0.2688
14388TIP3    H143103   2.226   4.364   0.352  0.5860  0.8919  0.2256
14388TIP3    H243104   2.173   4.487   0.282  1.3218  1.3797  0.5255
14389TIP3   OH243105   1.043   3.323   0.402 -0.2772  0.3451 -0.8240
14389TIP3    H143106   1.105   3.287   0.465 -0.4676 -0.6846 -1.2154
14389TIP3    H243107   0.995   3.247   0.370 -2.6226  1.2396  0.4034
14390TIP3   OH243108   1.750   3.454   2.038  0.1159 -0.0301 -0.0882
14390TIP3    H143109   1.742   3.364   2.005 -2.8235 -0.7763  2.4160
14390TIP3    H243110   1.845   3.467   2.049  0.6740 -2.3190 -1.7149
14391TIP3   OH243111   8.279   0.843   0.641 -0.5663  0.2449  0.2903
14391TIP3    H143112   8.285   0.901   0.716  1.3580  2.2402 -1.3456
14391TIP3    H243113   8.365   0.847   0.600 -1.1400 -1.8914 -1.2444
14392TIP3   OH243114   0.450   1.447   3.023  0.0239  0.2437 -0.5150
14392TIP3    H143115   0.412   1.519   3.073  1.1285  0.9902 -0.7259
14392TIP3    H243116   0.414   1.456   2.935  0.8287  1.0745 -0.7680
14393TIP3   OH243117   1.236   1.880   0.302 -0.2840 -0.5786  0.1027
14393TIP3    H143118   1.331   1.891   0.306 -0.1225 -1.9053  0.1581
14393TIP3    H243119   1.214   1.889   0.210 -0.3693  1.6871  0.3175
14394TIP3   OH243120   7.116   1.905   1.863 -0.4068 -0.1793  0.0151
14394TIP3    H143121   7.200   1.929   1.823  1.5053 -2.4014  2.4852
14394TIP3    H243122   7.113   1.809   1.858 -2.6234 -0.1638  0.3492
14395TIP3   OH243123   2.571   5.268   6.409 -0.1025  0.1171 -0.1150
14395TIP3    H143124   2.516   5.270   6.488  0.3540 -0.1709  0.2166
14395TIP3    H243125   2.540   5.341   6.356 -1.2331 -0.4218 -0.2210
14396TIP3   OH243126   2.647   2.530   2.777  0.2224  0.3840 -0.4232
14396TIP3    H143127   2.554   2.522   2.755  0.3266 -0.1364 -0.6870
14396TIP3    H243128   2.670   2.621   2.755 -0.0140  0.2653 -1.1723
14397TIP3   OH243129   7.901   1.634   2.201 -0.1675  0.6704 -0.3486
14397TIP3    H143130   7.985   1.616   2.158  0.2146 -0.7104  0.9281
14397TIP3    H243131   7.837   1.631   2.130  0.4591 -1.5105 -0.8753
14398TIP3   OH243132   6.028   2.945   2.526 -0.3233 -0.6261 -0.2415
14398TIP3    H143133   6.003   3.003   2.454  0.8361  0.5195  0.2625
14398TIP3    H243134   6.024   2.857   2.487  1.3411  0.0535 -2.0516
14399TIP3   OH243135   0.533   4.981   1.927 -0.0886  0.4711 -0.2259
14399TIP3    H143136   0.583   4.937   1.859  1.2171  0.5304  0.6775
14399TIP3    H243137   0.507   4.911   1.987  0.2884  0.6549  0.1563
14400TIP3   OH243138   2.662   3.074   2.110  0.3008  0.0659 -0.4097
14400TIP3    H143139   2.589   3.136   2.104  0.3832  0.3342  1.0820
14400TIP3    H243140   2.622   2.992   2.141  0.1640 -0.6919 -2.5427
14401TIP3   OH243141   1.294   1.645   1.044  0.0639  0.0848 -0.1559
14401TIP3    H143142   1.286   1.562   0.997  1.4613 -0.1617  0.0238
14401TIP3    H243143   1.271   1.711   0.978 -1.0804 -0.4425 -0.2896
14402TIP3   OH243144   2.377   3.781   1.821  0.1012  0.1730 -0.1454
14402TIP3    H143145   2.348   3.728   1.747 -0.7885 -1.9223  1.6164
14402TIP3    H243146   2.473   3.780   1.816  0.0835 -1.3093 -0.3597
14403TIP3   OH243147   2.369   4.920   1.099  0.5573  0.1519 -0.0597
14403TIP3    H143148   2.324   4.844   1.135  0.0787 -0.6270 -2.2533
14403TIP3    H243149   2.304   4.991   1.105  0.7779  0.2475  1.3679
14404TIP3   OH243150   8.278   2.997   3.066  0.1096 -0.6586 -0.2268
14404TIP3    H143151   8.202   3.054   3.060 -0.2906 -1.1762 -0.1500
14404TIP3    H243152   8.281   2.970   3.158 -0.5992 -1.9652 -0.5782
14405TIP3   OH243153   7.390   3.550   1.137  0.5675  0.5110 -0.2962
14405TIP3    H143154   7.427   3.634   1.166  0.8735  0.2420  0.1112
14405TIP3    H243155   7.440   3.484   1.186 -0.2176  0.1240 -0.0119
14406TIP3   OH243156   2.992   3.015   1.420  0.7702 -0.3692  0.4814
14406TIP3    H143157   3.026   3.059   1.498  0.1928 -0.8849  1.0287
14406TIP3    H243158   2.986   3.085   1.354 -0.2101  0.3907  1.3562
14407TIP3   OH243159   2.199   3.113   1.500  0.4639 -0.0706  0.0287
14407TIP3    H143160   2.182   3.021   1.516  0.5251 -0.2069 -0.6568
14407TIP3    H243161   2.271   3.114   1.437  2.0916  0.4856  1.8533
14408TIP3   OH243162   0.246   0.493   2.234 -0.6990  0.1668 -0.2110
14408TIP3    H143163   0.231   0.411   2.187 -0.6671  0.0013  0.0627
14408TIP3    H243164   0.329   0.526   2.200 -0.2851 -0.3518  0.2889
14409TIP3   OH243165   7.802   2.194   0.782  0.1132 -0.4601  0.8857
14409TIP3    H143166   7.866   2.192   0.711  0.1441 -0.5436  0.9160
14409TIP3    H243167   7.848   2.155   0.857  0.2265  0.0263  1.0711
14410TIP3   OH243168   8.095   2.290   0.066 -0.3926  0.6036  0.2854
14410TIP3    H143169   8.019   2.342   0.040 -0.1312  0.8696  0.0460
14410TIP3    H243170   8.170   2.342   0.038 -0.1335 -0.7196 -1.5482
14411TIP3   OH243171   7.299   2.547   0.768 -0.3553 -0.5893  0.1175
14411TIP3    H143172   7.363   2.541   0.697  1.1405  3.1052  1.0293
14411TIP3    H243173   7.257   2.632   0.756 -1.9178 -1.0445  2.1473
14412TIP3   OH243174   8.079   1.706   1.103 -0.2830  0.0848  0.6241
14412TIP3    H143175   8.134   1.708   1.025 -2.3702  1.4065 -0.8878
14412TIP3    H243176   8.079   1.614   1.131  2.9728  0.1351  0.9403
14413TIP3   OH243177   3.352   6.481   6.426  0.1085  0.3012 -0.2360
14413TIP3    H143178   3.286   6.550   6.435  0.8623  0.9121  0.7259
14413TIP3    H243179   3.323   6.430   6.350 -1.9023  0.0838  0.6256
14414TIP3   OH243180   1.503   7.100   6.828  0.1714  0.3712  0.1625
14414TIP3    H143181   1.448   7.178   6.838  0.7209  0.6041  1.3884
14414TIP3    H243182   1.440   7.029   6.815 -0.3787  0.8344  0.2403
14415TIP3   OH243183   0.809   6.063   6.620  0.5149 -0.5614 -0.4519
14415TIP3    H143184   0.736   6.114   6.654  0.1809  0.0083 -1.9757
14415TIP3    H243185   0.882   6.124   6.619  0.7799 -0.8693  0.2074
14416TIP3   OH243186   7.778   4.598   1.562  0.4108 -0.0267  0.0134
14416TIP3    H143187   7.860   4.632   1.527  1.5005 -1.8926  0.6970
14416TIP3    H243188   7.729   4.676   1.587  2.2713  1.0950  0.2621
14417TIP3   OH243189   1.480   5.854   6.885  0.9885 -0.3858 -0.2917
14417TIP3    H143190   1.460   5.776   6.936 -0.6790  0.1855 -0.0593
14417TIP3    H243191   1.540   5.905   6.940  0.3877 -0.4866  0.4528
14418TIP3   OH243192   0.137   2.650   2.841 -0.4245  0.8278 -0.6156
14418TIP3    H143193   0.056   2.701   2.851 -1.5713 -0.9092 -0.8180
14418TIP3    H243194   0.147   2.607   2.926  0.2592  0.9771 -0.6223
14419TIP3   OH243195   5.675   5.249   6.928 -0.1505  0.0912 -0.3028
14419TIP3    H143196   5.651   5.156   6.920  0.2269  0.0741 -1.3964
14419TIP3    H243197   5.596   5.296   6.904 -0.3740  0.0515  0.3549
14420TIP3   OH243198   7.069   2.375   0.356  0.4189  0.4614 -0.3084
14420TIP3    H143199   7.136   2.438   0.329  2.0290 -1.3903 -0.6897
14420TIP3    H243200   7.107   2.332   0.433  1.0260 -2.7294 -2.2978
14421TIP3   OH243201   1.473   5.944   6.198  0.1483  0.3731 -0.1271
14421TIP3    H143202   1.419   5.893   6.137 -1.2893  0.3464  1.1540
14421TIP3    H243203   1.436   6.032   6.197  1.2511  0.8439 -0.6511
14422TIP3   OH243204   7.286   2.746   0.531  0.1842  0.4437 -0.0009
14422TIP3    H143205   7.229   2.822   0.543  0.6559  0.6157  1.2444
14422TIP3    H243206   7.371   2.783   0.510 -0.0059  0.2016 -1.2331
14423TIP3   OH243207   0.673   3.293   0.035 -0.0427  0.1650  0.1372
14423TIP3    H143208   0.663   3.244  -0.047 -3.1322  1.5861 -0.3969
14423TIP3    H243209   0.635   3.237   0.102 -3.0431  1.4981 -0.3841
14424TIP3   OH243210   8.117   5.026   0.461  0.2588 -0.4997 -0.0107
14424TIP3    H143211   8.165   4.995   0.384  2.0167 -1.8719  1.5809
14424TIP3    H243212   8.031   4.987   0.453  0.1672  0.0108 -1.6737
14425TIP3   OH243213   1.146   3.432   3.084  0.2203  0.2365 -0.4813
14425TIP3    H143214   1.112   3.521   3.072 -1.3108 -0.1403  1.0274
14425TIP3    H243215   1.070   3.375   3.073  0.1834 -0.5811  3.4812
14426TIP3   OH243216   0.917   2.963   0.494 -0.4496 -0.3001 -0.2142
14426TIP3    H143217   0.882   3.051   0.490 -3.7024 -1.4213  1.8213
14426TIP3    H243218   0.978   2.965   0.567  0.3642  0.5065 -0.8962
14427TIP3   OH243219   7.976   1.209   2.999  0.1175 -0.2284 -0.1568
14427TIP3    H143220   7.922   1.196   3.077  0.5463 -2.1931 -0.1551
14427TIP3    H243221   8.032   1.283   3.021 -1.1280  0.5048  0.6351
14428TIP3   OH243222   8.158   2.522   2.132  0.5021 -0.1455 -0.2538
14428TIP3    H143223   8.191   2.547   2.045 -2.1986  0.6793 -1.1063
14428TIP3    H243224   8.157   2.604   2.181  0.1903 -0.2538 -0.0802
14429TIP3   OH243225   7.588   1.108   0.335  0.4041 -0.2112 -0.2910
14429TIP3    H143226   7.560   1.063   0.255 -2.2689 -0.2307  0.6110
14429TIP3    H243227   7.624   1.038   0.390  0.0307 -0.5945 -0.5280
14430TIP3   OH243228   0.011   1.802   0.794  0.0679  0.0154 -0.5108
14430TIP3    H143229   0.066   1.726   0.779  0.6770 -0.1120  2.1911
14430TIP3    H243230   0.072   1.875   0.800 -0.3024  0.3061 -0.2859
14431TIP3   OH243231   0.608   1.640   2.723 -0.7068 -0.1810  0.2086
14431TIP3    H143232   0.656   1.715   2.758  0.2516 -0.0831 -1.2863
14431TIP3    H243233   0.601   1.657   2.629 -0.9027 -1.7166 -0.0701
14432TIP3   OH243234   3.965   5.689   5.953 -0.0762  0.0186 -0.6769
14432TIP3    H143235   3.981   5.608   6.002  0.7384 -1.0690 -2.6703
14432TIP3    H243236   3.921   5.747   6.015 -0.0742 -1.7213  0.9810
14433TIP3   OH243237   1.648   6.206   5.544 -0.7908  0.0559  0.1546
14433TIP3    H143238   1.636   6.114   5.570 -1.8419  0.1407 -0.0144
14433TIP3    H243239   1.576   6.252   5.586 -0.4442  0.7623 -0.0224
14434TIP3   OH243240   0.474   2.862   1.604 -0.2861 -0.1900  0.1404
14434TIP3    H143241   0.519   2.884   1.522 -1.2004  0.3140 -0.2349
14434TIP3    H243242   0.383   2.889   1.589 -0.2661  0.7232  1.6645
14435TIP3   OH243243   1.020   5.375   6.803  0.8215  0.0192  0.2784
14435TIP3    H143244   1.077   5.425   6.862 -1.1684  0.0700  2.2416
14435TIP3    H243245   1.025   5.285   6.836 -0.8125  0.1636  1.0170
14436TIP3   OH243246   7.868   3.097   1.862 -0.2579 -0.2256 -0.4482
14436TIP3    H143247   7.873   3.029   1.929  0.1557  1.4131  1.2257
14436TIP3    H243248   7.904   3.055   1.783  0.3946 -1.8046  0.6569
14437TIP3   OH243249   3.525   5.639   6.041  0.6383 -0.0833  0.0113
14437TIP3    H143250   3.526   5.560   5.987  0.4923  0.3503 -0.6332
14437TIP3    H243251   3.502   5.709   5.980  2.1699  0.6732  0.2723
14438TIP3   OH243252   1.378   3.075   1.565  0.2331  0.3521 -0.2234
14438TIP3    H143253   1.391   3.168   1.549 -0.8709  1.0559  2.7993
14438TIP3    H243254   1.436   3.055   1.638 -1.6682 -0.6714  1.0443
14439TIP3   OH243255   0.081   2.813   1.215  0.4170 -0.0403 -0.6803
14439TIP3    H143256  -0.014   2.820   1.222  0.3983 -1.8004  1.2253
14439TIP3    H243257   0.115   2.888   1.265  0.0495 -0.5007  0.2619
14440TIP3   OH243258   1.984   5.070   1.760 -0.7244 -0.2380  0.0414
14440TIP3    H143259   2.000   5.017   1.838 -2.8230 -3.1849 -1.4223
14440TIP3    H243260   1.934   5.146   1.792  1.5327  0.4380  2.0332
14441TIP3   OH243261   0.771   6.681   6.602  0.4078  0.0868  0.3737
14441TIP3    H143262   0.695   6.623   6.613  0.7502 -0.2297  1.0845
14441TIP3    H243263   0.823   6.669   6.681  1.0610  0.5176  0.0215
14442TIP3   OH243264   3.753   0.095   2.300 -0.0169 -0.3496 -0.6813
14442TIP3    H143265   3.813   0.041   2.352 -1.1269 -1.7432 -0.7976
14442TIP3    H243266   3.806   0.168   2.270  1.9435 -2.1132 -1.6890
14443TIP3   OH243267   0.747   4.231   6.004 -0.0506 -0.1980  0.0238
14443TIP3    H143268   0.800   4.250   6.081  0.7732  0.0803 -0.6031
14443TIP3    H243269   0.657   4.227   6.037  0.0440  2.1148  0.6285
14444TIP3   OH243270   8.067   2.326   2.286 -0.3362 -0.0010 -0.7164
14444TIP3    H143271   8.116   2.380   2.224  0.2363  0.3740  0.0448
14444TIP3    H243272   8.056   2.383   2.362 -0.6403 -0.6065 -0.3079
14445TIP3   OH243273   7.346   1.804   1.077  0.0378 -0.0160 -0.1479
14445TIP3    H143274   7.360   1.734   1.013  1.6660 -1.9368  2.1797
14445TIP3    H243275   7.251   1.802   1.093 -0.1514 -0.6243 -1.2752
14446TIP3   OH243276   4.168   6.552   6.231 -0.1944  0.6093  0.0234
14446TIP3    H143277   4.126   6.572   6.147  0.5849  0.9800 -0.2833
14446TIP3    H243278   4.219   6.472   6.214  0.9632  1.3759 -0.2121
14447TIP3   OH243279   6.856   4.150   1.799  0.5743 -0.4721  0.4855
14447TIP3    H143280   6.862   4.188   1.886  0.6318  1.8425 -0.5006
14447TIP3    H243281   6.934   4.096   1.791  0.2528 -1.2140  2.0846
14448TIP3   OH243282   8.193   2.858   1.252 -0.2027  0.4996  0.5548
14448TIP3    H143283   8.172   2.766   1.263  0.2372  0.4679  1.1945
14448TIP3    H243284   8.191   2.873   1.157  1.8395 -0.6892  0.2859
14449TIP3   OH243285   1.861   4.600   5.830 -0.9756  0.3055  0.4954
14449TIP3    H143286   1.785   4.573   5.777 -0.2015 -0.6477 -0.1523
14449TIP3    H243287   1.926   4.629   5.765  0.2998 -1.6724  0.8515
14450TIP3   OH243288   6.432   1.812   0.714  0.3057  0.1209  0.5254
14450TIP3    H143289   6.355   1.796   0.659 -0.1265  0.0663  1.1307
14450TIP3    H243290   6.505   1.814   0.654 -0.1201 -0.2834 -0.0091
14451TIP3   OH243291   1.825   2.713   1.923 -0.0741 -0.0794 -0.3145
14451TIP3    H143292   1.774   2.634   1.906 -2.3393  0.4273  3.4176
14451TIP3    H243293   1.761   2.784   1.920  1.4372  1.2950 -0.9255
14452TIP3   OH243294   6.644   4.532   2.114  0.2624  0.3440  0.4580
14452TIP3    H143295   6.591   4.553   2.191  0.3937 -1.2907  1.0031
14452TIP3    H243296   6.592   4.565   2.040 -2.2837 -2.5649  0.8537
14453TIP3   OH243297   7.662   1.422   0.004  0.7303  0.2058 -0.2885
14453TIP3    H143298   7.698   1.333   0.005 -0.5976 -0.3479 -0.2506
14453TIP3    H243299   7.688   1.459   0.088  0.0991 -0.6443  0.2899
14454TIP3   OH243300   2.211   2.568   2.375  0.0455 -0.2275  0.1095
14454TIP3    H143301   2.301   2.536   2.378 -0.1598 -1.7457 -4.6782
14454TIP3    H243302   2.220   2.662   2.355  0.5907 -0.1854  0.5574
14455TIP3   OH243303   8.325   5.574   0.378  0.2470  0.3638 -0.6945
14455TIP3    H143304   8.386   5.607   0.312  0.6709 -1.5580 -1.2977
14455TIP3    H243305   8.256   5.531   0.328 -0.0030 -0.1471  0.0760
14456TIP3   OH243306   0.413   3.160   2.337 -0.4216  0.0870 -0.0681
14456TIP3    H143307   0.465   3.212   2.398 -1.1835  1.3856 -0.4945
14456TIP3    H243308   0.419   3.209   2.254 -3.3485  0.9669  0.1906
14457TIP3   OH243309   3.419   6.174   6.440 -0.3472 -0.3686  0.3659
14457TIP3    H143310   3.333   6.210   6.417 -0.5041 -1.6465 -1.1146
14457TIP3    H243311   3.399   6.091   6.485  0.1084 -0.6104  0.1228
14458TIP3   OH243312   1.292   5.465   4.949 -0.4212 -0.1691 -0.6207
14458TIP3    H143313   1.259   5.380   4.921 -3.2670  0.1101  1.6669
14458TIP3    H243314   1.243   5.529   4.898  1.0345  0.1487 -1.6489
14459TIP3   OH243315   8.351   1.491   3.353 -0.9905 -0.4928  0.4225
14459TIP3    H143316   8.283   1.479   3.287 -0.4811 -0.1982 -0.1636
14459TIP3    H243317   8.353   1.585   3.369 -0.5454 -0.4696  0.2470
14460TIP3   OH243318   2.267   6.890   6.655  0.5731  0.4665 -0.2727
14460TIP3    H143319   2.188   6.901   6.602  1.3565  1.7278 -1.1996
14460TIP3    H243320   2.265   6.963   6.717 -0.0871 -0.7238  1.1387
14461TIP3   OH243321   0.397   4.226   0.057  0.2791  0.7754  0.4070
14461TIP3    H143322   0.323   4.175   0.090 -0.4330  0.8961 -0.9912
14461TIP3    H243323   0.358   4.287  -0.005  1.5757  0.7395 -0.4573
14462TIP3   OH243324   1.794   7.075   4.368  0.7379  0.0356  0.0276
14462TIP3    H143325   1.848   7.003   4.402 -0.4646 -0.2843  1.2960
14462TIP3    H243326   1.725   7.033   4.319 -0.4751  0.2610  1.5071
14463TIP3   OH243327   6.655   1.585   1.926  0.0262 -0.3032  0.3385
14463TIP3    H143328   6.697   1.501   1.941  2.8982  1.0552  0.3700
14463TIP3    H243329   6.692   1.642   1.993 -0.8151  1.3326 -0.5522
14464TIP3   OH243330   5.582   3.613   1.215  0.0986 -0.1228 -0.5349
14464TIP3    H143331   5.553   3.615   1.124 -0.6740  0.9677 -0.2804
14464TIP3    H243332   5.657   3.553   1.216 -0.4575 -0.8344 -1.7101
14465TIP3   OH243333   1.838   2.641   6.533 -0.0717 -0.3999  0.2336
14465TIP3    H143334   1.911   2.699   6.510 -1.0879  0.7247 -0.1828
14465TIP3    H243335   1.845   2.569   6.471  1.3458 -0.8650  0.9132
14466TIP3   OH243336   7.624   1.804   0.713  0.0863 -0.4256  0.2771
14466TIP3    H143337   7.714   1.828   0.737 -0.6572  2.0196  0.7334
14466TIP3    H243338   7.594   1.747   0.783  1.2314 -1.1618  0.1828
14467TIP3   OH243339   0.384   3.584   0.271  0.5706 -0.1803 -0.2022
14467TIP3    H143340   0.295   3.559   0.248 -0.0846  0.1416  1.8396
14467TIP3    H243341   0.418   3.626   0.193 -1.0587 -0.3446 -1.0266
14468TIP3   OH243342   4.901   1.773   6.772 -0.1422  0.5249  0.0427
14468TIP3    H143343   4.857   1.826   6.705 -1.3973  1.6398  1.6999
14468TIP3    H243344   4.897   1.827   6.851 -0.2339 -1.5176  1.4479
14469TIP3   OH243345   7.640   1.685   2.077 -0.0567 -0.0980  0.0562
14469TIP3    H143346   7.614   1.694   2.169 -2.2470 -0.8393 -0.4564
14469TIP3    H243347   7.585   1.749   2.031  1.5537  0.7903 -0.6691
14470TIP3   OH243348   2.448   4.049   0.473  0.4498 -0.5189 -0.2852
14470TIP3    H143349   2.518   4.012   0.419  1.2661  0.2036  0.2849
14470TIP3    H243350   2.482   4.133   0.503 -1.1714  0.4370 -1.0754
14471TIP3   OH243351   0.923   7.106   5.684 -0.1318  0.9025 -0.6409
14471TIP3    H143352   0.988   7.166   5.648 -1.0608  0.7655 -2.6632
14471TIP3    H243353   0.974   7.032   5.716  0.7190  0.4774 -2.8467
14472TIP3   OH243354   5.919   2.766   3.725  0.6633 -0.1517 -0.1560
14472TIP3    H143355   6.007   2.732   3.741  0.9125  0.7993  0.5788
14472TIP3    H243356   5.930   2.861   3.728 -0.3903 -0.0310 -0.0465
14473TIP3   OH243357   4.133   7.203   6.036 -0.1352 -0.0692  0.0735
14473TIP3    H143358   4.173   7.290   6.039  2.3368 -1.2098  1.1369
14473TIP3    H243359   4.157   7.169   5.950  0.7589 -0.5501  0.5091
14474TIP3   OH243360   0.862   1.383   1.201 -0.0703  0.6793 -0.0456
14474TIP3    H143361   0.787   1.431   1.165 -0.3028  1.4524  1.4241
14474TIP3    H243362   0.887   1.322   1.132 -1.1322  1.4342 -1.1184
14475TIP3   OH243363   3.775   6.213   6.460 -0.2605  0.1569 -0.0798
14475TIP3    H143364   3.805   6.198   6.370 -3.0400  2.0111 -1.3750
14475TIP3    H243365   3.743   6.128   6.488 -0.6324 -0.1386 -1.3396
14476TIP3   OH243366   5.994   0.636   0.775 -0.5827 -0.3204 -0.2385
14476TIP3    H143367   5.986   0.558   0.719  0.0412 -0.6017  0.0524
14476TIP3    H243368   5.908   0.677   0.772 -0.4250 -0.0571 -1.8265
14477TIP3   OH243369   7.226   2.812   2.139 -0.7708 -0.7809  0.0619
14477TIP3    H143370   7.258   2.847   2.222  0.7082 -2.3729  0.1868
14477TIP3    H243371   7.215   2.889   2.083  0.4719  0.0669  0.9706
14478TIP3   OH243372   7.352   4.411   1.432  0.0999  0.4715  0.1205
14478TIP3    H143373   7.349   4.450   1.345  0.9560  0.9150  0.2846
14478TIP3    H243374   7.370   4.485   1.491  0.8500 -0.0228  0.5244
14479TIP3   OH243375   0.342   1.678   0.437  0.1803 -0.1333  0.0271
14479TIP3    H143376   0.327   1.606   0.375  0.1942  0.4224 -0.6307
14479TIP3    H243377   0.437   1.676   0.452 -0.0915 -1.6011  1.6787
14480TIP3   OH243378   7.179   3.293   0.896  0.1883  0.1549 -0.5771
14480TIP3    H143379   7.127   3.288   0.815 -0.8506 -0.4861  0.1058
14480TIP3    H243380   7.113   3.300   0.965  0.9718 -1.6964  0.3898
14481TIP3   OH243381   1.949   6.202   6.601 -0.0597 -0.6341  0.0619
14481TIP3    H143382   1.898   6.197   6.520  1.3073  0.5153 -0.9033
14481TIP3    H243383   2.009   6.276   6.587  1.3756 -1.4918  1.4388
14482TIP3   OH243384   0.318   5.357   6.745 -0.2994 -0.2603  0.1785
14482TIP3    H143385   0.294   5.449   6.753  2.0067  0.3668  0.4471
14482TIP3    H243386   0.294   5.319   6.830  1.2325  0.7374  1.0893
14483TIP3   OH243387   7.354   1.565   0.947 -0.5761  0.1899  0.1415
14483TIP3    H143388   7.332   1.483   0.993 -0.5281  0.0235 -0.1303
14483TIP3    H243389   7.356   1.540   0.855 -0.0547  0.3872  0.1001
14484TIP3   OH243390   0.261   2.016   2.144 -0.5758 -0.2211 -0.0589
14484TIP3    H143391   0.309   2.099   2.134 -1.2626 -0.1512 -3.2150
14484TIP3    H243392   0.329   1.949   2.143 -0.3190  0.0572 -1.5908
14485TIP3   OH243393   7.438   0.554   0.050  0.7709  0.1612  0.0572
14485TIP3    H143394   7.502   0.575  -0.018  0.0413  2.4583  0.0462
14485TIP3    H243395   7.389   0.635   0.062  1.3713  0.0227  3.8720
14486TIP3   OH243396   1.099   7.379   5.961 -0.3109  0.1676 -0.1264
14486TIP3    H143397   1.010   7.365   5.930 -0.7856  1.0918  0.8288
14486TIP3    H243398   1.146   7.414   5.885 -0.3935 -1.6160 -1.0385
14487TIP3   OH243399   0.876   3.103   0.979 -0.1375  0.5723  0.0817
14487TIP3    H143400   0.970   3.090   0.990 -0.1312 -0.5806 -1.1724
14487TIP3    H243401   0.861   3.193   1.007  0.8743 -0.1232  3.0098
14488TIP3   OH243402   0.759   3.681   1.982 -0.0105 -0.2399 -0.0731
14488TIP3    H143403   0.830   3.637   1.936 -0.4433 -1.5584  0.4957
14488TIP3    H243404   0.766   3.773   1.955  1.5924 -0.4453 -0.4027
14489TIP3   OH243405   2.992   2.839   2.092 -0.2360 -0.0791 -0.1365
14489TIP3    H143406   3.072   2.794   2.066 -0.2909 -0.2345 -0.0343
14489TIP3    H243407   2.995   2.841   2.187 -0.9470 -1.1754 -0.0781
14490TIP3   OH243408   7.601   1.462   1.757  0.1983  0.3849  0.4764
14490TIP3    H143409   7.524   1.429   1.803  0.9702 -1.7576  0.2970
14490TIP3    H243410   7.565   1.518   1.688 -1.2302 -0.8722  0.1624
14491TIP3   OH243411   0.816   2.534   0.751 -0.5198  0.7618  0.0297
14491TIP3    H143412   0.877   2.542   0.825 -1.0765 -1.5204  0.7824
14491TIP3    H243413   0.732   2.561   0.787 -0.4817  1.2344 -0.2350
14492TIP3   OH243414   7.555   2.997   2.198 -0.4066 -0.4299  0.4767
14492TIP3    H143415   7.642   2.964   2.221  0.0161 -0.3825 -0.9598
14492TIP3    H243416   7.531   3.055   2.270  0.5256 -0.8666  1.1408
14493TIP3   OH243417   7.003   2.057   2.846  0.0254  0.5205 -0.0050
14493TIP3    H143418   7.034   1.966   2.848  2.5881  1.3800  1.5868
14493TIP3    H243419   6.997   2.078   2.752  0.7277 -0.8704 -0.3723
14494TIP3   OH243420   1.908   7.211   6.048 -0.4374  0.5969 -0.6618
14494TIP3    H143421   1.936   7.125   6.015 -0.0196  0.6143 -0.3655
14494TIP3    H243422   1.935   7.273   5.981  0.6836  0.6658 -0.1648
14495TIP3   OH243423   0.123   0.766   5.355 -0.9060 -0.3685  0.0211
14495TIP3    H143424   0.131   0.847   5.406 -0.1172 -1.5368  1.8111
14495TIP3    H243425   0.057   0.786   5.289 -1.3456  1.4782  0.9769
14496TIP3   OH243426   2.163   5.528   5.097 -0.8260 -0.9937  0.5770
14496TIP3    H143427   2.147   5.622   5.105  2.0272 -0.3836 -0.2688
14496TIP3    H243428   2.208   5.505   5.179  0.9250 -1.0344 -0.3782
14497TIP3   OH243429   8.351   2.064   0.341 -0.0998 -0.4589  0.3384
14497TIP3    H143430   8.416   2.113   0.392 -1.3472  0.2536  1.2838
14497TIP3    H243431   8.403   2.006   0.285  1.3579  0.7312  0.4318
14498TIP3   OH243432   8.382   4.815   0.483 -0.0647  0.0846  0.3076
14498TIP3    H143433   8.354   4.898   0.522  1.2541  1.4131 -1.4669
14498TIP3    H243434   8.469   4.799   0.520  1.2441  1.4121 -2.0791
14499TIP3   OH243435   7.971   1.256   0.610 -0.1832  0.4491 -0.0586
14499TIP3    H143436   7.914   1.292   0.541  0.1033  0.5515 -0.2457
14499TIP3    H243437   8.034   1.326   0.628  0.5668 -0.0637 -0.6392
14500TIP3   OH243438   7.632   1.929   0.335 -0.2037 -0.8650 -0.1361
14500TIP3    H143439   7.694   1.960   0.400  1.1440 -1.0237 -1.3099
14500TIP3    H243440   7.681   1.930   0.253 -2.3674  1.0624 -1.4941
14501TIP3   OH243441   1.405   2.667   1.072 -0.1983 -0.3689  0.9542
14501TIP3    H143442   1.355   2.699   1.147 -1.7162 -0.6243  0.0749
14501TIP3    H243443   1.475   2.614   1.111  1.4748  2.7614  2.3464
14502TIP3   OH243444   1.579   3.671   0.406  0.0548  0.4305 -0.6838
14502TIP3    H143445   1.632   3.690   0.484 -1.5663 -0.8020  0.7453
14502TIP3    H243446   1.638   3.688   0.333  2.3412 -0.5792  0.8610
14503TIP3   OH243447   1.359   2.414   1.791  0.2422  0.9713  0.3038
14503TIP3    H143448   1.282   2.447   1.838 -2.7782 -1.9780 -2.2881
14503TIP3    H243449   1.405   2.360   1.855 -0.5018  1.7874  1.5573
14504TIP3   OH243450   0.589   3.399   1.138 -0.1987  0.0242  0.3915
14504TIP3    H143451   0.536   3.479   1.135 -0.0958  0.0918  0.3610
14504TIP3    H243452   0.666   3.420   1.084  0.4214  0.3268  1.3883
14505TIP3   OH243453   3.567   6.819   6.716 -0.0162 -0.0710 -0.2461
14505TIP3    H143454   3.572   6.906   6.676 -0.2470  0.2408  0.3916
14505TIP3    H243455   3.654   6.782   6.705  0.5167  0.8346  0.7967
14506TIP3   OH243456   2.560   2.826   2.158  0.2480  0.4221  0.1060
14506TIP3    H143457   2.611   2.796   2.234 -0.1059  0.2805  0.2905
14506TIP3    H243458   2.488   2.764   2.153  0.2345  0.4724 -0.3100
14507TIP3   OH243459   2.066   2.609   2.021 -0.2404 -0.4044  0.1773
14507TIP3    H143460   1.980   2.633   1.986  1.4984  0.9287 -3.3609
14507TIP3    H243461   2.095   2.535   1.967  1.0615 -0.5254  1.0086
14508TIP3   OH243462   3.222   7.128   6.234 -0.2654  0.9101 -0.0165
14508TIP3    H143463   3.163   7.078   6.178 -0.0610  0.2801  0.3220
14508TIP3    H243464   3.272   7.183   6.173 -0.6662  0.8894 -0.3674
14509TIP3   OH243465   0.567   3.119   2.008  0.0524  0.2607  0.0779
14509TIP3    H143466   0.586   3.213   2.021  2.4714 -0.1315 -0.3203
14509TIP3    H243467   0.587   3.080   2.093 -1.4027  0.1641  0.3769
14510TIP3   OH243468   7.761   3.557   1.046 -0.2504  0.0391  0.1453
14510TIP3    H143469   7.816   3.497   1.098 -1.3907  0.4943  1.9156
14510TIP3    H243470   7.824   3.614   1.002  0.7868 -1.1937 -0.0350
14511TIP3   OH243471   2.712   3.117   3.666  0.4143 -0.1058  0.4771
14511TIP3    H143472   2.629   3.160   3.644  0.2032 -0.5537  0.3861
14511TIP3    H243473   2.730   3.144   3.756  0.3718  0.3131  0.3610
14512TIP3   OH243474   1.448   4.523   2.529  0.4996  0.1608 -0.1421
14512TIP3    H143475   1.399   4.606   2.535 -0.0778 -0.0799 -1.4322
14512TIP3    H243476   1.494   4.517   2.613 -2.3638 -0.0246  1.5216
14513TIP3   OH243477   2.953   3.688   5.180  0.2032  0.7243  0.2401
14513TIP3    H143478   2.976   3.737   5.100 -0.2284  0.5090 -0.0166
14513TIP3    H243479   2.959   3.596   5.154 -3.0618  0.6603 -0.4586
14514TIP3   OH243480   7.384   1.495   0.629 -0.1104  0.2352  0.2727
14514TIP3    H143481   7.463   1.503   0.684 -0.5188 -2.1672  1.2763
14514TIP3    H243482   7.416   1.456   0.548 -0.2857 -1.2281  0.8738
14515TIP3   OH243483   4.419   6.869   6.134  0.4951 -0.4800 -0.0710
14515TIP3    H143484   4.476   6.909   6.068  1.7168  1.5689  2.1491
14515TIP3    H243485   4.332   6.905   6.115  0.4138 -1.5134 -1.8052
14516TIP3   OH243486   0.746   3.933   0.065  0.2484 -0.2809 -0.3766
14516TIP3    H143487   0.793   3.911   0.145  0.5702  0.0989 -0.4570
14516TIP3    H243488   0.668   3.981   0.095 -0.3310 -1.3084 -0.2175
14517TIP3   OH243489   0.729   2.798   1.402 -0.8678 -0.1157 -0.2566
14517TIP3    H143490   0.763   2.709   1.399 -0.6062 -0.0796  1.2063
14517TIP3    H243491   0.640   2.790   1.368  0.1442 -0.4009 -3.0000
14518TIP3   OH243492   0.408   2.752   3.911 -0.1226 -0.3102 -0.5804
14518TIP3    H143493   0.374   2.664   3.922 -0.5076 -0.0130  0.6608
14518TIP3    H243494   0.362   2.805   3.977  0.3663  0.7393 -1.0608
14519TIP3   OH243495   8.391   2.494   2.703 -0.0710  0.4631 -0.7129
14519TIP3    H143496   8.425   2.583   2.705 -1.3906  0.9899 -1.3271
14519TIP3    H243497   8.428   2.456   2.623  3.2209 -0.6875  1.2325
14520TIP3   OH243498   1.199   2.756   2.124 -0.1146  0.4483  0.3309
14520TIP3    H143499   1.149   2.686   2.082  1.7681 -0.5013 -0.3933
14520TIP3    H243500   1.290   2.739   2.098  0.8078  1.1494  3.0021
14521TIP3   OH243501   8.221   2.976   0.243  0.4865 -0.4826 -0.3318
14521TIP3    H143502   8.242   2.927   0.164  0.3593 -2.0202  0.5814
14521TIP3    H243503   8.304   3.014   0.271  0.9048 -1.5717 -0.0929
14522TIP3   OH243504   0.699   2.712   2.764  0.8420  0.0284 -0.1010
14522TIP3    H143505   0.733   2.675   2.683 -0.2759  0.1990 -0.6685
14522TIP3    H243506   0.611   2.674   2.772 -0.4272  2.6830 -0.8176
14523TIP3   OH243507   7.828   2.492   0.735 -0.1635  0.1868  0.0340
14523TIP3    H143508   7.845   2.405   0.700 -0.7495  0.7415 -1.6686
14523TIP3    H243509   7.848   2.485   0.828 -0.3034 -1.7887 -0.0747
14524TIP3   OH243510   8.382   0.710   0.386  0.0150  0.1132 -0.9228
14524TIP3    H143511   8.404   0.761   0.307 -1.3701  0.8656 -0.8475
14524TIP3    H243512   8.296   0.743   0.412  1.2623  1.2152  2.0068
14525TIP3   OH243513   6.496   1.525   0.208 -0.2568  0.2149  0.1344
14525TIP3    H143514   6.560   1.497   0.273 -0.6779 -0.2981  0.3253
14525TIP3    H243515   6.411   1.503   0.246 -0.5472  0.8065 -0.1609
14526TIP3   OH243516   0.907   3.677   1.197 -0.1085 -0.7203 -0.0433
14526TIP3    H143517   0.999   3.700   1.185 -0.3369  0.1441 -0.2162
14526TIP3    H243518   0.909   3.597   1.250  0.7260 -0.3193  0.5583
14527TIP3   OH243519   7.760   3.865   0.619  0.6074  0.1119 -0.6541
14527TIP3    H143520   7.783   3.935   0.558  0.9325 -0.3842 -1.1007
14527TIP3    H243521   7.704   3.807   0.569 -0.6321  0.6694  0.0715
14528TIP3   OH243522   1.715   4.280   0.991 -0.0213  0.0328 -0.1930
14528TIP3    H143523   1.722   4.357   1.049  0.7705 -0.0935 -0.1162
14528TIP3    H243524   1.720   4.316   0.903  1.4932 -0.0420 -0.1392
14529TIP3   OH243525   2.526   7.001   6.604 -0.2369  0.1591  0.2236
14529TIP3    H143526   2.440   6.968   6.627 -0.2969  1.6315  2.2747
14529TIP3    H243527   2.521   7.096   6.621  2.3607 -0.0276  2.4436
14530TIP3   OH243528   1.573   3.435   0.640  0.1271  0.6222  0.6017
14530TIP3    H143529   1.492   3.472   0.605 -0.3650 -0.2612  0.7966
14530TIP3    H243530   1.570   3.455   0.734 -0.6912 -0.8799  0.9168
14531TIP3   OH243531   5.785   7.428   5.414  0.6531 -0.0704 -0.8071
14531TIP3    H143532   5.784   7.332   5.415 -1.3506 -0.0949 -1.2549
14531TIP3    H243533   5.709   7.453   5.466  1.5525  1.2955 -0.1303
14532TIP3   OH243534   1.831   1.937   1.585 -0.2391  0.0284 -0.2953
14532TIP3    H143535   1.847   1.853   1.541 -0.7030 -0.2951  0.1449
14532TIP3    H243536   1.916   1.982   1.582  0.4245 -1.0928  0.7978
14533TIP3   OH243537   2.412   3.393   1.945  0.6997  0.2750 -0.4047
14533TIP3    H143538   2.499   3.418   1.977  0.1898  1.8629 -0.2078
14533TIP3    H243539   2.355   3.463   1.975 -0.3421  0.1857 -2.1428
14534TIP3   OH243540   1.298   5.765   6.071  0.1733  0.5622 -0.5503
14534TIP3    H143541   1.202   5.769   6.063  0.3054  0.3403 -2.3719
14534TIP3    H243542   1.314   5.683   6.117 -0.5551  1.0638  0.6268
14535TIP3   OH243543   7.024   3.197   0.353  0.8145  0.2444  0.4225
14535TIP3    H143544   7.035   3.240   0.268  0.0236  1.3432  0.8654
14535TIP3    H243545   7.010   3.268   0.414 -2.3761 -0.7292  0.8844
14536TIP3   OH243546   0.087   3.435   0.781 -0.3941  0.2663  0.2874
14536TIP3    H143547  -0.006   3.427   0.800 -0.6196  0.5455 -0.6613
14536TIP3    H243548   0.100   3.528   0.761 -0.2710 -0.0764 -1.3314
14537TIP3   OH243549   3.547   3.107   1.994  0.4092  0.2688  0.4282
14537TIP3    H143550   3.550   3.199   2.018 -2.1973 -0.2930  3.1476
14537TIP3    H243551   3.606   3.064   2.056  2.0325  0.1181 -1.1650
14538TIP3   OH243552   0.964   3.833   0.606 -0.1712  0.0960 -0.5834
14538TIP3    H143553   0.928   3.744   0.599 -2.0648  0.7750  0.0284
14538TIP3    H243554   0.984   3.843   0.699  1.0989 -0.0673 -0.8297
14539TIP3   OH243555   2.964   6.718   5.893  0.7315 -0.1807  0.4320
14539TIP3    H143556   2.997   6.781   5.828 -1.0767 -0.5116 -0.8480
14539TIP3    H243557   2.973   6.633   5.850 -2.4172 -0.2086 -0.2587
14540TIP3   OH243558   2.438   7.256   6.400 -0.2122  0.0124  0.1865
14540TIP3    H143559   2.347   7.232   6.382  0.1289 -0.8416 -0.4186
14540TIP3    H243560   2.472   7.286   6.317  0.6124 -1.4979 -0.0381
14541TIP3   OH243561   4.892   6.918   6.501  0.0804 -0.0079 -0.4429
14541TIP3    H143562   4.910   7.005   6.465 -1.1964  0.8296  0.8920
14541TIP3    H243563   4.967   6.901   6.559  0.1778  0.3410 -0.4608
14542TIP3   OH243564   1.326   3.752   0.153 -0.1358  0.3276 -0.2542
14542TIP3    H143565   1.329   3.679   0.091  0.4663  0.5551 -0.4968
14542TIP3    H243566   1.417   3.779   0.162 -0.3538  1.0211 -0.1334
14543TIP3   OH243567   2.117   2.858   1.593  0.0239  0.4186  0.0092
14543TIP3    H143568   2.141   2.766   1.607  0.2295  0.6382  1.1776
14543TIP3    H243569   2.042   2.871   1.652 -0.5724  0.7549 -0.8252
14544TIP3   OH243570   1.865   3.935   0.001  0.0934  0.1748  0.2485
14544TIP3    H143571   1.912   3.999   0.055  1.5162  0.3533 -1.1777
14544TIP3    H243572   1.808   3.988  -0.054 -0.3296  0.0769  0.5905
14545TIP3   OH243573   7.419   0.127   6.784  0.0317 -0.0821 -0.0363
14545TIP3    H143574   7.425   0.209   6.734  2.8285 -0.5122 -0.5085
14545TIP3    H243575   7.399   0.061   6.718 -0.3914 -0.0483  0.0582
14546TIP3   OH243576   0.538   0.596   0.410  0.0265  0.6949  0.1537
14546TIP3    H143577   0.553   0.622   0.501 -0.7678  0.2599  0.4153
14546TIP3    H243578   0.565   0.504   0.407 -2.2197 -0.0087  0.5596
14547TIP3   OH243579   0.722   2.348   0.056  0.0838 -0.4665  0.0990
14547TIP3    H143580   0.655   2.416   0.054  1.1187  0.5892  0.6004
14547TIP3    H243581   0.673   2.266   0.054 -1.2055  0.2871  0.1419
14548TIP3   OH243582   7.568   2.289   0.897 -0.5321 -0.3854  0.3184
14548TIP3    H143583   7.634   2.289   0.827 -0.9612 -0.8079 -0.0879
14548TIP3    H243584   7.576   2.203   0.938 -1.3099 -0.7122 -0.1927
14549TIP3   OH243585   1.417   3.740   1.503  0.3546  0.2538  0.4625
14549TIP3    H143586   1.391   3.799   1.433 -0.8551  0.9905  1.5081
14549TIP3    H243587   1.405   3.791   1.583  2.6898 -0.2136  1.1760
14550TIP3   OH243588   4.020   6.881   5.945 -0.1096 -0.0116  0.3222
14550TIP3    H143589   4.026   6.939   5.870  1.8162 -0.1803  0.3107
14550TIP3    H243590   4.056   6.932   6.018 -4.0822  0.9915  1.6811
14551TIP3   OH243591   7.501   1.702   0.266 -0.2624 -0.1357  0.2471
14551TIP3    H143592   7.409   1.728   0.274 -0.7673 -2.1031  1.1367
14551TIP3    H243593   7.551   1.781   0.288 -1.7460  0.4779  1.4700
14552TIP3   OH243594   2.227   1.062   0.828 -0.3201  0.4198 -0.0826
14552TIP3    H143595   2.224   1.074   0.923  0.0718 -1.8392  0.2313
14552TIP3    H243596   2.300   1.118   0.800 -1.5099  2.4421  0.6873
14553TIP3   OH243597   4.371   4.458   2.481 -0.4056 -0.0284  0.3354
14553TIP3    H143598   4.406   4.546   2.467  0.6388 -0.8739 -2.7698
14553TIP3    H243599   4.293   4.455   2.425  0.6646 -1.7087 -1.0823
14554TIP3   OH243600   1.436   3.717   0.982  0.3904 -0.5003  0.0826
14554TIP3    H143601   1.455   3.799   1.028  3.2211 -1.6344  1.0296
14554TIP3    H243602   1.393   3.744   0.901 -3.1248  1.6320  2.5361
14555TIP3   OH243603   1.416   4.027   1.927 -0.0900  0.0674 -0.5603
14555TIP3    H143604   1.423   3.941   1.885  0.5450 -0.0581 -0.1985
14555TIP3    H243605   1.435   4.011   2.019 -1.1474  0.4044 -0.2715
14556TIP3   OH243606   8.465   4.670   0.185  0.3386 -0.1283  0.1860
14556TIP3    H143607   8.504   4.613   0.251 -0.3097 -0.9831 -0.1605
14556TIP3    H243608   8.496   4.634   0.102  0.0147  0.0937 -0.0322
14557TIP3   OH243609   5.977   6.443   6.657  0.3532 -0.1509  0.8566
14557TIP3    H143610   5.909   6.382   6.628  1.1393 -0.6435  0.0486
14557TIP3    H243611   5.974   6.514   6.594 -0.6605  0.7508  1.8794
14558TIP3   OH243612   2.416   5.989   5.205  0.2949  0.1015 -0.6108
14558TIP3    H143613   2.365   5.928   5.260  2.8029 -0.3643  1.2825
14558TIP3    H243614   2.507   5.972   5.229  1.3087  1.6037 -3.2288
14559TIP3   OH243615   0.758   5.471   0.951 -0.2806 -0.3933 -0.0626
14559TIP3    H143616   0.779   5.478   1.044 -0.3486 -1.0265 -0.0001
14559TIP3    H243617   0.684   5.411   0.947  0.7832 -1.6965 -0.6674
14560TIP3   OH243618   2.140   3.930   2.152 -0.2179 -0.7154  0.1352
14560TIP3    H143619   2.230   3.912   2.177  0.3631 -0.0425 -1.3997
14560TIP3    H243620   2.137   3.913   2.058 -1.6991 -0.7534  0.1675
14561TIP3   OH243621   2.253   6.655   5.434  0.4102 -0.3178 -1.1159
14561TIP3    H143622   2.308   6.628   5.507 -0.6879  1.7273  0.5196
14561TIP3    H243623   2.312   6.706   5.377  0.2711  1.9094  0.6538
14562TIP3   OH243624   7.073   3.981   1.810 -0.0437 -0.3459  0.4317
14562TIP3    H143625   7.069   3.942   1.723  0.2364  1.0169 -0.2051
14562TIP3    H243626   7.155   4.030   1.811 -1.1303  1.5167  0.6442
14563TIP3   OH243627   0.375   1.614   2.045  0.0578 -0.4774 -0.1548
14563TIP3    H143628   0.323   1.535   2.028  0.1059 -0.0311 -2.5900
14563TIP3    H243629   0.316   1.686   2.027  0.2071  0.0540  1.4538
14564TIP3   OH243630   4.909   6.751   4.703 -0.3014 -0.5041  0.0028
14564TIP3    H143631   4.981   6.718   4.756 -0.4630  1.2898  1.3968
14564TIP3    H243632   4.841   6.775   4.766 -0.5196  1.6381 -0.9777
14565TIP3   OH243633   0.392   2.397   0.579  0.3684 -0.1774 -0.5529
14565TIP3    H143634   0.309   2.424   0.619  0.5750 -0.5330  0.1189
14565TIP3    H243635   0.457   2.457   0.616  0.4343  0.0283 -0.9932
14566TIP3   OH243636   4.824   5.442   0.153  0.2479 -0.1992 -0.2481
14566TIP3    H143637   4.743   5.483   0.123  1.5874  1.3135 -1.9203
14566TIP3    H243638   4.856   5.499   0.223 -1.1120 -1.8752  1.8029
14567TIP3   OH243639   8.428   3.897   1.251  0.4253 -0.4975  0.0592
14567TIP3    H143640   8.383   3.813   1.250 -0.2303 -0.1309 -1.7442
14567TIP3    H243641   8.362   3.961   1.224  1.4179  0.3476 -0.4113
14568TIP3   OH243642   2.739   6.047   6.454 -0.1763  0.3977 -0.5864
14568TIP3    H143643   2.729   6.135   6.417 -0.9376  0.6022  0.0858
14568TIP3    H243644   2.672   6.042   6.522 -0.4159 -0.8660 -0.9065
14569TIP3   OH243645   8.116   0.202   5.951  0.0040  0.1567 -0.2194
14569TIP3    H143646   8.129   0.266   5.881 -0.5703 -1.2833 -1.6744
14569TIP3    H243647   8.024   0.213   5.975  0.1385  0.4855  0.1506
14570TIP3   OH243648   7.561   0.357   6.393  0.3824  0.1783  0.3477
14570TIP3    H143649   7.629   0.312   6.343  1.4373  1.6091  0.5034
14570TIP3    H243650   7.561   0.447   6.360 -0.8371  0.4226  0.9618
14571TIP3   OH243651   7.665   0.907   5.349  0.1480  0.4126  0.4944
14571TIP3    H143652   7.741   0.866   5.306  0.5283 -0.9274  2.3753
14571TIP3    H243653   7.600   0.914   5.279  0.5430 -2.2785 -0.2253
14572TIP3   OH243654   2.562   4.964   0.087  0.0818 -0.2285  0.0783
14572TIP3    H143655   2.611   5.024   0.031  0.0054 -1.1805 -1.0322
14572TIP3    H243656   2.530   5.018   0.159 -0.2393  1.1161 -1.0654
14573TIP3   OH243657   6.640   1.172   5.977 -0.6384 -0.2307 -0.2471
14573TIP3    H143658   6.617   1.089   5.936  0.7469  0.1155 -1.7645
14573TIP3    H243659   6.718   1.202   5.930 -0.6018  1.5040  0.8563
14574TIP3   OH243660   3.718   3.844   2.283  0.3051 -0.2582  0.4791
14574TIP3    H143661   3.647   3.899   2.252  0.9344 -0.1126 -0.7555
14574TIP3    H243662   3.771   3.901   2.339 -0.7911 -0.4985  1.7800
14575TIP3   OH243663   2.456   2.439   3.483 -0.0362  0.1676  0.4886
14575TIP3    H143664   2.531   2.447   3.424 -0.7862  0.3417 -0.4465
14575TIP3    H243665   2.407   2.365   3.450 -0.6068  0.4319  0.7348
14576TIP3   OH243666   1.256   3.307   0.883 -0.1275  0.4693  0.4589
14576TIP3    H143667   1.341   3.266   0.861  0.4690  1.8158  0.2371
14576TIP3    H243668   1.253   3.386   0.830 -1.2115  0.8195  1.0359
14577TIP3   OH243669   0.547   2.850   0.801  0.4196 -0.0548  0.0181
14577TIP3    H143670   0.534   2.891   0.715  0.4564  0.4307  0.2427
14577TIP3    H243671   0.511   2.913   0.863  0.5924 -0.3098  0.3782
14578TIP3   OH243672   1.407   2.547   0.555  0.1066  0.3019  0.1012
14578TIP3    H143673   1.404   2.485   0.482  1.1520  1.1308 -0.6627
14578TIP3    H243674   1.348   2.618   0.529 -1.7275 -0.7377  1.3397
14579TIP3   OH243675   7.839   1.589   0.543 -0.1034  0.1298 -0.6093
14579TIP3    H143676   7.913   1.532   0.565 -1.8253 -1.5876  0.9431
14579TIP3    H243677   7.871   1.645   0.472  3.0322  0.2045  0.8025
14580TIP3   OH243678   2.317   5.158   4.400 -0.1549 -0.0244 -0.2206
14580TIP3    H143679   2.294   5.066   4.390  0.1697  0.0435 -1.6981
14580TIP3    H243680   2.382   5.174   4.331  0.1644  1.1717  0.3554
14581TIP3   OH243681   0.049   1.991   1.667  0.2707 -0.0964  0.3647
14581TIP3    H143682   0.086   1.998   1.755 -0.6418  1.7738  0.6165
14581TIP3    H243683   0.066   2.076   1.627 -2.9501  0.5066  0.1796
14582TIP3   OH243684   4.335   6.013   4.611 -0.2089  0.6085  0.3640
14582TIP3    H143685   4.282   5.943   4.573 -0.6691  0.4728  1.2263
14582TIP3    H243686   4.362   6.067   4.536  0.9039 -0.9798 -0.3918
14583TIP3   OH243687   1.131   1.955   1.107  0.1049  0.1200  0.4407
14583TIP3    H143688   1.076   1.880   1.130  0.6876  0.0249  1.5504
14583TIP3    H243689   1.102   1.980   1.019 -0.9192 -0.6457  0.5541
14584TIP3   OH243690   2.384   2.443   2.785 -0.3421  0.0857  0.0417
14584TIP3    H143691   2.392   2.443   2.880  0.1273  0.8220  0.0113
14584TIP3    H243692   2.290   2.435   2.768 -0.5519  1.2472  0.5950
14585TIP3   OH243693   1.634   2.855   0.110  0.2308  0.0619 -0.3688
14585TIP3    H143694   1.682   2.896   0.181  0.8973 -0.6553 -0.3999
14585TIP3    H243695   1.570   2.798   0.153 -1.6589  2.1598 -0.2960
14586TIP3   OH243696   0.811   5.650   6.576  0.1362  0.1040  0.2883
14586TIP3    H143697   0.731   5.701   6.587  0.4197 -0.0586  3.6264
14586TIP3    H243698   0.878   5.700   6.623  1.0520 -1.8505  1.1205
14587TIP3   OH243699   1.318   6.908   6.850  0.4204  0.3865 -0.0868
14587TIP3    H143700   1.269   6.908   6.932  1.5646 -1.7548  0.6293
14587TIP3    H243701   1.275   6.842   6.795  0.7355  0.5569 -0.5506
14588TIP3   OH243702   7.966   2.668   0.205 -0.0793 -0.2771 -0.2794
14588TIP3    H143703   8.000   2.701   0.122  0.0170 -1.3347 -0.6701
14588TIP3    H243704   8.041   2.669   0.264  0.1625 -0.6934 -0.5680
14589TIP3   OH243705   3.555   7.849   5.893 -0.0360  0.1557  0.4537
14589TIP3    H143706   3.627   7.790   5.871 -0.2709 -0.1162  0.4177
14589TIP3    H243707   3.591   7.906   5.961  0.5906  0.7823 -0.3877
14590TIP3   OH243708   1.892   1.987   3.276 -0.7594 -0.1124 -0.1936
14590TIP3    H143709   1.849   1.998   3.361 -1.8100 -1.1799 -0.5636
14590TIP3    H243710   1.912   1.893   3.271  0.2639  0.1320 -0.6637
14591TIP3   OH243711   2.555   2.304   1.526 -0.1134  0.0859 -0.1408
14591TIP3    H143712   2.601   2.383   1.552 -0.6298  0.7287 -1.1417
14591TIP3    H243713   2.463   2.330   1.523 -0.0839  0.0019 -2.4691
14592TIP3   OH243714   0.457   1.602   1.356  0.6794  0.2298  0.2974
14592TIP3    H143715   0.524   1.537   1.375 -1.7726 -2.2968  0.6007
14592TIP3    H243716   0.377   1.566   1.395 -1.1132  2.5588 -1.1180
14593TIP3   OH243717   2.091   3.166   1.201 -0.3332 -0.5563 -0.2565
14593TIP3    H143718   2.125   3.157   1.290  2.7080 -1.4287 -1.4505
14593TIP3    H243719   2.135   3.243   1.165 -1.7582 -0.0253 -0.9463
14594TIP3   OH243720   3.521   5.554   6.545  0.2780 -0.2008 -0.1706
14594TIP3    H143721   3.524   5.479   6.603  1.8585 -0.7914 -0.9975
14594TIP3    H243722   3.559   5.523   6.463  1.6169  1.6795 -0.3004
14595TIP3   OH243723   2.858   7.776   6.398  0.5038 -0.1934 -0.2762
14595TIP3    H143724   2.842   7.691   6.357  0.8313 -0.2834 -0.2252
14595TIP3    H243725   2.863   7.757   6.492 -0.3216  0.0231 -0.1867
14596TIP3   OH243726   1.499   4.552   6.949  1.0791 -0.3328 -0.7624
14596TIP3    H143727   1.476   4.516   6.863 -0.5324  0.6433 -0.7577
14596TIP3    H243728   1.576   4.502   6.976  0.4142 -2.0212 -1.8935
14597TIP3   OH243729   8.116   0.210   6.424 -0.1283  0.2742  0.2112
14597TIP3    H143730   8.073   0.275   6.478  0.9642  0.5069  0.8201
14597TIP3    H243731   8.094   0.126   6.465 -0.2453  0.3696  0.3449
14598TIP3   OH243732   8.344   4.722   2.388  0.2211  0.3281  0.2947
14598TIP3    H143733   8.332   4.806   2.432 -0.6814  0.2894  0.1155
14598TIP3    H243734   8.394   4.743   2.309  2.6374  0.2850  1.7440
14599TIP3   OH243735   1.201   3.926   0.852 -0.2349 -1.0329  0.5899
14599TIP3    H143736   1.113   3.904   0.881 -0.0731 -2.0255  0.3274
14599TIP3    H243737   1.229   3.996   0.912 -0.4495 -2.0844  1.9377
14600TIP3   OH243738   3.190   7.900   6.510  0.2483  0.2413 -0.3356
14600TIP3    H143739   3.225   7.811   6.510 -1.7177 -0.5692 -1.3708
14600TIP3    H243740   3.137   7.906   6.589  0.4960  0.5568 -0.1884
14601TIP3   OH243741   2.308   6.520   6.268 -0.1080 -0.6293 -0.6274
14601TIP3    H143742   2.357   6.601   6.278  0.2046 -1.1145  2.4747
14601TIP3    H243743   2.354   6.471   6.200  1.5698  0.4713 -0.2995
14602TIP3   OH243744   7.747   3.421   1.518 -0.2255  0.5995  0.1780
14602TIP3    H143745   7.716   3.447   1.605  1.5659  1.3740  0.6036
14602TIP3    H243746   7.838   3.395   1.532  0.5435  2.1659 -1.7446
14603TIP3   OH243747   2.571   5.754   6.229  0.0524  0.7668 -0.0747
14603TIP3    H143748   2.654   5.743   6.183 -0.8119 -0.8831 -1.2673
14603TIP3    H243749   2.523   5.820   6.178 -0.0282  0.5187 -0.3218
14604TIP3   OH243750   2.043   6.970   5.947 -0.0322 -0.1648 -0.2584
14604TIP3    H143751   2.068   6.971   6.040 -0.5669  0.2092 -0.1071
14604TIP3    H243752   1.986   6.894   5.939 -1.6006  0.9179  0.1898
14605TIP3   OH243753   7.629   2.389   6.429 -0.0141  0.3860  0.7699
14605TIP3    H143754   7.599   2.384   6.338  1.2481  0.2534  0.3619
14605TIP3    H243755   7.721   2.363   6.426 -0.0892 -0.0832  2.1568
14606TIP3   OH243756   1.850   3.892   0.464 -0.3247  0.4395 -0.1075
14606TIP3    H143757   1.802   3.827   0.515  1.0961 -0.2091  0.4071
14606TIP3    H243758   1.839   3.864   0.373 -1.3437  0.5876 -0.0393
14607TIP3   OH243759   7.582   0.631   6.925  0.1077  0.1349  0.0728
14607TIP3    H143760   7.601   0.722   6.900  1.4073 -0.3067 -0.6148
14607TIP3    H243761   7.662   0.602   6.969  0.0112 -0.9167 -0.4310
14608TIP3   OH243762   1.971   0.285   5.185 -0.6238  0.4931  0.3154
14608TIP3    H143763   1.876   0.275   5.181 -0.8130  1.9572  0.8457
14608TIP3    H243764   1.985   0.379   5.189  0.8164  0.2616  1.1221
14609TIP3   OH243765   2.018   1.778   2.980 -0.1927 -0.0972  0.2367
14609TIP3    H143766   1.999   1.799   3.072  1.2977 -1.3815  0.8556
14609TIP3    H243767   2.096   1.829   2.960  0.6527 -1.3336  0.3100
14610TIP3   OH243768   4.087   7.567   6.239 -0.5210  0.5643  0.3448
14610TIP3    H143769   4.131   7.646   6.270 -0.2180 -0.4322  2.5356
14610TIP3    H243770   4.143   7.495   6.268 -1.1025 -0.5010 -1.1011
14611TIP3   OH243771   5.964   7.623   5.483  0.6849 -0.0152 -0.2650
14611TIP3    H143772   5.911   7.552   5.446 -0.2710 -0.5533  2.0796
14611TIP3    H243773   5.901   7.684   5.520  1.6169  0.2492  0.9122
14612TIP3   OH243774   0.712   0.157   3.778  0.1797 -0.2659  0.2819
14612TIP3    H143775   0.688   0.065   3.786  2.4977 -0.9797 -0.5356
14612TIP3    H243776   0.682   0.182   3.691  0.5623 -0.5876  0.0533
14613TIP3   OH243777   3.334   6.855   4.631  0.0099  0.3416  0.4116
14613TIP3    H143778   3.377   6.873   4.715 -1.2505  0.5992  1.0152
14613TIP3    H243779   3.373   6.917   4.570 -0.8705  1.8757  1.3874
14614TIP3   OH243780   1.618   3.617   0.036  0.0099  0.2655  0.1011
14614TIP3    H143781   1.625   3.529  -0.000 -0.6885  0.7259 -1.1942
14614TIP3    H243782   1.666   3.613   0.119 -1.1486 -1.6656  0.6926
14615TIP3   OH243783   2.254   3.455   0.162 -0.4033  0.4901 -0.1142
14615TIP3    H143784   2.224   3.371   0.194 -1.5657  1.7491  2.1699
14615TIP3    H243785   2.339   3.469   0.205 -1.1295  1.3627  1.0630
14616TIP3   OH243786   3.469   6.740   6.411 -0.5168 -0.0555  0.0081
14616TIP3    H143787   3.541   6.800   6.431  0.0865 -0.5654 -0.6149
14616TIP3    H243788   3.504   6.653   6.430 -0.3939 -0.4402 -1.9269
14617TIP3   OH243789   4.548   7.363   6.584  0.4763  0.0451 -0.1314
14617TIP3    H143790   4.519   7.289   6.638  0.3746 -0.5916 -1.0329
14617TIP3    H243791   4.504   7.439   6.621  2.2936  0.0350  2.2214
14618TIP3   OH243792   1.215   3.258   1.428 -0.2763 -0.0873 -0.3095
14618TIP3    H143793   1.179   3.173   1.405  0.0257 -0.7070  1.4113
14618TIP3    H243794   1.263   3.286   1.350  0.8366 -2.1568 -0.4204
14619TIP3   OH243795   0.340   1.971   0.320 -0.1643 -0.0531 -0.4206
14619TIP3    H143796   0.290   1.926   0.388  0.4918 -0.8466 -0.4501
14619TIP3    H243797   0.315   1.926   0.239  2.0121 -1.7615 -0.2076
14620TIP3   OH243798   0.695   4.449   1.369  0.1778 -0.2290 -0.9186
14620TIP3    H143799   0.734   4.518   1.316  0.2637  0.2182 -0.2733
14620TIP3    H243800   0.737   4.368   1.338  0.9606  0.1456 -0.8385
14621TIP3   OH243801   4.817   6.411   6.809  0.5582 -0.5709  0.0862
14621TIP3    H143802   4.807   6.370   6.724 -1.1423  0.8720 -0.4380
14621TIP3    H243803   4.820   6.505   6.791 -1.0342 -0.1764  1.6888
14622TIP3   OH243804   2.731   6.838   6.719  0.4001  0.0430  0.0608
14622TIP3    H143805   2.784   6.768   6.679  0.3448  0.5723 -0.9655
14622TIP3    H243806   2.656   6.847   6.661 -0.6059 -0.4016  1.2834
14623TIP3   OH243807   4.297   7.216   5.532 -0.1609 -0.5175 -0.6432
14623TIP3    H143808   4.381   7.260   5.517 -0.3668 -0.0065 -0.3225
14623TIP3    H243809   4.231   7.278   5.500 -0.3825 -1.2130 -1.5285
14624TIP3   OH243810   6.481   0.718   6.350  0.0112 -0.0879  0.1462
14624TIP3    H143811   6.566   0.678   6.338  0.9908  1.8998  0.1637
14624TIP3    H243812   6.454   0.693   6.438 -0.0463 -1.8116 -0.3445
14625TIP3   OH243813   1.977   2.037   2.750 -0.2699 -0.5896  0.8854
14625TIP3    H143814   1.945   2.044   2.840 -1.0825 -0.0253  0.5626
14625TIP3    H243815   2.039   1.964   2.752 -2.6075 -2.6093  1.2391
14626TIP3   OH243816   0.200   0.558   5.792 -0.0978  0.3923 -0.2124
14626TIP3    H143817   0.177   0.470   5.822 -0.9103  0.4393 -0.6620
14626TIP3    H243818   0.208   0.610   5.871 -0.0080 -0.0023  0.0364
14627TIP3   OH243819   7.533   1.667   6.186  0.1739  0.4097  0.0119
14627TIP3    H143820   7.556   1.698   6.274  0.1281 -0.5309  0.3602
14627TIP3    H243821   7.453   1.715   6.165 -0.7770 -0.6029  1.1997
14628TIP3   OH243822   0.451   0.900   6.245 -0.0293 -0.0581  0.1312
14628TIP3    H143823   0.411   0.815   6.261  0.5760 -0.6091 -1.1833
14628TIP3    H243824   0.381   0.964   6.261 -0.4738 -0.7866  1.1436
14629TIP3   OH243825   4.292   6.928   4.470 -0.5665  0.7388 -0.1647
14629TIP3    H143826   4.213   6.937   4.416  0.0371 -0.0045 -1.2084
14629TIP3    H243827   4.260   6.930   4.560 -1.6428  1.6035 -0.5536
14630TIP3   OH243828   0.839   3.504   0.056 -0.4369  0.6205  0.4529
14630TIP3    H143829   0.818   3.589   0.095 -2.6099  0.5743 -0.5664
14630TIP3    H243830   0.761   3.450   0.070  0.8483 -1.1737  0.9233
14631TIP3   OH243831   1.055   3.445   2.186 -0.2096 -0.6611  0.0105
14631TIP3    H143832   1.104   3.514   2.142  1.8256 -2.1501 -0.1944
14631TIP3    H243833   1.036   3.480   2.273 -0.6109  0.7329 -0.6336
14632TIP3   OH243834   6.637   3.381   0.393 -0.5800  0.0999  0.4396
14632TIP3    H143835   6.690   3.446   0.438  0.8058 -0.2059 -0.7194
14632TIP3    H243836   6.673   3.297   0.420  0.0688 -0.0900 -0.9679
14633TIP3   OH243837   1.447   3.901   1.275  0.5161 -0.6315 -0.4513
14633TIP3    H143838   1.542   3.900   1.286  0.7114  1.0514 -1.7521
14633TIP3    H243839   1.415   3.959   1.344  0.2455 -2.5277  1.0608
14634TIP3   OH243840   2.980   7.466   6.429  0.3924  0.3922 -0.3662
14634TIP3    H143841   2.966   7.465   6.334  0.8369  1.0517 -0.4421
14634TIP3    H243842   3.075   7.461   6.439  0.4294  1.6406  0.0076
14635TIP3   OH243843   0.099   0.535   6.876  0.8242  0.1960 -0.3921
14635TIP3    H143844   0.013   0.527   6.917  0.7419 -0.7756 -0.7655
14635TIP3    H243845   0.081   0.556   6.785  0.9228 -2.4631 -1.0660
14636TIP3   OH243846   2.538   4.476   0.714  0.3341 -0.8093 -0.6760
14636TIP3    H143847   2.499   4.557   0.747 -0.3913 -1.0196 -1.0126
14636TIP3    H243848   2.509   4.409   0.776 -2.3633 -1.4846 -2.5906
14637TIP3   OH243849   3.289   0.591   2.851  0.6335 -0.3172  0.4479
14637TIP3    H143850   3.274   0.685   2.846  0.1482 -0.3069  1.7972
14637TIP3    H243851   3.382   0.580   2.830  0.5039  0.3663 -0.5195
14638TIP3   OH243852   4.365   6.292   6.157  0.3830 -0.3143  0.5111
14638TIP3    H143853   4.437   6.263   6.213  1.1354  0.0838 -0.2428
14638TIP3    H243854   4.288   6.287   6.213  1.0288 -0.5268  1.3933
14639TIP3   OH243855   0.107   3.430   0.299 -0.5154  0.2440  0.3041
14639TIP3    H143856   0.152   3.371   0.359 -0.5020  2.0817  2.1444
14639TIP3    H243857   0.081   3.505   0.353 -1.9443  1.2022 -1.6326
14640TIP3   OH243858   0.254   2.722   0.911  0.0619 -0.3038 -0.1410
14640TIP3    H143859   0.184   2.751   0.853 -0.2794  0.2171  0.5296
14640TIP3    H243860   0.284   2.801   0.955  1.2957 -0.4632 -0.6470
14641TIP3   OH243861   3.240   2.215   2.761  0.1611 -0.1161 -0.6757
14641TIP3    H143862   3.168   2.167   2.719  1.0242 -1.0104 -1.1590
14641TIP3    H243863   3.301   2.233   2.689  0.1338  1.1727 -0.3788
14642TIP3   OH243864   2.560   2.798   0.755 -0.1453 -0.2170  0.1926
14642TIP3    H143865   2.627   2.749   0.803 -0.7946 -0.1637  1.1725
14642TIP3    H243866   2.477   2.768   0.793 -0.5889  0.9821  0.1764
14643TIP3   OH243867   2.201   2.177   2.650  0.3960  0.4877 -0.1162
14643TIP3    H143868   2.182   2.262   2.690 -1.9604  0.0580 -0.2575
14643TIP3    H243869   2.134   2.118   2.685  0.6115 -0.7699 -1.7456
14644TIP3   OH243870   8.289   3.479   0.126 -0.4537 -0.2040 -0.6998
14644TIP3    H143871   8.254   3.558   0.084 -3.2529 -1.2661 -0.4859
14644TIP3    H243872   8.372   3.507   0.165  0.9312  1.5022 -4.5296
14645TIP3   OH243873   2.329   6.155   5.578 -0.4986  0.2641 -0.4147
14645TIP3    H143874   2.363   6.072   5.545  0.0152  1.5034 -3.1214
14645TIP3    H243875   2.354   6.156   5.671 -0.7710 -2.7037 -0.2688
14646TIP3   OH243876   0.662   3.723   0.527  0.6592 -0.3501 -0.6629
14646TIP3    H143877   0.676   3.710   0.620 -0.6852 -0.5522 -0.4838
14646TIP3    H243878   0.631   3.639   0.495 -3.6501  1.0068 -0.3512
14647TIP3   OH243879   2.616   5.017   1.244 -0.4097 -0.0579  0.5555
14647TIP3    H143880   2.591   5.012   1.336 -2.0483 -0.6400  0.1136
14647TIP3    H243881   2.543   4.975   1.198  0.1765  0.6314 -1.0368
14648TIP3   OH243882   6.295   6.896   5.739 -0.0351 -0.0173  0.5064
14648TIP3    H143883   6.224   6.959   5.731  0.4798  0.6544  1.2005
14648TIP3    H243884   6.318   6.876   5.648  0.8230  1.9743  0.2467
14649TIP3   OH243885   5.014   7.384   5.646  0.2385 -0.7046  0.0838
14649TIP3    H143886   5.048   7.387   5.557 -0.0972 -0.7726 -0.0471
14649TIP3    H243887   5.092   7.386   5.701  0.3918  0.8503 -0.1672
14650TIP3   OH243888   2.096   4.118   2.962 -0.1111  0.1039  0.2059
14650TIP3    H143889   2.135   4.034   2.983 -1.3285 -0.4412  0.3327
14650TIP3    H243890   2.160   4.161   2.905  1.8991  0.3807  2.6160
14651TIP3   OH243891   6.796   5.162   0.289  0.8620  0.5432 -0.0064
14651TIP3    H143892   6.717   5.170   0.343  1.2739 -0.4583  0.7682
14651TIP3    H243893   6.787   5.230   0.222 -0.3474  0.8532  0.4638
14652TIP3   OH243894   7.681   4.253   0.954 -0.4489 -0.1210  0.8997
14652TIP3    H143895   7.681   4.180   0.891 -0.8495  0.5634  0.1017
14652TIP3    H243896   7.761   4.301   0.935 -0.5963  0.1170  0.8770
14653TIP3   OH243897   2.275   3.969   0.691  0.1728 -0.1067  0.4156
14653TIP3    H143898   2.330   3.978   0.613  1.5063  1.1440  1.4752
14653TIP3    H243899   2.312   3.894   0.738  1.1135  0.8305  1.2072
14654TIP3   OH243900   2.270   4.761   2.998 -0.5932  0.1377 -0.1608
14654TIP3    H143901   2.333   4.799   2.937 -1.2315 -0.2201 -1.0524
14654TIP3    H243902   2.307   4.674   3.019 -1.4740 -0.6460 -1.7746
14655TIP3   OH243903   5.720   7.955   4.303  0.1467 -0.3514 -0.2503
14655TIP3    H143904   5.811   7.929   4.322  0.0379 -1.0185 -0.6342
14655TIP3    H243905   5.672   7.872   4.298 -0.6882  0.0421  0.9883
14656TIP3   OH243906   0.802   2.822   0.877  0.2026 -0.1014 -0.4086
14656TIP3    H143907   0.707   2.811   0.864  0.1214  0.6556 -0.4899
14656TIP3    H243908   0.813   2.815   0.972 -0.1285  1.2035 -0.2695
14657TIP3   OH243909   5.851   6.299   5.919 -0.3417  0.3604 -0.2568
14657TIP3    H143910   5.882   6.341   5.999 -0.2733  2.7906 -1.4921
14657TIP3    H243911   5.759   6.327   5.912 -0.8383 -1.2151 -0.1552
14658TIP3   OH243912   3.601   0.522   2.333 -0.5256  0.3032  0.2856
14658TIP3    H143913   3.591   0.579   2.257  0.1043  0.8794  0.6295
14658TIP3    H243914   3.531   0.549   2.392 -1.3311 -0.4879 -0.2957
14659TIP3   OH243915   0.576   3.461   0.406  0.1837 -0.0804 -0.4269
14659TIP3    H143916   0.512   3.504   0.349 -0.6601  0.2525  0.7379
14659TIP3    H243917   0.525   3.395   0.453  0.8256 -0.2256  0.0615
14660TIP3   OH243918   5.347   7.775   5.854 -0.6304 -0.3617  0.0877
14660TIP3    H143919   5.361   7.688   5.816 -1.8695 -0.1648 -0.8182
14660TIP3    H243920   5.431   7.820   5.842 -0.9179 -0.3880 -2.1790
14661TIP3   OH243921   3.328   4.532   5.519  0.1629 -0.1328 -0.0426
14661TIP3    H143922   3.417   4.535   5.555  0.3380 -2.3942 -0.2322
14661TIP3    H243923   3.341   4.512   5.427 -0.3546  4.2550 -1.1996
14662TIP3   OH243924   3.728   1.442   0.706 -0.0696 -0.5494  0.2948
14662TIP3    H143925   3.808   1.486   0.677 -0.1107 -0.9105 -0.3481
14662TIP3    H243926   3.729   1.357   0.663 -1.1320 -0.3038 -0.2235
14663TIP3   OH243927   2.011   2.180   3.661  0.6794 -0.5216 -0.2219
14663TIP3    H143928   2.000   2.181   3.566 -3.2796 -1.8901  0.1545
14663TIP3    H243929   1.995   2.270   3.689 -1.9343 -0.8525 -0.5418
14664TIP3   OH243930   1.940   4.059   1.859  0.3387  0.1680  0.3839
14664TIP3    H143931   1.865   4.077   1.917  2.7276  1.1928  3.2775
14664TIP3    H243932   1.972   4.145   1.835  0.8342 -0.2700 -0.5179
14665TIP3   OH243933   4.802   7.780   5.817  0.6141  0.0541 -0.4128
14665TIP3    H143934   4.750   7.709   5.855  0.7102 -0.3533 -1.0362
14665TIP3    H243935   4.789   7.854   5.877  1.0553 -0.6812  0.6095
14666TIP3   OH243936   2.332   3.813   2.486  0.1025 -0.4397  0.1737
14666TIP3    H143937   2.326   3.719   2.502 -1.1842 -0.5067 -0.6125
14666TIP3    H243938   2.349   3.851   2.572 -1.9327 -1.1862  0.9287
14667TIP3   OH243939   7.446   3.923   0.060  0.4845 -0.1956 -0.4385
14667TIP3    H143940   7.383   3.885  -0.002  0.9893 -1.2873 -0.3116
14667TIP3    H243941   7.496   3.847   0.092  1.8641  0.6442 -0.5499
14668TIP3   OH243942   6.364   5.095   5.625 -0.6437 -0.7026  0.0666
14668TIP3    H143943   6.283   5.143   5.640 -1.7078 -2.0860 -1.0944
14668TIP3    H243944   6.431   5.147   5.668 -1.7653  1.8409 -1.1849
14669TIP3   OH243945   5.762   7.708   6.544  0.5952 -0.2219  0.1009
14669TIP3    H143946   5.828   7.751   6.599  1.0108 -1.2121  0.3951
14669TIP3    H243947   5.803   7.700   6.458  1.1910 -1.5752  0.4950
14670TIP3   OH243948   8.233   2.306   0.966 -0.1519 -0.1346  0.2020
14670TIP3    H143949   8.218   2.243   0.896 -0.2637 -0.9538  0.9567
14670TIP3    H243950   8.256   2.253   1.042  2.4998  0.8523  0.1714
14671TIP3   OH243951   1.774   2.658   1.510  0.0568 -0.0522  0.0993
14671TIP3    H143952   1.866   2.684   1.501  0.3525 -1.3095 -0.6742
14671TIP3    H243953   1.725   2.727   1.465  0.6724  0.2255 -0.1555
14672TIP3   OH243954   7.264   3.983   6.965  0.0905  0.0972 -0.9816
14672TIP3    H143955   7.201   3.956   6.898  0.1513 -0.0255 -0.9897
14672TIP3    H243956   7.349   3.962   6.927  0.1084 -0.3682 -0.6903
14673TIP3   OH243957   1.879   0.617   2.443 -0.3135  0.0725  0.1393
14673TIP3    H143958   1.938   0.560   2.493 -0.6619  0.5674  1.1369
14673TIP3    H243959   1.819   0.653   2.509 -0.2740  1.3729 -0.5177
14674TIP3   OH243960   1.984   5.557   6.698  0.6336  0.0592  0.1175
14674TIP3    H143961   2.005   5.543   6.790  3.4324  2.1474 -0.1503
14674TIP3    H243962   2.068   5.555   6.653 -0.6966 -0.9411 -2.4316
14675TIP3   OH243963   8.408   0.414   0.079 -0.1867  0.0402 -0.5360
14675TIP3    H143964   8.387   0.415   0.172 -0.2071 -0.8378 -0.5286
14675TIP3    H243965   8.490   0.364   0.074 -1.3839 -1.8912 -1.2311
14676TIP3   OH243966   3.516   2.917   2.263  0.4820  0.4100  0.1453
14676TIP3    H143967   3.574   2.894   2.190  0.4050 -0.5269  0.3723
14676TIP3    H243968   3.478   3.001   2.238  2.2946  1.2770  0.1920
14677TIP3   OH243969   1.148   2.219   0.339  0.3846  0.2804  0.0219
14677TIP3    H143970   1.156   2.314   0.346  1.2213  0.1591  0.6917
14677TIP3    H243971   1.143   2.188   0.430  0.3044 -0.3405 -0.1875
14678TIP3   OH243972   6.575   7.761   4.084  0.3814  0.1925  0.1847
14678TIP3    H143973   6.498   7.705   4.095  0.0553  0.4800 -0.6091
14678TIP3    H243974   6.558   7.809   4.003  0.4725  1.7641  1.0814
14679TIP3   OH243975   2.087   6.166   6.841  0.1594 -0.7148 -0.0465
14679TIP3    H143976   2.012   6.156   6.783 -0.8488  0.6536  0.9993
14679TIP3    H243977   2.132   6.244   6.809  0.3953 -0.7682  0.1525
14680TIP3   OH243978   2.969   6.954   5.739 -0.5942 -0.2943  0.2915
14680TIP3    H143979   2.876   6.957   5.715 -0.2074  2.2368 -1.0412
14680TIP3    H243980   2.982   7.031   5.794  1.6134  1.8047 -3.0096
14681TIP3   OH243981   4.677   7.503   5.011  0.2804 -0.0368 -0.1083
14681TIP3    H143982   4.594   7.492   5.059 -1.8331 -0.0127 -3.6313
14681TIP3    H243983   4.705   7.414   4.991  0.6835 -0.0086  0.3025
14682TIP3   OH243984   2.898   4.724   0.928  0.1778  0.3011  0.5751
14682TIP3    H143985   2.930   4.634   0.935 -3.0082 -0.7266  2.9545
14682TIP3    H243986   2.832   4.721   0.860  0.5547  1.0275  0.1656
14683TIP3   OH243987   0.464   3.729   0.066  0.5091  0.4576 -0.1868
14683TIP3    H143988   0.487   3.811   0.109 -0.9096  0.7943 -0.0537
14683TIP3    H243989   0.525   3.723  -0.008  2.1849  0.4386  1.1789
14684TIP3   OH243990   3.809   6.680   6.107  0.0434 -0.1182  0.5274
14684TIP3    H143991   3.858   6.637   6.037 -2.7986 -1.0498 -0.9266
14684TIP3    H243992   3.845   6.642   6.188  0.1554 -2.4552 -0.5931
14685TIP3   OH243993   7.387   0.351   6.592 -0.9599  0.3794 -0.1581
14685TIP3    H143994   7.448   0.331   6.521  0.6442  0.3951  1.1921
14685TIP3    H243995   7.418   0.435   6.627 -1.7395  0.3683  0.5663
14686TIP3   OH243996   6.157   5.615   5.537 -0.2669 -0.1074 -0.1162
14686TIP3    H143997   6.089   5.682   5.528  0.4378  0.6577  0.2475
14686TIP3    H243998   6.109   5.532   5.533 -1.0968  0.4067 -0.9639
14687TIP3   OH243999   2.195   3.773   1.403 -0.1602 -0.7431 -0.3207
14687TIP3    H144000   2.111   3.738   1.375 -0.0514 -0.2208 -1.2898
14687TIP3    H244001   2.175   3.818   1.486 -0.9881  0.1064 -0.9769
14688TIP3   OH244002   4.827   6.680   6.778  0.5272 -0.4604  0.2114
14688TIP3    H144003   4.789   6.707   6.862  0.0836 -1.4715  0.3374
14688TIP3    H244004   4.902   6.739   6.766 -0.5172  0.9454  0.4045
14689TIP3   OH244005   6.557   5.644   6.783  0.2745 -0.1621  0.1763
14689TIP3    H144006   6.505   5.663   6.861 -0.0363 -0.1266 -0.0388
14689TIP3    H244007   6.493   5.614   6.718  0.4134  0.7058 -0.3634
14690TIP3   OH244008   5.073   0.568   1.086 -0.0290 -0.0950  0.5955
14690TIP3    H144009   5.096   0.491   1.035 -1.1149 -0.0818  0.0835
14690TIP3    H244010   4.995   0.603   1.044  0.1535  0.9887  1.1387
14691TIP3   OH244011   6.993   5.255   6.081 -0.1068  0.0967 -0.1452
14691TIP3    H144012   6.957   5.291   6.162  3.7054 -0.1708  1.7434
14691TIP3    H244013   6.947   5.172   6.069 -2.8843  1.5470  0.0292
14692TIP3   OH244014   5.596   6.469   5.877 -0.2951 -0.2051 -0.2383
14692TIP3    H144015   5.581   6.562   5.888  0.9231 -0.3126  2.6935
14692TIP3    H244016   5.686   6.462   5.844 -0.1660 -0.3738  0.1482
14693TIP3   OH244017   5.885   6.921   3.930  0.2616  0.2531 -0.2352
14693TIP3    H144018   5.885   6.926   4.025 -0.4673  0.1478 -0.2291
14693TIP3    H244019   5.977   6.930   3.905  0.2441  2.4139  0.3637
14694TIP3   OH244020   5.851   5.303   6.686 -0.2469  0.0996  0.3069
14694TIP3    H144021   5.801   5.314   6.767  0.3030  0.6093  0.5780
14694TIP3    H244022   5.808   5.229   6.642  0.1104 -0.8785  1.5713
14695TIP3   OH244023   5.514   4.727   6.220  0.5158  0.1336 -0.0892
14695TIP3    H144024   5.512   4.820   6.200  0.6650  0.0929 -0.2985
14695TIP3    H244025   5.471   4.685   6.145 -0.4512  0.1113  0.4645
14696TIP3   OH244026   1.882   2.239   0.191  0.1946  0.6308  0.2857
14696TIP3    H144027   1.829   2.235   0.270 -0.9165  0.5626 -0.4464
14696TIP3    H244028   1.962   2.284   0.217 -0.7738  1.8863  1.1119
14697TIP3   OH244029   5.921   7.692   6.314 -0.0388 -0.2046  0.0264
14697TIP3    H144030   5.908   7.631   6.242  0.4873  0.0469 -0.2908
14697TIP3    H244031   6.016   7.694   6.327 -0.1526 -0.5153  0.9615
14698TIP3   OH244032   3.131   4.015   0.506  0.6350  0.2013  0.1087
14698TIP3    H144033   3.193   4.076   0.466 -0.6706  0.7609 -1.1035
14698TIP3    H244034   3.098   3.963   0.433 -0.4698  0.0468  0.7111
14699TIP3   OH244035   3.997   4.061   1.771 -0.0693 -0.3404  0.3322
14699TIP3    H144036   4.062   4.125   1.741 -0.7936  0.2132 -0.0758
14699TIP3    H244037   3.956   4.030   1.691 -1.2451  0.3173  0.6716
14700TIP3   OH244038   4.674   6.372   4.903  0.0645  0.4745 -0.4303
14700TIP3    H144039   4.584   6.359   4.932  0.5062 -0.7698  0.4186
14700TIP3    H244040   4.710   6.437   4.964  0.6225 -1.2323  1.0936
14701TIP3   OH244041   5.925   6.552   6.910 -0.4236 -0.1073 -0.2009
14701TIP3    H144042   5.954   6.486   6.972 -2.0329 -1.2570 -0.6386
14701TIP3    H244043   5.938   6.512   6.824 -1.7495 -0.0319 -0.4554
14702TIP3   OH244044   2.412   4.980   0.590  0.7888  0.0590  0.1852
14702TIP3    H144045   2.453   4.894   0.601 -0.2203 -0.3767  0.6673
14702TIP3    H244046   2.452   5.035   0.658  1.3338 -0.0654 -0.0317
14703TIP3   OH244047   5.840   5.482   6.088 -0.3934 -0.0282 -0.5559
14703TIP3    H144048   5.935   5.479   6.102 -0.4431  1.0557  0.0738
14703TIP3    H244049   5.829   5.525   6.004 -0.3442  0.4342 -0.3274
14704TIP3   OH244050   0.034   2.712   0.174 -0.2570  0.2248 -0.1881
14704TIP3    H144051   0.121   2.751   0.178  0.1012 -0.5399 -0.5794
14704TIP3    H244052   0.026   2.663   0.256  0.3834 -1.1852 -0.9543
14705TIP3   OH244053   7.475   1.059   5.923  0.2667  0.3823  0.2122
14705TIP3    H144054   7.456   1.078   6.015  0.1990  3.5402 -0.3918
14705TIP3    H244055   7.395   1.082   5.876  0.1502 -1.6329 -0.5939
14706TIP3   OH244056   2.038   0.146   4.242  0.1208 -0.5609 -0.0638
14706TIP3    H144057   2.118   0.108   4.204  0.2011 -0.1227 -0.3294
14706TIP3    H244058   1.967   0.109   4.189  0.1257 -1.1762  0.3542
14707TIP3   OH244059   3.402   6.425   6.135 -0.1150 -0.0394  0.1048
14707TIP3    H144060   3.454   6.347   6.150 -0.5963 -0.3806  0.0042
14707TIP3    H244061   3.401   6.436   6.040 -1.5606 -0.9588 -0.0121
14708TIP3   OH244062   3.154   1.848   0.634 -0.1545 -0.2646 -0.6347
14708TIP3    H144063   3.100   1.880   0.706 -1.5291 -0.0725 -1.7258
14708TIP3    H244064   3.232   1.903   0.635 -0.6978  0.5006 -0.0207
14709TIP3   OH244065   2.806   0.969   4.550 -0.3872 -0.4452  0.0608
14709TIP3    H144066   2.797   1.022   4.471  0.1930  1.2017  1.0784
14709TIP3    H244067   2.891   0.926   4.541  0.2195  0.6754  0.3259
14710TIP3   OH244068   5.062   7.249   6.090  0.2555 -0.7619  0.0950
14710TIP3    H144069   5.115   7.240   6.169 -0.2135  1.3547  0.6974
14710TIP3    H244070   4.981   7.201   6.110  0.2538 -0.4711  0.8083
14711TIP3   OH244071   5.677   7.567   4.698  0.5286 -0.3080  0.2535
14711TIP3    H144072   5.681   7.482   4.654  1.7377 -1.9454  3.4038
14711TIP3    H244073   5.761   7.576   4.742  0.1320  2.1974  0.5786
14712TIP3   OH244074   0.905   0.979   5.575  1.1340 -0.2472  0.2209
14712TIP3    H144075   0.986   0.937   5.604  0.8255 -0.9059  0.1235
14712TIP3    H244076   0.859   1.002   5.656  1.4988  0.2932  0.2793
14713TIP3   OH244077   0.541   0.018   5.588  0.3229 -0.5337 -0.0480
14713TIP3    H144078   0.596  -0.051   5.626  0.6548 -0.4544 -0.3770
14713TIP3    H244079   0.484   0.046   5.660  0.9155 -0.4116  0.3774
14714TIP3   OH244080   3.979   5.287   5.003  0.1520  0.5605  0.2612
14714TIP3    H144081   3.896   5.288   5.049 -0.0042  0.3721 -0.0119
14714TIP3    H244082   4.000   5.194   4.994 -1.4015  0.4488 -2.8504
14715TIP3   OH244083   4.529   3.668   0.980  0.3440 -0.3352 -0.1395
14715TIP3    H144084   4.568   3.736   0.925 -1.8785  2.7706  1.9350
14715TIP3    H244085   4.435   3.688   0.979  0.0379 -1.3509  3.1874
14716TIP3   OH244086   1.754   0.124   5.533 -0.2845 -0.8649 -0.2266
14716TIP3    H144087   1.787   0.052   5.479  0.0752 -0.6356 -0.3149
14716TIP3    H244088   1.763   0.092   5.623  1.2860 -0.3535 -0.1874
14717TIP3   OH244089   3.469   7.158   6.730 -0.5671  0.4690  0.2891
14717TIP3    H144090   3.412   7.081   6.719 -2.0053  1.6611 -0.7493
14717TIP3    H244091   3.517   7.165   6.648 -1.7998  1.7558 -0.3372
14718TIP3   OH244092   6.218   6.633   6.249  0.3327 -0.5494  0.0115
14718TIP3    H144093   6.167   6.569   6.199  0.3823 -0.8819  0.3800
14718TIP3    H244094   6.290   6.658   6.191 -0.9198  0.8262 -0.9659
14719TIP3   OH244095   5.562   5.839   6.706  0.5968  0.3388 -0.1622
14719TIP3    H144096   5.650   5.806   6.723 -0.1319 -2.2260 -1.0925
14719TIP3    H244097   5.513   5.762   6.677 -1.7338  1.8893 -0.4720
14720TIP3   OH244098   1.406   2.357   0.012  0.2288  0.0146  0.4140
14720TIP3    H144099   1.433   2.412  -0.062  0.7679 -0.7718  0.0186
14720TIP3    H244100   1.453   2.393   0.087 -0.9105  1.3063  0.5454
14721TIP3   OH244101   1.557   0.809   6.199 -0.0287 -0.0245  0.1936
14721TIP3    H144102   1.622   0.879   6.206 -0.6810  0.6322 -0.1265
14721TIP3    H244103   1.523   0.816   6.110 -0.3835 -0.4878  0.2895
14722TIP3   OH244104   6.986   5.589   5.857  0.3515 -0.4320  0.3758
14722TIP3    H144105   6.977   5.677   5.819  2.4932  0.6488  2.2321
14722TIP3    H244106   6.934   5.593   5.937  0.2386 -0.9677  0.3271
14723TIP3   OH244107   5.497   6.168   5.987 -0.1478  0.1780  0.3259
14723TIP3    H144108   5.431   6.101   6.004  0.0887  0.0277  0.6540
14723TIP3    H244109   5.573   6.141   6.038 -0.8531  1.9629  2.4789
14724TIP3   OH244110   1.771   1.294   1.226 -0.0255  0.2161  0.4236
14724TIP3    H144111   1.786   1.274   1.133 -1.5806 -1.1596  0.4565
14724TIP3    H244112   1.773   1.390   1.230  0.1587  0.2873 -1.0212
14725TIP3   OH244113   1.372   2.939   1.027  0.5050 -0.4787 -0.4191
14725TIP3    H144114   1.457   2.985   1.029  0.6184 -0.6987  0.0454
14725TIP3    H244115   1.394   2.849   1.052 -0.0105 -0.2849  0.7932
14726TIP3   OH244116   6.645   5.288   5.991 -0.0770  0.3277 -0.1201
14726TIP3    H144117   6.605   5.239   6.063 -0.3962  1.0393  0.1867
14726TIP3    H244118   6.587   5.363   5.978  0.9104  1.1085  0.0060
14727TIP3   OH244119   6.332   6.883   5.118 -0.3320  0.2660 -0.2822
14727TIP3    H144120   6.358   6.819   5.184 -0.2593 -1.0853 -1.6063
14727TIP3    H244121   6.249   6.851   5.084 -0.8718  1.4904 -0.1635
14728TIP3   OH244122   3.781   4.781   6.026  0.4557 -0.3166  0.3742
14728TIP3    H144123   3.826   4.740   5.953  0.8932  0.8375 -0.0172
14728TIP3    H244124   3.805   4.728   6.102 -0.1270 -1.6134 -0.3275
14729TIP3   OH244125   2.666   3.419   0.041  0.5715 -0.6801  0.3169
14729TIP3    H144126   2.674   3.496  -0.014  1.7824 -0.4658  0.7896
14729TIP3    H244127   2.644   3.453   0.127  0.3734 -0.9102  0.3588
14730TIP3   OH244128   8.075   4.386   6.754 -0.5469  0.0841 -0.5370
14730TIP3    H144129   8.143   4.439   6.711 -0.9586  1.2153  0.1670
14730TIP3    H244130   7.994   4.434   6.737 -0.7525  0.3942  1.2566
14731TIP3   OH244131   6.247   5.982   5.336 -0.1028 -0.0201  0.1496
14731TIP3    H144132   6.258   5.891   5.308 -0.3424 -0.1795  0.5673
14731TIP3    H244133   6.168   6.012   5.292 -0.1964 -0.1098  0.2587
14732TIP3   OH244134   1.657   1.053   6.128 -0.1805  0.2055 -0.2999
14732TIP3    H144135   1.708   1.088   6.054 -1.3137 -1.9834 -2.1959
14732TIP3    H244136   1.578   1.107   6.130 -0.0272  0.4411 -0.5223
14733TIP3   OH244137   3.681   0.978   0.059 -0.3094 -0.1237 -0.4128
14733TIP3    H144138   3.633   1.056   0.089 -1.1949 -0.5472 -0.7286
14733TIP3    H244139   3.658   0.910   0.122 -1.6909 -0.8545 -1.7022
14734TIP3   OH244140   3.903   0.533   1.036 -0.2776  0.1545 -0.0550
14734TIP3    H144141   3.941   0.452   1.003 -0.3036  0.4074 -0.6958
14734TIP3    H244142   3.810   0.514   1.045 -0.3687  0.2854 -0.7159
14735TIP3   OH244143   1.623   1.047   6.895 -0.1392  0.0548 -0.4530
14735TIP3    H144144   1.531   1.029   6.916 -0.3750  2.0710  0.3653
14735TIP3    H244145   1.669   1.033   6.978 -0.2417  2.4446  0.0479
14736TIP3   OH244146   5.223   0.700   6.930 -0.8884  0.1323 -0.0390
14736TIP3    H144147   5.263   0.717   6.845 -0.2606 -0.9292  0.0444
14736TIP3    H244148   5.247   0.777   6.983 -0.1529  0.1551 -0.4087
14737TIP3   OH244149   1.287   3.776   1.780 -0.5886 -0.2113 -0.0824
14737TIP3    H144150   1.225   3.719   1.827 -0.6535 -1.2736 -1.4266
14737TIP3    H244151   1.371   3.759   1.821 -0.7073 -0.8691 -0.1003
14738TIP3   OH244152   7.093   4.667   1.679  0.0851  0.1590 -0.3142
14738TIP3    H144153   7.179   4.670   1.639  0.8224 -1.1896  1.1055
14738TIP3    H244154   7.091   4.583   1.726 -1.2222  1.0686  1.3247
14739TIP3   OH244155   0.810   4.229   2.434 -0.0500  0.1175 -0.1058
14739TIP3    H144156   0.875   4.298   2.422  0.2322 -0.1389 -0.0593
14739TIP3    H244157   0.832   4.189   2.518 -0.1253 -0.1193 -0.1965
14740TIP3   OH244158   8.108   0.959   0.303  1.0138 -0.0826 -0.2092
14740TIP3    H144159   8.054   0.882   0.283 -0.8331  1.3404 -0.9244
14740TIP3    H244160   8.092   1.019   0.230 -0.4363  2.4408  2.0630
14741TIP3   OH244161   3.018   5.944   6.516 -0.3084 -0.5564  0.2160
14741TIP3    H144162   3.077   6.014   6.486 -0.1941 -1.0319 -0.6874
14741TIP3    H244163   2.930   5.977   6.496 -0.3140 -0.1920  0.8261
14742TIP3   OH244164   0.292   5.473   0.113  0.7260  1.0189 -0.3387
14742TIP3    H144165   0.359   5.461   0.046  0.4274  0.2276 -0.4988
14742TIP3    H244166   0.306   5.562   0.146  2.3262  0.5994  0.1514
14743TIP3   OH244167   0.759   6.362   0.879 -0.5702  0.3293 -0.0802
14743TIP3    H144168   0.754   6.427   0.809 -0.5907 -0.4573 -0.8190
14743TIP3    H244169   0.775   6.280   0.834 -2.4187 -0.4946  0.7130
14744TIP3   OH244170   2.804   6.278   4.552  0.0979 -0.2509  0.5381
14744TIP3    H144171   2.710   6.272   4.572  0.3054 -0.8864  1.3832
14744TIP3    H244172   2.815   6.365   4.513 -1.2980 -1.2732 -2.1980
14745TIP3   OH244173   0.296   5.094   1.360 -0.0959 -0.5860 -0.4909
14745TIP3    H144174   0.253   5.011   1.340  1.7376 -1.5944 -0.3183
14745TIP3    H244175   0.305   5.094   1.456 -1.2302  0.4020 -0.3684
14746TIP3   OH244176   2.548   7.781   6.175  0.2384 -0.1732 -0.0819
14746TIP3    H144177   2.569   7.693   6.206 -0.0832 -0.4636 -0.6657
14746TIP3    H244178   2.620   7.802   6.116 -1.7229 -1.7399 -3.1922
14747TIP3   OH244179   1.428   2.867   1.386  0.3029 -0.3512  0.4256
14747TIP3    H144180   1.399   2.940   1.440  1.4735  1.2916 -1.1117
14747TIP3    H244181   1.350   2.839   1.338 -0.0987  0.0351  0.8622
14748TIP3   OH244182   7.908   1.736   0.100  0.1210 -0.3801  0.4333
14748TIP3    H144183   7.961   1.707   0.026 -0.2980 -0.9914  0.3639
14748TIP3    H244184   7.918   1.831   0.101  2.3167 -0.5797  1.2604
14749TIP3   OH244185   6.022   4.174   2.352  0.1174 -0.3014  0.3645
14749TIP3    H144186   5.959   4.159   2.282  0.7482 -0.3139 -0.1989
14749TIP3    H244187   6.083   4.101   2.347  1.1301  0.5667 -0.1419
14750TIP3   OH244188   0.176   5.082   1.958 -0.2422  0.0256 -0.3034
14750TIP3    H144189   0.236   5.150   1.987  0.3559 -0.9046  0.6766
14750TIP3    H244190   0.109   5.128   1.907  0.4984  1.2470 -0.1695
14751TIP3   OH244191   4.047   7.884   6.860 -0.0534 -0.1660 -0.3799
14751TIP3    H144192   3.989   7.815   6.829 -2.7832  1.7385  0.2932
14751TIP3    H244193   4.071   7.857   6.949 -0.7484 -0.4610 -0.2778
14752TIP3   OH244194   0.234   2.916   0.240 -0.2852  0.2224 -0.3980
14752TIP3    H144195   0.213   2.938   0.149  0.7628  0.6280 -0.5587
14752TIP3    H244196   0.270   2.997   0.276 -0.9317  0.1290  0.4555
14753TIP3   OH244197   5.380   2.267   6.318  0.4128  0.5371 -0.2244
14753TIP3    H144198   5.428   2.287   6.399 -0.1277  0.3881  0.1403
14753TIP3    H244199   5.428   2.313   6.250  1.3383  0.0216  0.0671
14754TIP3   OH244200   7.842   2.713   1.171  0.2884 -0.1734  0.1498
14754TIP3    H144201   7.882   2.720   1.085 -0.7673 -2.6655 -0.5854
14754TIP3    H244202   7.905   2.665   1.224  0.2517 -0.0319  0.3243
14755TIP3   OH244203   8.137   3.290   0.328  0.4534 -0.2265 -0.1192
14755TIP3    H144204   8.192   3.308   0.252  1.8676 -1.5185  0.5588
14755TIP3    H244205   8.082   3.367   0.338  2.6999  1.4326 -0.3476
14756TIP3   OH244206   2.277   7.799   6.191 -0.1378 -0.4440 -0.0665
14756TIP3    H144207   2.228   7.748   6.127 -1.3702 -0.0839  0.5705
14756TIP3    H244208   2.368   7.772   6.179 -0.5581 -1.5274 -0.8952
14757TIP3   OH244209   1.018   5.998   0.991 -0.3188  0.5081  0.5959
14757TIP3    H144210   0.965   5.969   1.065  0.4312  1.1710  1.4036
14757TIP3    H244211   1.078   6.064   1.028  0.9136 -0.0612 -0.3371
14758TIP3   OH244212   1.698   3.714   1.218 -0.1168  0.3885 -0.3446
14758TIP3    H144213   1.776   3.680   1.176 -0.0878  0.7950 -0.6296
14758TIP3    H244214   1.626   3.662   1.181 -0.0841  0.6967 -0.8497
14759TIP3   OH244215   2.493   5.594   1.544 -0.6757  0.7136  0.2891
14759TIP3    H144216   2.545   5.541   1.605 -0.7931 -1.4716 -1.4697
14759TIP3    H244217   2.557   5.631   1.484 -0.9689 -0.8869 -1.0511
14760TIP3   OH244218   6.866   0.239   5.491  0.2869  0.0844  0.4516
14760TIP3    H144219   6.950   0.205   5.458  0.0731 -1.0658  1.0471
14760TIP3    H244220   6.802   0.174   5.462 -0.2401  0.3817  0.9558
14761TIP3   OH244221   7.841   1.450   6.879  0.1171 -0.8013 -0.2677
14761TIP3    H144222   7.767   1.461   6.938 -0.6587 -0.3517 -1.3113
14761TIP3    H244223   7.910   1.413   6.934 -0.4880 -0.0930  0.9922
14762TIP3   OH244224   0.998   3.649   1.806  0.3593 -0.0372 -0.4337
14762TIP3    H144225   0.958   3.636   1.720  0.1673 -0.6387 -0.2572
14762TIP3    H244226   1.041   3.565   1.825  2.4323  0.8579 -0.9961
14763TIP3   OH244227   3.258   5.390   0.807 -0.0641  0.2691 -0.0167
14763TIP3    H144228   3.198   5.337   0.860 -0.0390  0.7604  0.5085
14763TIP3    H244229   3.222   5.388   0.719 -2.6625  3.2514  0.9011
14764TIP3   OH244230   1.506   5.982   0.353 -0.3555  0.0457 -0.0420
14764TIP3    H144231   1.559   5.907   0.379  0.2916  0.3264 -0.5304
14764TIP3    H244232   1.483   5.964   0.262 -3.9886 -1.7395  1.1201
14765TIP3   OH244233   0.720   4.968   1.705  0.0682 -0.4514  0.2979
14765TIP3    H144234   0.767   5.040   1.748 -0.1844  1.6945 -2.9040
14765TIP3    H244235   0.785   4.898   1.698  2.0985  1.5439 -1.7422
14766TIP3   OH244236   0.810   1.021   4.102  0.0285  0.0879  0.8681
14766TIP3    H144237   0.846   1.004   4.015  0.1821  0.0062  0.9470
14766TIP3    H244238   0.774   1.109   4.097 -2.6937 -1.0400 -0.1910
14767TIP3   OH244239   8.265   0.867   6.150  0.3475 -0.2266  0.2411
14767TIP3    H144240   8.251   0.935   6.084  1.7209  0.2205  0.3828
14767TIP3    H244241   8.243   0.785   6.105  0.1038  0.1856 -0.3989
14768TIP3   OH244242   5.245   6.829   6.242 -0.2242 -0.2403 -0.1908
14768TIP3    H144243   5.150   6.817   6.245 -0.2705  0.4537  1.3704
14768TIP3    H244244   5.261   6.878   6.161 -1.2000 -0.1971 -0.3563
14769TIP3   OH244245   7.185   4.855   2.101  0.1064 -0.4474  0.1929
14769TIP3    H144246   7.239   4.870   2.023 -0.3730 -0.6663 -0.1877
14769TIP3    H244247   7.120   4.925   2.099 -0.8227 -1.3009 -0.4244
14770TIP3   OH244248   4.458   7.674   5.627  0.2122  0.1812  0.3470
14770TIP3    H144249   4.522   7.729   5.582 -1.0933  0.2834 -1.4268
14770TIP3    H244250   4.382   7.731   5.640 -0.1523 -0.4226  0.9025
14771TIP3   OH244251   7.717   1.022   6.253  0.2645 -0.0381 -0.0702
14771TIP3    H144252   7.737   1.101   6.203  1.0803 -0.0363  0.2599
14771TIP3    H244253   7.623   1.009   6.240  0.2939  0.4913 -0.8386
14772TIP3   OH244254   5.709   1.870   5.901 -0.4605 -0.2431  0.2674
14772TIP3    H144255   5.761   1.935   5.853  0.1615  0.4884  1.8973
14772TIP3    H244256   5.659   1.825   5.833  0.2299  0.9236 -1.0495
14773TIP3   OH244257   6.043   0.285   4.729 -0.3559  0.3671 -0.1349
14773TIP3    H144258   6.093   0.326   4.800  0.2458  2.5546 -1.7758
14773TIP3    H244259   6.045   0.191   4.750  3.2069  0.5463  0.6335
14774TIP3   OH244260   2.185   3.823   0.076 -0.0756  0.0572 -0.1135
14774TIP3    H144261   2.112   3.876   0.110 -0.2687 -0.8986  0.9972
14774TIP3    H244262   2.153   3.787  -0.006 -1.3871 -1.4857  1.0463
14775TIP3   OH244263   1.004   3.593   0.408  0.0409 -0.2402 -0.1481
14775TIP3    H144264   0.963   3.605   0.494 -0.6342  0.6902 -0.5865
14775TIP3    H244265   1.007   3.499   0.396  2.8470 -0.5376  2.1795
14776TIP3   OH244266   4.387   6.558   5.474  0.0647  0.1474  0.1469
14776TIP3    H144267   4.425   6.636   5.434  2.0903 -0.2751  1.1734
14776TIP3    H244268   4.323   6.527   5.411 -0.1280  2.1408 -0.6559
14777TIP3   OH244269   3.756   6.362   6.036  0.0048  0.1988  0.5060
14777TIP3    H144270   3.761   6.285   5.979  2.7202  1.5383 -1.1864
14777TIP3    H244271   3.716   6.330   6.117 -0.1451 -2.6688 -0.6637
14778TIP3   OH244272   4.298   1.408   6.949  0.2669  0.1669 -0.0090
14778TIP3    H144273   4.232   1.417   6.879  1.6313 -2.2859 -1.6845
14778TIP3    H244274   4.372   1.459   6.918  0.6973 -0.5324 -0.1442
14779TIP3   OH244275   7.718   0.069   5.194  0.2682 -0.9881 -0.2080
14779TIP3    H144276   7.722   0.130   5.268  0.4744 -0.0579 -0.9754
14779TIP3    H244277   7.805   0.076   5.153  0.0826 -1.3424 -0.6628
14780TIP3   OH244278   1.688   3.367   0.231 -0.2263  0.1909  0.9240
14780TIP3    H144279   1.759   3.367   0.168 -2.1042  0.2788 -1.2677
14780TIP3    H244280   1.726   3.401   0.312  2.2095  0.1273 -0.1755
14781TIP3   OH244281   2.091   4.965   0.846  0.4170 -0.2113  0.2175
14781TIP3    H144282   2.141   4.995   0.921  0.8541 -0.7868  0.1569
14781TIP3    H244283   2.103   4.870   0.845  1.2268 -0.1127 -1.1611
14782TIP3   OH244284   7.581   1.382   6.099  0.0155 -0.1758 -0.4467
14782TIP3    H144285   7.569   1.471   6.134 -0.9117 -0.1530 -0.8126
14782TIP3    H244286   7.545   1.387   6.010 -1.8650 -1.4243  0.2119
14783TIP3   OH244287   5.122   7.762   6.667 -0.2255  0.3227  0.6711
14783TIP3    H144288   5.053   7.788   6.727 -2.1797  0.4449 -1.5511
14783TIP3    H244289   5.155   7.679   6.701 -1.4112  0.3141  1.8046
14784TIP3   OH244290   1.738   1.239   6.724  0.1690 -0.1700  0.5399
14784TIP3    H144291   1.798   1.196   6.664 -0.0585 -0.1292  0.2850
14784TIP3    H244292   1.708   1.170   6.783  0.3227 -0.2254  0.5541
14785TIP3   OH244293   0.199   1.549   6.210  0.4016 -0.3734  0.3175
14785TIP3    H144294   0.159   1.635   6.193  1.6996  0.4113  1.1319
14785TIP3    H244295   0.260   1.537   6.137  0.7977 -0.2439  0.6279
14786TIP3   OH244296   0.051   1.580   6.735 -0.2070 -0.2709  0.8364
14786TIP3    H144297   0.137   1.541   6.754  0.1524  0.8198  1.5058
14786TIP3    H244298   0.062   1.618   6.647 -0.2977 -0.9188  0.5378
14787TIP3   OH244299   2.824   7.210   6.430  0.6148  0.3465 -0.4222
14787TIP3    H144300   2.802   7.289   6.480  2.2818  1.1248 -0.8857
14787TIP3    H244301   2.898   7.171   6.477 -0.5591 -1.2660  0.1227
14788TIP3   OH244302   0.882   1.485   5.753 -0.1035  1.0879 -0.0429
14788TIP3    H144303   0.827   1.522   5.822 -1.4733  0.0338 -0.5527
14788TIP3    H244304   0.834   1.499   5.672  1.3259  1.9801 -0.7623
14789TIP3   OH244305   5.646   0.329   6.376  0.3188  0.2250 -0.6087
14789TIP3    H144306   5.729   0.338   6.330  0.4319 -1.0137 -0.6846
14789TIP3    H244307   5.611   0.245   6.345 -0.5896  0.3783 -0.0085
14790TIP3   OH244308   1.192   6.755   6.634 -0.1409 -0.2315 -0.1708
14790TIP3    H144309   1.235   6.736   6.551 -0.4406  3.3316 -1.2343
14790TIP3    H244310   1.106   6.790   6.609  0.1011  1.7123  1.5654
14791TIP3   OH244311   7.500   0.449   5.087 -0.4063  0.0134  0.4010
14791TIP3    H144312   7.569   0.505   5.122  0.1554 -0.2139 -0.3330
14791TIP3    H244313   7.543   0.397   5.019 -1.2351 -0.3293  0.1308
14792TIP3   OH244314   7.949   2.538   6.194  0.0089  0.5952  0.3047
14792TIP3    H144315   8.002   2.617   6.210  2.6090 -1.2359  1.1262
14792TIP3    H244316   7.940   2.498   6.280  0.8550 -1.2877 -0.4544
14793TIP3   OH244317   1.447   3.169   0.770 -0.4016 -0.6599 -0.6052
14793TIP3    H144318   1.490   3.159   0.685  2.0751  0.1161  0.5123
14793TIP3    H244319   1.467   3.088   0.817 -0.3386 -0.3924 -0.1618
14794TIP3   OH244320   1.017   5.066   1.410  0.3965  0.3366  0.0984
14794TIP3    H144321   1.027   5.063   1.315 -1.0814  4.2873 -0.2758
14794TIP3    H244322   1.022   5.159   1.432 -1.3353 -0.3151  3.6625
14795TIP3   OH244323   8.473   1.185   6.486 -0.1233 -0.5926 -0.4458
14795TIP3    H144324   8.443   1.098   6.511 -0.2273 -0.0601  1.3514
14795TIP3    H244325   8.528   1.213   6.559 -1.0677  1.3272 -0.4377
14796TIP3   OH244326   4.321   7.089   6.545  0.0553  0.5846  0.1209
14796TIP3    H144327   4.253   7.021   6.537  0.1285  0.6257 -0.9591
14796TIP3    H244328   4.391   7.059   6.487  0.4261  1.1739  0.2654
14797TIP3   OH244329   4.240   7.879   6.624  0.4233 -0.4696  0.6045
14797TIP3    H144330   4.149   7.892   6.649  0.0858 -2.0914  0.2484
14797TIP3    H244331   4.286   7.865   6.707  0.4628  0.9315  0.8312
14798TIP3   OH244332   7.382   1.627   5.247  0.4157  0.1225  0.2096
14798TIP3    H144333   7.306   1.570   5.256  0.2601  0.4024  0.7169
14798TIP3    H244334   7.404   1.625   5.154 -0.5646  0.5012 -0.0290
14799TIP3   OH244335   6.478   0.991   6.324 -0.5728 -0.5325  0.0235
14799TIP3    H144336   6.570   1.017   6.326 -1.1618  1.6252  1.8616
14799TIP3    H244337   6.480   0.896   6.320  1.7518 -0.5418  0.4685
14800TIP3   OH244338   1.325   4.825   0.612  0.0648  0.0293 -0.3941
14800TIP3    H144339   1.391   4.765   0.579 -0.0434  0.5463 -1.5968
14800TIP3    H244340   1.276   4.851   0.534 -0.9065  0.4264  0.3451
14801TIP3   OH244341   6.963   2.282   6.373  0.7732 -0.4004  0.1671
14801TIP3    H144342   7.006   2.331   6.443 -0.8672  0.5642  0.5224
14801TIP3    H244343   6.985   2.330   6.293 -1.1386  1.1716  0.5556
14802TIP3   OH244344   0.047   3.086   4.428 -0.5610  0.2012 -0.6798
14802TIP3    H144345   0.110   3.030   4.472 -0.6370  1.9079  1.6785
14802TIP3    H244346  -0.030   3.031   4.414  0.8529 -1.4391 -2.1553
14803TIP3   OH244347   0.234   5.087   1.633  0.7867  0.6585 -0.2231
14803TIP3    H144348   0.312   5.033   1.646  0.5195 -0.0727 -1.5289
14803TIP3    H244349   0.235   5.150   1.705  0.9941 -1.2386  1.4765
14804TIP3   OH244350   8.071   2.686   6.597 -0.1096  0.5060  0.2098
14804TIP3    H144351   8.145   2.632   6.570 -0.0007  0.4771  0.5593
14804TIP3    H244352   8.063   2.753   6.529 -0.9703 -0.6443 -0.8257
14805TIP3   OH244353   1.372   2.927  -0.001 -0.1179  0.5113  0.6075
14805TIP3    H144354   1.293   2.879   0.021 -0.0571  0.6946  1.2404
14805TIP3    H244355   1.441   2.884   0.050 -0.4199  2.6028  2.8783
14806TIP3   OH244356   2.990   5.101   0.058 -0.6070 -0.6618 -0.0833
14806TIP3    H144357   3.004   5.133   0.147 -2.6455 -0.2512  0.1179
14806TIP3    H244358   2.930   5.027   0.069 -3.7569  1.6263 -1.3951
14807TIP3   OH244359   5.936   6.792   5.820  0.3037 -0.3212  0.7077
14807TIP3    H144360   5.936   6.722   5.885 -0.4422 -1.8758 -0.8876
14807TIP3    H244361   6.014   6.776   5.767 -0.4591 -0.6295 -0.3439
14808TIP3   OH244362   7.906   0.502   5.386 -0.3773  0.2820 -0.0830
14808TIP3    H144363   7.897   0.438   5.457 -1.4019 -1.6694 -1.8991
14808TIP3    H244364   8.000   0.516   5.379 -0.2050 -0.2021  1.0579
14809TIP3   OH244365   8.178   3.685   0.486 -0.1458  0.0300  0.3483
14809TIP3    H144366   8.184   3.765   0.539  1.5884  0.3557 -0.3371
14809TIP3    H244367   8.149   3.716   0.400 -1.2959 -0.3144  0.5929
14810TIP3   OH244368   5.454   7.615   4.063  0.1695  0.2279 -0.5903
14810TIP3    H144369   5.546   7.632   4.085 -0.0220 -1.3039  1.5965
14810TIP3    H244370   5.457   7.578   3.975  1.8108 -0.9185 -0.0977
14811TIP3   OH244371   1.217   4.453   5.739 -0.1364  0.0888 -0.1047
14811TIP3    H144372   1.220   4.548   5.735  1.5297  0.0690  0.3940
14811TIP3    H244373   1.144   4.434   5.798 -1.1813  1.0191 -1.0806
14812TIP3   OH244374   6.722   1.443   5.612  0.3674 -0.3669 -0.3632
14812TIP3    H144375   6.770   1.510   5.563  0.3569 -1.0313 -1.3074
14812TIP3    H244376   6.715   1.369   5.551  0.5159 -1.2921  0.7166
14813TIP3   OH244377   2.818   7.975   5.817 -0.0599  0.2823 -0.0266
14813TIP3    H144378   2.760   7.899   5.824  1.7646 -1.1644 -0.2408
14813TIP3    H244379   2.879   7.965   5.890  1.5571  0.3541 -1.3615
14814TIP3   OH244380   7.038   0.689   6.263  0.1773 -0.5281  0.0148
14814TIP3    H144381   6.991   0.620   6.217  0.6953 -0.1069 -1.1605
14814TIP3    H244382   7.115   0.645   6.300 -0.5198 -0.9772  0.9516
14815TIP3   OH244383   1.458   3.979   0.424  0.2839  0.2412 -0.2145
14815TIP3    H144384   1.445   3.885   0.440 -1.4925  0.3468 -0.9280
14815TIP3    H244385   1.434   4.020   0.507 -0.4700  0.1660 -0.3898
14816TIP3   OH244386   2.833   4.864   0.106  0.5398 -0.2425  0.4531
14816TIP3    H144387   2.742   4.853   0.078  0.7183  1.1229 -0.7289
14816TIP3    H244388   2.841   4.809   0.184 -1.2354 -0.5379  0.4493
14817TIP3   OH244389   6.118   7.097   5.554 -0.2978  0.0908 -0.0921
14817TIP3    H144390   6.109   7.178   5.604 -0.1947  0.0972 -0.0849
14817TIP3    H244391   6.204   7.104   5.512 -0.6380  0.3610 -0.7486
14818TIP3   OH244392   5.153   7.710   5.079  0.4704 -0.6624 -0.4033
14818TIP3    H144393   5.155   7.620   5.047 -1.6890 -0.4164 -1.3197
14818TIP3    H244394   5.060   7.734   5.079  1.1589  2.3744 -2.4637
14819TIP3   OH244395   6.032   6.820   6.131  0.4087 -0.2432  0.0509
14819TIP3    H144396   6.110   6.764   6.143 -0.0727 -1.0941 -0.7146
14819TIP3    H244397   5.971   6.790   6.197  1.2443  1.4018  1.6215
14820TIP3   OH244398   5.340   6.301   6.308  0.0610 -0.7446  0.7179
14820TIP3    H144399   5.312   6.392   6.313  0.6561 -0.5180 -0.1020
14820TIP3    H244400   5.281   6.261   6.243  0.0541 -0.8571  0.7930
14821TIP3   OH244401   6.396   7.754   5.136 -0.3646  0.0123 -0.5479
14821TIP3    H144402   6.306   7.730   5.155 -0.5805  0.9028 -0.4163
14821TIP3    H244403   6.389   7.823   5.069  0.2457 -0.4836 -1.1279
14822TIP3   OH244404   6.675   2.892   6.164  0.0562  0.4323 -0.1829
14822TIP3    H144405   6.703   2.806   6.197 -1.5955 -0.3238 -0.6679
14822TIP3    H244406   6.612   2.923   6.229 -0.2668  0.7185 -0.6311
14823TIP3   OH244407   6.945   0.281   6.420 -0.4011 -0.0258 -0.6118
14823TIP3    H144408   6.967   0.210   6.359  0.8308 -0.5629  0.4353
14823TIP3    H244409   6.908   0.235   6.496  0.5452  0.4418  0.1314
14824TIP3   OH244410   7.855   1.189   6.065  0.7724 -0.0628 -0.1478
14824TIP3    H144411   7.810   1.264   6.104  0.7791 -0.8880  1.4834
14824TIP3    H244412   7.821   1.184   5.976 -1.1473  0.3234  0.5336
14825TIP3   OH244413   6.295   6.544   5.592  0.4802  0.2306 -0.1959
14825TIP3    H144414   6.365   6.549   5.527  1.3603 -1.2786  0.5998
14825TIP3    H244415   6.337   6.507   5.670 -0.3898  2.6079  1.4816
   8.50000   8.01388   6.94022   0.00000   0.00000  -2.83333   0.00000  -2.83333  -4.00694
