* SET NIONTYPES = 1
* SET NPOSTOT = 52
* SET NNEGTOT = 48
* SET NIONTOT = 100
*  DATE:     6/13/26      8: 6:15      CREATED BY USER: charmm-gui
*
       100  EXT
         1         1  LIT       LIT           -14.6253455029       -1.0895565611      -35.1412634956  IONS      1               1.0000000000
         2         2  LIT       LIT           -33.8256898855       19.6036649798       14.2001153845  IONS      2               1.0000000000
         3         3  LIT       LIT           -17.4192757448       -0.8184274715       -3.2314484091  IONS      3               1.0000000000
         4         4  LIT       LIT            26.1372700437       35.1348972478      -29.0628560439  IONS      4               1.0000000000
         5         5  LIT       LIT            45.6782250366       -0.6004997592        0.8341229057  IONS      5               1.0000000000
         6         6  LIT       LIT           -11.2950050431      -27.2919368756       37.9989299458  IONS      6               1.0000000000
         7         7  LIT       LIT           -10.0138040050       -7.3754316486      -39.3566443529  IONS      7               1.0000000000
         8         8  LIT       LIT           -12.2708340807       24.3025682671       30.1501705697  IONS      8               1.0000000000
         9         9  LIT       LIT             9.2496891965        8.1590578736        8.0879669224  IONS      9               1.0000000000
        10        10  LIT       LIT            -0.6678269433       18.0526726218       28.0886482746  IONS      10              1.0000000000
        11        11  LIT       LIT            33.9394592634       23.7646614562       -5.5426289940  IONS      11              1.0000000000
        12        12  LIT       LIT            20.8515814133       -3.7869029237       23.4177187420  IONS      12              1.0000000000
        13        13  LIT       LIT            17.0397402257       12.5828715178      -10.0246143294  IONS      13              1.0000000000
        14        14  LIT       LIT            29.7239679904      -20.1766042010      -20.2195765667  IONS      14              1.0000000000
        15        15  LIT       LIT            17.6275203898       11.8538733040      -33.7415696123  IONS      15              1.0000000000
        16        16  LIT       LIT             9.4601592481      -10.2827307354       14.8491357598  IONS      16              1.0000000000
        17        17  LIT       LIT           -12.0829743313       29.2968570940      -18.6296751844  IONS      17              1.0000000000
        18        18  LIT       LIT           -31.6244755656       20.1793859638      -31.8429227830  IONS      18              1.0000000000
        19        19  LIT       LIT            -2.3669102131       -4.2245328113       32.7826902564  IONS      19              1.0000000000
        20        20  LIT       LIT           -27.3510357160       29.4612679260      -16.9836030308  IONS      20              1.0000000000
        21        21  LIT       LIT           -32.3007432406       -6.1026816440      -26.1126972930  IONS      21              1.0000000000
        22        22  LIT       LIT             5.0933853153      -15.2067833844       -9.8372954995  IONS      22              1.0000000000
        23        23  LIT       LIT            -4.9745494011       22.8457257461       42.4997448148  IONS      23              1.0000000000
        24        24  LIT       LIT            28.3344297736       11.8775090083       11.5007115465  IONS      24              1.0000000000
        25        25  LIT       LIT            42.1320405978       32.9647883743       -2.4306703284  IONS      25              1.0000000000
        26        26  LIT       LIT           -17.2594413345      -16.9566742440       -9.5522430845  IONS      26              1.0000000000
        27        27  LIT       LIT            13.2158150434        7.1714199163       32.1650337969  IONS      27              1.0000000000
        28        28  LIT       LIT           -29.1062003255       30.3544010037       -1.7876920525  IONS      28              1.0000000000
        29        29  LIT       LIT            19.0836151743       32.6005090870        4.9442575561  IONS      29              1.0000000000
        30        30  LIT       LIT            28.6743269523      -14.1061573956      -33.1931042067  IONS      30              1.0000000000
        31        31  LIT       LIT            13.9945423549       23.9213102065      -22.1154528705  IONS      31              1.0000000000
        32        32  LIT       LIT             1.2345799574      -22.4267496382       12.7284332195  IONS      32              1.0000000000
        33        33  LIT       LIT            24.6336273411       -2.0645228709       14.3713473134  IONS      33              1.0000000000
        34        34  LIT       LIT            29.9849442365      -14.2789986026       38.2388783031  IONS      34              1.0000000000
        35        35  LIT       LIT             8.9900276064      -28.9302030071        9.8221783463  IONS      35              1.0000000000
        36        36  LIT       LIT            31.8084565058       12.5432289101       29.8437798343  IONS      36              1.0000000000
        37        37  LIT       LIT           -10.8105009468       -0.6701269607       42.4714921912  IONS      37              1.0000000000
        38        38  LIT       LIT            22.1927122013       11.4202449337      -20.6795820773  IONS      38              1.0000000000
        39        39  LIT       LIT            21.7373175735      -44.2541767695      -18.8332769737  IONS      39              1.0000000000
        40        40  LIT       LIT           -35.3432600519      -34.9945821472       -3.5059027107  IONS      40              1.0000000000
        41        41  LIT       LIT            -5.4180349094      -25.5385942767       -2.9469469527  IONS      41              1.0000000000
        42        42  LIT       LIT             2.8847941623       40.2116851733      -26.1547609170  IONS      42              1.0000000000
        43        43  LIT       LIT           -23.8577936206        6.6608666407      -44.5977611227  IONS      43              1.0000000000
        44        44  LIT       LIT           -39.4324753153       -8.0494053744       24.2173803916  IONS      44              1.0000000000
        45        45  LIT       LIT           -21.6083364944       27.5275605793       28.0561348516  IONS      45              1.0000000000
        46        46  LIT       LIT            31.1135342481        1.5965825340       40.3078716419  IONS      46              1.0000000000
        47        47  LIT       LIT            -8.2973790372       34.6743035062      -36.4993354102  IONS      47              1.0000000000
        48        48  LIT       LIT           -21.1587670519      -23.5194466478      -29.9383743514  IONS      48              1.0000000000
        49        49  LIT       LIT            14.2013237079       42.0025236738        9.9276093851  IONS      49              1.0000000000
        50        50  LIT       LIT            15.1020930952        4.8168456235        3.1914442483  IONS      50              1.0000000000
        51        51  LIT       LIT             9.0884267467      -14.8395196333       29.8865477347  IONS      51              1.0000000000
        52        52  LIT       LIT           -10.2941083140      -12.6709743468      -13.9177713323  IONS      52              1.0000000000
        53        53  CLA       CLA           -14.0831482297       26.9548964669      -39.3634803030  IONS      53             -1.0000000000
        54        54  CLA       CLA            19.6997111028       -4.1087391905       39.9624643146  IONS      54             -1.0000000000
        55        55  CLA       CLA            12.8625486745       39.5879294578        5.7548506116  IONS      55             -1.0000000000
        56        56  CLA       CLA            32.3024020872       15.9443064345       28.8272242242  IONS      56             -1.0000000000
        57        57  CLA       CLA            30.6691034080       23.6266384775        7.6470909378  IONS      57             -1.0000000000
        58        58  CLA       CLA             9.0780502122       48.7710858062       13.4203128832  IONS      58             -1.0000000000
        59        59  CLA       CLA            32.1263494693      -36.8073377509        8.1043457848  IONS      59             -1.0000000000
        60        60  CLA       CLA            16.4165681748       16.3775933323       22.3074761775  IONS      60             -1.0000000000
        61        61  CLA       CLA            29.6669472236       -9.5972323673       37.6291357153  IONS      61             -1.0000000000
        62        62  CLA       CLA           -17.8309425551       36.3611676708      -22.1977869927  IONS      62             -1.0000000000
        63        63  CLA       CLA            14.0423955753      -33.4737262216      -28.9726189423  IONS      63             -1.0000000000
        64        64  CLA       CLA            -4.2202156765      -10.0781176010      -15.1945434468  IONS      64             -1.0000000000
        65        65  CLA       CLA            33.8208212645      -24.0733026895      -26.9224271225  IONS      65             -1.0000000000
        66        66  CLA       CLA           -17.3381628199       -7.5073102542       -8.4224067615  IONS      66             -1.0000000000
        67        67  CLA       CLA            18.4425452634       22.0750032272      -35.8093005941  IONS      67             -1.0000000000
        68        68  CLA       CLA           -14.7351158450       46.3042865463       16.1122135435  IONS      68             -1.0000000000
        69        69  CLA       CLA            11.1476370302      -15.0040852010       25.4835581526  IONS      69             -1.0000000000
        70        70  CLA       CLA             5.0881328924       19.2295847195       26.4697092202  IONS      70             -1.0000000000
        71        71  CLA       CLA           -29.6757023101      -22.5490730497       17.9033897051  IONS      71             -1.0000000000
        72        72  CLA       CLA            29.3284800391        2.0229669313       33.9610949441  IONS      72             -1.0000000000
        73        73  CLA       CLA           -13.5560520162       -3.4657155661      -41.2880836414  IONS      73             -1.0000000000
        74        74  CLA       CLA           -13.0885457877       18.4313808068      -10.3704409967  IONS      74             -1.0000000000
        75        75  CLA       CLA             4.5162634551       17.0343132820       46.2463761322  IONS      75             -1.0000000000
        76        76  CLA       CLA           -20.0213684508       34.2409245440       32.2924105335  IONS      76             -1.0000000000
        77        77  CLA       CLA           -21.2523695422      -19.0736347756      -24.6128749719  IONS      77             -1.0000000000
        78        78  CLA       CLA            19.3288440357       11.7996207917       34.2081436946  IONS      78             -1.0000000000
        79        79  CLA       CLA            15.6888789057       -7.0012461213        4.9441994351  IONS      79             -1.0000000000
        80        80  CLA       CLA           -20.6223385939      -19.9695695318        1.6330656040  IONS      80             -1.0000000000
        81        81  CLA       CLA            44.0089401447       -0.0079934256       25.3555783287  IONS      81             -1.0000000000
        82        82  CLA       CLA           -34.7725929333      -13.7663606306      -28.5330690191  IONS      82             -1.0000000000
        83        83  CLA       CLA           -23.8971224710      -43.0005139201        1.2862880042  IONS      83             -1.0000000000
        84        84  CLA       CLA           -20.5781065672      -16.8986737223      -15.4269585631  IONS      84             -1.0000000000
        85        85  CLA       CLA           -38.4917477457       27.8827351816        5.6055156057  IONS      85             -1.0000000000
        86        86  CLA       CLA             7.7633150232       22.5109647439      -15.0819595933  IONS      86             -1.0000000000
        87        87  CLA       CLA            -6.7526282799       20.3744289902      -25.4393382816  IONS      87             -1.0000000000
        88        88  CLA       CLA           -32.0444101621       -0.8918319281       -2.6049812995  IONS      88             -1.0000000000
        89        89  CLA       CLA           -25.9204540742        8.5570991885      -43.6372873631  IONS      89             -1.0000000000
        90        90  CLA       CLA            -8.9526631660       22.7653425107       13.3054866235  IONS      90             -1.0000000000
        91        91  CLA       CLA             2.1037683778      -30.5987634989        9.4161674592  IONS      91             -1.0000000000
        92        92  CLA       CLA            -7.3712064228      -19.4844593092      -32.6311875948  IONS      92             -1.0000000000
        93        93  CLA       CLA           -19.0208313753        8.0860378695      -26.9470577032  IONS      93             -1.0000000000
        94        94  CLA       CLA             8.2300130080       13.1784889248       13.9564884603  IONS      94             -1.0000000000
        95        95  CLA       CLA            -4.8171200407       -5.9947376064      -18.1342052768  IONS      95             -1.0000000000
        96        96  CLA       CLA            23.5132273904      -14.8419265928      -32.5071631066  IONS      96             -1.0000000000
        97        97  CLA       CLA           -15.4760526307        0.6807736123       13.6508016901  IONS      97             -1.0000000000
        98        98  CLA       CLA            -7.9703295603       -6.1381144299       37.9023657964  IONS      98             -1.0000000000
        99        99  CLA       CLA            26.1327319439      -11.9074325047        0.5666119038  IONS      99             -1.0000000000
       100       100  CLA       CLA             7.9569784328       33.8303944973      -34.8741963114  IONS      100            -1.0000000000
