* GENERATED BY CHARMM-GUI (HTTP://WWW.CHARMM-GUI.ORG) V3.7 ON JUN, 13. 2026. JOB
* GENERATES IONS
*  DATE:     6/13/26      8: 5:40      CREATED BY USER: charmm-gui
*
       171  EXT
         1         1  GLY       N              23.4216724730       -1.0267135725       -0.6080441584  PROA      1              97.6100000000
         2         1  GLY       HT1            24.2358695270       -0.5843572721       -0.1358111009  PROA      1               0.0000000000
         3         1  GLY       HT2            23.0308949355       -0.3697065759       -1.3131926242  PROA      1               0.0000000000
         4         1  GLY       HT3            23.7281889647       -1.9005012497       -1.0814809247  PROA      1               0.0000000000
         5         1  GLY       CA             22.4011009970       -1.3422949380        0.3783027705  PROA      1              98.0100000000
         6         1  GLY       HA1            22.2339571058       -0.4539650878        0.9692643756  PROA      1               0.0000000000
         7         1  GLY       HA2            22.7829183528       -2.1403119040        0.9977275444  PROA      1               0.0000000000
         8         1  GLY       C              21.0872906674       -1.7804376196       -0.2410787018  PROA      1              98.2600000000
         9         1  GLY       O              20.8947021629       -1.6558249037       -1.4524474892  PROA      1              98.0000000000
        10         2  PRO       N              20.0374547606       -2.3019135030        0.5151920645  PROA      2              98.5300000000
        11         2  PRO       CD             20.3096099679       -2.7471642201        1.7638490798  PROA      2              95.9700000000
        12         2  PRO       HD1            20.3825396261       -1.8858943002        2.4610218892  PROA      2               0.0000000000
        13         2  PRO       HD2            21.2650832872       -3.3130340184        1.7597694033  PROA      2               0.0000000000
        14         2  PRO       CA             18.7191508073       -2.6463578357       -0.0211928613  PROA      2              98.5500000000
        15         2  PRO       HA             18.8208404214       -3.2155326368       -0.9312460100  PROA      2               0.0000000000
        16         2  PRO       CB             18.0536013756       -3.3997936564        1.1332041319  PROA      2              98.4200000000
        17         2  PRO       HB1            17.6254434008       -4.3624794985        0.7810917690  PROA      2               0.0000000000
        18         2  PRO       HB2            17.2426198015       -2.7906173894        1.5862820066  PROA      2               0.0000000000
        19         2  PRO       CG             19.1528244797       -3.6364271277        2.1177711269  PROA      2              97.5000000000
        20         2  PRO       HG1            18.7972294825       -3.4029146478        3.1440840725  PROA      2               0.0000000000
        21         2  PRO       HG2            19.4697073548       -4.7006433246        2.0813943203  PROA      2               0.0000000000
        22         2  PRO       C              17.9013566972       -1.4171695963       -0.4120496965  PROA      2              98.6000000000
        23         2  PRO       O              18.1691350552       -0.3143058300        0.0721726327  PROA      2              98.5100000000
        24         3  GLY       N              17.0023180765       -1.5798384611       -1.3466685487  PROA      3              98.4000000000
        25         3  GLY       HN             16.8883492279       -2.4500440169       -1.8192088220  PROA      3               0.0000000000
        26         3  GLY       CA             16.1077618433       -0.5121437722       -1.7642163865  PROA      3              98.3800000000
        27         3  GLY       HA1            15.5268270824       -0.8760836083       -2.5986906366  PROA      3               0.0000000000
        28         3  GLY       HA2            16.7154996899        0.3262439692       -2.0708845780  PROA      3               0.0000000000
        29         3  GLY       C              15.1632063225       -0.0601815442       -0.6665392879  PROA      3              98.5500000000
        30         3  GLY       O              15.0283349289       -0.7321931377        0.3584710171  PROA      3              98.4700000000
        31         4  ASP       N              14.6132786757        1.1920643724       -0.9140019066  PROA      4              98.2300000000
        32         4  ASP       HN             14.8879211109        1.7859407667       -1.6659692671  PROA      4               0.0000000000
        33         4  ASP       CA             13.5670958073        1.6614850797       -0.0111582848  PROA      4              98.2000000000
        34         4  ASP       HA             13.9574939665        1.6370435484        0.9953987858  PROA      4               0.0000000000
        35         4  ASP       CB             13.1367803400        3.0828411753       -0.3804555203  PROA      4              98.0400000000
        36         4  ASP       HB1            12.2338817274        3.3497117376        0.2088078446  PROA      4               0.0000000000
        37         4  ASP       HB2            12.8885206926        3.1136307207       -1.4626275336  PROA      4               0.0000000000
        38         4  ASP       CG             14.2127735421        4.1182739794       -0.1052782368  PROA      4              96.2900000000
        39         4  ASP       OD1            15.1157744727        3.8561474159        0.7184255838  PROA      4              95.1400000000
        40         4  ASP       OD2            14.1552887533        5.2077091371       -0.7155999030  PROA      4              95.1400000000
        41         4  ASP       C              12.3611092115        0.7251529531       -0.0332372213  PROA      4              98.3900000000
        42         4  ASP       O              12.0517571766        0.1266175569       -1.0657902213  PROA      4              98.2600000000
        43         5  PRO       N              11.6315082221        0.5408723429        1.0051220870  PROA      5              98.3900000000
        44         5  PRO       CD             11.9113127114        1.1409743869        2.1899034949  PROA      5              97.1400000000
        45         5  PRO       HD1            11.7907831072        2.2405378402        2.0929192144  PROA      5               0.0000000000
        46         5  PRO       HD2            12.9503033820        0.8994546532        2.4983507817  PROA      5               0.0000000000
        47         5  PRO       CA             10.3820128651       -0.2219278056        0.9444732104  PROA      5              98.3800000000
        48         5  PRO       HA             10.5757225197       -1.2370357482        0.6369534123  PROA      5               0.0000000000
        49         5  PRO       CB              9.8134314695       -0.0791935077        2.3590265380  PROA      5              98.2500000000
        50         5  PRO       HB1             9.5540256375       -1.0731908614        2.7818176977  PROA      5               0.0000000000
        51         5  PRO       HB2             8.9034804340        0.5580291833        2.3557334096  PROA      5               0.0000000000
        52         5  PRO       CG             10.9085630783        0.5636944074        3.1482108561  PROA      5              97.3900000000
        53         5  PRO       HG1            10.4899494524        1.3698547471        3.7878693231  PROA      5               0.0000000000
        54         5  PRO       HG2            11.3991207162       -0.1918531719        3.7984384121  PROA      5               0.0000000000
        55         5  PRO       C               9.4045163438        0.3262621810       -0.0928590842  PROA      5              98.5500000000
        56         5  PRO       O               9.4746627764        1.5054447926       -0.4490456174  PROA      5              98.5100000000
        57         6  GLY       N               8.5916021287       -0.5881386325       -0.5103834923  PROA      6              98.2100000000
        58         6  GLY       HN              8.6344157749       -1.5455414687       -0.2364517548  PROA      6               0.0000000000
        59         6  GLY       CA              7.5502582982       -0.1831244431       -1.4401880594  PROA      6              98.1900000000
        60         6  GLY       HA1             7.0385292206       -1.0746398545       -1.7712805828  PROA      6               0.0000000000
        61         6  GLY       HA2             8.0269250773        0.3053188491       -2.2771471794  PROA      6               0.0000000000
        62         6  GLY       C               6.5387264124        0.7663650606       -0.8264642400  PROA      6              98.4900000000
        63         6  GLY       O               6.5075223719        0.9450774454        0.3931374127  PROA      6              98.4600000000
        64         7  SER       N               5.7796726331        1.3238966056       -1.7035451578  PROA      7              98.5300000000
        65         7  SER       HN              5.8830448491        1.2019979007       -2.6875101182  PROA      7               0.0000000000
        66         7  SER       CA              4.7026225939        2.1865455223       -1.2307861710  PROA      7              98.4900000000
        67         7  SER       HA              5.1127584733        2.8611497670       -0.4939942721  PROA      7               0.0000000000
        68         7  SER       CB              4.0957220522        2.9739234175       -2.3929934600  PROA      7              98.3200000000
        69         7  SER       HB1             3.3001868241        3.6487672193       -2.0109751343  PROA      7               0.0000000000
        70         7  SER       HB2             3.6592937520        2.2694846283       -3.1329426395  PROA      7               0.0000000000
        71         7  SER       OG              5.0841478872        3.7575132700       -3.0399295556  PROA      7              96.5900000000
        72         7  SER       HG1             5.4283112398        4.3541672304       -2.3712325851  PROA      7               0.0000000000
        73         7  SER       C               3.6144478331        1.3799171965       -0.5305173410  PROA      7              98.6800000000
        74         7  SER       O               3.5055076073        0.1685200475       -0.7328585737  PROA      7              98.6300000000
        75         8  ASP       N               2.9311072347        2.1755239893        0.1502854630  PROA      8              98.4200000000
        76         8  ASP       HN              3.1292823611        3.1373788514        0.3113647246  PROA      8               0.0000000000
        77         8  ASP       CA              1.7433114119        1.5569834509        0.7319809896  PROA      8              98.4200000000
        78         8  ASP       HA              2.0527870097        0.6661986577        1.2581903609  PROA      8               0.0000000000
        79         8  ASP       CB              1.0487093687        2.5274834825        1.6906048418  PROA      8              98.1900000000
        80         8  ASP       HB1             0.0801724074        2.0867955096        2.0090447433  PROA      8               0.0000000000
        81         8  ASP       HB2             0.8572574452        3.4833293590        1.1582717439  PROA      8               0.0000000000
        82         8  ASP       CG              1.8711362583        2.8257625828        2.9314205371  PROA      8              96.4700000000
        83         8  ASP       OD1             2.8861548760        2.1350742674        3.1716409709  PROA      8              96.0200000000
        84         8  ASP       OD2             1.5002593618        3.7561457822        3.6780546039  PROA      8              94.7600000000
        85         8  ASP       C               0.7701256596        1.1058849505       -0.3546659791  PROA      8              98.5800000000
        86         8  ASP       O               0.7164059853        1.7008608037       -1.4325620458  PROA      8              98.5300000000
        87         9  GLY       N               0.0174982685       -0.1016572784       -0.0132940771  PROA      9              98.3500000000
        88         9  GLY       HN              0.1580905991       -0.6316678965        0.8191392543  PROA      9               0.0000000000
        89         9  GLY       CA             -0.9985687506       -0.5534022690       -0.9502253852  PROA      9              98.2900000000
        90         9  GLY       HA1            -1.3671849282       -1.5072399873       -0.6029397261  PROA      9               0.0000000000
        91         9  GLY       HA2            -0.5301547578       -0.6646577938       -1.9169218980  PROA      9               0.0000000000
        92         9  GLY       C              -2.1639603071        0.4094646321       -1.0751687757  PROA      9              98.4800000000
        93         9  GLY       O              -2.2500841054        1.3891500693       -0.3316910454  PROA      9              98.4000000000
        94        10  PRO       N              -3.0850077764        0.0598699734       -1.9213774580  PROA      10             98.5900000000
        95        10  PRO       CD             -3.0702062562       -1.0752126769       -2.7170264334  PROA      10             97.6700000000
        96        10  PRO       HD1            -3.0641116463       -1.9812290344       -2.0748828864  PROA      10              0.0000000000
        97        10  PRO       HD2            -2.1688352121       -1.0647982568       -3.3656194491  PROA      10              0.0000000000
        98        10  PRO       CA             -4.2893691910        0.8831756450       -2.0509048837  PROA      10             98.5700000000
        99        10  PRO       HA             -4.0275583291        1.9283273307       -2.0911805604  PROA      10              0.0000000000
       100        10  PRO       CB             -4.9530786984        0.3408090947       -3.3192180212  PROA      10             98.5100000000
       101        10  PRO       HB1            -4.7580140113        1.0107727142       -4.1836099898  PROA      10              0.0000000000
       102        10  PRO       HB2            -6.0510270245        0.2453655735       -3.1796652835  PROA      10              0.0000000000
       103        10  PRO       CG             -4.3275278893       -0.9988739934       -3.5349247867  PROA      10             98.0100000000
       104        10  PRO       HG1            -5.0313136706       -1.7992149885       -3.2211819142  PROA      10              0.0000000000
       105        10  PRO       HG2            -4.0868453843       -1.1344222238       -4.6110257734  PROA      10              0.0000000000
       106        10  PRO       C              -5.2235114851        0.7546272926       -0.8493960424  PROA      10             98.7200000000
       107        10  PRO       O              -5.1392634515       -0.2201815465       -0.0980086617  PROA      10             98.6900000000
       108        11  GLY       N              -6.0403426047        1.6890843775       -0.6391417238  PROA      11             98.4300000000
       109        11  GLY       HN             -6.0575805184        2.5144853383       -1.1978989132  PROA      11              0.0000000000
       110        11  GLY       CA             -7.0154769533        1.6234080724        0.4375762639  PROA      11             98.4100000000
       111        11  GLY       HA1            -7.4862064453        2.5921957949        0.5160172302  PROA      11              0.0000000000
       112        11  GLY       HA2            -6.4851326632        1.3920400841        1.3494384678  PROA      11              0.0000000000
       113        11  GLY       C              -8.0855934409        0.5727140967        0.2099232990  PROA      11             98.5800000000
       114        11  GLY       O              -8.1822425152        0.0035083588       -0.8787565366  PROA      11             98.5500000000
       115        12  ASP       N              -8.8734630161        0.1611518278        1.1292665599  PROA      12             98.0500000000
       116        12  ASP       HN             -8.7161305840        0.4869834548        2.0538707810  PROA      12              0.0000000000
       117        12  ASP       CA            -10.0164788662       -0.7441898773        1.0609352833  PROA      12             98.0700000000
       118        12  ASP       HA             -9.6824940031       -1.6728465974        0.6225107299  PROA      12              0.0000000000
       119        12  ASP       CB            -10.5897642590       -0.9912755840        2.4569619707  PROA      12             97.8400000000
       120        12  ASP       HB1           -11.5314461048       -1.5723667733        2.3609133798  PROA      12              0.0000000000
       121        12  ASP       HB2           -10.8118690903       -0.0124093386        2.9325114615  PROA      12              0.0000000000
       122        12  ASP       CG             -9.6425847131       -1.7594520754        3.3610132888  PROA      12             96.0700000000
       123        12  ASP       OD1            -8.7807800777       -2.5055203432        2.8476665149  PROA      12             94.9800000000
       124        12  ASP       OD2            -9.7590703993       -1.6198155967        4.5971713445  PROA      12             94.6200000000
       125        12  ASP       C             -11.1006010692       -0.1909892660        0.1376725186  PROA      12             98.3600000000
       126        12  ASP       O             -11.2532621602        1.0255139073        0.0108197666  PROA      12             98.3000000000
       127        13  PRO       N             -11.8273505608       -1.0155102915       -0.3796680412  PROA      13             98.2000000000
       128        13  PRO       CD            -11.6016165965       -2.3593546585       -0.5184646362  PROA      13             95.2000000000
       129        13  PRO       HD1           -11.7989372055       -2.8757747711        0.4445289766  PROA      13              0.0000000000
       130        13  PRO       HD2           -10.5514164571       -2.5341809650       -0.8338965363  PROA      13              0.0000000000
       131        13  PRO       CA            -12.9699548791       -0.4759792215       -1.1210435171  PROA      13             98.1800000000
       132        13  PRO       HA            -12.6428105816        0.2754658821       -1.8216552854  PROA      13              0.0000000000
       133        13  PRO       CB            -13.5924545773       -1.7193295613       -1.7606051311  PROA      13             97.9200000000
       134        13  PRO       HB1           -13.7975775844       -1.5472354865       -2.8387454337  PROA      13              0.0000000000
       135        13  PRO       HB2           -14.5429296577       -1.9897043034       -1.2530886771  PROA      13              0.0000000000
       136        13  PRO       CG            -12.5706043688       -2.7947186438       -1.5803567669  PROA      13             95.7300000000
       137        13  PRO       HG1           -13.0673403287       -3.7399338691       -1.2735751964  PROA      13              0.0000000000
       138        13  PRO       HG2           -12.0310514152       -2.9668604036       -2.5361513016  PROA      13              0.0000000000
       139        13  PRO       C             -13.9759870814        0.2343975630       -0.2192452959  PROA      13             98.4400000000
       140        13  PRO       O             -14.0540330317       -0.0596123950        0.9763892529  PROA      13             98.4100000000
       141        14  GLY       N             -14.7405176607        1.1536707589       -0.6850465245  PROA      14             98.0100000000
       142        14  GLY       HN            -14.6093117859        1.4682701489       -1.6197257090  PROA      14              0.0000000000
       143        14  GLY       CA            -15.8274772762        1.8322790946        0.0023933065  PROA      14             98.0500000000
       144        14  GLY       HA1           -16.2189924887        2.5869345826       -0.6635646049  PROA      14              0.0000000000
       145        14  GLY       HA2           -15.4197714424        2.2936921349        0.8896153567  PROA      14              0.0000000000
       146        14  GLY       C             -16.9538395157        0.8984275039        0.4056739930  PROA      14             98.3200000000
       147        14  GLY       O             -17.0735398950       -0.2047964029       -0.1305366285  PROA      14             98.3100000000
       148        15  SER       N             -17.6038187990        1.0776010387        1.3735814140  PROA      15             98.3000000000
       149        15  SER       HN            -17.3621242226        1.8246611100        1.9839007472  PROA      15              0.0000000000
       150        15  SER       CA            -18.7692478529        0.3253429826        1.8290020298  PROA      15             98.2100000000
       151        15  SER       HA            -18.4689423116       -0.7015181501        1.9757692554  PROA      15              0.0000000000
       152        15  SER       CB            -19.3099398555        0.9127664254        3.1329084134  PROA      15             97.8700000000
       153        15  SER       HB1           -20.1230670355        0.2649275936        3.5245125393  PROA      15              0.0000000000
       154        15  SER       HB2           -19.7077997989        1.9329237980        2.9452620587  PROA      15              0.0000000000
       155        15  SER       OG            -18.2862596043        0.9972720496        4.1101297510  PROA      15             94.0400000000
       156        15  SER       HG1           -17.9769219822        0.0989438924        4.2476679551  PROA      15              0.0000000000
       157        15  SER       C             -19.8680734867        0.3147516162        0.7723398086  PROA      15             98.4100000000
       158        15  SER       O             -19.9760258810        1.2464916807       -0.0282429371  PROA      15             98.3100000000
       159        16  ASP       N             -20.6154304437       -0.7864754645        0.4516616280  PROA      16             97.5800000000
       160        16  ASP       HN            -20.4278103811       -1.6319124767        0.9374914707  PROA      16              0.0000000000
       161        16  ASP       CA            -21.6905806547       -0.9472388035       -0.5239459635  PROA      16             97.0900000000
       162        16  ASP       HA            -21.3268990275       -0.6075434128       -1.4823347088  PROA      16              0.0000000000
       163        16  ASP       CB            -22.1239564612       -2.4115131775       -0.6082547300  PROA      16             95.9300000000
       164        16  ASP       HB1           -22.9761283673       -2.4938743900       -1.3158445827  PROA      16              0.0000000000
       165        16  ASP       HB2           -22.4516157216       -2.7478096045        0.3983275313  PROA      16              0.0000000000
       166        16  ASP       CG            -21.0145094804       -3.3328661895       -1.0842179890  PROA      16             88.4200000000
       167        16  ASP       OD1           -20.1265963066       -2.8788954342       -1.8367355963  PROA      16             88.5500000000
       168        16  ASP       OD2           -21.0309831569       -4.5238976304       -0.7051220581  PROA      16             89.6900000000
       169        16  ASP       C             -22.8853710704       -0.0641708084       -0.1738705737  PROA      16             97.2300000000
       170        16  ASP       OT1           -22.8061966528        0.6570524909        0.8562596919  PROA      16              0.0000000000
       171        16  ASP       OT2           -23.8905950400       -0.1009521247       -0.9326669269  PROA      16              0.0000000000
