        96  EXT
         1         1  GLY       N               0.7510000000        8.8740000000       20.1720000000  PROA      1              97.6100000000
         2         1  GLY       CA              0.6980000000        7.5090000000       19.6740000000  PROA      1              98.0100000000
         3         1  GLY       C               1.2140000000        7.3710000000       18.2540000000  PROA      1              98.2600000000
         4         1  GLY       O               1.4380000000        8.3720000000       17.5700000000  PROA      1              98.0000000000
         5         2  PRO       N               1.4230000000        6.1320000000       17.6480000000  PROA      2              98.5300000000
         6         2  PRO       CA              1.8250000000        5.9480000000       16.2520000000  PROA      2              98.5500000000
         7         2  PRO       C               0.7150000000        6.3060000000       15.2660000000  PROA      2              98.6000000000
         8         2  PRO       O              -0.4620000000        6.3220000000       15.6360000000  PROA      2              98.5100000000
         9         2  PRO       CB              2.1630000000        4.4570000000       16.1750000000  PROA      2              98.4200000000
        10         2  PRO       CG              2.1700000000        3.9940000000       17.5960000000  PROA      2              97.5000000000
        11         2  PRO       CD              1.4990000000        5.0380000000       18.4410000000  PROA      2              95.9700000000
        12         3  GLY       N               1.0870000000        6.6920000000       14.0740000000  PROA      3              98.4000000000
        13         3  GLY       CA              0.1340000000        6.9940000000       13.0180000000  PROA      3              98.3800000000
        14         3  GLY       C              -0.6790000000        5.7890000000       12.5840000000  PROA      3              98.5500000000
        15         3  GLY       O              -0.3470000000        4.6530000000       12.9300000000  PROA      3              98.4700000000
        16         4  ASP       N              -1.8360000000        6.1410000000       11.8990000000  PROA      4              98.2300000000
        17         4  ASP       CA             -2.6150000000        5.0670000000       11.2910000000  PROA      4              98.2000000000
        18         4  ASP       C              -1.7920000000        4.3130000000       10.2490000000  PROA      4              98.3900000000
        19         4  ASP       O              -0.9380000000        4.9000000000        9.5810000000  PROA      4              98.2600000000
        20         4  ASP       CB             -3.8900000000        5.6230000000       10.6530000000  PROA      4              98.0400000000
        21         4  ASP       CG             -4.8900000000        6.1340000000       11.6750000000  PROA      4              96.2900000000
        22         4  ASP       OD1            -4.8240000000        5.7210000000       12.8530000000  PROA      4              95.1400000000
        23         4  ASP       OD2            -5.7540000000        6.9550000000       11.2980000000  PROA      4              95.1400000000
        24         5  PRO       N              -1.9670000000        3.0620000000       10.0280000000  PROA      5              98.3900000000
        25         5  PRO       CA             -1.3010000000        2.3740000000        8.9190000000  PROA      5              98.3800000000
        26         5  PRO       C              -1.5820000000        3.0240000000        7.5660000000  PROA      5              98.5500000000
        27         5  PRO       O              -2.5980000000        3.7050000000        7.4040000000  PROA      5              98.5100000000
        28         5  PRO       CB             -1.8880000000        0.9610000000        8.9780000000  PROA      5              98.2500000000
        29         5  PRO       CG             -2.6630000000        0.9220000000       10.2560000000  PROA      5              97.3900000000
        30         5  PRO       CD             -2.8690000000        2.3320000000       10.7320000000  PROA      5              97.1400000000
        31         6  GLY       N              -0.6390000000        2.7800000000        6.7160000000  PROA      6              98.2100000000
        32         6  GLY       CA             -0.8190000000        3.2690000000        5.3590000000  PROA      6              98.1900000000
        33         6  GLY       C              -1.9690000000        2.5990000000        4.6310000000  PROA      6              98.4900000000
        34         6  GLY       O              -2.4990000000        1.5870000000        5.0950000000  PROA      6              98.4600000000
        35         7  SER       N              -2.2920000000        3.2040000000        3.5420000000  PROA      7              98.5300000000
        36         7  SER       CA             -3.3220000000        2.6030000000        2.7020000000  PROA      7              98.4900000000
        37         7  SER       C              -2.8270000000        1.3130000000        2.0570000000  PROA      7              98.6800000000
        38         7  SER       O              -1.6190000000        1.0880000000        1.9550000000  PROA      7              98.6300000000
        39         7  SER       CB             -3.7710000000        3.5840000000        1.6180000000  PROA      7              98.3200000000
        40         7  SER       OG             -4.2660000000        4.7800000000        2.1960000000  PROA      7              96.5900000000
        41         8  ASP       N              -3.8290000000        0.6760000000        1.6650000000  PROA      8              98.4200000000
        42         8  ASP       CA             -3.4850000000       -0.4980000000        0.8680000000  PROA      8              98.4200000000
        43         8  ASP       C              -2.7980000000       -0.0960000000       -0.4350000000  PROA      8              98.5800000000
        44         8  ASP       O              -3.0530000000        0.9850000000       -0.9690000000  PROA      8              98.5300000000
        45         8  ASP       CB             -4.7360000000       -1.3280000000        0.5690000000  PROA      8              98.1900000000
        46         8  ASP       CG             -5.3320000000       -1.9700000000        1.8090000000  PROA      8              96.4700000000
        47         8  ASP       OD1            -4.6790000000       -1.9590000000        2.8760000000  PROA      8              96.0200000000
        48         8  ASP       OD2            -6.4620000000       -2.4950000000        1.7190000000  PROA      8              94.7600000000
        49         9  GLY       N              -1.7940000000       -1.0550000000       -0.8970000000  PROA      9              98.3500000000
        50         9  GLY       CA             -1.1530000000       -0.8000000000       -2.1770000000  PROA      9              98.2900000000
        51         9  GLY       C              -2.1090000000       -0.8930000000       -3.3510000000  PROA      9              98.4800000000
        52         9  GLY       O              -3.2670000000       -1.2830000000       -3.1870000000  PROA      9              98.4000000000
        53        10  PRO       N              -1.5860000000       -0.6470000000       -4.5140000000  PROA      10             98.5900000000
        54        10  PRO       CA             -2.4100000000       -0.7930000000       -5.7160000000  PROA      10             98.5700000000
        55        10  PRO       C              -2.6990000000       -2.2530000000       -6.0590000000  PROA      10             98.7200000000
        56        10  PRO       O              -1.9840000000       -3.1510000000       -5.6070000000  PROA      10             98.6900000000
        57        10  PRO       CB             -1.5630000000       -0.1330000000       -6.8070000000  PROA      10             98.5100000000
        58        10  PRO       CG             -0.1820000000       -0.0800000000       -6.2390000000  PROA      10             98.0100000000
        59        10  PRO       CD             -0.2690000000       -0.2870000000       -4.7540000000  PROA      10             97.6700000000
        60        11  GLY       N              -3.7040000000       -2.4990000000       -6.7760000000  PROA      11             98.4300000000
        61        11  GLY       CA             -4.0190000000       -3.8500000000       -7.2120000000  PROA      11             98.4100000000
        62        11  GLY       C              -3.0180000000       -4.4040000000       -8.2080000000  PROA      11             98.5800000000
        63        11  GLY       O              -2.1620000000       -3.6720000000       -8.7080000000  PROA      11             98.5500000000
        64        12  ASP       N              -2.9450000000       -5.6430000000       -8.5160000000  PROA      12             98.0500000000
        65        12  ASP       CA             -2.1340000000       -6.3220000000       -9.5220000000  PROA      12             98.0700000000
        66        12  ASP       C              -2.4600000000       -5.8130000000      -10.9250000000  PROA      12             98.3600000000
        67        12  ASP       O              -3.5930000000       -5.4110000000      -11.1970000000  PROA      12             98.3000000000
        68        12  ASP       CB             -2.3440000000       -7.8350000000       -9.4490000000  PROA      12             97.8400000000
        69        12  ASP       CG             -1.8160000000       -8.4470000000       -8.1640000000  PROA      12             96.0700000000
        70        12  ASP       OD1            -0.8990000000       -7.8660000000       -7.5440000000  PROA      12             94.9800000000
        71        12  ASP       OD2            -2.3190000000       -9.5200000000       -7.7680000000  PROA      12             94.6200000000
        72        13  PRO       N              -1.5680000000       -5.9090000000      -11.7440000000  PROA      13             98.2000000000
        73        13  PRO       CA             -1.9380000000       -5.5850000000      -13.1240000000  PROA      13             98.1800000000
        74        13  PRO       C              -2.9440000000       -6.5710000000      -13.7120000000  PROA      13             98.4400000000
        75        13  PRO       O              -3.0190000000       -7.7200000000      -13.2690000000  PROA      13             98.4100000000
        76        13  PRO       CB             -0.6040000000       -5.6550000000      -13.8710000000  PROA      13             97.9200000000
        77        13  PRO       CG              0.4340000000       -5.7020000000      -12.7970000000  PROA      13             95.7300000000
        78        13  PRO       CD             -0.2310000000       -6.0890000000      -11.5070000000  PROA      13             95.2000000000
        79        14  GLY       N              -3.7330000000       -6.2170000000      -14.6600000000  PROA      14             98.0100000000
        80        14  GLY       CA             -4.6510000000       -7.0610000000      -15.4080000000  PROA      14             98.0500000000
        81        14  GLY       C              -3.9500000000       -8.1480000000      -16.2020000000  PROA      14             98.3200000000
        82        14  GLY       O              -2.7480000000       -8.0580000000      -16.4590000000  PROA      14             98.3100000000
        83        15  SER       N              -4.4460000000       -9.1990000000      -16.4040000000  PROA      15             98.3000000000
        84        15  SER       CA             -3.9360000000      -10.2940000000      -17.2240000000  PROA      15             98.2100000000
        85        15  SER       C              -3.6860000000       -9.8410000000      -18.6580000000  PROA      15             98.4100000000
        86        15  SER       O              -4.3470000000       -8.9230000000      -19.1490000000  PROA      15             98.3100000000
        87        15  SER       CB             -4.9130000000      -11.4700000000      -17.2150000000  PROA      15             97.8700000000
        88        15  SER       OG             -5.2150000000      -11.8640000000      -15.8870000000  PROA      15             94.0400000000
        89        16  ASP       N              -2.5890000000      -10.1960000000      -19.3960000000  PROA      16             97.5800000000
        90        16  ASP       CA             -2.2180000000       -9.8470000000      -20.7650000000  PROA      16             97.0900000000
        91        16  ASP       C              -3.2390000000      -10.3850000000      -21.7640000000  PROA      16             97.2300000000
        92        16  ASP       O              -3.9610000000      -11.3400000000      -21.4690000000  PROA      16             96.5000000000
        93        16  ASP       CB             -0.8240000000      -10.3820000000      -21.0960000000  PROA      16             95.9300000000
        94        16  ASP       CG              0.2650000000       -9.7820000000      -20.2240000000  PROA      16             88.4200000000
        95        16  ASP       OD1             0.1090000000       -8.6330000000      -19.7590000000  PROA      16             88.5500000000
        96        16  ASP       OD2             1.2890000000      -10.4640000000      -20.0030000000  PROA      16             89.6900000000
