Title t= 10780.00000 step= 5390000
46100
    1GLY      N    1   2.895   4.400   3.646
    1GLY    HT1    2   2.817   4.372   3.709
    1GLY    HT2    3   2.848   4.476   3.591
    1GLY    HT3    4   2.975   4.442   3.696
    1GLY     CA    5   2.922   4.294   3.546
    1GLY    HA1    6   3.006   4.332   3.490
    1GLY    HA2    7   2.830   4.290   3.489
    1GLY      C    8   2.950   4.159   3.604
    1GLY      O    9   2.940   4.141   3.723
    2PRO      N   10   2.993   4.057   3.527
    2PRO     CD   11   2.974   4.072   3.386
    2PRO    HD1   12   3.058   4.141   3.360
    2PRO    HD2   13   2.880   4.123   3.357
    2PRO     CA   14   3.070   3.933   3.558
    2PRO     HA   15   3.004   3.880   3.625
    2PRO     CB   16   3.097   3.872   3.420
    2PRO    HB1   17   3.098   3.762   3.414
    2PRO    HB2   18   3.196   3.905   3.383
    2PRO     CG   19   2.983   3.927   3.333
    2PRO    HG1   20   2.986   3.924   3.222
    2PRO    HG2   21   2.892   3.869   3.358
    2PRO      C   22   3.199   3.959   3.637
    2PRO      O   23   3.275   4.045   3.599
    3GLY      N   24   3.227   3.884   3.746
    3GLY     HN   25   3.159   3.813   3.765
    3GLY     CA   26   3.341   3.886   3.835
    3GLY    HA1   27   3.333   3.806   3.907
    3GLY    HA2   28   3.349   3.986   3.873
    3GLY      C   29   3.477   3.852   3.773
    3GLY      O   30   3.477   3.785   3.674
    4ALA      N   31   3.581   3.901   3.842
    4ALA     HN   32   3.567   3.943   3.932
    4ALA     CA   33   3.720   3.896   3.787
    4ALA     HA   34   3.718   3.921   3.681
    4ALA     CB   35   3.809   4.010   3.851
    4ALA    HB1   36   3.908   4.008   3.800
    4ALA    HB2   37   3.826   3.983   3.957
    4ALA    HB3   38   3.762   4.110   3.834
    4ALA      C   39   3.778   3.755   3.809
    4ALA      O   40   3.728   3.686   3.896
    5PRO      N   41   3.878   3.711   3.728
    5PRO     CD   42   3.939   3.788   3.626
    5PRO    HD1   43   4.002   3.857   3.687
    5PRO    HD2   44   3.866   3.839   3.560
    5PRO     CA   45   3.963   3.590   3.756
    5PRO     HA   46   3.905   3.504   3.729
    5PRO     CB   47   4.089   3.609   3.668
    5PRO    HB1   48   4.137   3.512   3.642
    5PRO    HB2   49   4.169   3.672   3.713
    5PRO     CG   50   4.020   3.684   3.553
    5PRO    HG1   51   4.091   3.735   3.484
    5PRO    HG2   52   3.950   3.615   3.502
    5PRO      C   53   4.005   3.568   3.897
    5PRO      O   54   4.011   3.672   3.965
    6GLY      N   55   4.032   3.443   3.945
    6GLY     HN   56   4.027   3.370   3.878
    6GLY     CA   57   4.066   3.400   4.080
    6GLY    HA1   58   4.128   3.470   4.135
    6GLY    HA2   59   4.113   3.303   4.072
    6GLY      C   60   3.941   3.380   4.170
    6GLY      O   61   3.823   3.394   4.127
    7PRO      N   62   3.959   3.349   4.296
    7PRO     CD   63   4.092   3.346   4.356
    7PRO    HD1   64   4.166   3.423   4.327
    7PRO    HD2   65   4.131   3.243   4.355
    7PRO     CA   66   3.855   3.357   4.393
    7PRO     HA   67   3.776   3.289   4.362
    7PRO     CB   68   3.915   3.335   4.529
    7PRO    HB1   69   3.915   3.226   4.550
    7PRO    HB2   70   3.861   3.379   4.615
    7PRO     CG   71   4.062   3.378   4.504
    7PRO    HG1   72   4.079   3.487   4.511
    7PRO    HG2   73   4.124   3.333   4.584
    7PRO      C   74   3.793   3.498   4.405
    7PRO      O   75   3.870   3.592   4.386
    8GLY      N   76   3.664   3.508   4.436
    8GLY     HN   77   3.600   3.432   4.442
    8GLY     CA   78   3.601   3.633   4.470
    8GLY    HA1   79   3.495   3.611   4.477
    8GLY    HA2   80   3.612   3.702   4.387
    8GLY      C   81   3.651   3.701   4.595
    8GLY      O   82   3.728   3.644   4.668
    9ALA      N   83   3.602   3.823   4.623
    9ALA     HN   84   3.524   3.859   4.574
    9ALA     CA   85   3.630   3.898   4.752
    9ALA     HA   86   3.737   3.913   4.745
    9ALA     CB   87   3.557   4.034   4.745
    9ALA    HB1   88   3.589   4.092   4.656
    9ALA    HB2   89   3.579   4.103   4.829
    9ALA    HB3   90   3.446   4.023   4.738
    9ALA      C   91   3.603   3.831   4.885
    9ALA      O   92   3.515   3.742   4.887
   10PRO      N   93   3.667   3.865   4.991
   10PRO     CD   94   3.793   3.935   4.999
   10PRO    HD1   95   3.773   4.043   4.984
   10PRO    HD2   96   3.866   3.894   4.925
   10PRO     CA   97   3.618   3.847   5.129
   10PRO     HA   98   3.601   3.743   5.154
   10PRO     CB   99   3.717   3.922   5.217
   10PRO    HB1  100   3.725   3.877   5.318
   10PRO    HB2  101   3.695   4.031   5.223
   10PRO     CG  102   3.847   3.904   5.139
   10PRO    HG1  103   3.934   3.969   5.163
   10PRO    HG2  104   3.880   3.798   5.128
   10PRO      C  105   3.480   3.897   5.149
   10PRO      O  106   3.443   4.001   5.098
   11GLY      N  107   3.393   3.832   5.237
   11GLY     HN  108   3.408   3.737   5.264
   11GLY     CA  109   3.268   3.882   5.286
   11GLY    HA1  110   3.212   3.802   5.333
   11GLY    HA2  111   3.215   3.924   5.202
   11GLY      C  112   3.283   3.995   5.381
   11GLY      O  113   3.395   4.018   5.428
   12PRO      N  114   3.173   4.060   5.425
   12PRO     CD  115   3.037   4.014   5.387
   12PRO    HD1  116   3.032   3.903   5.375
   12PRO    HD2  117   3.005   4.074   5.300
   12PRO     CA  118   3.168   4.159   5.526
   12PRO     HA  119   3.216   4.250   5.493
   12PRO     CB  120   3.011   4.180   5.546
   12PRO    HB1  121   2.977   4.262   5.479
   12PRO    HB2  122   2.979   4.213   5.647
   12PRO     CG  123   2.942   4.055   5.498
   12PRO    HG1  124   2.948   3.977   5.578
   12PRO    HG2  125   2.843   4.068   5.452
   12PRO      C  126   3.223   4.122   5.662
   12PRO      O  127   3.183   4.021   5.715
   13GLY      N  128   3.314   4.201   5.727
   13GLY     HN  129   3.334   4.290   5.687
   13GLY     CA  130   3.376   4.176   5.857
   13GLY    HA1  131   3.308   4.112   5.911
   13GLY    HA2  132   3.386   4.276   5.896
   13GLY      C  133   3.515   4.105   5.845
   13GLY      O  134   3.555   4.023   5.931
   14ALA      N  135   3.588   4.139   5.735
   14ALA     HN  136   3.553   4.206   5.670
   14ALA     CA  137   3.723   4.081   5.720
   14ALA     HA  138   3.728   3.989   5.777
   14ALA     CB  139   3.742   4.054   5.569
   14ALA    HB1  140   3.770   4.144   5.511
   14ALA    HB2  141   3.644   4.015   5.536
   14ALA    HB3  142   3.822   3.977   5.559
   14ALA      C  143   3.825   4.171   5.785
   14ALA      O  144   3.801   4.291   5.801
   15PRO      N  145   3.945   4.121   5.824
   15PRO     CD  146   3.987   3.983   5.800
   15PRO    HD1  147   3.965   3.944   5.698
   15PRO    HD2  148   3.942   3.933   5.888
   15PRO     CA  149   4.057   4.210   5.856
   15PRO     HA  150   4.007   4.264   5.935
   15PRO     CB  151   4.167   4.118   5.906
   15PRO    HB1  152   4.170   4.087   6.012
   15PRO    HB2  153   4.267   4.167   5.898
   15PRO     CG  154   4.147   3.988   5.823
   15PRO    HG1  155   4.205   3.999   5.729
   15PRO    HG2  156   4.184   3.897   5.875
   15PRO      C  157   4.098   4.301   5.748
   15PRO    OT1  158   4.089   4.260   5.631
   15PRO    OT2  159   4.134   4.419   5.779
   16SOD    SOD  160   1.418   2.706   3.231
   17SOD    SOD  161   6.351   0.280   2.882
   18SOD    SOD  162   5.490   1.313   2.246
   19SOD    SOD  163   6.886   7.523   2.701
   20SOD    SOD  164   4.444   4.095   3.721
   21SOD    SOD  165   3.136   0.519   4.157
   22SOD    SOD  166   6.041   3.571   5.667
   23SOD    SOD  167   6.967   6.816   3.174
   24SOD    SOD  168   4.260   7.257   2.101
   25SOD    SOD  169   6.939   2.247   2.568
   26SOD    SOD  170   1.287   0.572   3.703
   27SOD    SOD  171   0.234   2.656   1.149
   28SOD    SOD  172   0.001   1.634   3.022
   29SOD    SOD  173   4.956   5.528   6.143
   30SOD    SOD  174   0.124   2.646   2.212
   31SOD    SOD  175   5.057   4.714   0.456
   32SOD    SOD  176   0.754   2.879   1.535
   33SOD    SOD  177   4.277   1.174   1.290
   34SOD    SOD  178   0.185   3.751   1.781
   35SOD    SOD  179   4.225   5.341   3.548
   36SOD    SOD  180   3.597   4.728   5.055
   37SOD    SOD  181   2.014   4.869   6.314
   38SOD    SOD  182   5.849   2.163   2.310
   39SOD    SOD  183   6.349   6.047   0.884
   40SOD    SOD  184   0.038   5.953   0.260
   41SOD    SOD  185   0.495   1.488   4.242
   42SOD    SOD  186   3.898   6.792   0.573
   43SOD    SOD  187   0.376   6.654   6.147
   44SOD    SOD  188   4.092   0.936   5.589
   45SOD    SOD  189   6.838   4.927   1.081
   46SOD    SOD  190   5.600   4.825   1.663
   47SOD    SOD  191   3.173   2.970   6.260
   48SOD    SOD  192   5.615   4.374   3.873
   49SOD    SOD  193   2.269   3.868   2.124
   50SOD    SOD  194   0.817   5.954   0.526
   51SOD    SOD  195   0.712   5.083   3.338
   52SOD    SOD  196   0.224   0.012   6.535
   53SOD    SOD  197   3.677   1.275   4.517
   54SOD    SOD  198   5.151   4.005   6.285
   55SOD    SOD  199   2.306   7.524   1.397
   56SOD    SOD  200   1.364   7.450   6.508
   57SOD    SOD  201   0.194   1.381   5.023
   58SOD    SOD  202   0.576   6.664   0.889
   59CLA    CLA  203   5.758   1.711   2.297
   60CLA    CLA  204   1.276   1.912   6.586
   61CLA    CLA  205   1.243   7.248   6.054
   62CLA    CLA  206   7.915   0.053   6.398
   63CLA    CLA  207   2.820   6.895   1.314
   64CLA    CLA  208   2.482   4.318   5.096
   65CLA    CLA  209   2.947   4.183   3.003
   66CLA    CLA  210   4.560   0.663   5.548
   67CLA    CLA  211   0.409   2.313   2.161
   68CLA    CLA  212   0.600   1.231   4.236
   69CLA    CLA  213   5.222   5.126   4.664
   70CLA    CLA  214   1.315   7.485   2.017
   71CLA    CLA  215   4.767   1.673   1.228
   72CLA    CLA  216   6.375   5.842   0.511
   73CLA    CLA  217   0.938   6.592   6.670
   74CLA    CLA  218   5.012   2.256   4.694
   75CLA    CLA  219   4.090   0.755   6.366
   76CLA    CLA  220   1.876   2.311   2.945
   77CLA    CLA  221   6.786   2.840   5.130
   78CLA    CLA  222   1.012   3.066   1.036
   79CLA    CLA  223   4.969   5.839   4.950
   80CLA    CLA  224   3.858   5.465   1.277
   81CLA    CLA  225   7.852   6.396   4.732
   82CLA    CLA  226   7.996   2.693   2.479
   83CLA    CLA  227   7.458   7.603   3.470
   84CLA    CLA  228   5.928   7.227   1.173
   85CLA    CLA  229   7.649   3.669   4.225
   86CLA    CLA  230   5.208   0.257   2.123
   87CLA    CLA  231   7.504   7.240   3.722
   88CLA    CLA  232   2.183   2.870   3.783
   89CLA    CLA  233   5.408   3.669   0.062
   90CLA    CLA  234   2.244   2.588   1.022
   91CLA    CLA  235   7.156   2.194   5.551
   92CLA    CLA  236   0.925   5.382   2.032
   93CLA    CLA  237   0.336   0.266   1.355
   94CLA    CLA  238   2.403   1.013   2.538
   95CLA    CLA  239   3.929   4.315   4.121
   96CLA    CLA  240   4.787   7.521   4.161
   97CLA    CLA  241   1.372   3.335   1.226
   98CLA    CLA  242   6.663   0.979   6.229
   99CLA    CLA  243   3.783   1.197   0.798
  100CLA    CLA  244   6.465   3.850   4.288
  101CLA    CLA  245   0.111   6.981   0.936
  102TIP3   OH2  246   1.242   7.317   2.883
  102TIP3    H1  247   1.295   7.302   2.806
  102TIP3    H2  248   1.273   7.401   2.917
  103TIP3   OH2  249   6.768   1.201   2.876
  103TIP3    H1  250   6.745   1.212   2.783
  103TIP3    H2  251   6.840   1.137   2.875
  104TIP3   OH2  252   1.335   5.831   6.694
  104TIP3    H1  253   1.352   5.759   6.633
  104TIP3    H2  254   1.284   5.894   6.643
  105TIP3   OH2  255   7.037   1.423   0.193
  105TIP3    H1  256   6.952   1.433   0.237
  105TIP3    H2  257   7.099   1.468   0.251
  106TIP3   OH2  258   5.718   5.493   5.615
  106TIP3    H1  259   5.760   5.531   5.692
  106TIP3    H2  260   5.625   5.516   5.624
  107TIP3   OH2  261   5.288   0.644   3.305
  107TIP3    H1  262   5.247   0.658   3.391
  107TIP3    H2  263   5.380   0.666   3.319
  108TIP3   OH2  264   5.208   5.136   2.155
  108TIP3    H1  265   5.176   5.205   2.213
  108TIP3    H2  266   5.146   5.134   2.082
  109TIP3   OH2  267   7.117   5.021   4.410
  109TIP3    H1  268   7.126   4.948   4.471
  109TIP3    H2  269   7.133   5.099   4.463
  110TIP3   OH2  270   3.595   2.128   4.506
  110TIP3    H1  271   3.502   2.148   4.517
  110TIP3    H2  272   3.610   2.052   4.561
  111TIP3   OH2  273   2.221   4.376   5.742
  111TIP3    H1  274   2.315   4.395   5.748
  111TIP3    H2  275   2.196   4.352   5.831
  112TIP3   OH2  276   5.954   7.232   1.737
  112TIP3    H1  277   5.861   7.214   1.738
  112TIP3    H2  278   5.961   7.326   1.716
  113TIP3   OH2  279   2.939   4.843   0.438
  113TIP3    H1  280   2.902   4.756   0.452
  113TIP3    H2  281   2.942   4.881   0.526
  114TIP3   OH2  282   3.075   5.718   4.324
  114TIP3    H1  283   3.064   5.623   4.315
  114TIP3    H2  284   3.066   5.735   4.418
  115TIP3   OH2  285   2.908   1.712   3.762
  115TIP3    H1  286   2.950   1.629   3.787
  115TIP3    H2  287   2.898   1.759   3.845
  116TIP3   OH2  288   3.381   6.348   4.539
  116TIP3    H1  289   3.344   6.413   4.598
  116TIP3    H2  290   3.385   6.268   4.591
  117TIP3   OH2  291   3.829   1.269   3.809
  117TIP3    H1  292   3.802   1.178   3.810
  117TIP3    H2  293   3.793   1.304   3.727
  118TIP3   OH2  294   4.853   1.742   0.615
  118TIP3    H1  295   4.831   1.812   0.677
  118TIP3    H2  296   4.941   1.766   0.584
  119TIP3   OH2  297   3.559   7.145   3.903
  119TIP3    H1  298   3.527   7.235   3.895
  119TIP3    H2  299   3.571   7.116   3.812
  120TIP3   OH2  300   2.771   6.485   0.898
  120TIP3    H1  301   2.854   6.531   0.907
  120TIP3    H2  302   2.788   6.397   0.932
  121TIP3   OH2  303   5.402   2.880   3.287
  121TIP3    H1  304   5.391   2.787   3.271
  121TIP3    H2  305   5.409   2.888   3.382
  122TIP3   OH2  306   5.511   1.210   6.424
  122TIP3    H1  307   5.521   1.124   6.464
  122TIP3    H2  308   5.541   1.199   6.334
  123TIP3   OH2  309   0.510   4.976   0.995
  123TIP3    H1  310   0.547   4.994   0.909
  123TIP3    H2  311   0.545   4.890   1.018
  124TIP3   OH2  312   0.311   3.172   0.392
  124TIP3    H1  313   0.300   3.266   0.402
  124TIP3    H2  314   0.404   3.156   0.407
  125TIP3   OH2  315   4.144   5.800   1.327
  125TIP3    H1  316   4.239   5.793   1.342
  125TIP3    H2  317   4.129   5.749   1.247
  126TIP3   OH2  318   0.419   1.931   5.049
  126TIP3    H1  319   0.484   1.894   5.108
  126TIP3    H2  320   0.357   1.976   5.106
  127TIP3   OH2  321   4.724   7.037   0.326
  127TIP3    H1  322   4.806   7.084   0.310
  127TIP3    H2  323   4.680   7.089   0.393
  128TIP3   OH2  324   2.696   0.260   2.819
  128TIP3    H1  325   2.649   0.333   2.777
  128TIP3    H2  326   2.628   0.211   2.865
  129TIP3   OH2  327   4.122   0.239   4.792
  129TIP3    H1  328   4.186   0.173   4.818
  129TIP3    H2  329   4.039   0.209   4.830
  130TIP3   OH2  330   3.772   5.242   5.644
  130TIP3    H1  331   3.825   5.182   5.592
  130TIP3    H2  332   3.806   5.329   5.623
  131TIP3   OH2  333   2.314   6.742   6.552
  131TIP3    H1  334   2.341   6.654   6.577
  131TIP3    H2  335   2.292   6.785   6.635
  132TIP3   OH2  336   0.264   5.222   6.279
  132TIP3    H1  337   0.359   5.212   6.273
  132TIP3    H2  338   0.251   5.312   6.309
  133TIP3   OH2  339   1.177   6.968   3.215
  133TIP3    H1  340   1.172   7.037   3.149
  133TIP3    H2  341   1.087   6.955   3.243
  134TIP3   OH2  342   2.120   4.346   0.603
  134TIP3    H1  343   2.082   4.324   0.688
  134TIP3    H2  344   2.134   4.261   0.561
  135TIP3   OH2  345   1.885   6.294   3.464
  135TIP3    H1  346   1.812   6.356   3.456
  135TIP3    H2  347   1.962   6.344   3.437
  136TIP3   OH2  348   1.468   6.514   5.219
  136TIP3    H1  349   1.511   6.571   5.282
  136TIP3    H2  350   1.507   6.428   5.234
  137TIP3   OH2  351   3.507   1.311   4.332
  137TIP3    H1  352   3.526   1.330   4.241
  137TIP3    H2  353   3.414   1.285   4.332
  138TIP3   OH2  354   7.707   7.137   4.768
  138TIP3    H1  355   7.661   7.124   4.851
  138TIP3    H2  356   7.752   7.055   4.752
  139TIP3   OH2  357   7.183   3.577   6.406
  139TIP3    H1  358   7.262   3.525   6.395
  139TIP3    H2  359   7.215   3.666   6.423
  140TIP3   OH2  360   2.905   2.550   6.238
  140TIP3    H1  361   2.909   2.522   6.329
  140TIP3    H2  362   2.811   2.555   6.218
  141TIP3   OH2  363   3.194   7.103   4.090
  141TIP3    H1  364   3.186   7.134   4.180
  141TIP3    H2  365   3.283   7.068   4.084
  142TIP3   OH2  366   5.297   0.340   1.296
  142TIP3    H1  367   5.374   0.344   1.353
  142TIP3    H2  368   5.227   0.310   1.354
  143TIP3   OH2  369   3.621   2.390   2.580
  143TIP3    H1  370   3.605   2.342   2.499
  143TIP3    H2  371   3.636   2.323   2.646
  144TIP3   OH2  372   1.803   0.572   4.780
  144TIP3    H1  373   1.709   0.580   4.794
  144TIP3    H2  374   1.842   0.643   4.832
  145TIP3   OH2  375   7.549   7.123   6.017
  145TIP3    H1  376   7.478   7.175   5.980
  145TIP3    H2  377   7.514   7.090   6.100
  146TIP3   OH2  378   1.211   6.890   6.703
  146TIP3    H1  379   1.165   6.855   6.779
  146TIP3    H2  380   1.301   6.860   6.713
  147TIP3   OH2  381   7.757   1.385   0.124
  147TIP3    H1  382   7.820   1.445   0.084
  147TIP3    H2  383   7.718   1.338   0.050
  148TIP3   OH2  384   0.036   4.473   5.197
  148TIP3    H1  385   0.033   4.394   5.142
  148TIP3    H2  386   0.053   4.544   5.135
  149TIP3   OH2  387   2.672   3.242   1.894
  149TIP3    H1  388   2.660   3.149   1.875
  149TIP3    H2  389   2.609   3.261   1.964
  150TIP3   OH2  390   0.096   6.126   5.025
  150TIP3    H1  391   0.173   6.184   5.026
  150TIP3    H2  392   0.087   6.102   4.932
  151TIP3   OH2  393   0.617   2.130   6.498
  151TIP3    H1  394   0.546   2.073   6.471
  151TIP3    H2  395   0.581   2.219   6.490
  152TIP3   OH2  396   5.629   7.742   1.143
  152TIP3    H1  397   5.707   7.746   1.088
  152TIP3    H2  398   5.556   7.750   1.081
  153TIP3   OH2  399   3.859   0.576   0.914
  153TIP3    H1  400   3.804   0.625   0.975
  153TIP3    H2  401   3.804   0.566   0.835
  154TIP3   OH2  402   3.600   2.852   0.570
  154TIP3    H1  403   3.602   2.902   0.651
  154TIP3    H2  404   3.572   2.764   0.596
  155TIP3   OH2  405   5.021   3.029   3.138
  155TIP3    H1  406   5.108   3.068   3.123
  155TIP3    H2  407   5.025   2.998   3.229
  156TIP3   OH2  408   7.059   0.204   5.027
  156TIP3    H1  409   7.109   0.199   5.108
  156TIP3    H2  410   7.100   0.140   4.969
  157TIP3   OH2  411   2.357   6.015   6.317
  157TIP3    H1  412   2.411   5.939   6.337
  157TIP3    H2  413   2.286   6.011   6.381
  158TIP3   OH2  414   0.580   0.303   3.182
  158TIP3    H1  415   0.668   0.283   3.150
  158TIP3    H2  416   0.524   0.298   3.105
  159TIP3   OH2  417   1.396   0.322   2.026
  159TIP3    H1  418   1.327   0.341   2.090
  159TIP3    H2  419   1.473   0.367   2.061
  160TIP3   OH2  420   6.875   1.857   6.528
  160TIP3    H1  421   6.933   1.915   6.578
  160TIP3    H2  422   6.910   1.770   6.544
  161TIP3   OH2  423   7.634   4.242   0.750
  161TIP3    H1  424   7.581   4.174   0.706
  161TIP3    H2  425   7.588   4.324   0.730
  162TIP3   OH2  426   5.459   2.067   6.359
  162TIP3    H1  427   5.365   2.046   6.353
  162TIP3    H2  428   5.474   2.130   6.289
  163TIP3   OH2  429   1.729   6.835   4.956
  163TIP3    H1  430   1.639   6.837   4.924
  163TIP3    H2  431   1.723   6.856   5.049
  164TIP3   OH2  432   5.854   1.182   4.601
  164TIP3    H1  433   5.845   1.199   4.508
  164TIP3    H2  434   5.901   1.098   4.606
  165TIP3   OH2  435   2.834   6.699   5.721
  165TIP3    H1  436   2.812   6.609   5.743
  165TIP3    H2  437   2.832   6.702   5.625
  166TIP3   OH2  438   4.258   6.878   4.375
  166TIP3    H1  439   4.325   6.943   4.352
  166TIP3    H2  440   4.224   6.909   4.459
  167TIP3   OH2  441   5.179   3.972   0.573
  167TIP3    H1  442   5.259   4.012   0.539
  167TIP3    H2  443   5.197   3.958   0.666
  168TIP3   OH2  444   6.668   7.619   1.955
  168TIP3    H1  445   6.632   7.691   2.006
  168TIP3    H2  446   6.620   7.622   1.872
  169TIP3   OH2  447   7.072   6.307   2.124
  169TIP3    H1  448   6.987   6.315   2.167
  169TIP3    H2  449   7.072   6.378   2.059
  170TIP3   OH2  450   7.143   6.879   1.599
  170TIP3    H1  451   7.220   6.835   1.633
  170TIP3    H2  452   7.176   6.932   1.526
  171TIP3   OH2  453   6.077   7.876   2.687
  171TIP3    H1  454   6.078   7.813   2.614
  171TIP3    H2  455   5.993   7.861   2.730
  172TIP3   OH2  456   2.567   6.188   0.009
  172TIP3    H1  457   2.519   6.193   0.091
  172TIP3    H2  458   2.534   6.108  -0.033
  173TIP3   OH2  459   2.927   6.273   3.701
  173TIP3    H1  460   2.855   6.226   3.744
  173TIP3    H2  461   2.946   6.346   3.759
  174TIP3   OH2  462   6.233   2.853   2.062
  174TIP3    H1  463   6.139   2.843   2.076
  174TIP3    H2  464   6.240   2.899   1.979
  175TIP3   OH2  465   2.257   6.027   1.568
  175TIP3    H1  466   2.256   6.024   1.472
  175TIP3    H2  467   2.325   5.965   1.593
  176TIP3   OH2  468   6.251   6.334   6.366
  176TIP3    H1  469   6.261   6.425   6.395
  176TIP3    H2  470   6.292   6.332   6.279
  177TIP3   OH2  471   7.700   3.231   2.333
  177TIP3    H1  472   7.621   3.280   2.356
  177TIP3    H2  473   7.692   3.216   2.239
  178TIP3   OH2  474   4.236   7.730   6.702
  178TIP3    H1  475   4.205   7.676   6.629
  178TIP3    H2  476   4.324   7.756   6.677
  179TIP3   OH2  477   5.576   4.916   5.054
  179TIP3    H1  478   5.657   4.906   5.005
  179TIP3    H2  479   5.549   5.007   5.039
  180TIP3   OH2  480   2.680   7.349   3.548
  180TIP3    H1  481   2.737   7.327   3.474
  180TIP3    H2  482   2.666   7.266   3.593
  181TIP3   OH2  483   5.974   6.473   2.321
  181TIP3    H1  484   5.928   6.514   2.247
  181TIP3    H2  485   6.055   6.440   2.283
  182TIP3   OH2  486   1.025   2.961   4.374
  182TIP3    H1  487   0.980   2.981   4.292
  182TIP3    H2  488   0.988   3.022   4.438
  183TIP3   OH2  489   2.511   6.827   3.169
  183TIP3    H1  490   2.485   6.776   3.093
  183TIP3    H2  491   2.538   6.912   3.132
  184TIP3   OH2  492   6.648   4.843   6.664
  184TIP3    H1  493   6.715   4.775   6.652
  184TIP3    H2  494   6.565   4.799   6.644
  185TIP3   OH2  495   5.075   0.315   5.810
  185TIP3    H1  496   5.070   0.384   5.745
  185TIP3    H2  497   5.143   0.344   5.871
  186TIP3   OH2  498   5.318   4.897   1.979
  186TIP3    H1  499   5.389   4.873   1.920
  186TIP3    H2  500   5.349   4.869   2.065
  187TIP3   OH2  501   7.202   1.925   2.453
  187TIP3    H1  502   7.288   1.897   2.423
  187TIP3    H2  503   7.146   1.920   2.375
  188TIP3   OH2  504   5.564   5.145   5.698
  188TIP3    H1  505   5.627   5.075   5.716
  188TIP3    H2  506   5.506   5.109   5.631
  189TIP3   OH2  507   6.095   5.011   0.847
  189TIP3    H1  508   6.042   4.932   0.851
  189TIP3    H2  509   6.184   4.979   0.832
  190TIP3   OH2  510   8.092   4.679   2.958
  190TIP3    H1  511   8.033   4.734   2.907
  190TIP3    H2  512   8.082   4.591   2.920
  191TIP3   OH2  513   3.005   2.750   5.680
  191TIP3    H1  514   2.945   2.679   5.656
  191TIP3    H2  515   2.978   2.823   5.624
  192TIP3   OH2  516   8.300   6.824   1.247
  192TIP3    H1  517   8.379   6.877   1.242
  192TIP3    H2  518   8.282   6.817   1.341
  193TIP3   OH2  519   2.719   1.793   6.171
  193TIP3    H1  520   2.697   1.738   6.096
  193TIP3    H2  521   2.808   1.766   6.195
  194TIP3   OH2  522   3.196   3.561   3.142
  194TIP3    H1  523   3.200   3.604   3.056
  194TIP3    H2  524   3.273   3.593   3.188
  195TIP3   OH2  525   7.186   6.998   5.844
  195TIP3    H1  526   7.146   6.930   5.790
  195TIP3    H2  527   7.187   7.076   5.788
  196TIP3   OH2  528   3.461   5.239   6.072
  196TIP3    H1  529   3.500   5.199   6.150
  196TIP3    H2  530   3.522   5.221   6.002
  197TIP3   OH2  531   5.920   6.434   5.753
  197TIP3    H1  532   5.918   6.408   5.845
  197TIP3    H2  533   5.968   6.364   5.709
  198TIP3   OH2  534   5.395   6.759   5.733
  198TIP3    H1  535   5.302   6.772   5.717
  198TIP3    H2  536   5.400   6.727   5.823
  199TIP3   OH2  537   1.503   3.746   4.026
  199TIP3    H1  538   1.585   3.698   4.027
  199TIP3    H2  539   1.470   3.741   4.116
  200TIP3   OH2  540   7.828   5.164   4.627
  200TIP3    H1  541   7.802   5.158   4.535
  200TIP3    H2  542   7.875   5.247   4.634
  201TIP3   OH2  543   8.087   3.720   5.196
  201TIP3    H1  544   8.108   3.657   5.265
  201TIP3    H2  545   8.015   3.771   5.232
  202TIP3   OH2  546   3.823   7.421   6.202
  202TIP3    H1  547   3.847   7.496   6.257
  202TIP3    H2  548   3.751   7.453   6.148
  203TIP3   OH2  549   3.238   2.501   4.908
  203TIP3    H1  550   3.184   2.456   4.843
  203TIP3    H2  551   3.292   2.561   4.856
  204TIP3   OH2  552   6.815   5.501   0.481
  204TIP3    H1  553   6.763   5.570   0.521
  204TIP3    H2  554   6.905   5.532   0.487
  205TIP3   OH2  555   5.043   0.878   0.387
  205TIP3    H1  556   4.957   0.876   0.428
  205TIP3    H2  557   5.083   0.960   0.419
  206TIP3   OH2  558   4.197   5.628   1.734
  206TIP3    H1  559   4.140   5.552   1.739
  206TIP3    H2  560   4.137   5.703   1.728
  207TIP3   OH2  561   5.169   7.470   0.175
  207TIP3    H1  562   5.170   7.564   0.194
  207TIP3    H2  563   5.136   7.430   0.256
  208TIP3   OH2  564   2.832   5.654   4.131
  208TIP3    H1  565   2.882   5.712   4.074
  208TIP3    H2  566   2.818   5.575   4.079
  209TIP3   OH2  567   0.316   2.684   2.350
  209TIP3    H1  568   0.377   2.736   2.298
  209TIP3    H2  569   0.368   2.651   2.423
  210TIP3   OH2  570   2.744   4.605   5.527
  210TIP3    H1  571   2.665   4.652   5.554
  210TIP3    H2  572   2.715   4.548   5.456
  211TIP3   OH2  573   2.553   3.955   2.685
  211TIP3    H1  574   2.622   3.941   2.750
  211TIP3    H2  575   2.495   4.019   2.726
  212TIP3   OH2  576   1.809   4.589   0.290
  212TIP3    H1  577   1.900   4.618   0.301
  212TIP3    H2  578   1.789   4.541   0.370
  213TIP3   OH2  579   1.499   3.136   4.796
  213TIP3    H1  580   1.443   3.195   4.847
  213TIP3    H2  581   1.463   3.049   4.812
  214TIP3   OH2  582   3.922   5.991   1.254
  214TIP3    H1  583   3.993   5.928   1.267
  214TIP3    H2  584   3.849   5.939   1.220
  215TIP3   OH2  585   5.907   7.586   0.778
  215TIP3    H1  586   5.899   7.576   0.684
  215TIP3    H2  587   6.001   7.578   0.795
  216TIP3   OH2  588   4.766   4.867   2.398
  216TIP3    H1  589   4.671   4.875   2.404
  216TIP3    H2  590   4.797   4.878   2.488
  217TIP3   OH2  591   8.043   0.624   4.384
  217TIP3    H1  592   8.019   0.631   4.477
  217TIP3    H2  593   8.095   0.702   4.367
  218TIP3   OH2  594   3.527   4.080   1.637
  218TIP3    H1  595   3.448   4.038   1.604
  218TIP3    H2  596   3.496   4.135   1.709
  219TIP3   OH2  597   0.661   2.163   4.862
  219TIP3    H1  598   0.625   2.204   4.784
  219TIP3    H2  599   0.585   2.150   4.919
  220TIP3   OH2  600   1.232   1.022   2.470
  220TIP3    H1  601   1.208   0.984   2.555
  220TIP3    H2  602   1.196   1.110   2.472
  221TIP3   OH2  603   6.535   3.035   5.779
  221TIP3    H1  604   6.575   2.971   5.720
  221TIP3    H2  605   6.537   2.993   5.865
  222TIP3   OH2  606   1.211   2.300   1.947
  222TIP3    H1  607   1.296   2.319   1.986
  222TIP3    H2  608   1.196   2.373   1.887
  223TIP3   OH2  609   1.383   6.620   4.682
  223TIP3    H1  610   1.374   6.588   4.772
  223TIP3    H2  611   1.307   6.585   4.636
  224TIP3   OH2  612   3.264   2.796   0.607
  224TIP3    H1  613   3.266   2.726   0.542
  224TIP3    H2  614   3.234   2.873   0.558
  225TIP3   OH2  615   3.157   2.454   2.504
  225TIP3    H1  616   3.202   2.382   2.550
  225TIP3    H2  617   3.127   2.512   2.575
  226TIP3   OH2  618   6.937   2.665   1.457
  226TIP3    H1  619   7.019   2.703   1.425
  226TIP3    H2  620   6.956   2.572   1.467
  227TIP3   OH2  621   1.880   7.564   1.688
  227TIP3    H1  622   1.815   7.493   1.697
  227TIP3    H2  623   1.946   7.545   1.755
  228TIP3   OH2  624   5.183   0.461   6.117
  228TIP3    H1  625   5.220   0.449   6.205
  228TIP3    H2  626   5.108   0.402   6.114
  229TIP3   OH2  627   7.257   4.815   1.012
  229TIP3    H1  628   7.270   4.817   1.107
  229TIP3    H2  629   7.322   4.876   0.977
  230TIP3   OH2  630   6.225   1.463   1.126
  230TIP3    H1  631   6.163   1.464   1.053
  230TIP3    H2  632   6.281   1.539   1.111
  231TIP3   OH2  633   3.011   7.661   0.892
  231TIP3    H1  634   3.068   7.644   0.817
  231TIP3    H2  635   2.922   7.646   0.859
  232TIP3   OH2  636   6.186   0.914   6.191
  232TIP3    H1  637   6.125   0.872   6.131
  232TIP3    H2  638   6.181   0.862   6.271
  233TIP3   OH2  639   7.232   3.399   4.855
  233TIP3    H1  640   7.297   3.463   4.886
  233TIP3    H2  641   7.284   3.326   4.823
  234TIP3   OH2  642   3.258   5.036   0.697
  234TIP3    H1  643   3.331   5.060   0.640
  234TIP3    H2  644   3.265   5.097   0.771
  235TIP3   OH2  645   3.310   0.968   5.676
  235TIP3    H1  646   3.352   0.918   5.747
  235TIP3    H2  647   3.275   0.901   5.618
  236TIP3   OH2  648   0.048   3.197   0.752
  236TIP3    H1  649   0.066   3.129   0.687
  236TIP3    H2  650   0.032   3.276   0.700
  237TIP3   OH2  651   2.462   3.464   3.341
  237TIP3    H1  652   2.528   3.398   3.363
  237TIP3    H2  653   2.380   3.416   3.340
  238TIP3   OH2  654   1.698   5.284   3.370
  238TIP3    H1  655   1.772   5.237   3.410
  238TIP3    H2  656   1.624   5.264   3.427
  239TIP3   OH2  657   1.842   2.631   4.085
  239TIP3    H1  658   1.838   2.589   4.171
  239TIP3    H2  659   1.918   2.689   4.090
  240TIP3   OH2  660   0.004   3.149   3.822
  240TIP3    H1  661   0.037   3.095   3.750
  240TIP3    H2  662  -0.091   3.152   3.810
  241TIP3   OH2  663   4.398   0.530   2.606
  241TIP3    H1  664   4.440   0.493   2.683
  241TIP3    H2  665   4.319   0.478   2.593
  242TIP3   OH2  666   5.286   6.290   0.020
  242TIP3    H1  667   5.203   6.251   0.045
  242TIP3    H2  668   5.353   6.231   0.056
  243TIP3   OH2  669   7.045   3.941   6.462
  243TIP3    H1  670   6.971   3.913   6.408
  243TIP3    H2  671   7.006   3.996   6.530
  244TIP3   OH2  672   1.836   7.606   6.500
  244TIP3    H1  673   1.873   7.519   6.516
  244TIP3    H2  674   1.911   7.665   6.500
  245TIP3   OH2  675   7.792   0.904   4.901
  245TIP3    H1  676   7.839   0.934   4.979
  245TIP3    H2  677   7.744   0.826   4.930
  246TIP3   OH2  678   8.155   7.234   6.393
  246TIP3    H1  679   8.158   7.194   6.306
  246TIP3    H2  680   8.185   7.324   6.380
  247TIP3   OH2  681   3.932   0.989   4.167
  247TIP3    H1  682   3.878   1.004   4.090
  247TIP3    H2  683   3.981   1.071   4.178
  248TIP3   OH2  684   3.895   3.094   0.523
  248TIP3    H1  685   3.974   3.144   0.541
  248TIP3    H2  686   3.853   3.083   0.608
  249TIP3   OH2  687   6.039   6.080   2.361
  249TIP3    H1  688   6.010   6.139   2.292
  249TIP3    H2  689   6.092   6.014   2.316
  250TIP3   OH2  690   2.641   0.734   5.379
  250TIP3    H1  691   2.607   0.689   5.457
  250TIP3    H2  692   2.727   0.767   5.405
  251TIP3   OH2  693   2.118   1.426   1.858
  251TIP3    H1  694   2.151   1.383   1.936
  251TIP3    H2  695   2.194   1.470   1.820
  252TIP3   OH2  696   6.639   5.061   1.544
  252TIP3    H1  697   6.714   5.062   1.603
  252TIP3    H2  698   6.657   5.130   1.481
  253TIP3   OH2  699   5.556   6.494   0.725
  253TIP3    H1  700   5.486   6.500   0.661
  253TIP3    H2  701   5.539   6.565   0.787
  254TIP3   OH2  702   4.356   3.708   6.501
  254TIP3    H1  703   4.445   3.673   6.500
  254TIP3    H2  704   4.350   3.755   6.584
  255TIP3   OH2  705   0.830   6.100   3.889
  255TIP3    H1  706   0.737   6.081   3.901
  255TIP3    H2  707   0.854   6.052   3.809
  256TIP3   OH2  708   7.776   2.416   3.006
  256TIP3    H1  709   7.784   2.368   3.088
  256TIP3    H2  710   7.867   2.426   2.976
  257TIP3   OH2  711   1.114   0.812   0.936
  257TIP3    H1  712   1.023   0.812   0.964
  257TIP3    H2  713   1.110   0.835   0.843
  258TIP3   OH2  714   6.317   2.843   3.010
  258TIP3    H1  715   6.303   2.784   3.085
  258TIP3    H2  716   6.234   2.841   2.962
  259TIP3   OH2  717   2.662   5.016   1.298
  259TIP3    H1  718   2.605   4.939   1.297
  259TIP3    H2  719   2.695   5.021   1.387
  260TIP3   OH2  720   5.871   6.317   5.995
  260TIP3    H1  721   5.789   6.335   6.040
  260TIP3    H2  722   5.894   6.228   6.022
  261TIP3   OH2  723   6.995   2.296   2.120
  261TIP3    H1  724   6.911   2.263   2.087
  261TIP3    H2  725   6.979   2.313   2.213
  262TIP3   OH2  726   4.879   3.327   2.984
  262TIP3    H1  727   4.949   3.389   2.963
  262TIP3    H2  728   4.857   3.345   3.075
  263TIP3   OH2  729   4.423   5.489   6.164
  263TIP3    H1  730   4.465   5.455   6.244
  263TIP3    H2  731   4.401   5.579   6.185
  264TIP3   OH2  732   8.219   2.601   6.520
  264TIP3    H1  733   8.156   2.579   6.588
  264TIP3    H2  734   8.281   2.660   6.563
  265TIP3   OH2  735   2.971   0.419   0.143
  265TIP3    H1  736   2.953   0.332   0.178
  265TIP3    H2  737   3.052   0.408   0.093
  266TIP3   OH2  738   1.759   5.970   4.808
  266TIP3    H1  739   1.743   5.991   4.901
  266TIP3    H2  740   1.806   6.046   4.775
  267TIP3   OH2  741   6.011   2.476   2.955
  267TIP3    H1  742   5.979   2.511   3.038
  267TIP3    H2  743   6.080   2.537   2.928
  268TIP3   OH2  744   0.389   4.807   5.115
  268TIP3    H1  745   0.306   4.802   5.066
  268TIP3    H2  746   0.455   4.774   5.054
  269TIP3   OH2  747   2.782   4.205   1.393
  269TIP3    H1  748   2.831   4.246   1.321
  269TIP3    H2  749   2.790   4.111   1.377
  270TIP3   OH2  750   6.074   5.248   3.806
  270TIP3    H1  751   6.152   5.302   3.819
  270TIP3    H2  752   6.030   5.248   3.891
  271TIP3   OH2  753   0.456   3.111   1.904
  271TIP3    H1  754   0.407   3.168   1.963
  271TIP3    H2  755   0.548   3.138   1.916
  272TIP3   OH2  756   1.765   1.928   3.481
  272TIP3    H1  757   1.847   1.879   3.474
  272TIP3    H2  758   1.708   1.889   3.414
  273TIP3   OH2  759   0.661   3.616   1.234
  273TIP3    H1  760   0.614   3.675   1.176
  273TIP3    H2  761   0.698   3.673   1.302
  274TIP3   OH2  762   3.212   5.755   3.777
  274TIP3    H1  763   3.231   5.848   3.788
  274TIP3    H2  764   3.189   5.725   3.865
  275TIP3   OH2  765   8.129   3.376   0.669
  275TIP3    H1  766   8.076   3.299   0.689
  275TIP3    H2  767   8.155   3.364   0.578
  276TIP3   OH2  768   7.003   3.175   1.341
  276TIP3    H1  769   7.002   3.201   1.248
  276TIP3    H2  770   6.915   3.143   1.358
  277TIP3   OH2  771   2.890   3.758   4.577
  277TIP3    H1  772   2.930   3.835   4.536
  277TIP3    H2  773   2.863   3.703   4.504
  278TIP3   OH2  774   2.577   0.050   2.975
  278TIP3    H1  775   2.481   0.048   2.983
  278TIP3    H2  776   2.606   0.098   3.052
  279TIP3   OH2  777   5.244   2.164   0.079
  279TIP3    H1  778   5.202   2.092   0.126
  279TIP3    H2  779   5.176   2.230   0.070
  280TIP3   OH2  780   5.675   4.798   6.641
  280TIP3    H1  781   5.612   4.727   6.632
  280TIP3    H2  782   5.657   4.856   6.567
  281TIP3   OH2  783   6.954   4.791   2.557
  281TIP3    H1  784   7.024   4.826   2.502
  281TIP3    H2  785   6.900   4.739   2.497
  282TIP3   OH2  786   5.647   0.814   5.309
  282TIP3    H1  787   5.697   0.894   5.323
  282TIP3    H2  788   5.558   0.835   5.336
  283TIP3   OH2  789   1.902   7.057   2.556
  283TIP3    H1  790   1.900   7.057   2.461
  283TIP3    H2  791   1.884   7.148   2.581
  284TIP3   OH2  792   3.577   2.318   2.279
  284TIP3    H1  793   3.505   2.263   2.249
  284TIP3    H2  794   3.538   2.404   2.290
  285TIP3   OH2  795   5.601   5.584   1.161
  285TIP3    H1  796   5.610   5.489   1.153
  285TIP3    H2  797   5.547   5.609   1.087
  286TIP3   OH2  798   5.520   3.186   4.605
  286TIP3    H1  799   5.516   3.204   4.699
  286TIP3    H2  800   5.592   3.241   4.574
  287TIP3   OH2  801   6.960   5.038   3.243
  287TIP3    H1  802   7.037   5.005   3.289
  287TIP3    H2  803   6.972   5.011   3.152
  288TIP3   OH2  804   7.139   0.285   2.647
  288TIP3    H1  805   7.180   0.273   2.733
  288TIP3    H2  806   7.045   0.279   2.664
  289TIP3   OH2  807   5.608   0.363   0.316
  289TIP3    H1  808   5.681   0.322   0.269
  289TIP3    H2  809   5.548   0.291   0.334
  290TIP3   OH2  810   8.027   1.838   3.132
  290TIP3    H1  811   8.107   1.807   3.089
  290TIP3    H2  812   8.059   1.884   3.210
  291TIP3   OH2  813   3.749   1.089   6.261
  291TIP3    H1  814   3.833   1.043   6.254
  291TIP3    H2  815   3.720   1.098   6.170
  292TIP3   OH2  816   5.126   3.912   6.009
  292TIP3    H1  817   5.154   3.821   6.006
  292TIP3    H2  818   5.189   3.959   5.954
  293TIP3   OH2  819   1.865   0.717   0.750
  293TIP3    H1  820   1.829   0.730   0.838
  293TIP3    H2  821   1.949   0.674   0.765
  294TIP3   OH2  822   8.031   2.784   4.218
  294TIP3    H1  823   8.079   2.806   4.298
  294TIP3    H2  824   7.942   2.765   4.248
  295TIP3   OH2  825   2.499   6.496   3.333
  295TIP3    H1  826   2.449   6.567   3.372
  295TIP3    H2  827   2.557   6.539   3.270
  296TIP3   OH2  828   7.998   5.836   1.417
  296TIP3    H1  829   7.924   5.829   1.357
  296TIP3    H2  830   8.062   5.774   1.382
  297TIP3   OH2  831   3.966   3.881   1.076
  297TIP3    H1  832   3.938   3.969   1.049
  297TIP3    H2  833   4.052   3.895   1.115
  298TIP3   OH2  834   4.202   1.102   6.032
  298TIP3    H1  835   4.224   1.194   6.015
  298TIP3    H2  836   4.171   1.101   6.122
  299TIP3   OH2  837   2.832   6.268   0.018
  299TIP3    H1  838   2.881   6.241   0.096
  299TIP3    H2  839   2.757   6.209   0.015
  300TIP3   OH2  840   7.620   4.795   1.326
  300TIP3    H1  841   7.693   4.741   1.295
  300TIP3    H2  842   7.638   4.882   1.291
  301TIP3   OH2  843   6.832   7.543   6.743
  301TIP3    H1  844   6.784   7.587   6.813
  301TIP3    H2  845   6.819   7.597   6.666
  302TIP3   OH2  846   6.549   0.238   5.898
  302TIP3    H1  847   6.637   0.201   5.899
  302TIP3    H2  848   6.519   0.233   5.988
  303TIP3   OH2  849   7.122   0.629   0.130
  303TIP3    H1  850   7.211   0.620   0.095
  303TIP3    H2  851   7.095   0.716   0.103
  304TIP3   OH2  852   1.719   1.944   5.418
  304TIP3    H1  853   1.788   1.877   5.416
  304TIP3    H2  854   1.639   1.895   5.436
  305TIP3   OH2  855   6.285   4.089   4.223
  305TIP3    H1  856   6.254   4.103   4.313
  305TIP3    H2  857   6.324   4.001   4.225
  306TIP3   OH2  858   2.669   7.012   5.395
  306TIP3    H1  859   2.717   6.931   5.412
  306TIP3    H2  860   2.632   7.036   5.480
  307TIP3   OH2  861   5.726   4.443   1.908
  307TIP3    H1  862   5.640   4.463   1.944
  307TIP3    H2  863   5.786   4.502   1.954
  308TIP3   OH2  864   7.165   2.787   2.809
  308TIP3    H1  865   7.082   2.767   2.767
  308TIP3    H2  866   7.216   2.706   2.800
  309TIP3   OH2  867   5.853   7.383   6.255
  309TIP3    H1  868   5.927   7.399   6.198
  309TIP3    H2  869   5.874   7.430   6.336
  310TIP3   OH2  870   3.351   5.144   5.559
  310TIP3    H1  871   3.376   5.058   5.525
  310TIP3    H2  872   3.344   5.131   5.653
  311TIP3   OH2  873   3.449   6.224   5.564
  311TIP3    H1  874   3.517   6.196   5.503
  311TIP3    H2  875   3.403   6.143   5.587
  312TIP3   OH2  876   2.609   7.050   2.931
  312TIP3    H1  877   2.580   7.000   2.855
  312TIP3    H2  878   2.705   7.044   2.928
  313TIP3   OH2  879   0.154   1.847   4.857
  313TIP3    H1  880   0.117   1.916   4.802
  313TIP3    H2  881   0.249   1.852   4.841
  314TIP3   OH2  882   4.614   3.386   3.189
  314TIP3    H1  883   4.580   3.297   3.192
  314TIP3    H2  884   4.708   3.376   3.199
  315TIP3   OH2  885   5.394   2.601   6.159
  315TIP3    H1  886   5.445   2.659   6.103
  315TIP3    H2  887   5.331   2.658   6.202
  316TIP3   OH2  888   0.616   4.378   1.542
  316TIP3    H1  889   0.708   4.403   1.546
  316TIP3    H2  890   0.590   4.394   1.451
  317TIP3   OH2  891   4.490   3.585   3.054
  317TIP3    H1  892   4.545   3.590   2.976
  317TIP3    H2  893   4.528   3.515   3.107
  318TIP3   OH2  894   5.129   6.660   3.288
  318TIP3    H1  895   5.068   6.732   3.302
  318TIP3    H2  896   5.193   6.668   3.358
  319TIP3   OH2  897   5.639   5.420   6.419
  319TIP3    H1  898   5.720   5.430   6.369
  319TIP3    H2  899   5.651   5.338   6.467
  320TIP3   OH2  900   5.062   3.974   0.137
  320TIP3    H1  901   5.031   3.914   0.070
  320TIP3    H2  902   5.111   4.041   0.089
  321TIP3   OH2  903   4.465   0.687   6.652
  321TIP3    H1  904   4.552   0.728   6.652
  321TIP3    H2  905   4.410   0.749   6.699
  322TIP3   OH2  906   3.456   2.609   2.629
  322TIP3    H1  907   3.393   2.551   2.671
  322TIP3    H2  908   3.533   2.554   2.612
  323TIP3   OH2  909   6.273   0.111   3.871
  323TIP3    H1  910   6.226   0.029   3.852
  323TIP3    H2  911   6.294   0.105   3.964
  324TIP3   OH2  912   1.743   4.198   0.261
  324TIP3    H1  913   1.713   4.158   0.343
  324TIP3    H2  914   1.756   4.290   0.283
  325TIP3   OH2  915   6.670   2.622   6.144
  325TIP3    H1  916   6.594   2.639   6.089
  325TIP3    H2  917   6.677   2.527   6.147
  326TIP3   OH2  918   6.745   6.548   1.324
  326TIP3    H1  919   6.652   6.528   1.313
  326TIP3    H2  920   6.757   6.632   1.278
  327TIP3   OH2  921   7.576   1.877   6.393
  327TIP3    H1  922   7.581   1.887   6.488
  327TIP3    H2  923   7.503   1.817   6.379
  328TIP3   OH2  924   0.729   5.787   4.315
  328TIP3    H1  925   0.712   5.695   4.299
  328TIP3    H2  926   0.793   5.812   4.248
  329TIP3   OH2  927   5.919   4.649   4.988
  329TIP3    H1  928   5.929   4.640   5.083
  329TIP3    H2  929   5.895   4.740   4.974
  330TIP3   OH2  930   0.266   0.944   5.857
  330TIP3    H1  931   0.188   0.972   5.904
  330TIP3    H2  932   0.258   0.849   5.853
  331TIP3   OH2  933   2.650   7.558   3.729
  331TIP3    H1  934   2.557   7.578   3.735
  331TIP3    H2  935   2.656   7.491   3.661
  332TIP3   OH2  936   0.344   7.314   3.631
  332TIP3    H1  937   0.353   7.220   3.618
  332TIP3    H2  938   0.364   7.352   3.545
  333TIP3   OH2  939   5.751   6.791   3.487
  333TIP3    H1  940   5.672   6.772   3.436
  333TIP3    H2  941   5.820   6.742   3.444
  334TIP3   OH2  942   7.493   6.474   6.034
  334TIP3    H1  943   7.424   6.518   5.984
  334TIP3    H2  944   7.575   6.511   6.000
  335TIP3   OH2  945   6.557   0.283   6.805
  335TIP3    H1  946   6.490   0.305   6.740
  335TIP3    H2  947   6.509   0.273   6.887
  336TIP3   OH2  948   1.088   5.844   3.405
  336TIP3    H1  949   1.139   5.830   3.325
  336TIP3    H2  950   0.997   5.843   3.377
  337TIP3   OH2  951   6.357   4.171   1.452
  337TIP3    H1  952   6.311   4.185   1.535
  337TIP3    H2  953   6.396   4.084   1.460
  338TIP3   OH2  954   4.635   5.439   2.015
  338TIP3    H1  955   4.549   5.409   2.046
  338TIP3    H2  956   4.695   5.370   2.043
  339TIP3   OH2  957   7.547   0.579   1.088
  339TIP3    H1  958   7.618   0.518   1.108
  339TIP3    H2  959   7.587   0.647   1.034
  340TIP3   OH2  960   0.025   7.646   6.075
  340TIP3    H1  961   0.069   7.659   5.991
  340TIP3    H2  962  -0.068   7.647   6.054
  341TIP3   OH2  963   5.754   2.064   5.329
  341TIP3    H1  964   5.732   2.045   5.238
  341TIP3    H2  965   5.846   2.038   5.338
  342TIP3   OH2  966   3.848   5.607   0.240
  342TIP3    H1  967   3.770   5.556   0.219
  342TIP3    H2  968   3.845   5.681   0.180
  343TIP3   OH2  969   3.821   5.064   2.335
  343TIP3    H1  970   3.879   5.062   2.412
  343TIP3    H2  971   3.881   5.056   2.260
  344TIP3   OH2  972   1.062   4.225   4.138
  344TIP3    H1  973   1.109   4.149   4.171
  344TIP3    H2  974   1.036   4.273   4.218
  345TIP3   OH2  975   3.488   5.508   4.073
  345TIP3    H1  976   3.567   5.490   4.124
  345TIP3    H2  977   3.508   5.590   4.027
  346TIP3   OH2  978   3.521   6.900   4.334
  346TIP3    H1  979   3.456   6.937   4.394
  346TIP3    H2  980   3.573   6.841   4.388
  347TIP3   OH2  981   4.099   7.407   4.644
  347TIP3    H1  982   4.022   7.356   4.667
  347TIP3    H2  983   4.094   7.485   4.700
  348TIP3   OH2  984   4.964   4.419   6.467
  348TIP3    H1  985   4.972   4.500   6.417
  348TIP3    H2  986   4.873   4.391   6.454
  349TIP3   OH2  987   2.268   0.938   0.774
  349TIP3    H1  988   2.298   1.010   0.719
  349TIP3    H2  989   2.220   0.881   0.715
  350TIP3   OH2  990   6.892   5.162   3.476
  350TIP3    H1  991   6.978   5.203   3.489
  350TIP3    H2  992   6.893   5.134   3.384
  351TIP3   OH2  993   4.452   4.955   6.543
  351TIP3    H1  994   4.481   4.993   6.460
  351TIP3    H2  995   4.490   5.011   6.610
  352TIP3   OH2  996   6.986   5.242   6.303
  352TIP3    H1  997   6.899   5.209   6.325
  352TIP3    H2  998   7.013   5.292   6.380
  353TIP3   OH2  999   4.895   2.409   4.070
  353TIP3    H1 1000   4.825   2.425   4.133
  353TIP3    H2 1001   4.912   2.495   4.031
  354TIP3   OH2 1002   8.001   4.994   5.345
  354TIP3    H1 1003   7.910   5.023   5.351
  354TIP3    H2 1004   7.996   4.899   5.340
  355TIP3   OH2 1005   5.550   2.931   2.803
  355TIP3    H1 1006   5.530   3.018   2.838
  355TIP3    H2 1007   5.469   2.903   2.762
  356TIP3   OH2 1008   7.467   1.013   5.489
  356TIP3    H1 1009   7.541   0.957   5.511
  356TIP3    H2 1010   7.417   0.963   5.425
  357TIP3   OH2 1011   3.702   5.124   5.277
  357TIP3    H1 1012   3.704   5.143   5.183
  357TIP3    H2 1013   3.665   5.036   5.283
  358TIP3   OH2 1014   3.074   3.024   1.282
  358TIP3    H1 1015   2.989   2.985   1.304
  358TIP3    H2 1016   3.127   2.949   1.254
  359TIP3   OH2 1017   5.952   4.745   4.072
  359TIP3    H1 1018   5.970   4.651   4.071
  359TIP3    H2 1019   6.014   4.781   4.136
  360TIP3   OH2 1020   6.217   7.098   2.390
  360TIP3    H1 1021   6.205   7.179   2.341
  360TIP3    H2 1022   6.185   7.030   2.331
  361TIP3   OH2 1023   7.423   4.733   2.830
  361TIP3    H1 1024   7.477   4.710   2.906
  361TIP3    H2 1025   7.376   4.652   2.809
  362TIP3   OH2 1026   2.173   7.259   3.491
  362TIP3    H1 1027   2.099   7.316   3.469
  362TIP3    H2 1028   2.247   7.319   3.498
  363TIP3   OH2 1029   0.610   6.997   3.359
  363TIP3    H1 1030   0.581   7.064   3.298
  363TIP3    H2 1031   0.635   7.045   3.438
  364TIP3   OH2 1032   1.945   2.316   0.363
  364TIP3    H1 1033   1.877   2.374   0.328
  364TIP3    H2 1034   1.963   2.351   0.450
  365TIP3   OH2 1035   4.279   7.449   5.953
  365TIP3    H1 1036   4.370   7.473   5.966
  365TIP3    H2 1037   4.245   7.437   6.042
  366TIP3   OH2 1038   2.849   2.407   3.178
  366TIP3    H1 1039   2.819   2.493   3.148
  366TIP3    H2 1040   2.780   2.347   3.149
  367TIP3   OH2 1041   7.622   6.787   1.843
  367TIP3    H1 1042   7.711   6.801   1.812
  367TIP3    H2 1043   7.633   6.751   1.931
  368TIP3   OH2 1044   5.520   2.117   0.104
  368TIP3    H1 1045   5.550   2.197   0.062
  368TIP3    H2 1046   5.427   2.112   0.082
  369TIP3   OH2 1047   7.848   4.637   6.040
  369TIP3    H1 1048   7.904   4.631   6.117
  369TIP3    H2 1049   7.827   4.547   6.018
  370TIP3   OH2 1050   0.551   3.815   4.044
  370TIP3    H1 1051   0.575   3.893   4.094
  370TIP3    H2 1052   0.512   3.850   3.963
  371TIP3   OH2 1053   7.469   5.905   0.836
  371TIP3    H1 1054   7.443   5.842   0.903
  371TIP3    H2 1055   7.418   5.983   0.856
  372TIP3   OH2 1056   0.523   4.099   2.628
  372TIP3    H1 1057   0.547   4.028   2.687
  372TIP3    H2 1058   0.477   4.161   2.684
  373TIP3   OH2 1059   7.647   4.536   0.586
  373TIP3    H1 1060   7.722   4.511   0.533
  373TIP3    H2 1061   7.672   4.621   0.623
  374TIP3   OH2 1062   3.295   6.214   1.455
  374TIP3    H1 1063   3.366   6.152   1.438
  374TIP3    H2 1064   3.217   6.159   1.464
  375TIP3   OH2 1065   3.611   0.540   4.239
  375TIP3    H1 1066   3.629   0.498   4.324
  375TIP3    H2 1067   3.698   0.563   4.205
  376TIP3   OH2 1068   7.385   3.015   2.475
  376TIP3    H1 1069   7.355   3.084   2.415
  376TIP3    H2 1070   7.438   3.061   2.540
  377TIP3   OH2 1071   5.144   7.336   6.806
  377TIP3    H1 1072   5.119   7.404   6.744
  377TIP3    H2 1073   5.218   7.292   6.766
  378TIP3   OH2 1074   6.029   4.008   3.288
  378TIP3    H1 1075   6.038   4.101   3.266
  378TIP3    H2 1076   6.118   3.974   3.287
  379TIP3   OH2 1077   3.237   4.874   4.732
  379TIP3    H1 1078   3.332   4.870   4.719
  379TIP3    H2 1079   3.202   4.899   4.646
  380TIP3   OH2 1080   5.285   3.615   6.732
  380TIP3    H1 1081   5.223   3.609   6.805
  380TIP3    H2 1082   5.349   3.546   6.749
  381TIP3   OH2 1083   2.806   3.525   1.557
  381TIP3    H1 1084   2.750   3.590   1.514
  381TIP3    H2 1085   2.751   3.487   1.626
  382TIP3   OH2 1086   6.332   1.159   6.278
  382TIP3    H1 1087   6.288   1.085   6.237
  382TIP3    H2 1088   6.422   1.129   6.292
  383TIP3   OH2 1089   7.050   2.124   4.675
  383TIP3    H1 1090   6.971   2.099   4.723
  383TIP3    H2 1091   7.019   2.179   4.603
  384TIP3   OH2 1092   3.592   0.094   1.507
  384TIP3    H1 1093   3.504   0.070   1.537
  384TIP3    H2 1094   3.579   0.125   1.417
  385TIP3   OH2 1095   7.162   5.365   0.358
  385TIP3    H1 1096   7.156   5.409   0.273
  385TIP3    H2 1097   7.073   5.369   0.393
  386TIP3   OH2 1098   1.734   0.115   3.112
  386TIP3    H1 1099   1.811   0.140   3.060
  386TIP3    H2 1100   1.762   0.035   3.157
  387TIP3   OH2 1101   2.353   1.022   1.103
  387TIP3    H1 1102   2.405   1.098   1.078
  387TIP3    H2 1103   2.382   0.952   1.044
  388TIP3   OH2 1104   8.353   0.877   1.188
  388TIP3    H1 1105   8.433   0.907   1.233
  388TIP3    H2 1106   8.294   0.952   1.194
  389TIP3   OH2 1107   1.241   5.206   3.984
  389TIP3    H1 1108   1.288   5.289   3.979
  389TIP3    H2 1109   1.309   5.139   3.974
  390TIP3   OH2 1110   7.286   5.185   1.696
  390TIP3    H1 1111   7.307   5.158   1.785
  390TIP3    H2 1112   7.277   5.280   1.701
  391TIP3   OH2 1113   6.238   6.816   4.289
  391TIP3    H1 1114   6.306   6.785   4.349
  391TIP3    H2 1115   6.263   6.780   4.204
  392TIP3   OH2 1116   3.335   1.865   3.178
  392TIP3    H1 1117   3.313   1.772   3.179
  392TIP3    H2 1118   3.329   1.890   3.086
  393TIP3   OH2 1119   4.852   5.277   6.827
  393TIP3    H1 1120   4.859   5.360   6.873
  393TIP3    H2 1121   4.873   5.299   6.736
  394TIP3   OH2 1122   1.571   4.824   0.612
  394TIP3    H1 1123   1.560   4.741   0.566
  394TIP3    H2 1124   1.570   4.891   0.543
  395TIP3   OH2 1125   6.739   5.755   2.751
  395TIP3    H1 1126   6.732   5.823   2.818
  395TIP3    H2 1127   6.652   5.751   2.712
  396TIP3   OH2 1128   5.037   1.532   5.678
  396TIP3    H1 1129   5.072   1.465   5.621
  396TIP3    H2 1130   5.049   1.497   5.767
  397TIP3   OH2 1131   4.074   7.674   3.664
  397TIP3    H1 1132   4.059   7.585   3.632
  397TIP3    H2 1133   4.169   7.684   3.663
  398TIP3   OH2 1134   0.041   3.308   1.925
  398TIP3    H1 1135  -0.047   3.335   1.896
  398TIP3    H2 1136   0.034   3.303   2.021
  399TIP3   OH2 1137   5.606   4.823   1.209
  399TIP3    H1 1138   5.537   4.823   1.143
  399TIP3    H2 1139   5.563   4.793   1.289
  400TIP3   OH2 1140   1.681   6.741   0.855
  400TIP3    H1 1141   1.699   6.759   0.762
  400TIP3    H2 1142   1.745   6.674   0.879
  401TIP3   OH2 1143   7.700   2.906   6.833
  401TIP3    H1 1144   7.622   2.854   6.816
  401TIP3    H2 1145   7.741   2.865   6.909
  402TIP3   OH2 1146   4.819   5.406   4.212
  402TIP3    H1 1147   4.862   5.399   4.297
  402TIP3    H2 1148   4.761   5.482   4.220
  403TIP3   OH2 1149   6.127   6.340   5.178
  403TIP3    H1 1150   6.083   6.342   5.093
  403TIP3    H2 1151   6.065   6.297   5.236
  404TIP3   OH2 1152   7.645   5.986   5.848
  404TIP3    H1 1153   7.609   6.062   5.893
  404TIP3    H2 1154   7.693   5.939   5.916
  405TIP3   OH2 1155   8.014   6.049   1.165
  405TIP3    H1 1156   8.069   5.973   1.146
  405TIP3    H2 1157   7.930   6.012   1.191
  406TIP3   OH2 1158   0.703   7.260   3.540
  406TIP3    H1 1159   0.710   7.341   3.591
  406TIP3    H2 1160   0.752   7.279   3.460
  407TIP3   OH2 1161   5.247   3.311   1.009
  407TIP3    H1 1162   5.228   3.243   0.944
  407TIP3    H2 1163   5.209   3.391   0.971
  408TIP3   OH2 1164   5.860   0.145   3.646
  408TIP3    H1 1165   5.942   0.159   3.599
  408TIP3    H2 1166   5.882   0.081   3.714
  409TIP3   OH2 1167   1.135   7.555   4.198
  409TIP3    H1 1168   1.221   7.534   4.235
  409TIP3    H2 1169   1.123   7.648   4.217
  410TIP3   OH2 1170   3.107   4.608   4.585
  410TIP3    H1 1171   3.142   4.693   4.557
  410TIP3    H2 1172   3.038   4.589   4.521
  411TIP3   OH2 1173   3.102   5.027   3.643
  411TIP3    H1 1174   3.174   4.967   3.625
  411TIP3    H2 1175   3.066   5.048   3.556
  412TIP3   OH2 1176   3.591   6.111   4.570
  412TIP3    H1 1177   3.553   6.023   4.573
  412TIP3    H2 1178   3.575   6.140   4.480
  413TIP3   OH2 1179   7.874   1.164   0.226
  413TIP3    H1 1180   7.921   1.146   0.144
  413TIP3    H2 1181   7.795   1.211   0.198
  414TIP3   OH2 1182   3.282   4.092   6.797
  414TIP3    H1 1183   3.275   4.135   6.711
  414TIP3    H2 1184   3.373   4.108   6.824
  415TIP3   OH2 1185   7.244   6.084   1.116
  415TIP3    H1 1186   7.282   6.135   1.045
  415TIP3    H2 1187   7.268   5.994   1.097
  416TIP3   OH2 1188   4.138   4.014   0.235
  416TIP3    H1 1189   4.212   4.010   0.175
  416TIP3    H2 1190   4.124   3.924   0.263
  417TIP3   OH2 1191   5.378   3.158   3.832
  417TIP3    H1 1192   5.426   3.078   3.856
  417TIP3    H2 1193   5.384   3.214   3.910
  418TIP3   OH2 1194   5.575   6.214   4.533
  418TIP3    H1 1195   5.528   6.173   4.606
  418TIP3    H2 1196   5.555   6.158   4.458
  419TIP3   OH2 1197   3.225   3.081   6.737
  419TIP3    H1 1198   3.224   3.168   6.778
  419TIP3    H2 1199   3.133   3.062   6.719
  420TIP3   OH2 1200   4.533   7.360   2.630
  420TIP3    H1 1201   4.596   7.316   2.573
  420TIP3    H2 1202   4.547   7.453   2.613
  421TIP3   OH2 1203   6.818   3.934   4.926
  421TIP3    H1 1204   6.775   3.972   5.002
  421TIP3    H2 1205   6.810   3.840   4.938
  422TIP3   OH2 1206   0.673   4.772   0.678
  422TIP3    H1 1207   0.597   4.730   0.720
  422TIP3    H2 1208   0.748   4.744   0.732
  423TIP3   OH2 1209   4.617   7.245   5.151
  423TIP3    H1 1210   4.560   7.169   5.157
  423TIP3    H2 1211   4.578   7.299   5.082
  424TIP3   OH2 1212   1.104   2.053   2.010
  424TIP3    H1 1213   1.158   2.122   1.972
  424TIP3    H2 1214   1.018   2.065   1.970
  425TIP3   OH2 1215   8.251   4.583   0.914
  425TIP3    H1 1216   8.170   4.631   0.898
  425TIP3    H2 1217   8.243   4.551   1.004
  426TIP3   OH2 1218   0.553   4.868   2.117
  426TIP3    H1 1219   0.549   4.777   2.088
  426TIP3    H2 1220   0.566   4.919   2.036
  427TIP3   OH2 1221   2.098   6.145   3.118
  427TIP3    H1 1222   2.007   6.125   3.140
  427TIP3    H2 1223   2.149   6.108   3.189
  428TIP3   OH2 1224   6.020   2.103   3.791
  428TIP3    H1 1225   6.109   2.072   3.808
  428TIP3    H2 1226   6.032   2.179   3.733
  429TIP3   OH2 1227   1.869   3.995   5.456
  429TIP3    H1 1228   1.867   3.905   5.489
  429TIP3    H2 1229   1.948   4.000   5.403
  430TIP3   OH2 1230   1.801   2.108   3.692
  430TIP3    H1 1231   1.823   2.190   3.649
  430TIP3    H2 1232   1.798   2.044   3.621
  431TIP3   OH2 1233   5.597   6.635   4.769
  431TIP3    H1 1234   5.513   6.661   4.733
  431TIP3    H2 1235   5.662   6.677   4.713
  432TIP3   OH2 1236   1.410   0.411   3.582
  432TIP3    H1 1237   1.424   0.397   3.488
  432TIP3    H2 1238   1.491   0.379   3.623
  433TIP3   OH2 1239   6.610   0.708   4.200
  433TIP3    H1 1240   6.566   0.646   4.259
  433TIP3    H2 1241   6.577   0.794   4.226
  434TIP3   OH2 1242   3.818   1.006   5.196
  434TIP3    H1 1243   3.845   0.935   5.137
  434TIP3    H2 1244   3.734   0.977   5.232
  435TIP3   OH2 1245   4.935   2.336   5.089
  435TIP3    H1 1246   4.999   2.321   5.158
  435TIP3    H2 1247   4.930   2.253   5.042
  436TIP3   OH2 1248   4.470   6.036   3.158
  436TIP3    H1 1249   4.380   6.049   3.189
  436TIP3    H2 1250   4.506   5.971   3.218
  437TIP3   OH2 1251   8.003   6.810   0.933
  437TIP3    H1 1252   8.055   6.748   0.984
  437TIP3    H2 1253   7.936   6.756   0.891
  438TIP3   OH2 1254   7.752   0.429   1.070
  438TIP3    H1 1255   7.828   0.485   1.052
  438TIP3    H2 1256   7.767   0.350   1.018
  439TIP3   OH2 1257   1.025   5.819   0.894
  439TIP3    H1 1258   1.011   5.803   0.801
  439TIP3    H2 1259   1.101   5.878   0.897
  440TIP3   OH2 1260   0.462   7.446   1.671
  440TIP3    H1 1261   0.420   7.528   1.694
  440TIP3    H2 1262   0.393   7.395   1.628
  441TIP3   OH2 1263   4.209   7.425   2.262
  441TIP3    H1 1264   4.226   7.392   2.350
  441TIP3    H2 1265   4.118   7.455   2.265
  442TIP3   OH2 1266   0.362   4.132   3.404
  442TIP3    H1 1267   0.309   4.061   3.368
  442TIP3    H2 1268   0.447   4.093   3.421
  443TIP3   OH2 1269   7.054   1.334   4.892
  443TIP3    H1 1270   7.047   1.369   4.803
  443TIP3    H2 1271   7.108   1.397   4.939
  444TIP3   OH2 1272   7.485   1.239   0.689
  444TIP3    H1 1273   7.432   1.228   0.609
  444TIP3    H2 1274   7.448   1.177   0.751
  445TIP3   OH2 1275   2.899   3.754   2.960
  445TIP3    H1 1276   2.926   3.695   2.890
  445TIP3    H2 1277   2.912   3.704   3.041
  446TIP3   OH2 1278   6.614   7.327   4.235
  446TIP3    H1 1279   6.576   7.412   4.255
  446TIP3    H2 1280   6.613   7.280   4.318
  447TIP3   OH2 1281   1.312   0.176   1.562
  447TIP3    H1 1282   1.300   0.145   1.652
  447TIP3    H2 1283   1.306   0.271   1.569
  448TIP3   OH2 1284   1.054   3.707   5.159
  448TIP3    H1 1285   1.114   3.633   5.148
  448TIP3    H2 1286   0.987   3.694   5.092
  449TIP3   OH2 1287   0.399   5.429   0.033
  449TIP3    H1 1288   0.467   5.388   0.087
  449TIP3    H2 1289   0.348   5.482   0.095
  450TIP3   OH2 1290   0.971   1.673   5.757
  450TIP3    H1 1291   1.046   1.662   5.814
  450TIP3    H2 1292   0.966   1.591   5.707
  451TIP3   OH2 1293   0.634   7.360   5.004
  451TIP3    H1 1294   0.674   7.289   4.953
  451TIP3    H2 1295   0.542   7.334   5.011
  452TIP3   OH2 1296   2.722   2.049   4.881
  452TIP3    H1 1297   2.675   2.126   4.915
  452TIP3    H2 1298   2.703   2.049   4.787
  453TIP3   OH2 1299   5.592   3.020   0.007
  453TIP3    H1 1300   5.679   3.041   0.043
  453TIP3    H2 1301   5.589   3.066  -0.077
  454TIP3   OH2 1302   8.109   1.172   0.371
  454TIP3    H1 1303   8.171   1.171   0.298
  454TIP3    H2 1304   8.026   1.198   0.332
  455TIP3   OH2 1305   4.166   0.616   5.336
  455TIP3    H1 1306   4.140   0.528   5.364
  455TIP3    H2 1307   4.085   0.655   5.304
  456TIP3   OH2 1308   4.873   7.891   0.126
  456TIP3    H1 1309   4.943   7.955   0.140
  456TIP3    H2 1310   4.836   7.877   0.213
  457TIP3   OH2 1311   5.491   6.865   0.597
  457TIP3    H1 1312   5.528   6.929   0.658
  457TIP3    H2 1313   5.567   6.832   0.548
  458TIP3   OH2 1314   5.610   0.340   3.663
  458TIP3    H1 1315   5.627   0.251   3.631
  458TIP3    H2 1316   5.529   0.366   3.618
  459TIP3   OH2 1317   3.630   6.721   4.515
  459TIP3    H1 1318   3.634   6.641   4.462
  459TIP3    H2 1319   3.720   6.735   4.545
  460TIP3   OH2 1320   6.408   4.098   0.593
  460TIP3    H1 1321   6.316   4.103   0.565
  460TIP3    H2 1322   6.419   4.008   0.622
  461TIP3   OH2 1323   1.314   1.400   1.869
  461TIP3    H1 1324   1.380   1.429   1.806
  461TIP3    H2 1325   1.339   1.442   1.951
  462TIP3   OH2 1326   2.572   6.700   5.330
  462TIP3    H1 1327   2.520   6.630   5.368
  462TIP3    H2 1328   2.507   6.758   5.289
  463TIP3   OH2 1329   6.221   6.773   1.926
  463TIP3    H1 1330   6.296   6.778   1.867
  463TIP3    H2 1331   6.146   6.798   1.872
  464TIP3   OH2 1332   6.941   3.506   5.281
  464TIP3    H1 1333   6.918   3.429   5.333
  464TIP3    H2 1334   6.976   3.470   5.199
  465TIP3   OH2 1335   5.763   2.682   3.932
  465TIP3    H1 1336   5.767   2.630   3.852
  465TIP3    H2 1337   5.737   2.619   4.000
  466TIP3   OH2 1338   5.986   6.763   2.634
  466TIP3    H1 1339   5.964   6.788   2.544
  466TIP3    H2 1340   6.078   6.735   2.628
  467TIP3   OH2 1341   4.093   1.125   2.583
  467TIP3    H1 1342   4.153   1.052   2.600
  467TIP3    H2 1343   4.053   1.105   2.499
  468TIP3   OH2 1344   0.113   1.286   3.344
  468TIP3    H1 1345   0.152   1.371   3.326
  468TIP3    H2 1346   0.039   1.305   3.401
  469TIP3   OH2 1347   5.329   1.667   6.543
  469TIP3    H1 1348   5.286   1.599   6.595
  469TIP3    H2 1349   5.296   1.655   6.454
  470TIP3   OH2 1350   1.954   5.045   3.194
  470TIP3    H1 1351   1.913   5.000   3.268
  470TIP3    H2 1352   1.935   4.989   3.119
  471TIP3   OH2 1353   6.732   7.453   4.500
  471TIP3    H1 1354   6.678   7.400   4.442
  471TIP3    H2 1355   6.697   7.542   4.492
  472TIP3   OH2 1356   3.622   0.450   2.477
  472TIP3    H1 1357   3.585   0.534   2.449
  472TIP3    H2 1358   3.638   0.460   2.570
  473TIP3   OH2 1359   8.248   2.902   4.401
  473TIP3    H1 1360   8.311   2.892   4.473
  473TIP3    H2 1361   8.295   2.872   4.323
  474TIP3   OH2 1362   3.117   3.825   4.307
  474TIP3    H1 1363   3.073   3.901   4.346
  474TIP3    H2 1364   3.054   3.792   4.242
  475TIP3   OH2 1365   4.404   0.079   2.721
  475TIP3    H1 1366   4.382   0.141   2.791
  475TIP3    H2 1367   4.407  -0.006   2.765
  476TIP3   OH2 1368   8.363   2.145   6.417
  476TIP3    H1 1369   8.356   2.114   6.327
  476TIP3    H2 1370   8.273   2.145   6.450
  477TIP3   OH2 1371   3.539   2.333   3.398
  477TIP3    H1 1372   3.558   2.309   3.489
  477TIP3    H2 1373   3.545   2.250   3.349
  478TIP3   OH2 1374   8.179   5.092   5.634
  478TIP3    H1 1375   8.183   5.071   5.540
  478TIP3    H2 1376   8.233   5.025   5.675
  479TIP3   OH2 1377   0.545   2.876   3.609
  479TIP3    H1 1378   0.635   2.842   3.613
  479TIP3    H2 1379   0.496   2.808   3.562
  480TIP3   OH2 1380   6.591   2.986   6.601
  480TIP3    H1 1381   6.505   2.966   6.638
  480TIP3    H2 1382   6.625   2.901   6.573
  481TIP3   OH2 1383   2.708   6.832   4.414
  481TIP3    H1 1384   2.786   6.845   4.469
  481TIP3    H2 1385   2.686   6.919   4.384
  482TIP3   OH2 1386   1.252   7.184   3.813
  482TIP3    H1 1387   1.239   7.168   3.906
  482TIP3    H2 1388   1.338   7.225   3.807
  483TIP3   OH2 1389   8.145   7.754   3.887
  483TIP3    H1 1390   8.153   7.757   3.982
  483TIP3    H2 1391   8.093   7.832   3.865
  484TIP3   OH2 1392   4.787   2.556   5.240
  484TIP3    H1 1393   4.843   2.492   5.199
  484TIP3    H2 1394   4.715   2.569   5.179
  485TIP3   OH2 1395   1.468   1.134   5.175
  485TIP3    H1 1396   1.546   1.175   5.137
  485TIP3    H2 1397   1.395   1.187   5.145
  486TIP3   OH2 1398   7.216   3.251   4.416
  486TIP3    H1 1399   7.296   3.304   4.413
  486TIP3    H2 1400   7.165   3.290   4.486
  487TIP3   OH2 1401   0.547   5.456   2.233
  487TIP3    H1 1402   0.585   5.440   2.146
  487TIP3    H2 1403   0.609   5.415   2.293
  488TIP3   OH2 1404   5.207   0.926   6.830
  488TIP3    H1 1405   5.194   0.907   6.737
  488TIP3    H2 1406   5.281   0.987   6.832
  489TIP3   OH2 1407   1.475   0.698   5.896
  489TIP3    H1 1408   1.425   0.770   5.934
  489TIP3    H2 1409   1.438   0.620   5.936
  490TIP3   OH2 1410   1.074   2.498   3.411
  490TIP3    H1 1411   1.059   2.404   3.398
  490TIP3    H2 1412   1.003   2.540   3.362
  491TIP3   OH2 1413   6.911   0.835   1.501
  491TIP3    H1 1414   6.841   0.781   1.464
  491TIP3    H2 1415   6.877   0.864   1.586
  492TIP3   OH2 1416   5.482   5.647   5.316
  492TIP3    H1 1417   5.524   5.723   5.358
  492TIP3    H2 1418   5.394   5.645   5.354
  493TIP3   OH2 1419   2.534   1.238   0.840
  493TIP3    H1 1420   2.567   1.267   0.755
  493TIP3    H2 1421   2.482   1.311   0.872
  494TIP3   OH2 1422   2.873   6.524   2.390
  494TIP3    H1 1423   2.924   6.444   2.378
  494TIP3    H2 1424   2.785   6.501   2.362
  495TIP3   OH2 1425   8.290   3.829   3.589
  495TIP3    H1 1426   8.365   3.788   3.632
  495TIP3    H2 1427   8.232   3.856   3.660
  496TIP3   OH2 1428   6.315   4.013   2.143
  496TIP3    H1 1429   6.296   4.093   2.095
  496TIP3    H2 1430   6.320   4.040   2.235
  497TIP3   OH2 1431   4.222   3.899   0.758
  497TIP3    H1 1432   4.295   3.955   0.732
  497TIP3    H2 1433   4.153   3.918   0.695
  498TIP3   OH2 1434   8.201   2.393   3.693
  498TIP3    H1 1435   8.225   2.445   3.616
  498TIP3    H2 1436   8.119   2.350   3.668
  499TIP3   OH2 1437   1.781   4.429   1.057
  499TIP3    H1 1438   1.714   4.490   1.087
  499TIP3    H2 1439   1.733   4.351   1.031
  500TIP3   OH2 1440   7.892   4.349   2.085
  500TIP3    H1 1441   7.985   4.337   2.105
  500TIP3    H2 1442   7.846   4.307   2.158
  501TIP3   OH2 1443   2.101   2.494   0.022
  501TIP3    H1 1444   2.077   2.575   0.067
  501TIP3    H2 1445   2.122   2.432   0.093
  502TIP3   OH2 1446   5.412   0.639   4.174
  502TIP3    H1 1447   5.448   0.551   4.185
  502TIP3    H2 1448   5.384   0.641   4.082
  503TIP3   OH2 1449   7.967   1.415   2.158
  503TIP3    H1 1450   7.982   1.337   2.210
  503TIP3    H2 1451   7.873   1.416   2.141
  504TIP3   OH2 1452   1.571   0.163   1.444
  504TIP3    H1 1453   1.481   0.143   1.470
  504TIP3    H2 1454   1.590   0.246   1.488
  505TIP3   OH2 1455   4.372   6.928   2.122
  505TIP3    H1 1456   4.428   6.852   2.142
  505TIP3    H2 1457   4.361   6.924   2.027
  506TIP3   OH2 1458   7.433   6.111   2.658
  506TIP3    H1 1459   7.493   6.183   2.640
  506TIP3    H2 1460   7.389   6.136   2.739
  507TIP3   OH2 1461   8.322   3.090   3.261
  507TIP3    H1 1462   8.238   3.136   3.258
  507TIP3    H2 1463   8.304   3.009   3.309
  508TIP3   OH2 1464   6.176   5.143   1.523
  508TIP3    H1 1465   6.245   5.166   1.585
  508TIP3    H2 1466   6.214   5.162   1.437
  509TIP3   OH2 1467   3.097   5.609   2.875
  509TIP3    H1 1468   3.105   5.559   2.955
  509TIP3    H2 1469   3.066   5.546   2.810
  510TIP3   OH2 1470   7.109   2.574   4.784
  510TIP3    H1 1471   7.084   2.662   4.756
  510TIP3    H2 1472   7.089   2.572   4.877
  511TIP3   OH2 1473   4.582   4.897   5.977
  511TIP3    H1 1474   4.653   4.960   5.964
  511TIP3    H2 1475   4.565   4.862   5.890
  512TIP3   OH2 1476   4.340   5.896   4.206
  512TIP3    H1 1477   4.340   5.933   4.118
  512TIP3    H2 1478   4.389   5.814   4.199
  513TIP3   OH2 1479   3.906   6.982   5.223
  513TIP3    H1 1480   3.846   6.927   5.272
  513TIP3    H2 1481   3.991   6.967   5.263
  514TIP3   OH2 1482   3.196   0.582   0.636
  514TIP3    H1 1483   3.142   0.577   0.715
  514TIP3    H2 1484   3.147   0.532   0.570
  515TIP3   OH2 1485   4.330   2.630   4.195
  515TIP3    H1 1486   4.248   2.583   4.176
  515TIP3    H2 1487   4.390   2.600   4.127
  516TIP3   OH2 1488   6.565   1.712   4.979
  516TIP3    H1 1489   6.638   1.655   4.955
  516TIP3    H2 1490   6.487   1.657   4.971
  517TIP3   OH2 1491   2.741   7.870   6.488
  517TIP3    H1 1492   2.704   7.956   6.472
  517TIP3    H2 1493   2.805   7.858   6.418
  518TIP3   OH2 1494   5.978   7.159   6.453
  518TIP3    H1 1495   5.912   7.219   6.420
  518TIP3    H2 1496   6.061   7.195   6.421
  519TIP3   OH2 1497   4.127   4.117   5.140
  519TIP3    H1 1498   4.219   4.142   5.132
  519TIP3    H2 1499   4.088   4.142   5.056
  520TIP3   OH2 1500   7.936   0.275   2.832
  520TIP3    H1 1501   8.030   0.263   2.818
  520TIP3    H2 1502   7.917   0.360   2.791
  521TIP3   OH2 1503   4.833   0.401   0.294
  521TIP3    H1 1504   4.835   0.414   0.389
  521TIP3    H2 1505   4.762   0.457   0.263
  522TIP3   OH2 1506   4.710   5.843   0.715
  522TIP3    H1 1507   4.769   5.916   0.728
  522TIP3    H2 1508   4.698   5.839   0.620
  523TIP3   OH2 1509   1.899   4.311   6.209
  523TIP3    H1 1510   1.876   4.219   6.196
  523TIP3    H2 1511   1.990   4.309   6.238
  524TIP3   OH2 1512   2.679   2.853   0.145
  524TIP3    H1 1513   2.723   2.778   0.105
  524TIP3    H2 1514   2.632   2.895   0.072
  525TIP3   OH2 1515   5.966   3.770   0.151
  525TIP3    H1 1516   5.874   3.795   0.149
  525TIP3    H2 1517   5.969   3.683   0.112
  526TIP3   OH2 1518   4.951   4.714   2.609
  526TIP3    H1 1519   5.031   4.690   2.562
  526TIP3    H2 1520   4.958   4.809   2.622
  527TIP3   OH2 1521   4.699   1.193   6.789
  527TIP3    H1 1522   4.619   1.194   6.737
  527TIP3    H2 1523   4.768   1.213   6.727
  528TIP3   OH2 1524   1.122   1.393   3.930
  528TIP3    H1 1525   1.171   1.427   3.855
  528TIP3    H2 1526   1.033   1.426   3.917
  529TIP3   OH2 1527   5.378   2.320   0.418
  529TIP3    H1 1528   5.324   2.381   0.470
  529TIP3    H2 1529   5.449   2.296   0.477
  530TIP3   OH2 1530   1.254   7.491   4.624
  530TIP3    H1 1531   1.161   7.479   4.605
  530TIP3    H2 1532   1.296   7.494   4.538
  531TIP3   OH2 1533   2.023   0.062   3.742
  531TIP3    H1 1534   1.979   0.023   3.818
  531TIP3    H2 1535   2.074   0.134   3.778
  532TIP3   OH2 1536   4.306   7.322   4.502
  532TIP3    H1 1537   4.233   7.352   4.555
  532TIP3    H2 1538   4.267   7.266   4.435
  533TIP3   OH2 1539   7.435   3.795   5.002
  533TIP3    H1 1540   7.505   3.780   4.937
  533TIP3    H2 1541   7.383   3.866   4.965
  534TIP3   OH2 1542   1.328   2.769   3.624
  534TIP3    H1 1543   1.271   2.723   3.685
  534TIP3    H2 1544   1.416   2.738   3.646
  535TIP3   OH2 1545   4.096   7.016   4.160
  535TIP3    H1 1546   4.064   7.055   4.241
  535TIP3    H2 1547   4.183   6.982   4.182
  536TIP3   OH2 1548   5.486   5.842   4.216
  536TIP3    H1 1549   5.540   5.851   4.137
  536TIP3    H2 1550   5.548   5.855   4.289
  537TIP3   OH2 1551   5.795   5.400   2.493
  537TIP3    H1 1552   5.874   5.446   2.464
  537TIP3    H2 1553   5.768   5.447   2.572
  538TIP3   OH2 1554   1.124   2.772   6.522
  538TIP3    H1 1555   1.160   2.803   6.605
  538TIP3    H2 1556   1.031   2.757   6.540
  539TIP3   OH2 1557   6.268   5.107   4.375
  539TIP3    H1 1558   6.293   5.022   4.340
  539TIP3    H2 1559   6.350   5.142   4.412
  540TIP3   OH2 1560   5.576   7.534   6.615
  540TIP3    H1 1561   5.534   7.583   6.686
  540TIP3    H2 1562   5.503   7.505   6.560
  541TIP3   OH2 1563   5.371   2.038   0.941
  541TIP3    H1 1564   5.394   2.130   0.928
  541TIP3    H2 1565   5.311   2.018   0.869
  542TIP3   OH2 1566   2.974   1.768   6.261
  542TIP3    H1 1567   2.990   1.819   6.341
  542TIP3    H2 1568   3.003   1.679   6.283
  543TIP3   OH2 1569   3.671   4.434   2.123
  543TIP3    H1 1570   3.600   4.479   2.077
  543TIP3    H2 1571   3.683   4.353   2.074
  544TIP3   OH2 1572   5.095   4.117   3.394
  544TIP3    H1 1573   5.082   4.111   3.300
  544TIP3    H2 1574   5.168   4.178   3.405
  545TIP3   OH2 1575   0.711   3.484   3.021
  545TIP3    H1 1576   0.671   3.473   2.935
  545TIP3    H2 1577   0.801   3.511   3.002
  546TIP3   OH2 1578   3.561   3.174   5.418
  546TIP3    H1 1579   3.626   3.201   5.353
  546TIP3    H2 1580   3.606   3.109   5.472
  547TIP3   OH2 1581   6.562   4.754   4.582
  547TIP3    H1 1582   6.580   4.661   4.564
  547TIP3    H2 1583   6.498   4.752   4.653
  548TIP3   OH2 1584   1.495   2.383   1.588
  548TIP3    H1 1585   1.514   2.360   1.497
  548TIP3    H2 1586   1.563   2.447   1.611
  549TIP3   OH2 1587   0.086   4.481   3.820
  549TIP3    H1 1588   0.082   4.444   3.908
  549TIP3    H2 1589   0.077   4.405   3.762
  550TIP3   OH2 1590   0.514   4.468   4.705
  550TIP3    H1 1591   0.445   4.429   4.758
  550TIP3    H2 1592   0.492   4.443   4.615
  551TIP3   OH2 1593   3.948   0.956   4.461
  551TIP3    H1 1594   3.982   0.955   4.371
  551TIP3    H2 1595   4.007   1.015   4.508
  552TIP3   OH2 1596   4.561   1.772   5.244
  552TIP3    H1 1597   4.532   1.832   5.175
  552TIP3    H2 1598   4.597   1.828   5.312
  553TIP3   OH2 1599   1.543   6.643   2.960
  553TIP3    H1 1600   1.504   6.680   3.039
  553TIP3    H2 1601   1.558   6.719   2.903
  554TIP3   OH2 1602   2.637   6.804   5.953
  554TIP3    H1 1603   2.548   6.832   5.930
  554TIP3    H2 1604   2.674   6.772   5.871
  555TIP3   OH2 1605   3.006   6.645   0.684
  555TIP3    H1 1606   3.032   6.640   0.776
  555TIP3    H2 1607   3.073   6.594   0.637
  556TIP3   OH2 1608   4.174   5.300   3.327
  556TIP3    H1 1609   4.228   5.233   3.284
  556TIP3    H2 1610   4.100   5.314   3.267
  557TIP3   OH2 1611   2.623   2.920   6.165
  557TIP3    H1 1612   2.615   2.974   6.087
  557TIP3    H2 1613   2.625   2.830   6.133
  558TIP3   OH2 1614   6.411   7.444   3.511
  558TIP3    H1 1615   6.317   7.442   3.494
  558TIP3    H2 1616   6.432   7.356   3.543
  559TIP3   OH2 1617   5.343   3.283   4.086
  559TIP3    H1 1618   5.391   3.356   4.126
  559TIP3    H2 1619   5.251   3.304   4.100
  560TIP3   OH2 1620   3.365   6.620   5.865
  560TIP3    H1 1621   3.428   6.619   5.793
  560TIP3    H2 1622   3.280   6.603   5.824
  561TIP3   OH2 1623   5.526   2.354   4.508
  561TIP3    H1 1624   5.539   2.355   4.603
  561TIP3    H2 1625   5.447   2.407   4.495
  562TIP3   OH2 1626   7.464   1.907   5.436
  562TIP3    H1 1627   7.494   1.841   5.499
  562TIP3    H2 1628   7.437   1.857   5.360
  563TIP3   OH2 1629   3.089   7.660   4.775
  563TIP3    H1 1630   3.034   7.694   4.846
  563TIP3    H2 1631   3.177   7.655   4.812
  564TIP3   OH2 1632   1.573   4.225   3.523
  564TIP3    H1 1633   1.493   4.191   3.564
  564TIP3    H2 1634   1.644   4.198   3.582
  565TIP3   OH2 1635   2.147   6.319   0.105
  565TIP3    H1 1636   2.071   6.280   0.149
  565TIP3    H2 1637   2.189   6.245   0.062
  566TIP3   OH2 1638   5.584   0.015   5.432
  566TIP3    H1 1639   5.570  -0.054   5.496
  566TIP3    H2 1640   5.679   0.022   5.423
  567TIP3   OH2 1641   5.438   0.836   4.367
  567TIP3    H1 1642   5.419   0.764   4.307
  567TIP3    H2 1643   5.397   0.809   4.450
  568TIP3   OH2 1644   0.311   2.271   3.782
  568TIP3    H1 1645   0.336   2.205   3.847
  568TIP3    H2 1646   0.220   2.290   3.802
  569TIP3   OH2 1647   2.589   7.816   4.348
  569TIP3    H1 1648   2.501   7.840   4.319
  569TIP3    H2 1649   2.578   7.782   4.436
  570TIP3   OH2 1650   8.337   1.184   3.608
  570TIP3    H1 1651   8.348   1.121   3.537
  570TIP3    H2 1652   8.262   1.237   3.580
  571TIP3   OH2 1653   3.876   1.302   6.024
  571TIP3    H1 1654   3.871   1.209   6.004
  571TIP3    H2 1655   3.914   1.342   5.945
  572TIP3   OH2 1656   1.186   6.083   0.006
  572TIP3    H1 1657   1.135   6.145  -0.046
  572TIP3    H2 1658   1.141   6.000  -0.005
  573TIP3   OH2 1659   6.777   2.761   4.830
  573TIP3    H1 1660   6.872   2.769   4.819
  573TIP3    H2 1661   6.760   2.795   4.918
  574TIP3   OH2 1662   1.026   4.280   6.009
  574TIP3    H1 1663   0.980   4.209   5.964
  574TIP3    H2 1664   0.962   4.316   6.071
  575TIP3   OH2 1665   3.928   4.157   1.003
  575TIP3    H1 1666   3.955   4.247   1.022
  575TIP3    H2 1667   3.833   4.157   1.018
  576TIP3   OH2 1668   3.614   5.665   6.233
  576TIP3    H1 1669   3.703   5.673   6.199
  576TIP3    H2 1670   3.625   5.668   6.328
  577TIP3   OH2 1671   5.825   4.979   3.785
  577TIP3    H1 1672   5.766   4.993   3.710
  577TIP3    H2 1673   5.882   5.056   3.785
  578TIP3   OH2 1674   2.198   1.852   4.365
  578TIP3    H1 1675   2.202   1.805   4.449
  578TIP3    H2 1676   2.271   1.914   4.368
  579TIP3   OH2 1677   1.102   6.399   6.494
  579TIP3    H1 1678   1.184   6.386   6.543
  579TIP3    H2 1679   1.042   6.437   6.558
  580TIP3   OH2 1680   6.486   2.208   6.527
  580TIP3    H1 1681   6.535   2.283   6.491
  580TIP3    H2 1682   6.544   2.133   6.511
  581TIP3   OH2 1683   5.818   7.239   5.345
  581TIP3    H1 1684   5.756   7.234   5.272
  581TIP3    H2 1685   5.888   7.179   5.321
  582TIP3   OH2 1686   6.128   7.450   1.078
  582TIP3    H1 1687   6.056   7.392   1.105
  582TIP3    H2 1688   6.159   7.413   0.996
  583TIP3   OH2 1689   3.302   3.369   4.856
  583TIP3    H1 1690   3.274   3.435   4.792
  583TIP3    H2 1691   3.220   3.327   4.883
  584TIP3   OH2 1692   3.432   3.755   2.428
  584TIP3    H1 1693   3.386   3.779   2.347
  584TIP3    H2 1694   3.477   3.673   2.407
  585TIP3   OH2 1695   6.639   6.805   4.365
  585TIP3    H1 1696   6.569   6.825   4.428
  585TIP3    H2 1697   6.650   6.887   4.317
  586TIP3   OH2 1698   0.058   3.809   2.780
  586TIP3    H1 1699   0.032   3.897   2.805
  586TIP3    H2 1700   0.000   3.785   2.708
  587TIP3   OH2 1701   0.811   4.896   4.611
  587TIP3    H1 1702   0.891   4.907   4.663
  587TIP3    H2 1703   0.805   4.977   4.559
  588TIP3   OH2 1704   6.344   2.417   3.505
  588TIP3    H1 1705   6.435   2.435   3.483
  588TIP3    H2 1706   6.346   2.389   3.596
  589TIP3   OH2 1707   1.295   6.869   3.984
  589TIP3    H1 1708   1.305   6.815   4.063
  589TIP3    H2 1709   1.265   6.809   3.917
  590TIP3   OH2 1710   5.508   0.258   4.390
  590TIP3    H1 1711   5.517   0.333   4.449
  590TIP3    H2 1712   5.414   0.244   4.382
  591TIP3   OH2 1713   8.336   2.886   5.068
  591TIP3    H1 1714   8.254   2.874   5.020
  591TIP3    H2 1715   8.368   2.972   5.040
  592TIP3   OH2 1716   1.545   0.200   2.893
  592TIP3    H1 1717   1.625   0.157   2.925
  592TIP3    H2 1718   1.526   0.267   2.958
  593TIP3   OH2 1719   7.884   7.665   4.373
  593TIP3    H1 1720   7.912   7.657   4.282
  593TIP3    H2 1721   7.916   7.751   4.400
  594TIP3   OH2 1722   8.005   1.494   5.182
  594TIP3    H1 1723   8.082   1.454   5.141
  594TIP3    H2 1724   7.941   1.423   5.187
  595TIP3   OH2 1725   2.841   3.523   5.054
  595TIP3    H1 1726   2.852   3.529   4.959
  595TIP3    H2 1727   2.930   3.520   5.088
  596TIP3   OH2 1728   2.897   2.299   5.422
  596TIP3    H1 1729   2.868   2.287   5.332
  596TIP3    H2 1730   2.838   2.243   5.473
  597TIP3   OH2 1731   1.192   3.086   3.884
  597TIP3    H1 1732   1.183   2.995   3.856
  597TIP3    H2 1733   1.283   3.095   3.912
  598TIP3   OH2 1734   4.929   0.577   4.399
  598TIP3    H1 1735   5.007   0.567   4.345
  598TIP3    H2 1736   4.862   0.609   4.338
  599TIP3   OH2 1737   6.613   7.026   4.197
  599TIP3    H1 1738   6.707   7.006   4.191
  599TIP3    H2 1739   6.608   7.120   4.181
  600TIP3   OH2 1740   0.685   5.369   2.594
  600TIP3    H1 1741   0.680   5.464   2.597
  600TIP3    H2 1742   0.777   5.350   2.580
  601TIP3   OH2 1743   4.681   4.863   1.243
  601TIP3    H1 1744   4.736   4.869   1.165
  601TIP3    H2 1745   4.595   4.894   1.214
  602TIP3   OH2 1746   6.847   2.052   2.736
  602TIP3    H1 1747   6.865   1.991   2.664
  602TIP3    H2 1748   6.871   2.003   2.815
  603TIP3   OH2 1749   4.001   6.795   2.912
  603TIP3    H1 1750   4.029   6.853   2.842
  603TIP3    H2 1751   4.074   6.796   2.974
  604TIP3   OH2 1752   0.079   2.703   3.624
  604TIP3    H1 1753   0.001   2.720   3.677
  604TIP3    H2 1754   0.150   2.698   3.688
  605TIP3   OH2 1755   6.880   1.835   4.329
  605TIP3    H1 1756   6.827   1.801   4.401
  605TIP3    H2 1757   6.912   1.919   4.359
  606TIP3   OH2 1758   3.182   3.112   1.528
  606TIP3    H1 1759   3.107   3.078   1.578
  606TIP3    H2 1760   3.160   3.093   1.437
  607TIP3   OH2 1761   7.288   6.692   1.939
  607TIP3    H1 1762   7.308   6.715   1.849
  607TIP3    H2 1763   7.364   6.721   1.989
  608TIP3   OH2 1764   4.614   3.296   6.407
  608TIP3    H1 1765   4.690   3.342   6.443
  608TIP3    H2 1766   4.577   3.249   6.482
  609TIP3   OH2 1767   7.658   0.288   4.069
  609TIP3    H1 1768   7.640   0.370   4.115
  609TIP3    H2 1769   7.583   0.276   4.011
  610TIP3   OH2 1770   0.425   6.117   4.255
  610TIP3    H1 1771   0.409   6.140   4.347
  610TIP3    H2 1772   0.411   6.023   4.251
  611TIP3   OH2 1773   7.799   7.826   6.182
  611TIP3    H1 1774   7.878   7.833   6.235
  611TIP3    H2 1775   7.738   7.777   6.237
  612TIP3   OH2 1776   1.461   0.508   4.291
  612TIP3    H1 1777   1.543   0.461   4.274
  612TIP3    H2 1778   1.462   0.524   4.385
  613TIP3   OH2 1779   5.228   4.491   3.075
  613TIP3    H1 1780   5.215   4.521   2.985
  613TIP3    H2 1781   5.321   4.505   3.092
  614TIP3   OH2 1782   0.842   6.643   1.251
  614TIP3    H1 1783   0.757   6.631   1.294
  614TIP3    H2 1784   0.833   6.596   1.168
  615TIP3   OH2 1785   6.063   7.582   4.583
  615TIP3    H1 1786   6.139   7.620   4.627
  615TIP3    H2 1787   6.037   7.509   4.639
  616TIP3   OH2 1788   2.830   5.520   6.373
  616TIP3    H1 1789   2.758   5.580   6.352
  616TIP3    H2 1790   2.909   5.573   6.360
  617TIP3   OH2 1791   5.541   3.328   3.128
  617TIP3    H1 1792   5.590   3.359   3.205
  617TIP3    H2 1793   5.474   3.395   3.115
  618TIP3   OH2 1794   7.648   2.246   6.575
  618TIP3    H1 1795   7.695   2.323   6.543
  618TIP3    H2 1796   7.708   2.206   6.638
  619TIP3   OH2 1797   3.956   5.541   4.576
  619TIP3    H1 1798   4.005   5.462   4.558
  619TIP3    H2 1799   4.023   5.608   4.590
  620TIP3   OH2 1800   5.701   0.844   1.967
  620TIP3    H1 1801   5.641   0.777   1.934
  620TIP3    H2 1802   5.725   0.895   1.890
  621TIP3   OH2 1803   0.801   0.430   6.083
  621TIP3    H1 1804   0.708   0.429   6.105
  621TIP3    H2 1805   0.845   0.424   6.168
  622TIP3   OH2 1806   6.663   4.517   3.903
  622TIP3    H1 1807   6.710   4.601   3.907
  622TIP3    H2 1808   6.650   4.502   3.810
  623TIP3   OH2 1809   7.925   4.597   1.546
  623TIP3    H1 1810   7.860   4.604   1.616
  623TIP3    H2 1811   8.009   4.615   1.589
  624TIP3   OH2 1812   0.831   0.800   2.461
  624TIP3    H1 1813   0.745   0.816   2.422
  624TIP3    H2 1814   0.893   0.821   2.391
  625TIP3   OH2 1815   5.647   4.537   4.051
  625TIP3    H1 1816   5.686   4.551   4.138
  625TIP3    H2 1817   5.587   4.610   4.040
  626TIP3   OH2 1818   7.233   7.122   2.031
  626TIP3    H1 1819   7.190   7.039   2.051
  626TIP3    H2 1820   7.183   7.157   1.957
  627TIP3   OH2 1821   7.838   3.989   1.655
  627TIP3    H1 1822   7.894   3.913   1.639
  627TIP3    H2 1823   7.890   4.044   1.715
  628TIP3   OH2 1824   6.316   4.570   5.729
  628TIP3    H1 1825   6.403   4.572   5.688
  628TIP3    H2 1826   6.311   4.651   5.780
  629TIP3   OH2 1827   2.053   6.015   2.866
  629TIP3    H1 1828   2.047   6.052   2.954
  629TIP3    H2 1829   1.969   5.971   2.853
  630TIP3   OH2 1830   1.116   3.282   3.700
  630TIP3    H1 1831   1.041   3.322   3.745
  630TIP3    H2 1832   1.140   3.208   3.755
  631TIP3   OH2 1833   8.359   2.550   5.695
  631TIP3    H1 1834   8.291   2.506   5.643
  631TIP3    H2 1835   8.391   2.620   5.638
  632TIP3   OH2 1836   2.861   2.537   2.695
  632TIP3    H1 1837   2.881   2.446   2.715
  632TIP3    H2 1838   2.947   2.580   2.691
  633TIP3   OH2 1839   7.890   3.783   2.438
  633TIP3    H1 1840   7.813   3.729   2.421
  633TIP3    H2 1841   7.866   3.870   2.406
  634TIP3   OH2 1842   0.318   3.950   4.485
  634TIP3    H1 1843   0.308   3.938   4.390
  634TIP3    H2 1844   0.231   3.978   4.515
  635TIP3   OH2 1845   7.477   7.209   4.623
  635TIP3    H1 1846   7.467   7.303   4.640
  635TIP3    H2 1847   7.565   7.188   4.654
  636TIP3   OH2 1848   5.133   4.751   5.652
  636TIP3    H1 1849   5.062   4.707   5.605
  636TIP3    H2 1850   5.099   4.838   5.671
  637TIP3   OH2 1851   2.328   5.520   6.830
  637TIP3    H1 1852   2.422   5.537   6.834
  637TIP3    H2 1853   2.287   5.595   6.874
  638TIP3   OH2 1854   3.920   6.121   4.394
  638TIP3    H1 1855   3.894   6.029   4.397
  638TIP3    H2 1856   4.016   6.118   4.394
  639TIP3   OH2 1857   5.836   3.840   4.094
  639TIP3    H1 1858   5.899   3.892   4.046
  639TIP3    H2 1859   5.785   3.904   4.144
  640TIP3   OH2 1860   2.017   6.378   1.068
  640TIP3    H1 1861   1.947   6.404   1.128
  640TIP3    H2 1862   2.006   6.435   0.992
  641TIP3   OH2 1863   1.368   2.905   0.366
  641TIP3    H1 1864   1.425   2.834   0.396
  641TIP3    H2 1865   1.340   2.877   0.279
  642TIP3   OH2 1866   3.591   3.668   0.227
  642TIP3    H1 1867   3.640   3.685   0.308
  642TIP3    H2 1868   3.653   3.626   0.169
  643TIP3   OH2 1869   0.568   0.157   1.766
  643TIP3    H1 1870   0.570   0.108   1.684
  643TIP3    H2 1871   0.601   0.094   1.831
  644TIP3   OH2 1872   3.924   7.305   6.609
  644TIP3    H1 1873   3.894   7.261   6.529
  644TIP3    H2 1874   3.978   7.240   6.653
  645TIP3   OH2 1875   5.178   1.484   3.849
  645TIP3    H1 1876   5.205   1.487   3.940
  645TIP3    H2 1877   5.245   1.430   3.806
  646TIP3   OH2 1878   7.178   0.864   0.977
  646TIP3    H1 1879   7.233   0.788   0.991
  646TIP3    H2 1880   7.131   0.876   1.060
  647TIP3   OH2 1881   1.570   1.201   1.831
  647TIP3    H1 1882   1.609   1.267   1.888
  647TIP3    H2 1883   1.584   1.234   1.742
  648TIP3   OH2 1884   2.188   0.169   1.611
  648TIP3    H1 1885   2.193   0.089   1.663
  648TIP3    H2 1886   2.259   0.159   1.547
  649TIP3   OH2 1887   6.470   0.493   4.948
  649TIP3    H1 1888   6.552   0.468   4.991
  649TIP3    H2 1889   6.496   0.564   4.889
  650TIP3   OH2 1890   3.460   0.743   4.478
  650TIP3    H1 1891   3.528   0.787   4.530
  650TIP3    H2 1892   3.461   0.653   4.510
  651TIP3   OH2 1893   2.699   1.057   2.501
  651TIP3    H1 1894   2.748   0.989   2.547
  651TIP3    H2 1895   2.607   1.040   2.523
  652TIP3   OH2 1896   1.178   2.383   6.381
  652TIP3    H1 1897   1.195   2.355   6.291
  652TIP3    H2 1898   1.134   2.467   6.372
  653TIP3   OH2 1899   0.593   0.568   2.920
  653TIP3    H1 1900   0.498   0.566   2.933
  653TIP3    H2 1901   0.629   0.586   3.007
  654TIP3   OH2 1902   5.902   7.765   6.709
  654TIP3    H1 1903   5.930   7.673   6.714
  654TIP3    H2 1904   5.933   7.803   6.792
  655TIP3   OH2 1905   2.142   1.431   3.986
  655TIP3    H1 1906   2.152   1.518   4.024
  655TIP3    H2 1907   2.079   1.443   3.915
  656TIP3   OH2 1908   1.820   0.033   0.864
  656TIP3    H1 1909   1.773  -0.040   0.824
  656TIP3    H2 1910   1.848   0.001   0.949
  657TIP3   OH2 1911   3.848   5.864   6.692
  657TIP3    H1 1912   3.835   5.914   6.773
  657TIP3    H2 1913   3.827   5.774   6.716
  658TIP3   OH2 1914   8.374   4.254   1.284
  658TIP3    H1 1915   8.420   4.253   1.367
  658TIP3    H2 1916   8.403   4.175   1.238
  659TIP3   OH2 1917   3.330   3.455   0.918
  659TIP3    H1 1918   3.328   3.455   1.014
  659TIP3    H2 1919   3.368   3.540   0.895
  660TIP3   OH2 1920   8.254   7.862   0.677
  660TIP3    H1 1921   8.279   7.856   0.769
  660TIP3    H2 1922   8.161   7.840   0.676
  661TIP3   OH2 1923   2.200   1.553   5.611
  661TIP3    H1 1924   2.294   1.554   5.632
  661TIP3    H2 1925   2.188   1.471   5.562
  662TIP3   OH2 1926   0.211   6.896   4.719
  662TIP3    H1 1927   0.212   6.870   4.627
  662TIP3    H2 1928   0.237   6.988   4.718
  663TIP3   OH2 1929   6.800   0.765   5.030
  663TIP3    H1 1930   6.881   0.715   5.022
  663TIP3    H2 1931   6.823   0.839   5.086
  664TIP3   OH2 1932   0.552   0.999   5.552
  664TIP3    H1 1933   0.539   1.034   5.640
  664TIP3    H2 1934   0.618   0.931   5.564
  665TIP3   OH2 1935   3.375   4.998   1.009
  665TIP3    H1 1936   3.459   4.957   0.988
  665TIP3    H2 1937   3.387   5.090   0.985
  666TIP3   OH2 1938   5.436   3.446   5.253
  666TIP3    H1 1939   5.495   3.502   5.203
  666TIP3    H2 1940   5.349   3.464   5.218
  667TIP3   OH2 1941   6.793   4.065   2.898
  667TIP3    H1 1942   6.832   4.094   2.981
  667TIP3    H2 1943   6.837   3.982   2.879
  668TIP3   OH2 1944   3.236   1.611   5.420
  668TIP3    H1 1945   3.184   1.666   5.479
  668TIP3    H2 1946   3.322   1.653   5.419
  669TIP3   OH2 1947   3.038   1.566   1.843
  669TIP3    H1 1948   2.976   1.590   1.912
  669TIP3    H2 1949   3.113   1.530   1.890
  670TIP3   OH2 1950   7.986   5.076   3.439
  670TIP3    H1 1951   7.915   5.054   3.378
  670TIP3    H2 1952   7.943   5.088   3.523
  671TIP3   OH2 1953   1.263   4.660   2.479
  671TIP3    H1 1954   1.176   4.634   2.509
  671TIP3    H2 1955   1.309   4.577   2.463
  672TIP3   OH2 1956   2.602   2.540   2.722
  672TIP3    H1 1957   2.687   2.561   2.683
  672TIP3    H2 1958   2.582   2.615   2.777
  673TIP3   OH2 1959   7.386   7.344   1.106
  673TIP3    H1 1960   7.467   7.394   1.101
  673TIP3    H2 1961   7.352   7.361   1.194
  674TIP3   OH2 1962   4.110   0.146   2.879
  674TIP3    H1 1963   4.202   0.156   2.903
  674TIP3    H2 1964   4.094   0.052   2.883
  675TIP3   OH2 1965   6.354   2.409   3.034
  675TIP3    H1 1966   6.318   2.345   3.095
  675TIP3    H2 1967   6.423   2.454   3.083
  676TIP3   OH2 1968   4.769   6.028   2.582
  676TIP3    H1 1969   4.796   6.094   2.645
  676TIP3    H2 1970   4.848   6.011   2.530
  677TIP3   OH2 1971   4.765   6.907   4.268
  677TIP3    H1 1972   4.831   6.974   4.288
  677TIP3    H2 1973   4.740   6.873   4.354
  678TIP3   OH2 1974   0.828   3.306   2.360
  678TIP3    H1 1975   0.805   3.386   2.313
  678TIP3    H2 1976   0.854   3.245   2.291
  679TIP3   OH2 1977   0.393   5.245   3.134
  679TIP3    H1 1978   0.299   5.263   3.134
  679TIP3    H2 1979   0.414   5.222   3.043
  680TIP3   OH2 1980   1.540   3.343   6.295
  680TIP3    H1 1981   1.478   3.350   6.367
  680TIP3    H2 1982   1.494   3.380   6.219
  681TIP3   OH2 1983   1.818   3.843   4.216
  681TIP3    H1 1984   1.860   3.882   4.140
  681TIP3    H2 1985   1.789   3.756   4.186
  682TIP3   OH2 1986   2.121   0.209   4.497
  682TIP3    H1 1987   2.174   0.262   4.556
  682TIP3    H2 1988   2.100   0.267   4.424
  683TIP3   OH2 1989   0.220   4.277   0.393
  683TIP3    H1 1990   0.199   4.197   0.345
  683TIP3    H2 1991   0.242   4.247   0.481
  684TIP3   OH2 1992   4.713   5.574   4.626
  684TIP3    H1 1993   4.690   5.532   4.710
  684TIP3    H2 1994   4.671   5.660   4.630
  685TIP3   OH2 1995   0.898   0.838   3.640
  685TIP3    H1 1996   0.857   0.883   3.714
  685TIP3    H2 1997   0.987   0.817   3.671
  686TIP3   OH2 1998   4.515   5.026   4.850
  686TIP3    H1 1999   4.533   5.004   4.759
  686TIP3    H2 2000   4.600   5.049   4.887
  687TIP3   OH2 2001   0.633   1.759   6.516
  687TIP3    H1 2002   0.710   1.790   6.565
  687TIP3    H2 2003   0.670   1.701   6.449
  688TIP3   OH2 2004   7.087   5.753   4.828
  688TIP3    H1 2005   7.124   5.739   4.741
  688TIP3    H2 2006   7.013   5.692   4.833
  689TIP3   OH2 2007   6.626   4.296   6.242
  689TIP3    H1 2008   6.717   4.310   6.267
  689TIP3    H2 2009   6.585   4.382   6.250
  690TIP3   OH2 2010   5.433   4.663   4.382
  690TIP3    H1 2011   5.486   4.584   4.388
  690TIP3    H2 2012   5.346   4.631   4.360
  691TIP3   OH2 2013   7.441   0.880   1.984
  691TIP3    H1 2014   7.409   0.790   1.977
  691TIP3    H2 2015   7.421   0.905   2.074
  692TIP3   OH2 2016   6.832   1.675   5.611
  692TIP3    H1 2017   6.858   1.746   5.670
  692TIP3    H2 2018   6.912   1.623   5.600
  693TIP3   OH2 2019   2.642   0.583   3.870
  693TIP3    H1 2020   2.715   0.643   3.884
  693TIP3    H2 2021   2.566   0.640   3.859
  694TIP3   OH2 2022   1.304   3.519   5.065
  694TIP3    H1 2023   1.280   3.461   4.993
  694TIP3    H2 2024   1.358   3.587   5.023
  695TIP3   OH2 2025   3.534   2.781   6.151
  695TIP3    H1 2026   3.506   2.743   6.234
  695TIP3    H2 2027   3.461   2.838   6.125
  696TIP3   OH2 2028   4.896   4.830   4.200
  696TIP3    H1 2029   4.855   4.794   4.121
  696TIP3    H2 2030   4.837   4.807   4.271
  697TIP3   OH2 2031   0.205   5.914   0.456
  697TIP3    H1 2032   0.156   5.844   0.499
  697TIP3    H2 2033   0.256   5.870   0.388
  698TIP3   OH2 2034   0.387   5.966   0.058
  698TIP3    H1 2035   0.476   5.998   0.044
  698TIP3    H2 2036   0.336   6.007  -0.012
  699TIP3   OH2 2037   4.820   3.844   2.707
  699TIP3    H1 2038   4.756   3.872   2.641
  699TIP3    H2 2039   4.796   3.892   2.786
  700TIP3   OH2 2040   6.873   2.888   1.140
  700TIP3    H1 2041   6.816   2.927   1.207
  700TIP3    H2 2042   6.813   2.862   1.070
  701TIP3   OH2 2043   1.423   5.832   3.781
  701TIP3    H1 2044   1.437   5.805   3.872
  701TIP3    H2 2045   1.443   5.925   3.780
  702TIP3   OH2 2046   2.440   2.442   0.648
  702TIP3    H1 2047   2.511   2.477   0.593
  702TIP3    H2 2048   2.377   2.406   0.586
  703TIP3   OH2 2049   2.647   4.011   6.542
  703TIP3    H1 2050   2.740   4.014   6.517
  703TIP3    H2 2051   2.621   3.920   6.525
  704TIP3   OH2 2052   1.257   3.956   2.960
  704TIP3    H1 2053   1.345   3.980   2.989
  704TIP3    H2 2054   1.210   3.936   3.042
  705TIP3   OH2 2055   1.698   6.785   0.585
  705TIP3    H1 2056   1.679   6.742   0.502
  705TIP3    H2 2057   1.668   6.875   0.573
  706TIP3   OH2 2058   7.498   0.189   1.497
  706TIP3    H1 2059   7.534   0.223   1.415
  706TIP3    H2 2060   7.410   0.227   1.502
  707TIP3   OH2 2061   7.975   6.606   0.226
  707TIP3    H1 2062   7.997   6.675   0.289
  707TIP3    H2 2063   7.879   6.607   0.222
  708TIP3   OH2 2064   3.681   2.557   4.690
  708TIP3    H1 2065   3.687   2.486   4.626
  708TIP3    H2 2066   3.765   2.602   4.684
  709TIP3   OH2 2067   1.173   1.376   1.597
  709TIP3    H1 2068   1.193   1.400   1.688
  709TIP3    H2 2069   1.191   1.282   1.593
  710TIP3   OH2 2070   5.486   1.291   4.556
  710TIP3    H1 2071   5.517   1.311   4.468
  710TIP3    H2 2072   5.539   1.346   4.613
  711TIP3   OH2 2073   4.270   4.748   6.505
  711TIP3    H1 2074   4.328   4.674   6.521
  711TIP3    H2 2075   4.318   4.824   6.537
  712TIP3   OH2 2076   2.333   3.594   5.332
  712TIP3    H1 2077   2.279   3.639   5.397
  712TIP3    H2 2078   2.283   3.515   5.311
  713TIP3   OH2 2079   4.382   6.360   3.355
  713TIP3    H1 2080   4.369   6.424   3.425
  713TIP3    H2 2081   4.317   6.383   3.288
  714TIP3   OH2 2082   3.982   6.802   4.653
  714TIP3    H1 2083   4.038   6.805   4.731
  714TIP3    H2 2084   3.904   6.852   4.678
  715TIP3   OH2 2085   7.334   2.505   0.098
  715TIP3    H1 2086   7.248   2.520   0.138
  715TIP3    H2 2087   7.396   2.537   0.163
  716TIP3   OH2 2088   2.918   7.302   3.864
  716TIP3    H1 2089   2.846   7.251   3.827
  716TIP3    H2 2090   2.995   7.246   3.853
  717TIP3   OH2 2091   0.084   3.021   1.177
  717TIP3    H1 2092   0.117   3.105   1.144
  717TIP3    H2 2093  -0.009   3.021   1.153
  718TIP3   OH2 2094   4.422   0.835   4.456
  718TIP3    H1 2095   4.460   0.825   4.543
  718TIP3    H2 2096   4.328   0.833   4.470
  719TIP3   OH2 2097   0.652   3.686   0.201
  719TIP3    H1 2098   0.696   3.605   0.226
  719TIP3    H2 2099   0.705   3.755   0.242
  720TIP3   OH2 2100   3.008   0.733   4.573
  720TIP3    H1 2101   2.979   0.751   4.662
  720TIP3    H2 2102   3.079   0.796   4.558
  721TIP3   OH2 2103   7.208   2.061   1.005
  721TIP3    H1 2104   7.128   2.110   1.023
  721TIP3    H2 2105   7.253   2.112   0.938
  722TIP3   OH2 2106   2.689   0.425   0.854
  722TIP3    H1 2107   2.694   0.517   0.880
  722TIP3    H2 2108   2.638   0.426   0.772
  723TIP3   OH2 2109   4.900   2.480   4.875
  723TIP3    H1 2110   4.921   2.431   4.954
  723TIP3    H2 2111   4.937   2.427   4.804
  724TIP3   OH2 2112   2.950   5.420   1.399
  724TIP3    H1 2113   2.934   5.480   1.326
  724TIP3    H2 2114   3.041   5.435   1.424
  725TIP3   OH2 2115   3.470   3.281   3.510
  725TIP3    H1 2116   3.466   3.265   3.415
  725TIP3    H2 2117   3.525   3.359   3.519
  726TIP3   OH2 2118   7.639   3.204   0.602
  726TIP3    H1 2119   7.614   3.288   0.564
  726TIP3    H2 2120   7.663   3.150   0.526
  727TIP3   OH2 2121   0.182   1.590   3.347
  727TIP3    H1 2122   0.108   1.618   3.402
  727TIP3    H2 2123   0.189   1.659   3.281
  728TIP3   OH2 2124   7.189   5.878   3.874
  728TIP3    H1 2125   7.233   5.932   3.808
  728TIP3    H2 2126   7.135   5.818   3.823
  729TIP3   OH2 2127   7.191   7.200   3.310
  729TIP3    H1 2128   7.263   7.222   3.369
  729TIP3    H2 2129   7.232   7.151   3.239
  730TIP3   OH2 2130   0.051   6.033   2.196
  730TIP3    H1 2131   0.076   6.079   2.276
  730TIP3    H2 2132   0.019   6.103   2.138
  731TIP3   OH2 2133   4.186   6.580   2.468
  731TIP3    H1 2134   4.091   6.582   2.478
  731TIP3    H2 2135   4.203   6.507   2.408
  732TIP3   OH2 2136   7.410   7.179   5.139
  732TIP3    H1 2137   7.379   7.181   5.049
  732TIP3    H2 2138   7.489   7.125   5.136
  733TIP3   OH2 2139   7.475   6.763   2.744
  733TIP3    H1 2140   7.512   6.783   2.658
  733TIP3    H2 2141   7.435   6.846   2.772
  734TIP3   OH2 2142   6.980   6.388   1.345
  734TIP3    H1 2143   7.004   6.370   1.254
  734TIP3    H2 2144   6.912   6.455   1.339
  735TIP3   OH2 2145   2.050   1.011   4.183
  735TIP3    H1 2146   2.083   1.078   4.123
  735TIP3    H2 2147   1.957   1.030   4.192
  736TIP3   OH2 2148   7.914   3.150   4.178
  736TIP3    H1 2149   8.010   3.156   4.168
  736TIP3    H2 2150   7.881   3.158   4.088
  737TIP3   OH2 2151   4.547   3.029   0.200
  737TIP3    H1 2152   4.492   3.035   0.122
  737TIP3    H2 2153   4.533   3.113   0.245
  738TIP3   OH2 2154   5.933   0.389   6.782
  738TIP3    H1 2155   6.007   0.431   6.825
  738TIP3    H2 2156   5.909   0.316   6.839
  739TIP3   OH2 2157   4.079   5.742   6.312
  739TIP3    H1 2158   4.071   5.813   6.376
  739TIP3    H2 2159   4.094   5.663   6.366
  740TIP3   OH2 2160   8.285   4.066   3.443
  740TIP3    H1 2161   8.229   4.104   3.511
  740TIP3    H2 2162   8.315   3.983   3.481
  741TIP3   OH2 2163   4.548   0.395   2.204
  741TIP3    H1 2164   4.535   0.487   2.182
  741TIP3    H2 2165   4.459   0.361   2.215
  742TIP3   OH2 2166   6.381   6.973   1.762
  742TIP3    H1 2167   6.472   7.004   1.767
  742TIP3    H2 2168   6.387   6.893   1.709
  743TIP3   OH2 2169   7.990   2.388   4.875
  743TIP3    H1 2170   7.993   2.293   4.883
  743TIP3    H2 2171   7.937   2.417   4.950
  744TIP3   OH2 2172   2.741   4.565   6.103
  744TIP3    H1 2173   2.786   4.578   6.186
  744TIP3    H2 2174   2.743   4.470   6.090
  745TIP3   OH2 2175   1.547   3.846   3.306
  745TIP3    H1 2176   1.515   3.797   3.230
  745TIP3    H2 2177   1.478   3.838   3.371
  746TIP3   OH2 2178   2.127   3.733   5.496
  746TIP3    H1 2179   2.070   3.665   5.532
  746TIP3    H2 2180   2.121   3.805   5.559
  747TIP3   OH2 2181   4.957   5.756   6.179
  747TIP3    H1 2182   4.908   5.833   6.150
  747TIP3    H2 2183   4.982   5.777   6.269
  748TIP3   OH2 2184   5.662   3.396   5.456
  748TIP3    H1 2185   5.621   3.428   5.376
  748TIP3    H2 2186   5.654   3.301   5.451
  749TIP3   OH2 2187   3.692   4.419   5.516
  749TIP3    H1 2188   3.641   4.349   5.474
  749TIP3    H2 2189   3.783   4.392   5.505
  750TIP3   OH2 2190   1.737   1.050   2.567
  750TIP3    H1 2191   1.763   0.994   2.640
  750TIP3    H2 2192   1.659   1.096   2.597
  751TIP3   OH2 2193   0.054   0.902   6.268
  751TIP3    H1 2194   0.040   0.955   6.189
  751TIP3    H2 2195   0.063   0.813   6.235
  752TIP3   OH2 2196   3.089   1.196   0.929
  752TIP3    H1 2197   3.127   1.131   0.869
  752TIP3    H2 2198   3.117   1.167   1.016
  753TIP3   OH2 2199   0.152   4.173   5.687
  753TIP3    H1 2200   0.191   4.191   5.602
  753TIP3    H2 2201   0.201   4.098   5.721
  754TIP3   OH2 2202   0.128   1.741   0.301
  754TIP3    H1 2203   0.146   1.713   0.212
  754TIP3    H2 2204   0.057   1.805   0.293
  755TIP3   OH2 2205   7.695   3.830   5.874
  755TIP3    H1 2206   7.624   3.892   5.857
  755TIP3    H2 2207   7.763   3.883   5.917
  756TIP3   OH2 2208   0.174   4.861   4.036
  756TIP3    H1 2209   0.220   4.901   4.110
  756TIP3    H2 2210   0.236   4.798   4.000
  757TIP3   OH2 2211   5.064   5.005   6.736
  757TIP3    H1 2212   5.106   5.044   6.813
  757TIP3    H2 2213   4.981   4.970   6.769
  758TIP3   OH2 2214   6.340   5.105   1.306
  758TIP3    H1 2215   6.332   5.077   1.215
  758TIP3    H2 2216   6.413   5.168   1.306
  759TIP3   OH2 2217   3.108   7.124   3.835
  759TIP3    H1 2218   3.146   7.133   3.922
  759TIP3    H2 2219   3.061   7.040   3.838
  760TIP3   OH2 2220   1.849   3.734   2.643
  760TIP3    H1 2221   1.765   3.700   2.612
  760TIP3    H2 2222   1.832   3.760   2.734
  761TIP3   OH2 2223   5.061   0.598   0.517
  761TIP3    H1 2224   5.149   0.588   0.480
  761TIP3    H2 2225   5.023   0.670   0.468
  762TIP3   OH2 2226   8.190   0.061   3.487
  762TIP3    H1 2227   8.152  -0.024   3.468
  762TIP3    H2 2228   8.237   0.085   3.407
  763TIP3   OH2 2229   7.522   5.903   4.083
  763TIP3    H1 2230   7.445   5.931   4.131
  763TIP3    H2 2231   7.488   5.843   4.017
  764TIP3   OH2 2232   3.308   7.335   0.768
  764TIP3    H1 2233   3.296   7.364   0.678
  764TIP3    H2 2234   3.243   7.265   0.780
  765TIP3   OH2 2235   4.264   2.128   0.915
  765TIP3    H1 2236   4.193   2.192   0.918
  765TIP3    H2 2237   4.333   2.172   0.865
  766TIP3   OH2 2238   7.161   3.173   1.750
  766TIP3    H1 2239   7.099   3.245   1.734
  766TIP3    H2 2240   7.160   3.122   1.670
  767TIP3   OH2 2241   0.161   7.858   6.213
  767TIP3    H1 2242   0.132   7.785   6.159
  767TIP3    H2 2243   0.256   7.845   6.220
  768TIP3   OH2 2244   0.573   6.933   1.340
  768TIP3    H1 2245   0.505   6.874   1.372
  768TIP3    H2 2246   0.628   6.950   1.417
  769TIP3   OH2 2247   6.851   5.691   5.416
  769TIP3    H1 2248   6.852   5.619   5.353
  769TIP3    H2 2249   6.876   5.768   5.364
  770TIP3   OH2 2250   2.597   3.592   2.021
  770TIP3    H1 2251   2.528   3.528   2.002
  770TIP3    H2 2252   2.673   3.538   2.043
  771TIP3   OH2 2253   4.720   2.467   1.259
  771TIP3    H1 2254   4.760   2.383   1.234
  771TIP3    H2 2255   4.772   2.533   1.212
  772TIP3   OH2 2256   0.443   0.342   5.726
  772TIP3    H1 2257   0.394   0.281   5.671
  772TIP3    H2 2258   0.400   0.337   5.811
  773TIP3   OH2 2259   0.319   3.813   4.212
  773TIP3    H1 2260   0.322   3.745   4.280
  773TIP3    H2 2261   0.397   3.798   4.159
  774TIP3   OH2 2262   0.183   2.316   2.528
  774TIP3    H1 2263   0.135   2.323   2.445
  774TIP3    H2 2264   0.272   2.342   2.505
  775TIP3   OH2 2265   3.858   2.922   3.993
  775TIP3    H1 2266   3.855   2.833   4.028
  775TIP3    H2 2267   3.825   2.914   3.904
  776TIP3   OH2 2268   0.503   4.819   5.366
  776TIP3    H1 2269   0.448   4.808   5.288
  776TIP3    H2 2270   0.592   4.802   5.336
  777TIP3   OH2 2271   4.289   2.274   2.969
  777TIP3    H1 2272   4.243   2.272   3.053
  777TIP3    H2 2273   4.369   2.224   2.984
  778TIP3   OH2 2274   1.640   5.696   4.252
  778TIP3    H1 2275   1.702   5.746   4.306
  778TIP3    H2 2276   1.678   5.608   4.249
  779TIP3   OH2 2277   8.135   3.815   0.984
  779TIP3    H1 2278   8.185   3.893   1.009
  779TIP3    H2 2279   8.048   3.850   0.961
  780TIP3   OH2 2280   3.615   1.895   0.337
  780TIP3    H1 2281   3.692   1.853   0.299
  780TIP3    H2 2282   3.575   1.827   0.392
  781TIP3   OH2 2283   4.547   2.293   3.324
  781TIP3    H1 2284   4.460   2.330   3.336
  781TIP3    H2 2285   4.541   2.205   3.361
  782TIP3   OH2 2286   4.036   1.235   4.247
  782TIP3    H1 2287   4.095   1.285   4.191
  782TIP3    H2 2288   4.094   1.190   4.308
  783TIP3   OH2 2289   8.255   4.099   0.985
  783TIP3    H1 2290   8.191   4.144   1.040
  783TIP3    H2 2291   8.238   4.131   0.896
  784TIP3   OH2 2292   5.071   2.460   0.153
  784TIP3    H1 2293   5.079   2.545   0.110
  784TIP3    H2 2294   4.982   2.431   0.134
  785TIP3   OH2 2295   0.954   5.244   2.465
  785TIP3    H1 2296   0.945   5.209   2.376
  785TIP3    H2 2297   1.047   5.232   2.485
  786TIP3   OH2 2298   6.682   5.354   4.827
  786TIP3    H1 2299   6.603   5.381   4.780
  786TIP3    H2 2300   6.650   5.294   4.895
  787TIP3   OH2 2301   1.838   2.228   4.446
  787TIP3    H1 2302   1.903   2.160   4.425
  787TIP3    H2 2303   1.754   2.190   4.420
  788TIP3   OH2 2304   6.440   0.075   1.491
  788TIP3    H1 2305   6.463   0.136   1.561
  788TIP3    H2 2306   6.463   0.122   1.410
  789TIP3   OH2 2307   6.959   4.960   2.994
  789TIP3    H1 2308   6.914   4.913   2.924
  789TIP3    H2 2309   6.935   5.052   2.980
  790TIP3   OH2 2310   3.832   7.748   1.171
  790TIP3    H1 2311   3.850   7.757   1.264
  790TIP3    H2 2312   3.864   7.829   1.132
  791TIP3   OH2 2313   2.336   4.554   1.800
  791TIP3    H1 2314   2.255   4.603   1.811
  791TIP3    H2 2315   2.329   4.514   1.713
  792TIP3   OH2 2316   6.401   3.325   5.514
  792TIP3    H1 2317   6.359   3.348   5.431
  792TIP3    H2 2318   6.473   3.388   5.523
  793TIP3   OH2 2319   2.755   3.492   3.851
  793TIP3    H1 2320   2.834   3.546   3.847
  793TIP3    H2 2321   2.699   3.537   3.914
  794TIP3   OH2 2322   1.257   6.639   1.930
  794TIP3    H1 2323   1.161   6.642   1.929
  794TIP3    H2 2324   1.282   6.650   1.838
  795TIP3   OH2 2325   2.507   3.647   1.603
  795TIP3    H1 2326   2.426   3.618   1.562
  795TIP3    H2 2327   2.547   3.567   1.636
  796TIP3   OH2 2328   2.906   3.134   5.203
  796TIP3    H1 2329   2.964   3.153   5.130
  796TIP3    H2 2330   2.909   3.213   5.257
  797TIP3   OH2 2331   3.809   6.858   5.551
  797TIP3    H1 2332   3.854   6.776   5.533
  797TIP3    H2 2333   3.739   6.835   5.612
  798TIP3   OH2 2334   5.820   3.233   0.709
  798TIP3    H1 2335   5.821   3.170   0.636
  798TIP3    H2 2336   5.884   3.197   0.771
  799TIP3   OH2 2337   7.734   6.235   1.635
  799TIP3    H1 2338   7.662   6.212   1.694
  799TIP3    H2 2339   7.766   6.151   1.602
  800TIP3   OH2 2340   6.295   0.807   0.895
  800TIP3    H1 2341   6.333   0.886   0.858
  800TIP3    H2 2342   6.260   0.834   0.980
  801TIP3   OH2 2343   7.015   3.542   4.286
  801TIP3    H1 2344   6.988   3.612   4.226
  801TIP3    H2 2345   6.940   3.484   4.291
  802TIP3   OH2 2346   0.400   1.404   4.864
  802TIP3    H1 2347   0.453   1.380   4.789
  802TIP3    H2 2348   0.434   1.489   4.892
  803TIP3   OH2 2349   1.791   3.447   6.347
  803TIP3    H1 2350   1.704   3.412   6.326
  803TIP3    H2 2351   1.818   3.398   6.424
  804TIP3   OH2 2352   2.865   4.197   0.867
  804TIP3    H1 2353   2.949   4.202   0.821
  804TIP3    H2 2354   2.844   4.103   0.868
  805TIP3   OH2 2355   4.137   0.148   1.187
  805TIP3    H1 2356   4.044   0.168   1.184
  805TIP3    H2 2357   4.146   0.090   1.263
  806TIP3   OH2 2358   8.186   5.381   6.473
  806TIP3    H1 2359   8.274   5.377   6.512
  806TIP3    H2 2360   8.129   5.344   6.541
  807TIP3   OH2 2361   2.657   0.735   0.755
  807TIP3    H1 2362   2.690   0.659   0.707
  807TIP3    H2 2363   2.724   0.803   0.741
  808TIP3   OH2 2364   4.994   1.205   5.747
  808TIP3    H1 2365   4.995   1.229   5.839
  808TIP3    H2 2366   4.908   1.165   5.733
  809TIP3   OH2 2367   0.674   7.428   2.110
  809TIP3    H1 2368   0.658   7.385   2.026
  809TIP3    H2 2369   0.746   7.489   2.092
  810TIP3   OH2 2370   8.388   1.552   1.419
  810TIP3    H1 2371   8.446   1.482   1.389
  810TIP3    H2 2372   8.322   1.507   1.471
  811TIP3   OH2 2373   7.330   1.957   3.499
  811TIP3    H1 2374   7.408   1.966   3.445
  811TIP3    H2 2375   7.269   2.022   3.464
  812TIP3   OH2 2376   1.667   0.134   2.515
  812TIP3    H1 2377   1.742   0.175   2.559
  812TIP3    H2 2378   1.622   0.085   2.585
  813TIP3   OH2 2379   0.547   6.581   1.135
  813TIP3    H1 2380   0.594   6.501   1.160
  813TIP3    H2 2381   0.551   6.636   1.213
  814TIP3   OH2 2382   2.173   2.488   1.304
  814TIP3    H1 2383   2.204   2.526   1.221
  814TIP3    H2 2384   2.080   2.509   1.306
  815TIP3   OH2 2385   8.168   7.286   5.190
  815TIP3    H1 2386   8.196   7.255   5.104
  815TIP3    H2 2387   8.241   7.340   5.221
  816TIP3   OH2 2388   3.504   6.231   1.933
  816TIP3    H1 2389   3.415   6.225   1.898
  816TIP3    H2 2390   3.539   6.143   1.923
  817TIP3   OH2 2391   7.832   5.450   6.592
  817TIP3    H1 2392   7.810   5.539   6.618
  817TIP3    H2 2393   7.829   5.452   6.496
  818TIP3   OH2 2394   1.273   5.451   2.528
  818TIP3    H1 2395   1.358   5.407   2.532
  818TIP3    H2 2396   1.220   5.405   2.593
  819TIP3   OH2 2397   3.373   7.730   5.677
  819TIP3    H1 2398   3.409   7.817   5.661
  819TIP3    H2 2399   3.449   7.672   5.684
  820TIP3   OH2 2400   1.425   6.889   3.163
  820TIP3    H1 2401   1.340   6.923   3.189
  820TIP3    H2 2402   1.446   6.935   3.081
  821TIP3   OH2 2403   1.222   7.034   2.374
  821TIP3    H1 2404   1.135   7.010   2.343
  821TIP3    H2 2405   1.257   7.091   2.306
  822TIP3   OH2 2406   4.725   5.717   3.785
  822TIP3    H1 2407   4.774   5.797   3.766
  822TIP3    H2 2408   4.668   5.705   3.709
  823TIP3   OH2 2409   5.203   1.935   6.384
  823TIP3    H1 2410   5.172   1.958   6.471
  823TIP3    H2 2411   5.154   1.857   6.360
  824TIP3   OH2 2412   1.152   0.016   5.461
  824TIP3    H1 2413   1.062  -0.014   5.450
  824TIP3    H2 2414   1.171   0.064   5.380
  825TIP3   OH2 2415   4.873   3.964   3.480
  825TIP3    H1 2416   4.958   4.005   3.464
  825TIP3    H2 2417   4.880   3.878   3.439
  826TIP3   OH2 2418   0.986   7.470   1.006
  826TIP3    H1 2419   0.905   7.511   0.978
  826TIP3    H2 2420   0.995   7.494   1.099
  827TIP3   OH2 2421   1.286   1.494   3.734
  827TIP3    H1 2422   1.378   1.474   3.754
  827TIP3    H2 2423   1.285   1.589   3.721
  828TIP3   OH2 2424   0.684   1.744   1.032
  828TIP3    H1 2425   0.733   1.663   1.026
  828TIP3    H2 2426   0.653   1.746   1.123
  829TIP3   OH2 2427   2.007   4.592   1.037
  829TIP3    H1 2428   1.920   4.552   1.042
  829TIP3    H2 2429   2.065   4.528   1.078
  830TIP3   OH2 2430   0.086   6.506   1.317
  830TIP3    H1 2431   0.090   6.567   1.243
  830TIP3    H2 2432   0.039   6.553   1.386
  831TIP3   OH2 2433   0.623   1.344   1.109
  831TIP3    H1 2434   0.594   1.358   1.199
  831TIP3    H2 2435   0.699   1.401   1.099
  832TIP3   OH2 2436   2.966   5.744   3.200
  832TIP3    H1 2437   2.952   5.727   3.293
  832TIP3    H2 2438   3.052   5.707   3.182
  833TIP3   OH2 2439   7.290   7.078   6.565
  833TIP3    H1 2440   7.343   6.999   6.559
  833TIP3    H2 2441   7.243   7.069   6.648
  834TIP3   OH2 2442   0.208   1.118   6.794
  834TIP3    H1 2443   0.220   1.212   6.806
  834TIP3    H2 2444   0.113   1.105   6.799
  835TIP3   OH2 2445   7.208   0.409   6.233
  835TIP3    H1 2446   7.248   0.387   6.149
  835TIP3    H2 2447   7.217   0.330   6.286
  836TIP3   OH2 2448   7.280   4.533   0.394
  836TIP3    H1 2449   7.247   4.593   0.461
  836TIP3    H2 2450   7.352   4.581   0.353
  837TIP3   OH2 2451   2.419   7.457   6.467
  837TIP3    H1 2452   2.510   7.430   6.477
  837TIP3    H2 2453   2.421   7.528   6.402
  838TIP3   OH2 2454   6.308   6.600   0.297
  838TIP3    H1 2455   6.272   6.516   0.268
  838TIP3    H2 2456   6.283   6.606   0.389
  839TIP3   OH2 2457   4.449   5.195   4.627
  839TIP3    H1 2458   4.424   5.173   4.717
  839TIP3    H2 2459   4.544   5.205   4.629
  840TIP3   OH2 2460   4.482   7.261   2.152
  840TIP3    H1 2461   4.534   7.336   2.180
  840TIP3    H2 2462   4.503   7.192   2.215
  841TIP3   OH2 2463   4.242   2.999   0.713
  841TIP3    H1 2464   4.190   3.064   0.759
  841TIP3    H2 2465   4.333   3.026   0.727
  842TIP3   OH2 2466   5.774   2.892   5.204
  842TIP3    H1 2467   5.866   2.900   5.231
  842TIP3    H2 2468   5.766   2.802   5.173
  843TIP3   OH2 2469   1.291   5.849   0.541
  843TIP3    H1 2470   1.231   5.793   0.492
  843TIP3    H2 2471   1.283   5.818   0.632
  844TIP3   OH2 2472   6.561   0.621   3.531
  844TIP3    H1 2473   6.636   0.662   3.574
  844TIP3    H2 2474   6.489   0.630   3.594
  845TIP3   OH2 2475   2.357   1.301   4.762
  845TIP3    H1 2476   2.367   1.324   4.854
  845TIP3    H2 2477   2.423   1.232   4.748
  846TIP3   OH2 2478   0.431   5.693   4.849
  846TIP3    H1 2479   0.452   5.636   4.923
  846TIP3    H2 2480   0.510   5.693   4.795
  847TIP3   OH2 2481   0.302   7.659   0.948
  847TIP3    H1 2482   0.225   7.683   1.000
  847TIP3    H2 2483   0.310   7.564   0.958
  848TIP3   OH2 2484   3.664   3.466   6.789
  848TIP3    H1 2485   3.709   3.546   6.764
  848TIP3    H2 2486   3.604   3.492   6.859
  849TIP3   OH2 2487   4.660   1.087   1.415
  849TIP3    H1 2488   4.739   1.044   1.380
  849TIP3    H2 2489   4.673   1.180   1.395
  850TIP3   OH2 2490   8.187   5.377   5.598
  850TIP3    H1 2491   8.189   5.408   5.689
  850TIP3    H2 2492   8.208   5.284   5.604
  851TIP3   OH2 2493   0.137   1.383   3.688
  851TIP3    H1 2494   0.063   1.324   3.677
  851TIP3    H2 2495   0.099   1.463   3.726
  852TIP3   OH2 2496   6.672   6.985   2.407
  852TIP3    H1 2497   6.578   6.984   2.421
  852TIP3    H2 2498   6.682   6.990   2.312
  853TIP3   OH2 2499   5.797   6.154   3.050
  853TIP3    H1 2500   5.704   6.136   3.060
  853TIP3    H2 2501   5.829   6.162   3.140
  854TIP3   OH2 2502   7.855   2.824   2.230
  854TIP3    H1 2503   7.898   2.779   2.304
  854TIP3    H2 2504   7.767   2.842   2.262
  855TIP3   OH2 2505   7.885   0.453   6.403
  855TIP3    H1 2506   7.960   0.401   6.431
  855TIP3    H2 2507   7.839   0.397   6.340
  856TIP3   OH2 2508   6.828   6.471   5.056
  856TIP3    H1 2509   6.910   6.432   5.027
  856TIP3    H2 2510   6.823   6.448   5.149
  857TIP3   OH2 2511   4.589   7.375   6.322
  857TIP3    H1 2512   4.522   7.440   6.341
  857TIP3    H2 2513   4.552   7.321   6.252
  858TIP3   OH2 2514   2.194   4.576   2.463
  858TIP3    H1 2515   2.187   4.506   2.527
  858TIP3    H2 2516   2.222   4.653   2.513
  859TIP3   OH2 2517   3.880   0.938   0.650
  859TIP3    H1 2518   3.805   0.894   0.609
  859TIP3    H2 2519   3.845   1.021   0.681
  860TIP3   OH2 2520   0.741   7.139   4.862
  860TIP3    H1 2521   0.653   7.119   4.830
  860TIP3    H2 2522   0.782   7.054   4.875
  861TIP3   OH2 2523   8.079   4.181   1.162
  861TIP3    H1 2524   8.002   4.126   1.148
  861TIP3    H2 2525   8.130   4.136   1.229
  862TIP3   OH2 2526   6.974   2.542   4.015
  862TIP3    H1 2527   7.067   2.519   4.016
  862TIP3    H2 2528   6.939   2.496   3.939
  863TIP3   OH2 2529   1.766   7.884   1.592
  863TIP3    H1 2530   1.780   7.890   1.687
  863TIP3    H2 2531   1.776   7.974   1.561
  864TIP3   OH2 2532   2.126   3.184   3.826
  864TIP3    H1 2533   2.084   3.162   3.909
  864TIP3    H2 2534   2.171   3.104   3.799
  865TIP3   OH2 2535   3.531   0.093   6.438
  865TIP3    H1 2536   3.555   0.043   6.516
  865TIP3    H2 2537   3.584   0.173   6.444
  866TIP3   OH2 2538   3.500   2.437   4.085
  866TIP3    H1 2539   3.535   2.372   4.146
  866TIP3    H2 2540   3.573   2.497   4.070
  867TIP3   OH2 2541   8.142   4.720   0.136
  867TIP3    H1 2542   8.137   4.660   0.062
  867TIP3    H2 2543   8.100   4.800   0.104
  868TIP3   OH2 2544   5.571   5.520   1.590
  868TIP3    H1 2545   5.483   5.483   1.593
  868TIP3    H2 2546   5.557   5.614   1.577
  869TIP3   OH2 2547   4.388   2.189   6.594
  869TIP3    H1 2548   4.442   2.171   6.671
  869TIP3    H2 2549   4.300   2.160   6.620
  870TIP3   OH2 2550   0.563   5.198   5.547
  870TIP3    H1 2551   0.508   5.261   5.594
  870TIP3    H2 2552   0.525   5.193   5.459
  871TIP3   OH2 2553   1.028   0.734   5.586
  871TIP3    H1 2554   1.003   0.643   5.571
  871TIP3    H2 2555   1.086   0.757   5.514
  872TIP3   OH2 2556   2.767   3.374   4.199
  872TIP3    H1 2557   2.753   3.280   4.195
  872TIP3    H2 2558   2.839   3.390   4.137
  873TIP3   OH2 2559   5.653   4.656   1.502
  873TIP3    H1 2560   5.723   4.666   1.438
  873TIP3    H2 2561   5.630   4.563   1.497
  874TIP3   OH2 2562   0.836   1.925   1.336
  874TIP3    H1 2563   0.921   1.909   1.296
  874TIP3    H2 2564   0.801   1.837   1.353
  875TIP3   OH2 2565   2.634   5.311   3.565
  875TIP3    H1 2566   2.548   5.344   3.542
  875TIP3    H2 2567   2.668   5.374   3.628
  876TIP3   OH2 2568   4.318   2.781   4.644
  876TIP3    H1 2569   4.367   2.809   4.722
  876TIP3    H2 2570   4.227   2.800   4.666
  877TIP3   OH2 2571   5.072   3.524   3.057
  877TIP3    H1 2572   5.054   3.600   3.113
  877TIP3    H2 2573   5.127   3.467   3.112
  878TIP3   OH2 2574   7.875   7.238   1.597
  878TIP3    H1 2575   7.828   7.242   1.514
  878TIP3    H2 2576   7.884   7.329   1.624
  879TIP3   OH2 2577   2.473   4.547   4.295
  879TIP3    H1 2578   2.467   4.589   4.381
  879TIP3    H2 2579   2.550   4.587   4.255
  880TIP3   OH2 2580   3.982   3.280   1.235
  880TIP3    H1 2581   3.916   3.214   1.213
  880TIP3    H2 2582   4.048   3.271   1.166
  881TIP3   OH2 2583   7.466   7.257   2.365
  881TIP3    H1 2584   7.517   7.331   2.333
  881TIP3    H2 2585   7.454   7.275   2.459
  882TIP3   OH2 2586   5.156   2.272   2.973
  882TIP3    H1 2587   5.217   2.221   3.026
  882TIP3    H2 2588   5.199   2.357   2.962
  883TIP3   OH2 2589   0.885   1.918   2.320
  883TIP3    H1 2590   0.903   1.858   2.393
  883TIP3    H2 2591   0.963   1.911   2.264
  884TIP3   OH2 2592   5.743   2.368   1.686
  884TIP3    H1 2593   5.750   2.337   1.776
  884TIP3    H2 2594   5.653   2.348   1.660
  885TIP3   OH2 2595   8.222   6.165   5.460
  885TIP3    H1 2596   8.177   6.107   5.398
  885TIP3    H2 2597   8.294   6.203   5.409
  886TIP3   OH2 2598   6.650   1.752   3.864
  886TIP3    H1 2599   6.574   1.697   3.845
  886TIP3    H2 2600   6.620   1.841   3.845
  887TIP3   OH2 2601   5.463   1.816   4.116
  887TIP3    H1 2602   5.521   1.748   4.082
  887TIP3    H2 2603   5.426   1.857   4.037
  888TIP3   OH2 2604   0.963   3.364   3.409
  888TIP3    H1 2605   1.054   3.380   3.432
  888TIP3    H2 2606   0.943   3.278   3.447
  889TIP3   OH2 2607   7.968   7.866   4.141
  889TIP3    H1 2608   7.980   7.911   4.057
  889TIP3    H2 2609   8.032   7.907   4.199
  890TIP3   OH2 2610   5.587   5.728   4.663
  890TIP3    H1 2611   5.655   5.728   4.731
  890TIP3    H2 2612   5.520   5.669   4.696
  891TIP3   OH2 2613   6.693   2.830   4.374
  891TIP3    H1 2614   6.775   2.807   4.331
  891TIP3    H2 2615   6.625   2.784   4.323
  892TIP3   OH2 2616   4.278   5.477   4.835
  892TIP3    H1 2617   4.341   5.522   4.778
  892TIP3    H2 2618   4.232   5.548   4.880
  893TIP3   OH2 2619   2.331   0.084   2.448
  893TIP3    H1 2620   2.388   0.017   2.411
  893TIP3    H2 2621   2.243   0.050   2.435
  894TIP3   OH2 2622   2.515   1.268   2.646
  894TIP3    H1 2623   2.515   1.177   2.618
  894TIP3    H2 2624   2.471   1.315   2.575
  895TIP3   OH2 2625   2.317   3.116   5.494
  895TIP3    H1 2626   2.272   3.160   5.567
  895TIP3    H2 2627   2.287   3.025   5.500
  896TIP3   OH2 2628   0.692   5.051   2.757
  896TIP3    H1 2629   0.726   5.041   2.668
  896TIP3    H2 2630   0.722   4.972   2.802
  897TIP3   OH2 2631   4.931   6.812   3.802
  897TIP3    H1 2632   5.018   6.820   3.841
  897TIP3    H2 2633   4.941   6.848   3.714
  898TIP3   OH2 2634   6.378   7.696   3.638
  898TIP3    H1 2635   6.459   7.723   3.681
  898TIP3    H2 2636   6.398   7.611   3.600
  899TIP3   OH2 2637   2.549   2.752   2.066
  899TIP3    H1 2638   2.574   2.663   2.090
  899TIP3    H2 2639   2.491   2.741   1.990
  900TIP3   OH2 2640   5.551   1.914   5.781
  900TIP3    H1 2641   5.540   2.009   5.775
  900TIP3    H2 2642   5.587   1.888   5.696
  901TIP3   OH2 2643   1.286   6.256   6.128
  901TIP3    H1 2644   1.291   6.228   6.037
  901TIP3    H2 2645   1.265   6.350   6.124
  902TIP3   OH2 2646   7.221   3.229   5.983
  902TIP3    H1 2647   7.172   3.287   6.041
  902TIP3    H2 2648   7.211   3.267   5.896
  903TIP3   OH2 2649   1.781   4.528   4.971
  903TIP3    H1 2650   1.756   4.618   4.991
  903TIP3    H2 2651   1.719   4.474   5.020
  904TIP3   OH2 2652   6.936   6.448   3.298
  904TIP3    H1 2653   6.991   6.371   3.312
  904TIP3    H2 2654   6.869   6.442   3.366
  905TIP3   OH2 2655   0.994   2.676   4.363
  905TIP3    H1 2656   1.059   2.698   4.296
  905TIP3    H2 2657   0.957   2.760   4.389
  906TIP3   OH2 2658   6.264   7.601   5.760
  906TIP3    H1 2659   6.311   7.525   5.725
  906TIP3    H2 2660   6.313   7.677   5.730
  907TIP3   OH2 2661   2.413   4.162   6.195
  907TIP3    H1 2662   2.406   4.168   6.290
  907TIP3    H2 2663   2.507   4.155   6.179
  908TIP3   OH2 2664   0.782   6.283   2.441
  908TIP3    H1 2665   0.832   6.211   2.479
  908TIP3    H2 2666   0.709   6.241   2.396
  909TIP3   OH2 2667   5.033   4.617   0.953
  909TIP3    H1 2668   4.938   4.621   0.941
  909TIP3    H2 2669   5.054   4.523   0.945
  910TIP3   OH2 2670   3.288   4.992   1.786
  910TIP3    H1 2671   3.362   4.932   1.776
  910TIP3    H2 2672   3.268   5.021   1.697
  911TIP3   OH2 2673   6.076   7.247   0.168
  911TIP3    H1 2674   6.058   7.338   0.192
  911TIP3    H2 2675   6.016   7.196   0.223
  912TIP3   OH2 2676   2.006   4.286   2.803
  912TIP3    H1 2677   2.022   4.197   2.835
  912TIP3    H2 2678   2.017   4.342   2.879
  913TIP3   OH2 2679   0.362   2.581   2.643
  913TIP3    H1 2680   0.421   2.583   2.718
  913TIP3    H2 2681   0.357   2.488   2.620
  914TIP3   OH2 2682   2.837   4.127   0.067
  914TIP3    H1 2683   2.822   4.043   0.111
  914TIP3    H2 2684   2.808   4.193   0.130
  915TIP3   OH2 2685   3.030   1.028   5.447
  915TIP3    H1 2686   3.115   1.059   5.479
  915TIP3    H2 2687   2.990   1.106   5.407
  916TIP3   OH2 2688   7.170   3.747   0.690
  916TIP3    H1 2689   7.191   3.798   0.768
  916TIP3    H2 2690   7.096   3.693   0.716
  917TIP3   OH2 2691   7.441   4.659   5.407
  917TIP3    H1 2692   7.439   4.604   5.485
  917TIP3    H2 2693   7.352   4.657   5.373
  918TIP3   OH2 2694   5.566   1.772   5.171
  918TIP3    H1 2695   5.580   1.855   5.125
  918TIP3    H2 2696   5.502   1.794   5.239
  919TIP3   OH2 2697   7.384   4.131   0.643
  919TIP3    H1 2698   7.394   4.194   0.571
  919TIP3    H2 2699   7.298   4.151   0.681
  920TIP3   OH2 2700   6.902   3.005   1.886
  920TIP3    H1 2701   6.904   2.922   1.838
  920TIP3    H2 2702   6.944   2.985   1.970
  921TIP3   OH2 2703   3.801   1.088   0.374
  921TIP3    H1 2704   3.884   1.049   0.345
  921TIP3    H2 2705   3.807   1.180   0.348
  922TIP3   OH2 2706   4.425   2.434   4.652
  922TIP3    H1 2707   4.471   2.419   4.734
  922TIP3    H2 2708   4.333   2.442   4.677
  923TIP3   OH2 2709   1.769   7.360   3.111
  923TIP3    H1 2710   1.835   7.316   3.059
  923TIP3    H2 2711   1.720   7.290   3.154
  924TIP3   OH2 2712   1.252   3.422   5.331
  924TIP3    H1 2713   1.253   3.451   5.240
  924TIP3    H2 2714   1.323   3.470   5.373
  925TIP3   OH2 2715   5.901   1.883   3.605
  925TIP3    H1 2716   5.933   1.805   3.651
  925TIP3    H2 2717   5.928   1.956   3.661
  926TIP3   OH2 2718   3.031   3.796   1.142
  926TIP3    H1 2719   3.049   3.740   1.217
  926TIP3    H2 2720   3.050   3.740   1.066
  927TIP3   OH2 2721   6.542   2.815   6.281
  927TIP3    H1 2722   6.517   2.800   6.372
  927TIP3    H2 2723   6.623   2.767   6.270
  928TIP3   OH2 2724   6.667   5.494   3.083
  928TIP3    H1 2725   6.667   5.413   3.135
  928TIP3    H2 2726   6.634   5.468   2.997
  929TIP3   OH2 2727   4.956   1.903   6.106
  929TIP3    H1 2728   5.032   1.956   6.079
  929TIP3    H2 2729   4.994   1.830   6.155
  930TIP3   OH2 2730   1.930   4.781   3.926
  930TIP3    H1 2731   1.863   4.736   3.874
  930TIP3    H2 2732   2.010   4.775   3.872
  931TIP3   OH2 2733   3.697   6.862   3.821
  931TIP3    H1 2734   3.749   6.909   3.887
  931TIP3    H2 2735   3.718   6.770   3.835
  932TIP3   OH2 2736   4.804   7.465   3.240
  932TIP3    H1 2737   4.830   7.374   3.256
  932TIP3    H2 2738   4.835   7.484   3.151
  933TIP3   OH2 2739   7.648   0.860   4.333
  933TIP3    H1 2740   7.552   0.863   4.342
  933TIP3    H2 2741   7.681   0.909   4.408
  934TIP3   OH2 2742   7.820   1.960   3.252
  934TIP3    H1 2743   7.864   1.903   3.188
  934TIP3    H2 2744   7.847   1.926   3.337
  935TIP3   OH2 2745   5.367   3.029   5.635
  935TIP3    H1 2746   5.385   2.963   5.568
  935TIP3    H2 2747   5.365   3.112   5.587
  936TIP3   OH2 2748   8.312   7.717   4.336
  936TIP3    H1 2749   8.267   7.675   4.263
  936TIP3    H2 2750   8.311   7.652   4.406
  937TIP3   OH2 2751   4.818   4.714   5.430
  937TIP3    H1 2752   4.875   4.655   5.479
  937TIP3    H2 2753   4.732   4.672   5.432
  938TIP3   OH2 2754   6.388   7.635   6.318
  938TIP3    H1 2755   6.361   7.610   6.230
  938TIP3    H2 2756   6.469   7.586   6.333
  939TIP3   OH2 2757   0.413   5.043   4.955
  939TIP3    H1 2758   0.448   5.013   4.871
  939TIP3    H2 2759   0.475   5.010   5.020
  940TIP3   OH2 2760   4.527   5.465   5.506
  940TIP3    H1 2761   4.546   5.536   5.444
  940TIP3    H2 2762   4.574   5.490   5.586
  941TIP3   OH2 2763   5.966   0.005   5.881
  941TIP3    H1 2764   6.050  -0.001   5.928
  941TIP3    H2 2765   5.990   0.006   5.789
  942TIP3   OH2 2766   0.678   1.845   3.063
  942TIP3    H1 2767   0.742   1.834   3.133
  942TIP3    H2 2768   0.658   1.939   3.064
  943TIP3   OH2 2769   1.244   7.204   2.167
  943TIP3    H1 2770   1.229   7.153   2.087
  943TIP3    H2 2771   1.290   7.282   2.138
  944TIP3   OH2 2772   7.907   2.837   0.189
  944TIP3    H1 2773   8.001   2.852   0.204
  944TIP3    H2 2774   7.898   2.742   0.193
  945TIP3   OH2 2775   6.125   0.249   2.875
  945TIP3    H1 2776   6.058   0.305   2.914
  945TIP3    H2 2777   6.113   0.164   2.918
  946TIP3   OH2 2778   1.508   2.344   1.025
  946TIP3    H1 2779   1.600   2.354   1.001
  946TIP3    H2 2780   1.489   2.252   1.006
  947TIP3   OH2 2781   6.614   2.685   1.678
  947TIP3    H1 2782   6.643   2.687   1.587
  947TIP3    H2 2783   6.523   2.655   1.673
  948TIP3   OH2 2784   7.091   5.774   5.940
  948TIP3    H1 2785   7.005   5.792   5.903
  948TIP3    H2 2786   7.124   5.701   5.889
  949TIP3   OH2 2787   8.075   6.270   2.834
  949TIP3    H1 2788   8.155   6.308   2.872
  949TIP3    H2 2789   8.106   6.200   2.776
  950TIP3   OH2 2790   1.088   7.852   5.589
  950TIP3    H1 2791   1.023   7.790   5.623
  950TIP3    H2 2792   1.037   7.913   5.536
  951TIP3   OH2 2793   7.680   7.416   3.277
  951TIP3    H1 2794   7.757   7.413   3.334
  951TIP3    H2 2795   7.611   7.451   3.334
  952TIP3   OH2 2796   0.520   4.497   5.448
  952TIP3    H1 2797   0.430   4.522   5.429
  952TIP3    H2 2798   0.527   4.407   5.416
  953TIP3   OH2 2799   0.680   4.229   0.848
  953TIP3    H1 2800   0.726   4.304   0.810
  953TIP3    H2 2801   0.596   4.227   0.802
  954TIP3   OH2 2802   4.095   4.084   1.892
  954TIP3    H1 2803   4.146   4.119   1.965
  954TIP3    H2 2804   4.131   3.996   1.878
  955TIP3   OH2 2805   0.192   5.180   1.946
  955TIP3    H1 2806   0.257   5.184   2.017
  955TIP3    H2 2807   0.242   5.198   1.867
  956TIP3   OH2 2808   0.773   2.149   1.003
  956TIP3    H1 2809   0.695   2.185   1.044
  956TIP3    H2 2810   0.799   2.215   0.939
  957TIP3   OH2 2811   5.024   2.912   6.328
  957TIP3    H1 2812   4.956   2.962   6.282
  957TIP3    H2 2813   5.012   2.935   6.420
  958TIP3   OH2 2814   3.210   1.551   4.280
  958TIP3    H1 2815   3.130   1.582   4.322
  958TIP3    H2 2816   3.180   1.484   4.218
  959TIP3   OH2 2817   0.299   3.000   2.423
  959TIP3    H1 2818   0.389   2.969   2.436
  959TIP3    H2 2819   0.255   2.929   2.377
  960TIP3   OH2 2820   1.704   4.270   3.193
  960TIP3    H1 2821   1.691   4.321   3.113
  960TIP3    H2 2822   1.616   4.241   3.218
  961TIP3   OH2 2823   7.230   6.143   5.259
  961TIP3    H1 2824   7.318   6.174   5.279
  961TIP3    H2 2825   7.188   6.216   5.214
  962TIP3   OH2 2826   1.530   5.224   3.597
  962TIP3    H1 2827   1.500   5.295   3.653
  962TIP3    H2 2828   1.465   5.220   3.526
  963TIP3   OH2 2829   2.284   6.449   0.613
  963TIP3    H1 2830   2.343   6.522   0.635
  963TIP3    H2 2831   2.290   6.441   0.518
  964TIP3   OH2 2832   7.389   5.432   3.760
  964TIP3    H1 2833   7.361   5.365   3.823
  964TIP3    H2 2834   7.334   5.418   3.683
  965TIP3   OH2 2835   4.654   4.104   3.600
  965TIP3    H1 2836   4.714   4.031   3.615
  965TIP3    H2 2837   4.705   4.168   3.551
  966TIP3   OH2 2838   7.116   2.824   6.449
  966TIP3    H1 2839   7.073   2.791   6.528
  966TIP3    H2 2840   7.201   2.781   6.449
  967TIP3   OH2 2841   4.256   6.633   3.098
  967TIP3    H1 2842   4.177   6.599   3.140
  967TIP3    H2 2843   4.307   6.555   3.076
  968TIP3   OH2 2844   7.239   2.173   1.695
  968TIP3    H1 2845   7.213   2.199   1.784
  968TIP3    H2 2846   7.314   2.228   1.675
  969TIP3   OH2 2847   5.973   0.787   1.694
  969TIP3    H1 2848   6.044   0.789   1.631
  969TIP3    H2 2849   5.916   0.860   1.669
  970TIP3   OH2 2850   2.442   7.192   0.402
  970TIP3    H1 2851   2.524   7.197   0.353
  970TIP3    H2 2852   2.466   7.153   0.486
  971TIP3   OH2 2853   5.423   7.087   6.253
  971TIP3    H1 2854   5.347   7.053   6.300
  971TIP3    H2 2855   5.488   7.103   6.320
  972TIP3   OH2 2856   3.111   3.056   2.167
  972TIP3    H1 2857   3.179   3.003   2.127
  972TIP3    H2 2858   3.090   3.011   2.249
  973TIP3   OH2 2859   7.772   3.562   5.830
  973TIP3    H1 2860   7.711   3.615   5.882
  973TIP3    H2 2861   7.719   3.527   5.759
  974TIP3   OH2 2862   7.590   6.021   5.047
  974TIP3    H1 2863   7.617   6.088   4.984
  974TIP3    H2 2864   7.518   5.975   5.004
  975TIP3   OH2 2865   4.980   5.698   4.228
  975TIP3    H1 2866   5.070   5.678   4.201
  975TIP3    H2 2867   4.962   5.636   4.298
  976TIP3   OH2 2868   4.160   1.452   3.243
  976TIP3    H1 2869   4.170   1.371   3.194
  976TIP3    H2 2870   4.099   1.504   3.192
  977TIP3   OH2 2871   4.482   6.905   3.891
  977TIP3    H1 2872   4.471   6.854   3.971
  977TIP3    H2 2873   4.539   6.978   3.916
  978TIP3   OH2 2874   0.414   4.244   0.789
  978TIP3    H1 2875   0.352   4.186   0.746
  978TIP3    H2 2876   0.444   4.303   0.721
  979TIP3   OH2 2877   5.926   3.104   2.628
  979TIP3    H1 2878   6.012   3.060   2.624
  979TIP3    H2 2879   5.865   3.039   2.593
  980TIP3   OH2 2880   7.151   5.203   3.797
  980TIP3    H1 2881   7.198   5.130   3.757
  980TIP3    H2 2882   7.077   5.162   3.842
  981TIP3   OH2 2883   6.777   1.921   0.353
  981TIP3    H1 2884   6.834   1.996   0.370
  981TIP3    H2 2885   6.800   1.893   0.264
  982TIP3   OH2 2886   0.887   4.712   1.909
  982TIP3    H1 2887   0.797   4.697   1.879
  982TIP3    H2 2888   0.942   4.667   1.845
  983TIP3   OH2 2889   6.620   7.531   3.364
  983TIP3    H1 2890   6.535   7.516   3.406
  983TIP3    H2 2891   6.675   7.459   3.395
  984TIP3   OH2 2892   1.993   3.990   0.788
  984TIP3    H1 2893   1.908   4.035   0.778
  984TIP3    H2 2894   1.987   3.947   0.873
  985TIP3   OH2 2895   1.065   3.347   5.641
  985TIP3    H1 2896   1.103   3.260   5.652
  985TIP3    H2 2897   1.035   3.371   5.729
  986TIP3   OH2 2898   1.893   7.482   0.260
  986TIP3    H1 2899   1.809   7.515   0.293
  986TIP3    H2 2900   1.891   7.499   0.166
  987TIP3   OH2 2901   2.500   3.998   5.902
  987TIP3    H1 2902   2.568   3.930   5.902
  987TIP3    H2 2903   2.542   4.073   5.860
  988TIP3   OH2 2904   5.986   5.041   6.777
  988TIP3    H1 2905   5.978   5.129   6.812
  988TIP3    H2 2906   6.064   5.005   6.819
  989TIP3   OH2 2907   4.873   2.419   2.282
  989TIP3    H1 2908   4.779   2.418   2.264
  989TIP3    H2 2909   4.887   2.347   2.343
  990TIP3   OH2 2910   4.144   4.044   5.452
  990TIP3    H1 2911   4.124   4.086   5.536
  990TIP3    H2 2912   4.114   4.107   5.386
  991TIP3   OH2 2913   0.649   4.008   2.898
  991TIP3    H1 2914   0.715   3.940   2.913
  991TIP3    H2 2915   0.699   4.081   2.861
  992TIP3   OH2 2916   7.806   4.370   6.048
  992TIP3    H1 2917   7.818   4.283   6.012
  992TIP3    H2 2918   7.735   4.361   6.111
  993TIP3   OH2 2919   0.780   2.719   2.827
  993TIP3    H1 2920   0.762   2.732   2.734
  993TIP3    H2 2921   0.869   2.684   2.829
  994TIP3   OH2 2922   7.224   0.175   6.370
  994TIP3    H1 2923   7.318   0.179   6.385
  994TIP3    H2 2924   7.188   0.135   6.449
  995TIP3   OH2 2925   7.951   2.805   3.620
  995TIP3    H1 2926   8.018   2.873   3.630
  995TIP3    H2 2927   7.909   2.800   3.705
  996TIP3   OH2 2928   7.429   2.684   5.192
  996TIP3    H1 2929   7.452   2.697   5.100
  996TIP3    H2 2930   7.343   2.725   5.202
  997TIP3   OH2 2931   7.638   5.724   6.299
  997TIP3    H1 2932   7.720   5.678   6.317
  997TIP3    H2 2933   7.591   5.720   6.382
  998TIP3   OH2 2934   6.895   3.775   2.951
  998TIP3    H1 2935   6.862   3.828   3.024
  998TIP3    H2 2936   6.991   3.785   2.956
  999TIP3   OH2 2937   0.923   5.406   5.108
  999TIP3    H1 2938   0.851   5.354   5.071
  999TIP3    H2 2939   0.955   5.353   5.182
 1000TIP3   OH2 2940   4.323   3.510   1.621
 1000TIP3    H1 2941   4.288   3.540   1.537
 1000TIP3    H2 2942   4.418   3.523   1.613
 1001TIP3   OH2 2943   6.603   1.245   5.871
 1001TIP3    H1 2944   6.537   1.295   5.824
 1001TIP3    H2 2945   6.661   1.311   5.909
 1002TIP3   OH2 2946   6.347   5.080   3.617
 1002TIP3    H1 2947   6.289   5.026   3.671
 1002TIP3    H2 2948   6.366   5.157   3.671
 1003TIP3   OH2 2949   2.575   7.166   0.664
 1003TIP3    H1 2950   2.503   7.148   0.724
 1003TIP3    H2 2951   2.598   7.080   0.628
 1004TIP3   OH2 2952   7.191   1.708   4.202
 1004TIP3    H1 2953   7.194   1.732   4.109
 1004TIP3    H2 2954   7.251   1.770   4.244
 1005TIP3   OH2 2955   1.073   6.199   3.127
 1005TIP3    H1 2956   1.005   6.192   3.193
 1005TIP3    H2 2957   1.056   6.126   3.067
 1006TIP3   OH2 2958   5.986   6.743   5.005
 1006TIP3    H1 2959   6.049   6.697   5.060
 1006TIP3    H2 2960   5.929   6.675   4.970
 1007TIP3   OH2 2961   4.746   1.910   5.935
 1007TIP3    H1 2962   4.820   1.919   5.995
 1007TIP3    H2 2963   4.785   1.905   5.848
 1008TIP3   OH2 2964   4.608   2.390   2.185
 1008TIP3    H1 2965   4.643   2.411   2.099
 1008TIP3    H2 2966   4.593   2.296   2.183
 1009TIP3   OH2 2967   1.851   2.482   0.560
 1009TIP3    H1 2968   1.826   2.570   0.587
 1009TIP3    H2 2969   1.877   2.438   0.641
 1010TIP3   OH2 2970   6.121   4.441   3.775
 1010TIP3    H1 2971   6.073   4.365   3.743
 1010TIP3    H2 2972   6.144   4.490   3.696
 1011TIP3   OH2 2973   0.709   1.581   4.349
 1011TIP3    H1 2974   0.773   1.648   4.326
 1011TIP3    H2 2975   0.761   1.506   4.378
 1012TIP3   OH2 2976   1.668   5.173   3.894
 1012TIP3    H1 2977   1.736   5.115   3.862
 1012TIP3    H2 2978   1.626   5.208   3.815
 1013TIP3   OH2 2979   3.808   6.057   3.981
 1013TIP3    H1 2980   3.810   6.095   3.893
 1013TIP3    H2 2981   3.717   6.030   3.994
 1014TIP3   OH2 2982   8.070   2.439   6.701
 1014TIP3    H1 2983   8.079   2.373   6.632
 1014TIP3    H2 2984   8.085   2.392   6.782
 1015TIP3   OH2 2985   3.560   0.991   5.252
 1015TIP3    H1 2986   3.488   1.050   5.227
 1015TIP3    H2 2987   3.518   0.927   5.309
 1016TIP3   OH2 2988   6.169   0.398   1.355
 1016TIP3    H1 2989   6.130   0.369   1.437
 1016TIP3    H2 2990   6.185   0.318   1.306
 1017TIP3   OH2 2991   1.275   2.665   2.096
 1017TIP3    H1 2992   1.338   2.688   2.165
 1017TIP3    H2 2993   1.235   2.583   2.127
 1018TIP3   OH2 2994   1.299   1.289   6.690
 1018TIP3    H1 2995   1.332   1.325   6.773
 1018TIP3    H2 2996   1.271   1.200   6.713
 1019TIP3   OH2 2997   4.109   7.186   3.068
 1019TIP3    H1 2998   4.046   7.140   3.124
 1019TIP3    H2 2999   4.114   7.274   3.105
 1020TIP3   OH2 3000   5.154   2.801   3.024
 1020TIP3    H1 3001   5.201   2.804   3.108
 1020TIP3    H2 3002   5.064   2.824   3.046
 1021TIP3   OH2 3003   2.474   7.283   3.224
 1021TIP3    H1 3004   2.533   7.338   3.173
 1021TIP3    H2 3005   2.411   7.250   3.160
 1022TIP3   OH2 3006   4.707   4.244   1.683
 1022TIP3    H1 3007   4.629   4.260   1.736
 1022TIP3    H2 3008   4.780   4.258   1.742
 1023TIP3   OH2 3009   1.090   7.017   3.669
 1023TIP3    H1 3010   1.115   6.929   3.699
 1023TIP3    H2 3011   1.145   7.076   3.720
 1024TIP3   OH2 3012   6.567   5.319   2.678
 1024TIP3    H1 3013   6.544   5.321   2.771
 1024TIP3    H2 3014   6.501   5.374   2.636
 1025TIP3   OH2 3015   3.223   5.572   0.873
 1025TIP3    H1 3016   3.172   5.522   0.810
 1025TIP3    H2 3017   3.215   5.663   0.844
 1026TIP3   OH2 3018   6.956   0.481   6.120
 1026TIP3    H1 3019   7.038   0.459   6.164
 1026TIP3    H2 3020   6.971   0.568   6.084
 1027TIP3   OH2 3021   1.059   0.750   1.534
 1027TIP3    H1 3022   1.029   0.784   1.449
 1027TIP3    H2 3023   1.085   0.828   1.583
 1028TIP3   OH2 3024   5.694   1.239   1.456
 1028TIP3    H1 3025   5.775   1.190   1.443
 1028TIP3    H2 3026   5.722   1.328   1.476
 1029TIP3   OH2 3027   4.994   1.238   4.331
 1029TIP3    H1 3028   4.917   1.201   4.376
 1029TIP3    H2 3029   5.063   1.237   4.397
 1030TIP3   OH2 3030   7.120   0.811   5.021
 1030TIP3    H1 3031   7.155   0.816   4.932
 1030TIP3    H2 3032   7.187   0.853   5.075
 1031TIP3   OH2 3033   0.417   1.623   0.798
 1031TIP3    H1 3034   0.334   1.599   0.756
 1031TIP3    H2 3035   0.445   1.543   0.842
 1032TIP3   OH2 3036   7.348   2.642   6.162
 1032TIP3    H1 3037   7.438   2.639   6.194
 1032TIP3    H2 3038   7.344   2.572   6.097
 1033TIP3   OH2 3039   6.590   6.242   1.746
 1033TIP3    H1 3040   6.681   6.227   1.774
 1033TIP3    H2 3041   6.558   6.308   1.808
 1034TIP3   OH2 3042   7.817   7.815   1.741
 1034TIP3    H1 3043   7.762   7.776   1.673
 1034TIP3    H2 3044   7.907   7.803   1.708
 1035TIP3   OH2 3045   1.563   6.431   5.637
 1035TIP3    H1 3046   1.542   6.454   5.727
 1035TIP3    H2 3047   1.479   6.410   5.597
 1036TIP3   OH2 3048   5.437   6.101   5.547
 1036TIP3    H1 3049   5.462   6.033   5.484
 1036TIP3    H2 3050   5.460   6.064   5.632
 1037TIP3   OH2 3051   7.621   0.225   2.896
 1037TIP3    H1 3052   7.610   0.320   2.892
 1037TIP3    H2 3053   7.663   0.202   2.813
 1038TIP3   OH2 3054   3.814   6.792   3.131
 1038TIP3    H1 3055   3.867   6.792   3.052
 1038TIP3    H2 3056   3.727   6.765   3.102
 1039TIP3   OH2 3057   7.916   1.010   0.706
 1039TIP3    H1 3058   7.888   1.024   0.796
 1039TIP3    H2 3059   8.011   1.021   0.709
 1040TIP3   OH2 3060   7.554   4.713   6.220
 1040TIP3    H1 3061   7.556   4.809   6.222
 1040TIP3    H2 3062   7.600   4.690   6.139
 1041TIP3   OH2 3063   8.376   1.374   6.545
 1041TIP3    H1 3064   8.370   1.357   6.639
 1041TIP3    H2 3065   8.436   1.307   6.513
 1042TIP3   OH2 3066   2.711   0.863   2.698
 1042TIP3    H1 3067   2.763   0.825   2.769
 1042TIP3    H2 3068   2.624   0.875   2.737
 1043TIP3   OH2 3069   2.981   7.087   5.218
 1043TIP3    H1 3070   2.967   7.104   5.124
 1043TIP3    H2 3071   2.912   7.137   5.261
 1044TIP3   OH2 3072   1.404   2.289   3.416
 1044TIP3    H1 3073   1.440   2.375   3.438
 1044TIP3    H2 3074   1.470   2.249   3.360
 1045TIP3   OH2 3075   7.428   6.628   3.614
 1045TIP3    H1 3076   7.450   6.596   3.702
 1045TIP3    H2 3077   7.490   6.699   3.599
 1046TIP3   OH2 3078   5.593   4.630   0.372
 1046TIP3    H1 3079   5.524   4.664   0.315
 1046TIP3    H2 3080   5.675   4.657   0.330
 1047TIP3   OH2 3081   0.486   7.747   2.970
 1047TIP3    H1 3082   0.566   7.798   2.983
 1047TIP3    H2 3083   0.415   7.812   2.970
 1048TIP3   OH2 3084   3.901   2.090   5.676
 1048TIP3    H1 3085   3.921   2.166   5.731
 1048TIP3    H2 3086   3.832   2.044   5.722
 1049TIP3   OH2 3087   5.881   1.889   0.403
 1049TIP3    H1 3088   5.828   1.815   0.433
 1049TIP3    H2 3089   5.818   1.958   0.384
 1050TIP3   OH2 3090   3.078   5.320   2.977
 1050TIP3    H1 3091   3.123   5.271   2.908
 1050TIP3    H2 3092   3.012   5.260   3.010
 1051TIP3   OH2 3093   0.323   1.114   4.235
 1051TIP3    H1 3094   0.296   1.189   4.183
 1051TIP3    H2 3095   0.418   1.126   4.247
 1052TIP3   OH2 3096   4.588   2.353   5.319
 1052TIP3    H1 3097   4.651   2.420   5.293
 1052TIP3    H2 3098   4.627   2.311   5.396
 1053TIP3   OH2 3099   3.211   2.675   4.332
 1053TIP3    H1 3100   3.282   2.730   4.298
 1053TIP3    H2 3101   3.242   2.586   4.319
 1054TIP3   OH2 3102   4.245   1.933   0.689
 1054TIP3    H1 3103   4.248   1.990   0.766
 1054TIP3    H2 3104   4.257   1.993   0.615
 1055TIP3   OH2 3105   8.158   0.327   3.125
 1055TIP3    H1 3106   8.091   0.260   3.114
 1055TIP3    H2 3107   8.192   0.342   3.036
 1056TIP3   OH2 3108   0.384   2.007   2.225
 1056TIP3    H1 3109   0.473   1.975   2.241
 1056TIP3    H2 3110   0.394   2.102   2.216
 1057TIP3   OH2 3111   7.675   7.688   2.799
 1057TIP3    H1 3112   7.715   7.630   2.864
 1057TIP3    H2 3113   7.743   7.700   2.733
 1058TIP3   OH2 3114   0.157   2.374   1.811
 1058TIP3    H1 3115   0.240   2.327   1.823
 1058TIP3    H2 3116   0.103   2.314   1.760
 1059TIP3   OH2 3117   3.719   7.178   5.353
 1059TIP3    H1 3118   3.775   7.209   5.425
 1059TIP3    H2 3119   3.743   7.086   5.342
 1060TIP3   OH2 3120   4.696   5.869   4.810
 1060TIP3    H1 3121   4.785   5.854   4.842
 1060TIP3    H2 3122   4.660   5.935   4.869
 1061TIP3   OH2 3123   4.666   7.051   3.679
 1061TIP3    H1 3124   4.719   7.052   3.599
 1061TIP3    H2 3125   4.589   7.000   3.657
 1062TIP3   OH2 3126   6.673   3.853   6.541
 1062TIP3    H1 3127   6.682   3.775   6.596
 1062TIP3    H2 3128   6.680   3.927   6.602
 1063TIP3   OH2 3129   2.838   6.963   5.705
 1063TIP3    H1 3130   2.828   6.875   5.742
 1063TIP3    H2 3131   2.919   6.958   5.654
 1064TIP3   OH2 3132   6.460   0.364   3.309
 1064TIP3    H1 3133   6.393   0.425   3.339
 1064TIP3    H2 3134   6.413   0.281   3.296
 1065TIP3   OH2 3135   3.329   1.853   4.642
 1065TIP3    H1 3136   3.282   1.923   4.688
 1065TIP3    H2 3137   3.421   1.873   4.654
 1066TIP3   OH2 3138   3.657   6.321   4.993
 1066TIP3    H1 3139   3.578   6.335   4.941
 1066TIP3    H2 3140   3.685   6.409   5.018
 1067TIP3   OH2 3141   4.417   6.574   5.810
 1067TIP3    H1 3142   4.403   6.506   5.876
 1067TIP3    H2 3143   4.500   6.615   5.834
 1068TIP3   OH2 3144   2.402   2.121   1.532
 1068TIP3    H1 3145   2.469   2.117   1.463
 1068TIP3    H2 3146   2.445   2.085   1.609
 1069TIP3   OH2 3147   4.114   5.270   1.735
 1069TIP3    H1 3148   4.021   5.286   1.748
 1069TIP3    H2 3149   4.134   5.197   1.793
 1070TIP3   OH2 3150   3.598   3.815   2.816
 1070TIP3    H1 3151   3.515   3.798   2.771
 1070TIP3    H2 3152   3.664   3.771   2.762
 1071TIP3   OH2 3153   7.234   4.275   3.419
 1071TIP3    H1 3154   7.259   4.232   3.337
 1071TIP3    H2 3155   7.260   4.214   3.488
 1072TIP3   OH2 3156   7.909   3.799   1.378
 1072TIP3    H1 3157   7.986   3.809   1.434
 1072TIP3    H2 3158   7.918   3.869   1.313
 1073TIP3   OH2 3159   0.384   5.981   1.476
 1073TIP3    H1 3160   0.437   6.012   1.402
 1073TIP3    H2 3161   0.382   5.886   1.466
 1074TIP3   OH2 3162   5.003   0.643   3.254
 1074TIP3    H1 3163   5.095   0.618   3.250
 1074TIP3    H2 3164   4.995   0.716   3.192
 1075TIP3   OH2 3165   5.260   0.907   2.472
 1075TIP3    H1 3166   5.312   0.978   2.509
 1075TIP3    H2 3167   5.261   0.838   2.539
 1076TIP3   OH2 3168   3.136   7.709   6.489
 1076TIP3    H1 3169   3.218   7.708   6.539
 1076TIP3    H2 3170   3.148   7.639   6.424
 1077TIP3   OH2 3171   4.889   7.127   4.447
 1077TIP3    H1 3172   4.807   7.090   4.479
 1077TIP3    H2 3173   4.874   7.221   4.444
 1078TIP3   OH2 3174   3.083   3.196   0.719
 1078TIP3    H1 3175   3.055   3.209   0.628
 1078TIP3    H2 3176   3.164   3.246   0.727
 1079TIP3   OH2 3177   2.930   1.968   4.303
 1079TIP3    H1 3178   2.972   1.998   4.383
 1079TIP3    H2 3179   2.986   1.899   4.269
 1080TIP3   OH2 3180   3.189   4.710   2.616
 1080TIP3    H1 3181   3.142   4.713   2.533
 1080TIP3    H2 3182   3.208   4.617   2.629
 1081TIP3   OH2 3183   4.363   4.023   0.067
 1081TIP3    H1 3184   4.336   4.090   0.004
 1081TIP3    H2 3185   4.440   4.061   0.110
 1082TIP3   OH2 3186   4.048   5.999   6.416
 1082TIP3    H1 3187   4.076   6.088   6.435
 1082TIP3    H2 3188   4.057   5.990   6.321
 1083TIP3   OH2 3189   1.529   4.526   2.806
 1083TIP3    H1 3190   1.588   4.566   2.742
 1083TIP3    H2 3191   1.451   4.582   2.804
 1084TIP3   OH2 3192   3.174   0.993   6.502
 1084TIP3    H1 3193   3.260   1.016   6.535
 1084TIP3    H2 3194   3.118   1.066   6.528
 1085TIP3   OH2 3195   2.468   7.714   3.445
 1085TIP3    H1 3196   2.470   7.810   3.444
 1085TIP3    H2 3197   2.542   7.688   3.390
 1086TIP3   OH2 3198   0.147   4.737   4.918
 1086TIP3    H1 3199   0.062   4.694   4.910
 1086TIP3    H2 3200   0.206   4.683   4.865
 1087TIP3   OH2 3201   3.867   3.200   6.769
 1087TIP3    H1 3202   3.803   3.202   6.698
 1087TIP3    H2 3203   3.849   3.280   6.820
 1088TIP3   OH2 3204   1.653   5.713   1.111
 1088TIP3    H1 3205   1.697   5.778   1.165
 1088TIP3    H2 3206   1.560   5.731   1.121
 1089TIP3   OH2 3207   7.783   5.877   1.224
 1089TIP3    H1 3208   7.771   5.801   1.168
 1089TIP3    H2 3209   7.713   5.870   1.290
 1090TIP3   OH2 3210   4.634   1.964   0.594
 1090TIP3    H1 3211   4.579   1.903   0.644
 1090TIP3    H2 3212   4.666   2.027   0.660
 1091TIP3   OH2 3213   0.660   4.868   4.156
 1091TIP3    H1 3214   0.688   4.881   4.246
 1091TIP3    H2 3215   0.735   4.897   4.103
 1092TIP3   OH2 3216   5.458   3.508   4.191
 1092TIP3    H1 3217   5.412   3.524   4.274
 1092TIP3    H2 3218   5.547   3.540   4.207
 1093TIP3   OH2 3219   4.514   7.662   5.220
 1093TIP3    H1 3220   4.466   7.580   5.203
 1093TIP3    H2 3221   4.600   7.647   5.182
 1094TIP3   OH2 3222   2.949   7.611   0.499
 1094TIP3    H1 3223   2.929   7.701   0.525
 1094TIP3    H2 3224   2.865   7.565   0.505
 1095TIP3   OH2 3225   2.071   4.603   0.440
 1095TIP3    H1 3226   2.055   4.658   0.517
 1095TIP3    H2 3227   2.073   4.514   0.475
 1096TIP3   OH2 3228   5.428   7.468   5.845
 1096TIP3    H1 3229   5.476   7.389   5.870
 1096TIP3    H2 3230   5.375   7.442   5.771
 1097TIP3   OH2 3231   4.915   1.655   3.773
 1097TIP3    H1 3232   4.999   1.624   3.805
 1097TIP3    H2 3233   4.865   1.675   3.852
 1098TIP3   OH2 3234   1.397   3.683   3.128
 1098TIP3    H1 3235   1.332   3.692   3.059
 1098TIP3    H2 3236   1.358   3.622   3.190
 1099TIP3   OH2 3237   2.539   0.614   5.589
 1099TIP3    H1 3238   2.470   0.550   5.606
 1099TIP3    H2 3239   2.596   0.608   5.665
 1100TIP3   OH2 3240   1.489   5.650   2.821
 1100TIP3    H1 3241   1.539   5.604   2.754
 1100TIP3    H2 3242   1.460   5.731   2.778
 1101TIP3   OH2 3243   1.069   0.463   0.796
 1101TIP3    H1 3244   1.121   0.533   0.835
 1101TIP3    H2 3245   1.120   0.383   0.810
 1102TIP3   OH2 3246   0.333   3.209   3.081
 1102TIP3    H1 3247   0.264   3.178   3.023
 1102TIP3    H2 3248   0.340   3.303   3.063
 1103TIP3   OH2 3249   0.468   3.373   4.531
 1103TIP3    H1 3250   0.383   3.336   4.556
 1103TIP3    H2 3251   0.452   3.467   4.527
 1104TIP3   OH2 3252   7.594   7.598   1.631
 1104TIP3    H1 3253   7.524   7.649   1.671
 1104TIP3    H2 3254   7.556   7.511   1.615
 1105TIP3   OH2 3255   5.072   1.899   0.139
 1105TIP3    H1 3256   5.101   1.844   0.066
 1105TIP3    H2 3257   4.978   1.885   0.144
 1106TIP3   OH2 3258   3.023   2.020   2.239
 1106TIP3    H1 3259   2.974   2.102   2.224
 1106TIP3    H2 3260   3.093   2.045   2.299
 1107TIP3   OH2 3261   0.849   6.624   5.225
 1107TIP3    H1 3262   0.833   6.597   5.315
 1107TIP3    H2 3263   0.904   6.702   5.232
 1108TIP3   OH2 3264   2.466   3.058   2.557
 1108TIP3    H1 3265   2.377   3.091   2.543
 1108TIP3    H2 3266   2.519   3.106   2.493
 1109TIP3   OH2 3267   5.475   4.961   4.352
 1109TIP3    H1 3268   5.495   4.875   4.388
 1109TIP3    H2 3269   5.380   4.969   4.359
 1110TIP3   OH2 3270   8.327   7.914   6.362
 1110TIP3    H1 3271   8.350   7.829   6.400
 1110TIP3    H2 3272   8.385   7.922   6.286
 1111TIP3   OH2 3273   3.827   4.015   1.873
 1111TIP3    H1 3274   3.763   4.075   1.912
 1111TIP3    H2 3275   3.907   4.066   1.867
 1112TIP3   OH2 3276   7.159   1.668   2.102
 1112TIP3    H1 3277   7.136   1.577   2.124
 1112TIP3    H2 3278   7.254   1.667   2.093
 1113TIP3   OH2 3279   1.026   2.946   0.252
 1113TIP3    H1 3280   1.054   2.870   0.305
 1113TIP3    H2 3281   0.945   2.916   0.209
 1114TIP3   OH2 3282   7.646   2.654   4.048
 1114TIP3    H1 3283   7.718   2.638   4.110
 1114TIP3    H2 3284   7.567   2.643   4.101
 1115TIP3   OH2 3285   4.739   4.454   3.017
 1115TIP3    H1 3286   4.706   4.511   2.947
 1115TIP3    H2 3287   4.830   4.438   2.993
 1116TIP3   OH2 3288   7.591   1.229   5.336
 1116TIP3    H1 3289   7.537   1.180   5.398
 1116TIP3    H2 3290   7.529   1.272   5.278
 1117TIP3   OH2 3291   3.980   6.067   2.311
 1117TIP3    H1 3292   4.028   6.023   2.380
 1117TIP3    H2 3293   4.036   6.140   2.285
 1118TIP3   OH2 3294   6.998   6.234   2.910
 1118TIP3    H1 3295   6.942   6.233   2.987
 1118TIP3    H2 3296   7.031   6.323   2.905
 1119TIP3   OH2 3297   6.932   3.324   3.552
 1119TIP3    H1 3298   6.988   3.249   3.572
 1119TIP3    H2 3299   6.931   3.376   3.632
 1120TIP3   OH2 3300   8.360   2.775   0.314
 1120TIP3    H1 3301   8.287   2.787   0.253
 1120TIP3    H2 3302   8.336   2.698   0.365
 1121TIP3   OH2 3303   3.613   0.453   5.419
 1121TIP3    H1 3304   3.674   0.484   5.485
 1121TIP3    H2 3305   3.616   0.357   5.425
 1122TIP3   OH2 3306   0.887   3.539   6.825
 1122TIP3    H1 3307   0.871   3.581   6.909
 1122TIP3    H2 3308   0.800   3.528   6.786
 1123TIP3   OH2 3309   5.799   4.061   0.276
 1123TIP3    H1 3310   5.881   4.067   0.226
 1123TIP3    H2 3311   5.731   4.068   0.209
 1124TIP3   OH2 3312   2.356   4.245   4.417
 1124TIP3    H1 3313   2.322   4.245   4.328
 1124TIP3    H2 3314   2.291   4.197   4.467
 1125TIP3   OH2 3315   8.278   6.388   3.378
 1125TIP3    H1 3316   8.230   6.308   3.400
 1125TIP3    H2 3317   8.232   6.458   3.424
 1126TIP3   OH2 3318   0.944   1.540   5.236
 1126TIP3    H1 3319   1.037   1.520   5.220
 1126TIP3    H2 3320   0.917   1.474   5.300
 1127TIP3   OH2 3321   7.096   5.275   5.959
 1127TIP3    H1 3322   7.002   5.290   5.947
 1127TIP3    H2 3323   7.127   5.352   6.008
 1128TIP3   OH2 3324   3.731   7.042   1.439
 1128TIP3    H1 3325   3.651   7.095   1.440
 1128TIP3    H2 3326   3.730   6.998   1.353
 1129TIP3   OH2 3327   1.600   4.805   1.947
 1129TIP3    H1 3328   1.668   4.865   1.915
 1129TIP3    H2 3329   1.520   4.856   1.944
 1130TIP3   OH2 3330   0.077   2.467   2.750
 1130TIP3    H1 3331   0.114   2.422   2.674
 1130TIP3    H2 3332   0.002   2.515   2.715
 1131TIP3   OH2 3333   8.176   2.975   3.620
 1131TIP3    H1 3334   8.223   2.945   3.542
 1131TIP3    H2 3335   8.197   2.911   3.687
 1132TIP3   OH2 3336   6.606   5.124   4.974
 1132TIP3    H1 3337   6.554   5.100   5.050
 1132TIP3    H2 3338   6.604   5.047   4.917
 1133TIP3   OH2 3339   5.858   5.984   3.509
 1133TIP3    H1 3340   5.803   5.919   3.464
 1133TIP3    H2 3341   5.868   6.055   3.446
 1134TIP3   OH2 3342   5.053   0.692   5.841
 1134TIP3    H1 3343   5.111   0.631   5.796
 1134TIP3    H2 3344   4.988   0.717   5.774
 1135TIP3   OH2 3345   1.110   1.805   5.182
 1135TIP3    H1 3346   1.124   1.710   5.172
 1135TIP3    H2 3347   1.015   1.815   5.184
 1136TIP3   OH2 3348   2.643   1.511   4.001
 1136TIP3    H1 3349   2.577   1.568   3.960
 1136TIP3    H2 3350   2.591   1.450   4.054
 1137TIP3   OH2 3351   1.012   1.710   4.793
 1137TIP3    H1 3352   1.000   1.629   4.742
 1137TIP3    H2 3353   1.053   1.771   4.732
 1138TIP3   OH2 3354   1.728   5.836   5.554
 1138TIP3    H1 3355   1.685   5.807   5.634
 1138TIP3    H2 3356   1.657   5.869   5.499
 1139TIP3   OH2 3357   1.775   6.729   1.369
 1139TIP3    H1 3358   1.755   6.823   1.378
 1139TIP3    H2 3359   1.855   6.717   1.420
 1140TIP3   OH2 3360   0.223   2.419   1.069
 1140TIP3    H1 3361   0.243   2.359   0.997
 1140TIP3    H2 3362   0.160   2.371   1.123
 1141TIP3   OH2 3363   3.489   3.768   6.561
 1141TIP3    H1 3364   3.559   3.816   6.517
 1141TIP3    H2 3365   3.413   3.780   6.504
 1142TIP3   OH2 3366   7.320   1.930   2.725
 1142TIP3    H1 3367   7.287   1.848   2.762
 1142TIP3    H2 3368   7.273   1.940   2.642
 1143TIP3   OH2 3369   5.102   1.701   5.396
 1143TIP3    H1 3370   5.105   1.683   5.302
 1143TIP3    H2 3371   5.173   1.649   5.433
 1144TIP3   OH2 3372   7.843   1.843   6.306
 1144TIP3    H1 3373   7.873   1.931   6.284
 1144TIP3    H2 3374   7.748   1.848   6.302
 1145TIP3   OH2 3375   0.927   1.287   1.245
 1145TIP3    H1 3376   0.910   1.201   1.207
 1145TIP3    H2 3377   0.901   1.278   1.337
 1146TIP3   OH2 3378   1.310   3.076   3.053
 1146TIP3    H1 3379   1.305   2.988   3.016
 1146TIP3    H2 3380   1.388   3.115   3.014
 1147TIP3   OH2 3381   8.383   4.317   5.852
 1147TIP3    H1 3382   8.437   4.247   5.814
 1147TIP3    H2 3383   8.294   4.281   5.850
 1148TIP3   OH2 3384   8.302   4.842   4.110
 1148TIP3    H1 3385   8.394   4.852   4.086
 1148TIP3    H2 3386   8.279   4.923   4.155
 1149TIP3   OH2 3387   2.697   0.276   6.494
 1149TIP3    H1 3388   2.736   0.212   6.435
 1149TIP3    H2 3389   2.723   0.361   6.457
 1150TIP3   OH2 3390   7.423   5.008   5.165
 1150TIP3    H1 3391   7.356   5.004   5.097
 1150TIP3    H2 3392   7.456   5.098   5.161
 1151TIP3   OH2 3393   8.257   2.206   1.906
 1151TIP3    H1 3394   8.225   2.145   1.839
 1151TIP3    H2 3395   8.178   2.250   1.938
 1152TIP3   OH2 3396   6.620   5.510   2.336
 1152TIP3    H1 3397   6.578   5.533   2.253
 1152TIP3    H2 3398   6.681   5.582   2.353
 1153TIP3   OH2 3399   6.491   6.154   5.604
 1153TIP3    H1 3400   6.418   6.099   5.577
 1153TIP3    H2 3401   6.543   6.167   5.525
 1154TIP3   OH2 3402   1.184   5.545   2.139
 1154TIP3    H1 3403   1.246   5.594   2.085
 1154TIP3    H2 3404   1.123   5.506   2.076
 1155TIP3   OH2 3405   3.477   1.825   1.306
 1155TIP3    H1 3406   3.565   1.804   1.275
 1155TIP3    H2 3407   3.419   1.765   1.259
 1156TIP3   OH2 3408   7.927   3.874   2.708
 1156TIP3    H1 3409   7.921   3.819   2.630
 1156TIP3    H2 3410   7.999   3.836   2.759
 1157TIP3   OH2 3411   4.359   3.202   4.198
 1157TIP3    H1 3412   4.394   3.245   4.120
 1157TIP3    H2 3413   4.395   3.252   4.271
 1158TIP3   OH2 3414   5.114   5.753   3.946
 1158TIP3    H1 3415   5.145   5.762   3.855
 1158TIP3    H2 3416   5.085   5.841   3.970
 1159TIP3   OH2 3417   2.606   1.709   4.535
 1159TIP3    H1 3418   2.675   1.767   4.501
 1159TIP3    H2 3419   2.556   1.683   4.458
 1160TIP3   OH2 3420   6.195   3.363   5.022
 1160TIP3    H1 3421   6.117   3.308   5.029
 1160TIP3    H2 3422   6.190   3.399   4.933
 1161TIP3   OH2 3423   7.570   5.199   1.580
 1161TIP3    H1 3424   7.613   5.264   1.634
 1161TIP3    H2 3425   7.552   5.126   1.639
 1162TIP3   OH2 3426   3.367   1.028   1.030
 1162TIP3    H1 3427   3.294   1.039   1.091
 1162TIP3    H2 3428   3.392   0.937   1.039
 1163TIP3   OH2 3429   5.786   5.769   2.669
 1163TIP3    H1 3430   5.805   5.809   2.753
 1163TIP3    H2 3431   5.723   5.699   2.689
 1164TIP3   OH2 3432   1.718   1.406   5.571
 1164TIP3    H1 3433   1.754   1.396   5.483
 1164TIP3    H2 3434   1.794   1.421   5.627
 1165TIP3   OH2 3435   5.556   5.895   1.917
 1165TIP3    H1 3436   5.493   5.889   1.844
 1165TIP3    H2 3437   5.555   5.808   1.956
 1166TIP3   OH2 3438   5.140   1.460   0.508
 1166TIP3    H1 3439   5.208   1.403   0.471
 1166TIP3    H2 3440   5.087   1.485   0.433
 1167TIP3   OH2 3441   4.467   2.301   6.049
 1167TIP3    H1 3442   4.496   2.391   6.060
 1167TIP3    H2 3443   4.394   2.305   5.988
 1168TIP3   OH2 3444   2.471   5.504   2.779
 1168TIP3    H1 3445   2.459   5.576   2.841
 1168TIP3    H2 3446   2.407   5.438   2.806
 1169TIP3   OH2 3447   1.249   1.281   5.852
 1169TIP3    H1 3448   1.227   1.202   5.803
 1169TIP3    H2 3449   1.338   1.302   5.826
 1170TIP3   OH2 3450   4.167   6.246   1.452
 1170TIP3    H1 3451   4.133   6.209   1.534
 1170TIP3    H2 3452   4.246   6.195   1.435
 1171TIP3   OH2 3453   2.917   0.935   1.860
 1171TIP3    H1 3454   2.953   0.885   1.933
 1171TIP3    H2 3455   2.850   0.991   1.901
 1172TIP3   OH2 3456   1.090   4.301   4.972
 1172TIP3    H1 3457   1.152   4.363   5.010
 1172TIP3    H2 3458   1.005   4.326   5.009
 1173TIP3   OH2 3459   1.275   4.641   1.812
 1173TIP3    H1 3460   1.219   4.713   1.840
 1173TIP3    H2 3461   1.327   4.619   1.890
 1174TIP3   OH2 3462   4.138   1.829   4.736
 1174TIP3    H1 3463   4.214   1.775   4.715
 1174TIP3    H2 3464   4.069   1.797   4.677
 1175TIP3   OH2 3465   2.967   2.895   4.188
 1175TIP3    H1 3466   2.942   2.915   4.098
 1175TIP3    H2 3467   3.057   2.927   4.194
 1176TIP3   OH2 3468   7.996   6.779   4.956
 1176TIP3    H1 3469   7.952   6.804   5.038
 1176TIP3    H2 3470   8.089   6.774   4.980
 1177TIP3   OH2 3471   5.469   6.568   4.387
 1177TIP3    H1 3472   5.484   6.655   4.425
 1177TIP3    H2 3473   5.408   6.584   4.316
 1178TIP3   OH2 3474   1.230   3.355   3.447
 1178TIP3    H1 3475   1.204   3.328   3.535
 1178TIP3    H2 3476   1.321   3.326   3.439
 1179TIP3   OH2 3477   2.537   1.012   1.774
 1179TIP3    H1 3478   2.448   0.977   1.778
 1179TIP3    H2 3479   2.591   0.939   1.744
 1180TIP3   OH2 3480   3.859   3.349   1.466
 1180TIP3    H1 3481   3.765   3.338   1.455
 1180TIP3    H2 3482   3.896   3.330   1.379
 1181TIP3   OH2 3483   5.529   6.461   6.055
 1181TIP3    H1 3484   5.436   6.437   6.062
 1181TIP3    H2 3485   5.555   6.430   5.968
 1182TIP3   OH2 3486   4.136   1.172   6.305
 1182TIP3    H1 3487   4.130   1.103   6.371
 1182TIP3    H2 3488   4.173   1.247   6.352
 1183TIP3   OH2 3489   7.703   7.004   2.095
 1183TIP3    H1 3490   7.634   6.950   2.056
 1183TIP3    H2 3491   7.697   7.087   2.049
 1184TIP3   OH2 3492   3.161   4.236   1.037
 1184TIP3    H1 3493   3.219   4.164   1.010
 1184TIP3    H2 3494   3.156   4.228   1.132
 1185TIP3   OH2 3495   7.412   7.333   2.629
 1185TIP3    H1 3496   7.410   7.427   2.612
 1185TIP3    H2 3497   7.336   7.317   2.685
 1186TIP3   OH2 3498   0.533   6.640   5.610
 1186TIP3    H1 3499   0.570   6.728   5.603
 1186TIP3    H2 3500   0.553   6.599   5.526
 1187TIP3   OH2 3501   2.802   6.758   5.462
 1187TIP3    H1 3502   2.725   6.719   5.421
 1187TIP3    H2 3503   2.875   6.729   5.407
 1188TIP3   OH2 3504   0.789   2.555   3.725
 1188TIP3    H1 3505   0.762   2.624   3.664
 1188TIP3    H2 3506   0.756   2.584   3.810
 1189TIP3   OH2 3507   0.114   5.473   6.348
 1189TIP3    H1 3508   0.120   5.556   6.396
 1189TIP3    H2 3509   0.070   5.495   6.266
 1190TIP3   OH2 3510   2.463   2.420   1.181
 1190TIP3    H1 3511   2.529   2.382   1.123
 1190TIP3    H2 3512   2.412   2.478   1.125
 1191TIP3   OH2 3513   1.745   0.437   5.338
 1191TIP3    H1 3514   1.776   0.373   5.402
 1191TIP3    H2 3515   1.732   0.517   5.389
 1192TIP3   OH2 3516   0.781   1.171   5.242
 1192TIP3    H1 3517   0.689   1.197   5.250
 1192TIP3    H2 3518   0.787   1.088   5.289
 1193TIP3   OH2 3519   2.777   0.111   4.892
 1193TIP3    H1 3520   2.683   0.098   4.906
 1193TIP3    H2 3521   2.817   0.088   4.976
 1194TIP3   OH2 3522   7.423   4.335   6.440
 1194TIP3    H1 3523   7.365   4.269   6.478
 1194TIP3    H2 3524   7.365   4.407   6.416
 1195TIP3   OH2 3525   1.341   5.196   3.386
 1195TIP3    H1 3526   1.276   5.175   3.319
 1195TIP3    H2 3527   1.297   5.259   3.444
 1196TIP3   OH2 3528   8.078   6.159   0.926
 1196TIP3    H1 3529   8.083   6.148   1.021
 1196TIP3    H2 3530   7.993   6.200   0.911
 1197TIP3   OH2 3531   0.258   2.882   0.361
 1197TIP3    H1 3532   0.163   2.876   0.354
 1197TIP3    H2 3533   0.275   2.971   0.392
 1198TIP3   OH2 3534   1.821   3.471   0.439
 1198TIP3    H1 3535   1.865   3.443   0.359
 1198TIP3    H2 3536   1.772   3.395   0.468
 1199TIP3   OH2 3537   1.509   6.049   0.962
 1199TIP3    H1 3538   1.536   6.121   1.019
 1199TIP3    H2 3539   1.510   6.087   0.874
 1200TIP3   OH2 3540   1.385   1.688   6.804
 1200TIP3    H1 3541   1.401   1.715   6.894
 1200TIP3    H2 3542   1.373   1.770   6.756
 1201TIP3   OH2 3543   0.883   5.873   1.469
 1201TIP3    H1 3544   0.847   5.864   1.381
 1201TIP3    H2 3545   0.808   5.894   1.524
 1202TIP3   OH2 3546   0.551   6.088   3.303
 1202TIP3    H1 3547   0.514   6.142   3.373
 1202TIP3    H2 3548   0.565   6.002   3.343
 1203TIP3   OH2 3549   0.201   2.778   0.923
 1203TIP3    H1 3550   0.168   2.699   0.881
 1203TIP3    H2 3551   0.136   2.845   0.903
 1204TIP3   OH2 3552   7.916   1.000   5.586
 1204TIP3    H1 3553   7.947   0.959   5.667
 1204TIP3    H2 3554   7.828   0.964   5.573
 1205TIP3   OH2 3555   7.660   7.619   6.292
 1205TIP3    H1 3556   7.737   7.617   6.349
 1205TIP3    H2 3557   7.647   7.527   6.266
 1206TIP3   OH2 3558   7.281   0.118   0.541
 1206TIP3    H1 3559   7.202   0.136   0.491
 1206TIP3    H2 3560   7.249   0.080   0.623
 1207TIP3   OH2 3561   6.298   1.188   1.167
 1207TIP3    H1 3562   6.229   1.126   1.146
 1207TIP3    H2 3563   6.258   1.274   1.153
 1208TIP3   OH2 3564   3.946   3.289   1.725
 1208TIP3    H1 3565   3.935   3.333   1.641
 1208TIP3    H2 3566   3.917   3.354   1.790
 1209TIP3   OH2 3567   1.680   4.154   0.952
 1209TIP3    H1 3568   1.731   4.106   1.017
 1209TIP3    H2 3569   1.592   4.159   0.989
 1210TIP3   OH2 3570   7.288   3.223   0.178
 1210TIP3    H1 3571   7.193   3.221   0.181
 1210TIP3    H2 3572   7.316   3.182   0.260
 1211TIP3   OH2 3573   0.603   5.997   6.120
 1211TIP3    H1 3574   0.685   6.037   6.091
 1211TIP3    H2 3575   0.600   5.912   6.075
 1212TIP3   OH2 3576   7.752   1.931   2.504
 1212TIP3    H1 3577   7.762   1.893   2.417
 1212TIP3    H2 3578   7.678   1.885   2.542
 1213TIP3   OH2 3579   5.082   5.944   0.898
 1213TIP3    H1 3580   5.155   5.977   0.845
 1213TIP3    H2 3581   5.110   5.857   0.925
 1214TIP3   OH2 3582   5.085   1.160   2.425
 1214TIP3    H1 3583   5.135   1.079   2.412
 1214TIP3    H2 3584   5.048   1.151   2.513
 1215TIP3   OH2 3585   7.620   5.677   0.593
 1215TIP3    H1 3586   7.657   5.726   0.667
 1215TIP3    H2 3587   7.560   5.740   0.551
 1216TIP3   OH2 3588   7.300   2.975   3.651
 1216TIP3    H1 3589   7.343   2.949   3.733
 1216TIP3    H2 3590   7.367   2.962   3.584
 1217TIP3   OH2 3591   4.576   4.772   5.731
 1217TIP3    H1 3592   4.603   4.686   5.763
 1217TIP3    H2 3593   4.500   4.755   5.676
 1218TIP3   OH2 3594   3.165   6.437   4.962
 1218TIP3    H1 3595   3.219   6.366   4.928
 1218TIP3    H2 3596   3.089   6.440   4.904
 1219TIP3   OH2 3597   4.943   3.327   6.711
 1219TIP3    H1 3598   5.017   3.319   6.651
 1219TIP3    H2 3599   4.865   3.321   6.655
 1220TIP3   OH2 3600   2.209   6.463   1.807
 1220TIP3    H1 3601   2.196   6.521   1.882
 1220TIP3    H2 3602   2.296   6.425   1.822
 1221TIP3   OH2 3603   5.559   6.687   3.295
 1221TIP3    H1 3604   5.624   6.704   3.227
 1221TIP3    H2 3605   5.561   6.592   3.306
 1222TIP3   OH2 3606   0.507   7.524   4.173
 1222TIP3    H1 3607   0.463   7.511   4.089
 1222TIP3    H2 3608   0.589   7.474   4.165
 1223TIP3   OH2 3609   5.971   7.090   0.363
 1223TIP3    H1 3610   6.014   7.078   0.447
 1223TIP3    H2 3611   5.882   7.117   0.385
 1224TIP3   OH2 3612   3.850   7.854   6.634
 1224TIP3    H1 3613   3.782   7.905   6.590
 1224TIP3    H2 3614   3.853   7.772   6.586
 1225TIP3   OH2 3615   5.430   1.936   2.477
 1225TIP3    H1 3616   5.426   1.841   2.468
 1225TIP3    H2 3617   5.341   1.966   2.461
 1226TIP3   OH2 3618   0.625   6.629   1.399
 1226TIP3    H1 3619   0.576   6.552   1.430
 1226TIP3    H2 3620   0.636   6.683   1.477
 1227TIP3   OH2 3621   4.268   6.712   0.793
 1227TIP3    H1 3622   4.340   6.738   0.736
 1227TIP3    H2 3623   4.251   6.620   0.772
 1228TIP3   OH2 3624   8.355   5.825   6.279
 1228TIP3    H1 3625   8.276   5.771   6.283
 1228TIP3    H2 3626   8.331   5.907   6.322
 1229TIP3   OH2 3627   2.157   6.614   2.506
 1229TIP3    H1 3628   2.104   6.675   2.558
 1229TIP3    H2 3629   2.097   6.543   2.484
 1230TIP3   OH2 3630   2.886   3.756   2.162
 1230TIP3    H1 3631   2.851   3.830   2.212
 1230TIP3    H2 3632   2.885   3.683   2.224
 1231TIP3   OH2 3633   5.292   0.622   5.459
 1231TIP3    H1 3634   5.342   0.547   5.428
 1231TIP3    H2 3635   5.332   0.698   5.418
 1232TIP3   OH2 3636   2.893   5.937   3.693
 1232TIP3    H1 3637   2.916   5.878   3.621
 1232TIP3    H2 3638   2.931   6.021   3.669
 1233TIP3   OH2 3639   7.263   0.560   5.679
 1233TIP3    H1 3640   7.270   0.621   5.606
 1233TIP3    H2 3641   7.320   0.597   5.746
 1234TIP3   OH2 3642   0.519   1.195   5.346
 1234TIP3    H1 3643   0.509   1.239   5.430
 1234TIP3    H2 3644   0.506   1.102   5.366
 1235TIP3   OH2 3645   5.572   2.552   4.122
 1235TIP3    H1 3646   5.512   2.626   4.130
 1235TIP3    H2 3647   5.567   2.508   4.207
 1236TIP3   OH2 3648   6.957   4.342   6.048
 1236TIP3    H1 3649   7.037   4.370   6.004
 1236TIP3    H2 3650   6.924   4.270   5.994
 1237TIP3   OH2 3651   0.486   0.006   5.630
 1237TIP3    H1 3652   0.419   0.036   5.569
 1237TIP3    H2 3653   0.447  -0.068   5.675
 1238TIP3   OH2 3654   3.305   5.059   0.010
 1238TIP3    H1 3655   3.331   5.129   0.070
 1238TIP3    H2 3656   3.209   5.057   0.016
 1239TIP3   OH2 3657   2.895   1.407   5.018
 1239TIP3    H1 3658   2.961   1.473   5.041
 1239TIP3    H2 3659   2.898   1.403   4.922
 1240TIP3   OH2 3660   6.578   1.900   1.507
 1240TIP3    H1 3661   6.650   1.954   1.541
 1240TIP3    H2 3662   6.558   1.940   1.422
 1241TIP3   OH2 3663   2.822   2.902   0.967
 1241TIP3    H1 3664   2.853   2.966   1.031
 1241TIP3    H2 3665   2.893   2.897   0.902
 1242TIP3   OH2 3666   2.926   1.106   6.045
 1242TIP3    H1 3667   2.978   1.076   6.120
 1242TIP3    H2 3668   2.989   1.153   5.990
 1243TIP3   OH2 3669   1.516   1.517   2.609
 1243TIP3    H1 3670   1.582   1.537   2.676
 1243TIP3    H2 3671   1.437   1.561   2.639
 1244TIP3   OH2 3672   4.935   0.832   0.966
 1244TIP3    H1 3673   4.975   0.753   0.929
 1244TIP3    H2 3674   4.948   0.899   0.898
 1245TIP3   OH2 3675   6.197   6.169   5.956
 1245TIP3    H1 3676   6.239   6.191   5.872
 1245TIP3    H2 3677   6.156   6.251   5.984
 1246TIP3   OH2 3678   0.961   7.432   6.791
 1246TIP3    H1 3679   1.026   7.479   6.738
 1246TIP3    H2 3680   0.991   7.342   6.793
 1247TIP3   OH2 3681   1.633   4.384   3.956
 1247TIP3    H1 3682   1.643   4.337   4.038
 1247TIP3    H2 3683   1.581   4.326   3.901
 1248TIP3   OH2 3684   4.167   7.729   0.412
 1248TIP3    H1 3685   4.249   7.714   0.364
 1248TIP3    H2 3686   4.151   7.646   0.458
 1249TIP3   OH2 3687   1.636   1.701   4.722
 1249TIP3    H1 3688   1.575   1.772   4.745
 1249TIP3    H2 3689   1.692   1.739   4.654
 1250TIP3   OH2 3690   1.003   3.992   0.902
 1250TIP3    H1 3691   1.027   3.905   0.932
 1250TIP3    H2 3692   1.082   4.045   0.914
 1251TIP3   OH2 3693   3.613   0.581   3.104
 1251TIP3    H1 3694   3.571   0.595   3.019
 1251TIP3    H2 3695   3.622   0.486   3.112
 1252TIP3   OH2 3696   5.104   0.945   4.593
 1252TIP3    H1 3697   5.024   0.895   4.579
 1252TIP3    H2 3698   5.117   0.944   4.688
 1253TIP3   OH2 3699   4.434   4.565   6.613
 1253TIP3    H1 3700   4.464   4.485   6.569
 1253TIP3    H2 3701   4.514   4.617   6.625
 1254TIP3   OH2 3702   4.034   6.682   4.102
 1254TIP3    H1 3703   4.015   6.651   4.191
 1254TIP3    H2 3704   4.002   6.772   4.101
 1255TIP3   OH2 3705   6.570   0.885   3.917
 1255TIP3    H1 3706   6.509   0.933   3.861
 1255TIP3    H2 3707   6.556   0.922   4.004
 1256TIP3   OH2 3708   7.165   4.002   4.577
 1256TIP3    H1 3709   7.197   3.925   4.625
 1256TIP3    H2 3710   7.071   3.985   4.565
 1257TIP3   OH2 3711   4.493   6.446   3.994
 1257TIP3    H1 3712   4.439   6.404   3.926
 1257TIP3    H2 3713   4.448   6.528   4.012
 1258TIP3   OH2 3714   4.743   2.680   2.346
 1258TIP3    H1 3715   4.781   2.595   2.323
 1258TIP3    H2 3716   4.650   2.669   2.329
 1259TIP3   OH2 3717   6.970   0.032   1.809
 1259TIP3    H1 3718   6.985  -0.037   1.745
 1259TIP3    H2 3719   6.903   0.088   1.769
 1260TIP3   OH2 3720   7.872   4.306   0.169
 1260TIP3    H1 3721   7.956   4.319   0.212
 1260TIP3    H2 3722   7.886   4.231   0.111
 1261TIP3   OH2 3723   1.459   2.173   2.368
 1261TIP3    H1 3724   1.508   2.103   2.411
 1261TIP3    H2 3725   1.514   2.199   2.294
 1262TIP3   OH2 3726   6.703   4.183   6.005
 1262TIP3    H1 3727   6.720   4.258   5.949
 1262TIP3    H2 3728   6.678   4.222   6.089
 1263TIP3   OH2 3729   0.284   3.492   6.670
 1263TIP3    H1 3730   0.243   3.421   6.720
 1263TIP3    H2 3731   0.228   3.502   6.593
 1264TIP3   OH2 3732   6.797   2.586   2.827
 1264TIP3    H1 3733   6.850   2.633   2.762
 1264TIP3    H2 3734   6.724   2.644   2.846
 1265TIP3   OH2 3735   8.281   5.946   5.995
 1265TIP3    H1 3736   8.221   5.971   5.924
 1265TIP3    H2 3737   8.226   5.948   6.073
 1266TIP3   OH2 3738   0.421   0.465   4.870
 1266TIP3    H1 3739   0.516   0.478   4.865
 1266TIP3    H2 3740   0.384   0.546   4.835
 1267TIP3   OH2 3741   5.489   7.894   6.364
 1267TIP3    H1 3742   5.415   7.932   6.318
 1267TIP3    H2 3743   5.457   7.877   6.453
 1268TIP3   OH2 3744   5.357   1.328   2.034
 1268TIP3    H1 3745   5.307   1.409   2.026
 1268TIP3    H2 3746   5.305   1.263   1.986
 1269TIP3   OH2 3747   4.588   0.163   6.575
 1269TIP3    H1 3748   4.600   0.254   6.550
 1269TIP3    H2 3749   4.673   0.137   6.611
 1270TIP3   OH2 3750   7.610   7.142   2.721
 1270TIP3    H1 3751   7.607   7.215   2.660
 1270TIP3    H2 3752   7.692   7.097   2.700
 1271TIP3   OH2 3753   6.888   0.646   1.221
 1271TIP3    H1 3754   6.904   0.597   1.140
 1271TIP3    H2 3755   6.933   0.729   1.207
 1272TIP3   OH2 3756   5.641   7.155   1.373
 1272TIP3    H1 3757   5.616   7.205   1.451
 1272TIP3    H2 3758   5.730   7.184   1.354
 1273TIP3   OH2 3759   3.849   0.347   6.005
 1273TIP3    H1 3760   3.913   0.277   6.013
 1273TIP3    H2 3761   3.793   0.321   5.932
 1274TIP3   OH2 3762   0.906   7.002   0.785
 1274TIP3    H1 3763   0.858   6.986   0.866
 1274TIP3    H2 3764   0.989   7.040   0.812
 1275TIP3   OH2 3765   3.093   3.511   2.151
 1275TIP3    H1 3766   3.079   3.419   2.128
 1275TIP3    H2 3767   3.152   3.544   2.083
 1276TIP3   OH2 3768   6.248   4.359   2.219
 1276TIP3    H1 3769   6.338   4.330   2.237
 1276TIP3    H2 3770   6.254   4.454   2.211
 1277TIP3   OH2 3771   7.724   6.903   1.530
 1277TIP3    H1 3772   7.782   6.898   1.607
 1277TIP3    H2 3773   7.753   6.982   1.484
 1278TIP3   OH2 3774   2.195   0.736   4.255
 1278TIP3    H1 3775   2.124   0.737   4.318
 1278TIP3    H2 3776   2.237   0.651   4.268
 1279TIP3   OH2 3777   3.719   0.335   6.520
 1279TIP3    H1 3778   3.687   0.409   6.570
 1279TIP3    H2 3779   3.775   0.286   6.580
 1280TIP3   OH2 3780   5.472   0.400   4.899
 1280TIP3    H1 3781   5.429   0.315   4.889
 1280TIP3    H2 3782   5.539   0.385   4.966
 1281TIP3   OH2 3783   1.702   4.657   3.817
 1281TIP3    H1 3784   1.638   4.721   3.786
 1281TIP3    H2 3785   1.660   4.572   3.801
 1282TIP3   OH2 3786   7.496   1.944   4.744
 1282TIP3    H1 3787   7.459   1.942   4.832
 1282TIP3    H2 3788   7.586   1.913   4.756
 1283TIP3   OH2 3789   6.488   5.366   1.355
 1283TIP3    H1 3790   6.414   5.427   1.366
 1283TIP3    H2 3791   6.524   5.356   1.443
 1284TIP3   OH2 3792   0.348   7.546   0.259
 1284TIP3    H1 3793   0.368   7.484   0.329
 1284TIP3    H2 3794   0.432   7.564   0.218
 1285TIP3   OH2 3795   6.135   7.469   3.450
 1285TIP3    H1 3796   6.052   7.426   3.471
 1285TIP3    H2 3797   6.110   7.556   3.418
 1286TIP3   OH2 3798   7.901   3.668   6.177
 1286TIP3    H1 3799   7.940   3.721   6.246
 1286TIP3    H2 3800   7.807   3.689   6.180
 1287TIP3   OH2 3801   5.791   1.404   5.646
 1287TIP3    H1 3802   5.828   1.448   5.569
 1287TIP3    H2 3803   5.723   1.347   5.611
 1288TIP3   OH2 3804   8.219   3.839   2.622
 1288TIP3    H1 3805   8.184   3.791   2.548
 1288TIP3    H2 3806   8.192   3.788   2.699
 1289TIP3   OH2 3807   5.491   4.146   6.443
 1289TIP3    H1 3808   5.554   4.109   6.506
 1289TIP3    H2 3809   5.546   4.183   6.375
 1290TIP3   OH2 3810   6.575   7.319   0.276
 1290TIP3    H1 3811   6.541   7.317   0.366
 1290TIP3    H2 3812   6.509   7.370   0.228
 1291TIP3   OH2 3813   7.162   1.048   4.187
 1291TIP3    H1 3814   7.097   1.008   4.245
 1291TIP3    H2 3815   7.173   1.137   4.221
 1292TIP3   OH2 3816   4.646   1.401   5.921
 1292TIP3    H1 3817   4.634   1.494   5.940
 1292TIP3    H2 3818   4.694   1.400   5.838
 1293TIP3   OH2 3819   4.681   3.538   2.452
 1293TIP3    H1 3820   4.655   3.450   2.479
 1293TIP3    H2 3821   4.750   3.563   2.513
 1294TIP3   OH2 3822   3.954   5.783   5.404
 1294TIP3    H1 3823   3.997   5.854   5.356
 1294TIP3    H2 3824   3.870   5.821   5.432
 1295TIP3   OH2 3825   3.976   7.901   3.447
 1295TIP3    H1 3826   4.029   7.948   3.512
 1295TIP3    H2 3827   3.962   7.965   3.377
 1296TIP3   OH2 3828   2.243   4.898   2.219
 1296TIP3    H1 3829   2.195   4.972   2.181
 1296TIP3    H2 3830   2.309   4.939   2.275
 1297TIP3   OH2 3831   0.262   0.491   6.308
 1297TIP3    H1 3832   0.230   0.506   6.219
 1297TIP3    H2 3833   0.260   0.578   6.349
 1298TIP3   OH2 3834   1.676   0.399   2.099
 1298TIP3    H1 3835   1.650   0.334   2.165
 1298TIP3    H2 3836   1.716   0.470   2.150
 1299TIP3   OH2 3837   1.437   3.559   1.785
 1299TIP3    H1 3838   1.405   3.473   1.757
 1299TIP3    H2 3839   1.468   3.601   1.705
 1300TIP3   OH2 3840   1.315   3.774   0.099
 1300TIP3    H1 3841   1.253   3.844   0.082
 1300TIP3    H2 3842   1.353   3.753   0.014
 1301TIP3   OH2 3843   6.829   4.267   2.657
 1301TIP3    H1 3844   6.832   4.183   2.702
 1301TIP3    H2 3845   6.737   4.294   2.662
 1302TIP3   OH2 3846   7.182   6.961   4.666
 1302TIP3    H1 3847   7.189   7.041   4.614
 1302TIP3    H2 3848   7.250   6.903   4.630
 1303TIP3   OH2 3849   6.657   2.124   3.159
 1303TIP3    H1 3850   6.616   2.118   3.245
 1303TIP3    H2 3851   6.641   2.038   3.119
 1304TIP3   OH2 3852   4.340   3.004   4.820
 1304TIP3    H1 3853   4.406   3.064   4.785
 1304TIP3    H2 3854   4.266   3.013   4.761
 1305TIP3   OH2 3855   7.091   3.836   6.810
 1305TIP3    H1 3856   7.009   3.863   6.851
 1305TIP3    H2 3857   7.066   3.803   6.724
 1306TIP3   OH2 3858   8.200   1.692   3.918
 1306TIP3    H1 3859   8.202   1.715   4.010
 1306TIP3    H2 3860   8.131   1.626   3.911
 1307TIP3   OH2 3861   7.723   4.608   1.044
 1307TIP3    H1 3862   7.791   4.645   1.100
 1307TIP3    H2 3863   7.666   4.682   1.023
 1308TIP3   OH2 3864   5.286   5.476   3.525
 1308TIP3    H1 3865   5.337   5.485   3.444
 1308TIP3    H2 3866   5.333   5.410   3.576
 1309TIP3   OH2 3867   5.062   2.732   1.721
 1309TIP3    H1 3868   4.973   2.768   1.727
 1309TIP3    H2 3869   5.055   2.644   1.758
 1310TIP3   OH2 3870   2.420   3.680   2.615
 1310TIP3    H1 3871   2.484   3.671   2.544
 1310TIP3    H2 3872   2.473   3.700   2.692
 1311TIP3   OH2 3873   7.129   0.857   3.074
 1311TIP3    H1 3874   7.152   0.765   3.066
 1311TIP3    H2 3875   7.119   0.871   3.168
 1312TIP3   OH2 3876   5.917   0.501   0.730
 1312TIP3    H1 3877   5.993   0.557   0.718
 1312TIP3    H2 3878   5.874   0.500   0.644
 1313TIP3   OH2 3879   8.184   1.827   1.575
 1313TIP3    H1 3880   8.278   1.834   1.592
 1313TIP3    H2 3881   8.159   1.742   1.611
 1314TIP3   OH2 3882   4.608   2.835   0.975
 1314TIP3    H1 3883   4.593   2.826   1.069
 1314TIP3    H2 3884   4.528   2.804   0.934
 1315TIP3   OH2 3885   0.299   4.754   6.605
 1315TIP3    H1 3886   0.231   4.791   6.662
 1315TIP3    H2 3887   0.380   4.762   6.655
 1316TIP3   OH2 3888   2.303   1.875   5.270
 1316TIP3    H1 3889   2.388   1.850   5.307
 1316TIP3    H2 3890   2.323   1.946   5.210
 1317TIP3   OH2 3891   4.685   5.763   1.177
 1317TIP3    H1 3892   4.671   5.728   1.089
 1317TIP3    H2 3893   4.718   5.689   1.227
 1318TIP3   OH2 3894   3.026   2.778   4.816
 1318TIP3    H1 3895   3.071   2.821   4.744
 1318TIP3    H2 3896   3.022   2.686   4.790
 1319TIP3   OH2 3897   7.556   6.189   1.187
 1319TIP3    H1 3898   7.545   6.102   1.225
 1319TIP3    H2 3899   7.490   6.192   1.117
 1320TIP3   OH2 3900   0.055   5.535   3.893
 1320TIP3    H1 3901  -0.021   5.491   3.855
 1320TIP3    H2 3902   0.075   5.484   3.971
 1321TIP3   OH2 3903   4.687   6.133   0.079
 1321TIP3    H1 3904   4.595   6.108   0.077
 1321TIP3    H2 3905   4.697   6.200   0.012
 1322TIP3   OH2 3906   2.785   4.913   2.739
 1322TIP3    H1 3907   2.692   4.917   2.718
 1322TIP3    H2 3908   2.805   4.999   2.776
 1323TIP3   OH2 3909   3.492   1.825   2.334
 1323TIP3    H1 3910   3.518   1.775   2.411
 1323TIP3    H2 3911   3.521   1.915   2.352
 1324TIP3   OH2 3912   7.099   6.866   2.055
 1324TIP3    H1 3913   7.062   6.891   1.970
 1324TIP3    H2 3914   7.129   6.776   2.043
 1325TIP3   OH2 3915   5.201   4.962   5.175
 1325TIP3    H1 3916   5.261   4.992   5.107
 1325TIP3    H2 3917   5.185   4.870   5.154
 1326TIP3   OH2 3918   2.676   6.087   6.851
 1326TIP3    H1 3919   2.601   6.031   6.869
 1326TIP3    H2 3920   2.641   6.160   6.800
 1327TIP3   OH2 3921   8.271   5.761   2.827
 1327TIP3    H1 3922   8.229   5.765   2.913
 1327TIP3    H2 3923   8.343   5.699   2.838
 1328TIP3   OH2 3924   3.073   0.110   6.827
 1328TIP3    H1 3925   3.116   0.183   6.784
 1328TIP3    H2 3926   2.985   0.109   6.789
 1329TIP3   OH2 3927   0.841   0.359   1.943
 1329TIP3    H1 3928   0.852   0.393   1.854
 1329TIP3    H2 3929   0.920   0.387   1.989
 1330TIP3   OH2 3930   0.870   5.541   1.356
 1330TIP3    H1 3931   0.793   5.570   1.309
 1330TIP3    H2 3932   0.943   5.557   1.296
 1331TIP3   OH2 3933   8.342   2.855   6.306
 1331TIP3    H1 3934   8.352   2.943   6.271
 1331TIP3    H2 3935   8.276   2.814   6.250
 1332TIP3   OH2 3936   7.867   6.059   0.532
 1332TIP3    H1 3937   7.930   5.995   0.498
 1332TIP3    H2 3938   7.918   6.139   0.542
 1333TIP3   OH2 3939   3.662   3.214   1.743
 1333TIP3    H1 3940   3.621   3.292   1.709
 1333TIP3    H2 3941   3.755   3.225   1.724
 1334TIP3   OH2 3942   2.072   4.625   5.890
 1334TIP3    H1 3943   2.154   4.605   5.935
 1334TIP3    H2 3944   2.075   4.573   5.810
 1335TIP3   OH2 3945   0.886   3.242   6.191
 1335TIP3    H1 3946   0.892   3.158   6.237
 1335TIP3    H2 3947   0.976   3.275   6.190
 1336TIP3   OH2 3948   4.155   4.282   0.278
 1336TIP3    H1 3949   4.157   4.332   0.196
 1336TIP3    H2 3950   4.155   4.190   0.251
 1337TIP3   OH2 3951   1.201   6.455   5.232
 1337TIP3    H1 3952   1.149   6.535   5.219
 1337TIP3    H2 3953   1.292   6.484   5.223
 1338TIP3   OH2 3954   2.772   3.142   2.170
 1338TIP3    H1 3955   2.711   3.093   2.114
 1338TIP3    H2 3956   2.840   3.173   2.109
 1339TIP3   OH2 3957   2.452   1.267   5.405
 1339TIP3    H1 3958   2.512   1.305   5.341
 1339TIP3    H2 3959   2.494   1.184   5.430
 1340TIP3   OH2 3960   3.484   3.218   4.991
 1340TIP3    H1 3961   3.572   3.253   4.980
 1340TIP3    H2 3962   3.432   3.262   4.924
 1341TIP3   OH2 3963   4.789   5.129   6.078
 1341TIP3    H1 3964   4.810   5.082   5.997
 1341TIP3    H2 3965   4.707   5.175   6.058
 1342TIP3   OH2 3966   4.182   1.745   5.170
 1342TIP3    H1 3967   4.198   1.668   5.115
 1342TIP3    H2 3968   4.202   1.820   5.114
 1343TIP3   OH2 3969   5.393   1.406   5.107
 1343TIP3    H1 3970   5.305   1.443   5.112
 1343TIP3    H2 3971   5.393   1.357   5.025
 1344TIP3   OH2 3972   2.571   4.458   4.832
 1344TIP3    H1 3973   2.482   4.439   4.803
 1344TIP3    H2 3974   2.569   4.445   4.927
 1345TIP3   OH2 3975   0.022   7.013   6.160
 1345TIP3    H1 3976  -0.060   7.040   6.119
 1345TIP3    H2 3977  -0.004   6.954   6.231
 1346TIP3   OH2 3978   4.034   3.583   2.450
 1346TIP3    H1 3979   4.024   3.672   2.485
 1346TIP3    H2 3980   4.113   3.586   2.397
 1347TIP3   OH2 3981   3.190   3.639   2.872
 1347TIP3    H1 3982   3.273   3.599   2.848
 1347TIP3    H2 3983   3.144   3.653   2.789
 1348TIP3   OH2 3984   1.379   5.818   5.673
 1348TIP3    H1 3985   1.344   5.833   5.585
 1348TIP3    H2 3986   1.424   5.900   5.694
 1349TIP3   OH2 3987   0.754   1.013   3.141
 1349TIP3    H1 3988   0.805   1.010   3.222
 1349TIP3    H2 3989   0.709   1.098   3.144
 1350TIP3   OH2 3990   7.570   1.472   4.579
 1350TIP3    H1 3991   7.590   1.565   4.581
 1350TIP3    H2 3992   7.648   1.429   4.614
 1351TIP3   OH2 3993   2.831   1.435   0.097
 1351TIP3    H1 3994   2.797   1.347   0.108
 1351TIP3    H2 3995   2.881   1.432   0.016
 1352TIP3   OH2 3996   1.943   5.553   5.504
 1352TIP3    H1 3997   1.930   5.462   5.477
 1352TIP3    H2 3998   1.958   5.600   5.423
 1353TIP3   OH2 3999   7.943   0.563   0.967
 1353TIP3    H1 4000   7.997   0.587   1.042
 1353TIP3    H2 4001   7.942   0.641   0.912
 1354TIP3   OH2 4002   7.548   1.316   6.499
 1354TIP3    H1 4003   7.502   1.233   6.506
 1354TIP3    H2 4004   7.614   1.302   6.431
 1355TIP3   OH2 4005   6.881   0.363   2.116
 1355TIP3    H1 4006   6.791   0.352   2.085
 1355TIP3    H2 4007   6.872   0.409   2.199
 1356TIP3   OH2 4008   5.630   1.909   4.729
 1356TIP3    H1 4009   5.570   1.977   4.697
 1356TIP3    H2 4010   5.575   1.851   4.781
 1357TIP3   OH2 4011   3.045   4.946   1.906
 1357TIP3    H1 4012   3.001   5.028   1.930
 1357TIP3    H2 4013   3.136   4.973   1.889
 1358TIP3   OH2 4014   4.602   6.200   2.442
 1358TIP3    H1 4015   4.660   6.142   2.491
 1358TIP3    H2 4016   4.623   6.287   2.475
 1359TIP3   OH2 4017   5.200   5.484   3.108
 1359TIP3    H1 4018   5.263   5.553   3.130
 1359TIP3    H2 4019   5.251   5.416   3.065
 1360TIP3   OH2 4020   7.030   7.062   5.131
 1360TIP3    H1 4021   7.076   7.016   5.061
 1360TIP3    H2 4022   6.939   7.035   5.122
 1361TIP3   OH2 4023   8.065   7.745   1.632
 1361TIP3    H1 4024   8.098   7.835   1.628
 1361TIP3    H2 4025   8.133   7.693   1.590
 1362TIP3   OH2 4026   1.203   6.171   0.269
 1362TIP3    H1 4027   1.190   6.152   0.176
 1362TIP3    H2 4028   1.298   6.178   0.279
 1363TIP3   OH2 4029   5.300   5.144   0.168
 1363TIP3    H1 4030   5.360   5.097   0.111
 1363TIP3    H2 4031   5.217   5.145   0.121
 1364TIP3   OH2 4032   4.392   1.098   1.506
 1364TIP3    H1 4033   4.423   1.071   1.593
 1364TIP3    H2 4034   4.471   1.103   1.453
 1365TIP3   OH2 4035   5.693   1.469   6.652
 1365TIP3    H1 4036   5.775   1.518   6.655
 1365TIP3    H2 4037   5.629   1.532   6.620
 1366TIP3   OH2 4038   5.586   6.052   6.831
 1366TIP3    H1 4039   5.498   6.024   6.805
 1366TIP3    H2 4040   5.618   6.102   6.756
 1367TIP3   OH2 4041   6.043   0.371   1.040
 1367TIP3    H1 4042   6.108   0.440   1.055
 1367TIP3    H2 4043   5.977   0.386   1.108
 1368TIP3   OH2 4044   2.164   4.260   1.501
 1368TIP3    H1 4045   2.160   4.183   1.558
 1368TIP3    H2 4046   2.258   4.273   1.484
 1369TIP3   OH2 4047   0.384   1.569   0.322
 1369TIP3    H1 4048   0.342   1.555   0.407
 1369TIP3    H2 4049   0.312   1.578   0.261
 1370TIP3   OH2 4050   1.405   4.215   5.105
 1370TIP3    H1 4051   1.333   4.155   5.083
 1370TIP3    H2 4052   1.403   4.221   5.201
 1371TIP3   OH2 4053   1.921   0.087   5.254
 1371TIP3    H1 4054   1.984   0.071   5.324
 1371TIP3    H2 4055   1.887   0.000   5.232
 1372TIP3   OH2 4056   0.966   1.648   2.441
 1372TIP3    H1 4057   0.888   1.631   2.388
 1372TIP3    H2 4058   0.939   1.631   2.531
 1373TIP3   OH2 4059   2.014   6.797   6.178
 1373TIP3    H1 4060   1.996   6.760   6.265
 1373TIP3    H2 4061   2.037   6.888   6.195
 1374TIP3   OH2 4062   7.846   0.211   0.685
 1374TIP3    H1 4063   7.848   0.296   0.729
 1374TIP3    H2 4064   7.872   0.229   0.595
 1375TIP3   OH2 4065   0.944   5.768   4.118
 1375TIP3    H1 4066   0.996   5.688   4.128
 1375TIP3    H2 4067   0.889   5.751   4.041
 1376TIP3   OH2 4068   6.178   3.258   0.062
 1376TIP3    H1 4069   6.166   3.290  -0.027
 1376TIP3    H2 4070   6.149   3.166   0.059
 1377TIP3   OH2 4071   1.797   2.295   4.100
 1377TIP3    H1 4072   1.807   2.341   4.017
 1377TIP3    H2 4073   1.781   2.364   4.165
 1378TIP3   OH2 4074   5.495   1.643   2.407
 1378TIP3    H1 4075   5.569   1.684   2.361
 1378TIP3    H2 4076   5.536   1.592   2.476
 1379TIP3   OH2 4077   5.655   1.557   2.671
 1379TIP3    H1 4078   5.658   1.609   2.751
 1379TIP3    H2 4079   5.746   1.542   2.648
 1380TIP3   OH2 4080   1.313   0.747   2.652
 1380TIP3    H1 4081   1.379   0.794   2.601
 1380TIP3    H2 4082   1.239   0.737   2.592
 1381TIP3   OH2 4083   7.097   0.844   4.015
 1381TIP3    H1 4084   7.131   0.932   4.030
 1381TIP3    H2 4085   7.003   0.851   4.033
 1382TIP3   OH2 4086   4.728   5.551   1.451
 1382TIP3    H1 4087   4.739   5.542   1.546
 1382TIP3    H2 4088   4.651   5.498   1.431
 1383TIP3   OH2 4089   4.294   7.561   0.864
 1383TIP3    H1 4090   4.363   7.587   0.924
 1383TIP3    H2 4091   4.224   7.528   0.920
 1384TIP3   OH2 4092   6.564   1.772   2.019
 1384TIP3    H1 4093   6.478   1.814   2.025
 1384TIP3    H2 4094   6.545   1.678   2.018
 1385TIP3   OH2 4095   8.003   5.069   2.811
 1385TIP3    H1 4096   8.050   5.078   2.728
 1385TIP3    H2 4097   7.912   5.089   2.790
 1386TIP3   OH2 4098   0.300   5.787   2.563
 1386TIP3    H1 4099   0.232   5.844   2.598
 1386TIP3    H2 4100   0.255   5.734   2.497
 1387TIP3   OH2 4101   1.427   4.369   1.888
 1387TIP3    H1 4102   1.510   4.340   1.926
 1387TIP3    H2 4103   1.373   4.290   1.885
 1388TIP3   OH2 4104   0.618   1.716   1.311
 1388TIP3    H1 4105   0.567   1.733   1.391
 1388TIP3    H2 4106   0.636   1.622   1.315
 1389TIP3   OH2 4107   2.998   3.535   5.778
 1389TIP3    H1 4108   3.036   3.448   5.790
 1389TIP3    H2 4109   2.963   3.534   5.690
 1390TIP3   OH2 4110   0.942   6.618   2.360
 1390TIP3    H1 4111   0.989   6.608   2.443
 1390TIP3    H2 4112   0.849   6.621   2.386
 1391TIP3   OH2 4113   4.928   0.854   1.694
 1391TIP3    H1 4114   4.927   0.822   1.784
 1391TIP3    H2 4115   4.973   0.938   1.699
 1392TIP3   OH2 4116   7.287   7.520   5.091
 1392TIP3    H1 4117   7.207   7.534   5.143
 1392TIP3    H2 4118   7.272   7.436   5.047
 1393TIP3   OH2 4119   2.589   5.416   1.609
 1393TIP3    H1 4120   2.566   5.464   1.529
 1393TIP3    H2 4121   2.640   5.341   1.577
 1394TIP3   OH2 4122   2.074   7.895   1.905
 1394TIP3    H1 4123   2.164   7.864   1.916
 1394TIP3    H2 4124   2.021   7.832   1.953
 1395TIP3   OH2 4125   0.770   6.374   5.333
 1395TIP3    H1 4126   0.727   6.341   5.412
 1395TIP3    H2 4127   0.712   6.347   5.261
 1396TIP3   OH2 4128   4.959   3.215   1.732
 1396TIP3    H1 4129   4.958   3.180   1.643
 1396TIP3    H2 4130   4.881   3.177   1.773
 1397TIP3   OH2 4131   3.342   5.073   4.256
 1397TIP3    H1 4132   3.354   5.083   4.161
 1397TIP3    H2 4133   3.380   4.987   4.276
 1398TIP3   OH2 4134   7.447   7.074   0.803
 1398TIP3    H1 4135   7.446   6.987   0.764
 1398TIP3    H2 4136   7.439   7.134   0.729
 1399TIP3   OH2 4137   3.030   4.339   0.267
 1399TIP3    H1 4138   2.993   4.253   0.287
 1399TIP3    H2 4139   3.082   4.326   0.188
 1400TIP3   OH2 4140   6.638   6.333   4.903
 1400TIP3    H1 4141   6.683   6.249   4.916
 1400TIP3    H2 4142   6.701   6.399   4.934
 1401TIP3   OH2 4143   5.095   2.290   1.396
 1401TIP3    H1 4144   5.068   2.352   1.463
 1401TIP3    H2 4145   5.060   2.326   1.315
 1402TIP3   OH2 4146   4.345   2.001   1.890
 1402TIP3    H1 4147   4.330   2.091   1.919
 1402TIP3    H2 4148   4.344   1.949   1.971
 1403TIP3   OH2 4149   3.881   3.115   2.598
 1403TIP3    H1 4150   3.976   3.113   2.598
 1403TIP3    H2 4151   3.857   3.089   2.509
 1404TIP3   OH2 4152   1.283   5.268   0.167
 1404TIP3    H1 4153   1.215   5.274   0.233
 1404TIP3    H2 4154   1.236   5.249   0.086
 1405TIP3   OH2 4155   4.819   5.352   5.581
 1405TIP3    H1 4156   4.771   5.290   5.636
 1405TIP3    H2 4157   4.907   5.316   5.575
 1406TIP3   OH2 4158   4.847   6.063   2.088
 1406TIP3    H1 4159   4.931   6.107   2.103
 1406TIP3    H2 4160   4.860   5.974   2.121
 1407TIP3   OH2 4161   0.138   1.270   1.170
 1407TIP3    H1 4162   0.166   1.350   1.125
 1407TIP3    H2 4163   0.193   1.267   1.249
 1408TIP3   OH2 4164   4.323   0.114   0.634
 1408TIP3    H1 4165   4.258   0.147   0.696
 1408TIP3    H2 4166   4.359   0.193   0.593
 1409TIP3   OH2 4167   2.341   3.306   4.875
 1409TIP3    H1 4168   2.319   3.394   4.903
 1409TIP3    H2 4169   2.394   3.270   4.947
 1410TIP3   OH2 4170   2.548   1.639   2.527
 1410TIP3    H1 4171   2.510   1.552   2.516
 1410TIP3    H2 4172   2.500   1.678   2.600
 1411TIP3   OH2 4173   0.153   1.215   6.360
 1411TIP3    H1 4174   0.244   1.222   6.389
 1411TIP3    H2 4175   0.158   1.165   6.279
 1412TIP3   OH2 4176   4.652   5.071   3.051
 1412TIP3    H1 4177   4.686   5.035   3.133
 1412TIP3    H2 4178   4.699   5.024   2.982
 1413TIP3   OH2 4179   2.574   5.886   3.786
 1413TIP3    H1 4180   2.614   5.894   3.873
 1413TIP3    H2 4181   2.617   5.953   3.733
 1414TIP3   OH2 4182   6.062   1.171   5.991
 1414TIP3    H1 4183   6.025   1.100   6.044
 1414TIP3    H2 4184   6.156   1.155   5.991
 1415TIP3   OH2 4185   3.818   3.094   2.340
 1415TIP3    H1 4186   3.733   3.085   2.296
 1415TIP3    H2 4187   3.841   3.186   2.329
 1416TIP3   OH2 4188   1.818   2.564   6.408
 1416TIP3    H1 4189   1.748   2.505   6.438
 1416TIP3    H2 4190   1.783   2.604   6.328
 1417TIP3   OH2 4191   6.763   5.745   3.162
 1417TIP3    H1 4192   6.707   5.668   3.147
 1417TIP3    H2 4193   6.727   5.785   3.241
 1418TIP3   OH2 4194   7.135   6.796   5.326
 1418TIP3    H1 4195   7.112   6.802   5.233
 1418TIP3    H2 4196   7.204   6.862   5.338
 1419TIP3   OH2 4197   3.882   1.186   1.392
 1419TIP3    H1 4198   3.934   1.204   1.314
 1419TIP3    H2 4199   3.863   1.093   1.387
 1420TIP3   OH2 4200   5.396   1.392   0.705
 1420TIP3    H1 4201   5.324   1.328   0.696
 1420TIP3    H2 4202   5.447   1.382   0.625
 1421TIP3   OH2 4203   3.273   0.071   6.287
 1421TIP3    H1 4204   3.263   0.155   6.243
 1421TIP3    H2 4205   3.360   0.074   6.327
 1422TIP3   OH2 4206   6.599   1.237   4.215
 1422TIP3    H1 4207   6.615   1.284   4.133
 1422TIP3    H2 4208   6.587   1.306   4.280
 1423TIP3   OH2 4209   2.502   5.500   4.460
 1423TIP3    H1 4210   2.560   5.481   4.534
 1423TIP3    H2 4211   2.539   5.450   4.387
 1424TIP3   OH2 4212   8.377   1.294   1.711
 1424TIP3    H1 4213   8.344   1.371   1.665
 1424TIP3    H2 4214   8.316   1.281   1.784
 1425TIP3   OH2 4215   6.461   1.565   2.474
 1425TIP3    H1 4216   6.464   1.660   2.465
 1425TIP3    H2 4217   6.488   1.548   2.564
 1426TIP3   OH2 4218   3.332   4.733   1.097
 1426TIP3    H1 4219   3.282   4.809   1.067
 1426TIP3    H2 4220   3.423   4.757   1.081
 1427TIP3   OH2 4221   3.399   1.351   3.229
 1427TIP3    H1 4222   3.351   1.269   3.224
 1427TIP3    H2 4223   3.456   1.350   3.152
 1428TIP3   OH2 4224   7.154   1.421   6.306
 1428TIP3    H1 4225   7.130   1.493   6.248
 1428TIP3    H2 4226   7.079   1.410   6.365
 1429TIP3   OH2 4227   1.415   4.188   4.770
 1429TIP3    H1 4228   1.333   4.161   4.813
 1429TIP3    H2 4229   1.392   4.196   4.677
 1430TIP3   OH2 4230   0.910   6.632   6.077
 1430TIP3    H1 4231   0.890   6.559   6.018
 1430TIP3    H2 4232   0.960   6.592   6.148
 1431TIP3   OH2 4233   1.646   4.882   3.392
 1431TIP3    H1 4234   1.697   4.817   3.344
 1431TIP3    H2 4235   1.711   4.943   3.426
 1432TIP3   OH2 4236   6.200   1.575   3.481
 1432TIP3    H1 4237   6.259   1.592   3.407
 1432TIP3    H2 4238   6.113   1.589   3.445
 1433TIP3   OH2 4239   4.483   1.671   5.616
 1433TIP3    H1 4240   4.462   1.733   5.686
 1433TIP3    H2 4241   4.449   1.712   5.537
 1434TIP3   OH2 4242   4.233   5.137   4.098
 1434TIP3    H1 4243   4.199   5.048   4.089
 1434TIP3    H2 4244   4.157   5.189   4.125
 1435TIP3   OH2 4245   3.270   0.850   3.930
 1435TIP3    H1 4246   3.347   0.828   3.877
 1435TIP3    H2 4247   3.306   0.883   4.012
 1436TIP3   OH2 4248   0.107   3.651   4.563
 1436TIP3    H1 4249   0.088   3.664   4.656
 1436TIP3    H2 4250   0.057   3.720   4.519
 1437TIP3   OH2 4251   2.371   1.352   0.376
 1437TIP3    H1 4252   2.306   1.400   0.324
 1437TIP3    H2 4253   2.433   1.319   0.311
 1438TIP3   OH2 4254   0.634   3.259   5.537
 1438TIP3    H1 4255   0.649   3.351   5.562
 1438TIP3    H2 4256   0.609   3.262   5.445
 1439TIP3   OH2 4257   3.055   0.246   2.353
 1439TIP3    H1 4258   3.092   0.205   2.275
 1439TIP3    H2 4259   3.042   0.173   2.415
 1440TIP3   OH2 4260   1.475   5.864   4.718
 1440TIP3    H1 4261   1.460   5.939   4.659
 1440TIP3    H2 4262   1.557   5.886   4.763
 1441TIP3   OH2 4263   5.424   3.882   3.126
 1441TIP3    H1 4264   5.509   3.919   3.152
 1441TIP3    H2 4265   5.408   3.812   3.190
 1442TIP3   OH2 4266   5.062   1.784   5.096
 1442TIP3    H1 4267   4.991   1.825   5.145
 1442TIP3    H2 4268   5.123   1.856   5.077
 1443TIP3   OH2 4269   2.301   3.633   2.174
 1443TIP3    H1 4270   2.340   3.571   2.113
 1443TIP3    H2 4271   2.267   3.579   2.245
 1444TIP3   OH2 4272   8.354   2.553   1.005
 1444TIP3    H1 4273   8.379   2.530   1.094
 1444TIP3    H2 4274   8.262   2.580   1.012
 1445TIP3   OH2 4275   4.498   4.227   4.819
 1445TIP3    H1 4276   4.462   4.163   4.756
 1445TIP3    H2 4277   4.590   4.203   4.827
 1446TIP3   OH2 4278   3.853   2.560   4.142
 1446TIP3    H1 4279   3.814   2.473   4.132
 1446TIP3    H2 4280   3.874   2.588   4.053
 1447TIP3   OH2 4281   4.655   0.979   0.656
 1447TIP3    H1 4282   4.671   1.000   0.748
 1447TIP3    H2 4283   4.560   0.965   0.651
 1448TIP3   OH2 4284   7.586   3.514   3.872
 1448TIP3    H1 4285   7.641   3.509   3.950
 1448TIP3    H2 4286   7.648   3.517   3.799
 1449TIP3   OH2 4287   5.449   5.019   2.275
 1449TIP3    H1 4288   5.373   5.056   2.229
 1449TIP3    H2 4289   5.451   4.927   2.248
 1450TIP3   OH2 4290   1.475   5.241   5.478
 1450TIP3    H1 4291   1.543   5.193   5.432
 1450TIP3    H2 4292   1.411   5.175   5.503
 1451TIP3   OH2 4293   8.288   0.126   5.938
 1451TIP3    H1 4294   8.318   0.185   6.007
 1451TIP3    H2 4295   8.349   0.052   5.941
 1452TIP3   OH2 4296   8.138   3.814   6.629
 1452TIP3    H1 4297   8.163   3.746   6.691
 1452TIP3    H2 4298   8.068   3.862   6.674
 1453TIP3   OH2 4299   4.742   4.646   0.939
 1453TIP3    H1 4300   4.759   4.601   0.856
 1453TIP3    H2 4301   4.672   4.596   0.979
 1454TIP3   OH2 4302   8.121   1.980   3.324
 1454TIP3    H1 4303   8.182   1.987   3.398
 1454TIP3    H2 4304   8.170   2.015   3.249
 1455TIP3   OH2 4305   2.558   4.191   1.184
 1455TIP3    H1 4306   2.568   4.217   1.092
 1455TIP3    H2 4307   2.632   4.233   1.229
 1456TIP3   OH2 4308   2.326   1.290   2.847
 1456TIP3    H1 4309   2.398   1.300   2.784
 1456TIP3    H2 4310   2.252   1.334   2.806
 1457TIP3   OH2 4311   6.795   1.405   3.398
 1457TIP3    H1 4312   6.857   1.433   3.465
 1457TIP3    H2 4313   6.797   1.309   3.402
 1458TIP3   OH2 4314   7.610   5.707   3.679
 1458TIP3    H1 4315   7.596   5.769   3.751
 1458TIP3    H2 4316   7.694   5.731   3.642
 1459TIP3   OH2 4317   6.541   1.467   4.347
 1459TIP3    H1 4318   6.576   1.539   4.294
 1459TIP3    H2 4319   6.502   1.510   4.423
 1460TIP3   OH2 4320   7.538   7.903   2.671
 1460TIP3    H1 4321   7.575   7.887   2.584
 1460TIP3    H2 4322   7.580   7.838   2.727
 1461TIP3   OH2 4323   7.753   7.074   0.042
 1461TIP3    H1 4324   7.740   7.137  -0.029
 1461TIP3    H2 4325   7.758   6.989  -0.002
 1462TIP3   OH2 4326   1.419   4.743   6.048
 1462TIP3    H1 4327   1.332   4.706   6.063
 1462TIP3    H2 4328   1.407   4.838   6.054
 1463TIP3   OH2 4329   1.354   3.958   0.328
 1463TIP3    H1 4330   1.319   3.965   0.240
 1463TIP3    H2 4331   1.338   3.868   0.354
 1464TIP3   OH2 4332   1.923   7.674   2.068
 1464TIP3    H1 4333   1.979   7.599   2.089
 1464TIP3    H2 4334   1.860   7.679   2.140
 1465TIP3   OH2 4335   2.917   0.479   6.164
 1465TIP3    H1 4336   2.880   0.434   6.088
 1465TIP3    H2 4337   2.926   0.570   6.135
 1466TIP3   OH2 4338   0.439   7.592   4.505
 1466TIP3    H1 4339   0.346   7.609   4.489
 1466TIP3    H2 4340   0.455   7.507   4.464
 1467TIP3   OH2 4341   8.295   4.662   3.145
 1467TIP3    H1 4342   8.238   4.673   3.070
 1467TIP3    H2 4343   8.282   4.572   3.174
 1468TIP3   OH2 4344   2.192   6.367   3.631
 1468TIP3    H1 4345   2.211   6.289   3.580
 1468TIP3    H2 4346   2.164   6.433   3.567
 1469TIP3   OH2 4347   1.072   1.157   0.038
 1469TIP3    H1 4348   1.036   1.202   0.115
 1469TIP3    H2 4349   1.123   1.224  -0.007
 1470TIP3   OH2 4350   4.517   7.057   5.555
 1470TIP3    H1 4351   4.485   7.022   5.638
 1470TIP3    H2 4352   4.543   7.147   5.575
 1471TIP3   OH2 4353   4.446   6.972   5.817
 1471TIP3    H1 4354   4.363   7.008   5.847
 1471TIP3    H2 4355   4.493   6.950   5.897
 1472TIP3   OH2 4356   1.141   3.512   2.327
 1472TIP3    H1 4357   1.095   3.461   2.394
 1472TIP3    H2 4358   1.218   3.460   2.307
 1473TIP3   OH2 4359   7.991   5.158   5.987
 1473TIP3    H1 4360   7.998   5.107   5.906
 1473TIP3    H2 4361   7.901   5.147   6.015
 1474TIP3   OH2 4362   4.856   7.418   4.458
 1474TIP3    H1 4363   4.803   7.445   4.382
 1474TIP3    H2 4364   4.828   7.476   4.529
 1475TIP3   OH2 4365   7.161   4.091   6.702
 1475TIP3    H1 4366   7.070   4.104   6.675
 1475TIP3    H2 4367   7.163   4.002   6.738
 1476TIP3   OH2 4368   3.383   6.266   0.185
 1476TIP3    H1 4369   3.356   6.224   0.103
 1476TIP3    H2 4370   3.324   6.341   0.193
 1477TIP3   OH2 4371   1.561   7.515   0.838
 1477TIP3    H1 4372   1.641   7.481   0.797
 1477TIP3    H2 4373   1.509   7.438   0.858
 1478TIP3   OH2 4374   4.100   4.116   6.559
 1478TIP3    H1 4375   4.105   4.126   6.654
 1478TIP3    H2 4376   4.007   4.123   6.540
 1479TIP3   OH2 4377   2.643   5.569   1.058
 1479TIP3    H1 4378   2.604   5.656   1.060
 1479TIP3    H2 4379   2.584   5.517   1.005
 1480TIP3   OH2 4380   2.852   5.522   2.455
 1480TIP3    H1 4381   2.760   5.513   2.481
 1480TIP3    H2 4382   2.900   5.467   2.517
 1481TIP3   OH2 4383   7.310   1.687   3.579
 1481TIP3    H1 4384   7.375   1.665   3.645
 1481TIP3    H2 4385   7.330   1.777   3.554
 1482TIP3   OH2 4386   5.781   2.370   5.491
 1482TIP3    H1 4387   5.765   2.284   5.451
 1482TIP3    H2 4388   5.853   2.354   5.552
 1483TIP3   OH2 4389   6.603   5.657   4.838
 1483TIP3    H1 4390   6.555   5.732   4.803
 1483TIP3    H2 4391   6.553   5.581   4.808
 1484TIP3   OH2 4392   3.630   0.681   1.084
 1484TIP3    H1 4393   3.646   0.775   1.083
 1484TIP3    H2 4394   3.665   0.651   1.168
 1485TIP3   OH2 4395   5.174   3.040   2.097
 1485TIP3    H1 4396   5.121   3.077   2.167
 1485TIP3    H2 4397   5.144   2.949   2.091
 1486TIP3   OH2 4398   8.019   2.865   5.636
 1486TIP3    H1 4399   8.054   2.869   5.725
 1486TIP3    H2 4400   7.931   2.829   5.647
 1487TIP3   OH2 4401   2.685   6.884   3.428
 1487TIP3    H1 4402   2.695   6.829   3.351
 1487TIP3    H2 4403   2.597   6.922   3.419
 1488TIP3   OH2 4404   2.283   0.274   3.442
 1488TIP3    H1 4405   2.368   0.308   3.415
 1488TIP3    H2 4406   2.222   0.345   3.424
 1489TIP3   OH2 4407   6.269   5.566   1.413
 1489TIP3    H1 4408   6.224   5.581   1.330
 1489TIP3    H2 4409   6.204   5.590   1.480
 1490TIP3   OH2 4410   5.419   3.689   5.370
 1490TIP3    H1 4411   5.331   3.669   5.404
 1490TIP3    H2 4412   5.445   3.608   5.326
 1491TIP3   OH2 4413   0.083   1.637   6.765
 1491TIP3    H1 4414   0.136   1.558   6.773
 1491TIP3    H2 4415   0.044   1.632   6.678
 1492TIP3   OH2 4416   3.688   4.704   5.476
 1492TIP3    H1 4417   3.633   4.718   5.553
 1492TIP3    H2 4418   3.711   4.611   5.479
 1493TIP3   OH2 4419   1.959   2.471   5.440
 1493TIP3    H1 4420   1.986   2.430   5.522
 1493TIP3    H2 4421   1.899   2.540   5.467
 1494TIP3   OH2 4422   2.780   2.949   2.513
 1494TIP3    H1 4423   2.703   2.940   2.456
 1494TIP3    H2 4424   2.854   2.930   2.455
 1495TIP3   OH2 4425   6.974   2.824   6.210
 1495TIP3    H1 4426   7.022   2.811   6.291
 1495TIP3    H2 4427   6.952   2.917   6.209
 1496TIP3   OH2 4428   5.736   2.187   2.069
 1496TIP3    H1 4429   5.750   2.124   1.998
 1496TIP3    H2 4430   5.653   2.230   2.047
 1497TIP3   OH2 4431   1.968   0.573   1.106
 1497TIP3    H1 4432   1.874   0.587   1.111
 1497TIP3    H2 4433   1.985   0.559   1.013
 1498TIP3   OH2 4434   4.374   7.866   4.235
 1498TIP3    H1 4435   4.352   7.872   4.143
 1498TIP3    H2 4436   4.417   7.781   4.245
 1499TIP3   OH2 4437   4.943   0.598   4.804
 1499TIP3    H1 4438   4.960   0.616   4.896
 1499TIP3    H2 4439   4.975   0.676   4.758
 1500TIP3   OH2 4440   2.315   6.639   2.764
 1500TIP3    H1 4441   2.357   6.562   2.726
 1500TIP3    H2 4442   2.254   6.669   2.696
 1501TIP3   OH2 4443   8.052   5.144   4.814
 1501TIP3    H1 4444   8.070   5.056   4.783
 1501TIP3    H2 4445   7.965   5.165   4.779
 1502TIP3   OH2 4446   7.580   3.711   2.775
 1502TIP3    H1 4447   7.612   3.631   2.815
 1502TIP3    H2 4448   7.501   3.685   2.728
 1503TIP3   OH2 4449   1.308   0.129   5.647
 1503TIP3    H1 4450   1.309   0.224   5.633
 1503TIP3    H2 4451   1.274   0.094   5.565
 1504TIP3   OH2 4452   3.702   7.877   2.494
 1504TIP3    H1 4453   3.628   7.853   2.439
 1504TIP3    H2 4454   3.768   7.911   2.433
 1505TIP3   OH2 4455   7.904   4.163   4.776
 1505TIP3    H1 4456   7.864   4.200   4.697
 1505TIP3    H2 4457   7.831   4.156   4.838
 1506TIP3   OH2 4458   1.544   3.745   0.262
 1506TIP3    H1 4459   1.467   3.775   0.214
 1506TIP3    H2 4460   1.529   3.773   0.352
 1507TIP3   OH2 4461   6.643   1.980   6.585
 1507TIP3    H1 4462   6.620   1.968   6.677
 1507TIP3    H2 4463   6.725   1.932   6.574
 1508TIP3   OH2 4464   7.797   1.795   5.446
 1508TIP3    H1 4465   7.847   1.758   5.374
 1508TIP3    H2 4466   7.746   1.722   5.481
 1509TIP3   OH2 4467   2.123   2.346   1.992
 1509TIP3    H1 4468   2.126   2.424   1.937
 1509TIP3    H2 4469   2.040   2.352   2.038
 1510TIP3   OH2 4470   2.906   5.417   4.407
 1510TIP3    H1 4471   2.880   5.357   4.337
 1510TIP3    H2 4472   3.002   5.415   4.407
 1511TIP3   OH2 4473   2.707   6.400   6.072
 1511TIP3    H1 4474   2.749   6.315   6.061
 1511TIP3    H2 4475   2.638   6.401   6.006
 1512TIP3   OH2 4476   7.127   0.480   6.465
 1512TIP3    H1 4477   7.162   0.467   6.376
 1512TIP3    H2 4478   7.038   0.447   6.460
 1513TIP3   OH2 4479   1.162   2.453   6.104
 1513TIP3    H1 4480   1.113   2.525   6.144
 1513TIP3    H2 4481   1.095   2.402   6.057
 1514TIP3   OH2 4482   2.963   6.069   0.744
 1514TIP3    H1 4483   2.880   6.085   0.789
 1514TIP3    H2 4484   3.013   6.150   0.756
 1515TIP3   OH2 4485   6.697   5.921   2.950
 1515TIP3    H1 4486   6.730   5.867   3.022
 1515TIP3    H2 4487   6.704   6.010   2.983
 1516TIP3   OH2 4488   3.643   5.894   2.537
 1516TIP3    H1 4489   3.649   5.961   2.468
 1516TIP3    H2 4490   3.574   5.835   2.508
 1517TIP3   OH2 4491   7.420   1.330   2.638
 1517TIP3    H1 4492   7.347   1.360   2.692
 1517TIP3    H2 4493   7.396   1.353   2.549
 1518TIP3   OH2 4494   0.909   4.032   4.607
 1518TIP3    H1 4495   0.955   4.110   4.638
 1518TIP3    H2 4496   0.817   4.051   4.623
 1519TIP3   OH2 4497   7.725   5.570   5.241
 1519TIP3    H1 4498   7.658   5.583   5.173
 1519TIP3    H2 4499   7.682   5.595   5.322
 1520TIP3   OH2 4500   2.374   4.549   4.030
 1520TIP3    H1 4501   2.393   4.540   4.124
 1520TIP3    H2 4502   2.340   4.638   4.021
 1521TIP3   OH2 4503   1.752   3.057   4.529
 1521TIP3    H1 4504   1.695   3.124   4.492
 1521TIP3    H2 4505   1.761   3.082   4.621
 1522TIP3   OH2 4506   6.295   6.534   2.749
 1522TIP3    H1 4507   6.238   6.478   2.696
 1522TIP3    H2 4508   6.289   6.621   2.708
 1523TIP3   OH2 4509   7.167   2.842   0.243
 1523TIP3    H1 4510   7.199   2.873   0.328
 1523TIP3    H2 4511   7.073   2.831   0.256
 1524TIP3   OH2 4512   5.342   5.956   3.874
 1524TIP3    H1 4513   5.301   6.042   3.883
 1524TIP3    H2 4514   5.360   5.928   3.964
 1525TIP3   OH2 4515   2.498   1.445   6.388
 1525TIP3    H1 4516   2.587   1.436   6.420
 1525TIP3    H2 4517   2.507   1.493   6.305
 1526TIP3   OH2 4518   6.678   5.336   1.871
 1526TIP3    H1 4519   6.635   5.285   1.940
 1526TIP3    H2 4520   6.766   5.299   1.864
 1527TIP3   OH2 4521   4.192   7.066   5.929
 1527TIP3    H1 4522   4.113   7.100   5.971
 1527TIP3    H2 4523   4.182   6.971   5.931
 1528TIP3   OH2 4524   6.725   6.377   5.925
 1528TIP3    H1 4525   6.731   6.294   5.877
 1528TIP3    H2 4526   6.697   6.441   5.859
 1529TIP3   OH2 4527   7.157   7.181   5.651
 1529TIP3    H1 4528   7.188   7.269   5.673
 1529TIP3    H2 4529   7.136   7.186   5.558
 1530TIP3   OH2 4530   2.647   0.547   6.728
 1530TIP3    H1 4531   2.652   0.510   6.641
 1530TIP3    H2 4532   2.717   0.613   6.731
 1531TIP3   OH2 4533   3.315   0.499   3.068
 1531TIP3    H1 4534   3.366   0.533   2.995
 1531TIP3    H2 4535   3.259   0.432   3.030
 1532TIP3   OH2 4536   0.513   2.942   4.628
 1532TIP3    H1 4537   0.535   3.030   4.600
 1532TIP3    H2 4538   0.418   2.936   4.614
 1533TIP3   OH2 4539   6.556   6.927   5.297
 1533TIP3    H1 4540   6.643   6.910   5.262
 1533TIP3    H2 4541   6.551   7.023   5.303
 1534TIP3   OH2 4542   7.454   3.475   5.013
 1534TIP3    H1 4543   7.412   3.462   5.098
 1534TIP3    H2 4544   7.502   3.557   5.022
 1535TIP3   OH2 4545   1.379   7.795   2.310
 1535TIP3    H1 4546   1.389   7.750   2.227
 1535TIP3    H2 4547   1.465   7.788   2.352
 1536TIP3   OH2 4548   5.560   7.713   3.687
 1536TIP3    H1 4549   5.625   7.781   3.673
 1536TIP3    H2 4550   5.578   7.678   3.774
 1537TIP3   OH2 4551   5.934   2.869   0.680
 1537TIP3    H1 4552   6.019   2.846   0.717
 1537TIP3    H2 4553   5.919   2.959   0.709
 1538TIP3   OH2 4554   6.876   0.208   2.778
 1538TIP3    H1 4555   6.830   0.268   2.719
 1538TIP3    H2 4556   6.914   0.265   2.846
 1539TIP3   OH2 4557   6.379   4.618   2.224
 1539TIP3    H1 4558   6.378   4.606   2.319
 1539TIP3    H2 4559   6.405   4.709   2.211
 1540TIP3   OH2 4560   7.421   4.876   3.961
 1540TIP3    H1 4561   7.325   4.878   3.961
 1540TIP3    H2 4562   7.444   4.829   3.882
 1541TIP3   OH2 4563   1.108   6.231   5.684
 1541TIP3    H1 4564   1.075   6.221   5.595
 1541TIP3    H2 4565   1.061   6.307   5.719
 1542TIP3   OH2 4566   3.579   5.523   1.533
 1542TIP3    H1 4567   3.548   5.440   1.569
 1542TIP3    H2 4568   3.592   5.505   1.440
 1543TIP3   OH2 4569   6.578   3.142   0.177
 1543TIP3    H1 4570   6.608   3.151   0.086
 1543TIP3    H2 4571   6.594   3.228   0.215
 1544TIP3   OH2 4572   2.046   3.554   2.055
 1544TIP3    H1 4573   2.127   3.590   2.091
 1544TIP3    H2 4574   2.072   3.517   1.970
 1545TIP3   OH2 4575   3.341   3.907   4.522
 1545TIP3    H1 4576   3.264   3.908   4.465
 1545TIP3    H2 4577   3.393   3.982   4.492
 1546TIP3   OH2 4578   5.069   3.702   1.500
 1546TIP3    H1 4579   5.051   3.608   1.504
 1546TIP3    H2 4580   5.029   3.737   1.580
 1547TIP3   OH2 4581   8.177   6.342   3.100
 1547TIP3    H1 4582   8.228   6.333   3.181
 1547TIP3    H2 4583   8.243   6.349   3.031
 1548TIP3   OH2 4584   3.817   4.537   4.330
 1548TIP3    H1 4585   3.859   4.472   4.273
 1548TIP3    H2 4586   3.877   4.612   4.330
 1549TIP3   OH2 4587   2.563   7.816   6.680
 1549TIP3    H1 4588   2.630   7.822   6.613
 1549TIP3    H2 4589   2.577   7.892   6.736
 1550TIP3   OH2 4590   0.505   0.394   5.299
 1550TIP3    H1 4591   0.437   0.329   5.279
 1550TIP3    H2 4592   0.478   0.431   5.383
 1551TIP3   OH2 4593   0.013   4.545   1.817
 1551TIP3    H1 4594   0.052   4.557   1.903
 1551TIP3    H2 4595  -0.004   4.451   1.811
 1552TIP3   OH2 4596   7.016   6.567   3.650
 1552TIP3    H1 4597   7.018   6.643   3.593
 1552TIP3    H2 4598   7.105   6.532   3.647
 1553TIP3   OH2 4599   3.244   3.434   0.552
 1553TIP3    H1 4600   3.327   3.414   0.593
 1553TIP3    H2 4601   3.241   3.379   0.474
 1554TIP3   OH2 4602   3.183   0.554   4.396
 1554TIP3    H1 4603   3.275   0.563   4.420
 1554TIP3    H2 4604   3.140   0.628   4.438
 1555TIP3   OH2 4605   0.334   4.786   2.560
 1555TIP3    H1 4606   0.428   4.779   2.578
 1555TIP3    H2 4607   0.325   4.762   2.468
 1556TIP3   OH2 4608   3.995   6.158   0.598
 1556TIP3    H1 4609   4.025   6.124   0.514
 1556TIP3    H2 4610   4.067   6.142   0.658
 1557TIP3   OH2 4611   3.568   0.614   6.324
 1557TIP3    H1 4612   3.592   0.537   6.273
 1557TIP3    H2 4613   3.652   0.648   6.357
 1558TIP3   OH2 4614   0.249   0.298   4.103
 1558TIP3    H1 4615   0.158   0.324   4.120
 1558TIP3    H2 4616   0.245   0.249   4.021
 1559TIP3   OH2 4617   1.672   4.837   0.275
 1559TIP3    H1 4618   1.599   4.831   0.213
 1559TIP3    H2 4619   1.704   4.748   0.283
 1560TIP3   OH2 4620   1.286   1.283   5.489
 1560TIP3    H1 4621   1.218   1.219   5.469
 1560TIP3    H2 4622   1.364   1.230   5.507
 1561TIP3   OH2 4623   4.890   2.710   2.785
 1561TIP3    H1 4624   4.807   2.678   2.752
 1561TIP3    H2 4625   4.867   2.760   2.863
 1562TIP3   OH2 4626   1.802   7.665   1.257
 1562TIP3    H1 4627   1.821   7.655   1.350
 1562TIP3    H2 4628   1.732   7.731   1.253
 1563TIP3   OH2 4629   6.408   1.382   5.381
 1563TIP3    H1 4630   6.427   1.291   5.405
 1563TIP3    H2 4631   6.444   1.392   5.293
 1564TIP3   OH2 4632   5.554   3.727   0.967
 1564TIP3    H1 4633   5.561   3.788   0.894
 1564TIP3    H2 4634   5.598   3.648   0.936
 1565TIP3   OH2 4635   3.759   3.449   0.634
 1565TIP3    H1 4636   3.797   3.403   0.709
 1565TIP3    H2 4637   3.814   3.526   0.622
 1566TIP3   OH2 4638   3.643   6.203   1.023
 1566TIP3    H1 4639   3.690   6.243   1.096
 1566TIP3    H2 4640   3.557   6.182   1.059
 1567TIP3   OH2 4641   0.976   6.780   1.625
 1567TIP3    H1 4642   1.014   6.694   1.645
 1567TIP3    H2 4643   0.887   6.775   1.661
 1568TIP3   OH2 4644   7.231   4.490   6.331
 1568TIP3    H1 4645   7.238   4.512   6.238
 1568TIP3    H2 4646   7.149   4.532   6.360
 1569TIP3   OH2 4647   1.942   4.412   3.037
 1569TIP3    H1 4648   1.857   4.378   3.009
 1569TIP3    H2 4649   1.958   4.371   3.122
 1570TIP3   OH2 4650   0.417   2.633   6.689
 1570TIP3    H1 4651   0.332   2.651   6.649
 1570TIP3    H2 4652   0.476   2.698   6.651
 1571TIP3   OH2 4653   0.081   7.833   3.015
 1571TIP3    H1 4654   0.020   7.804   2.948
 1571TIP3    H2 4655   0.069   7.771   3.087
 1572TIP3   OH2 4656   3.713   1.817   0.030
 1572TIP3    H1 4657   3.654   1.831  -0.044
 1572TIP3    H2 4658   3.733   1.723   0.027
 1573TIP3   OH2 4659   5.043   7.721   6.186
 1573TIP3    H1 4660   5.109   7.733   6.117
 1573TIP3    H2 4661   5.067   7.786   6.253
 1574TIP3   OH2 4662   1.285   7.268   1.177
 1574TIP3    H1 4663   1.205   7.306   1.215
 1574TIP3    H2 4664   1.355   7.327   1.205
 1575TIP3   OH2 4665   3.009   6.233   5.993
 1575TIP3    H1 4666   3.005   6.144   6.027
 1575TIP3    H2 4667   2.958   6.230   5.912
 1576TIP3   OH2 4668   6.102   2.330   1.886
 1576TIP3    H1 4669   6.089   2.400   1.950
 1576TIP3    H2 4670   6.085   2.249   1.935
 1577TIP3   OH2 4671   4.553   3.225   1.524
 1577TIP3    H1 4672   4.585   3.148   1.476
 1577TIP3    H2 4673   4.584   3.300   1.473
 1578TIP3   OH2 4674   6.898   2.628   5.988
 1578TIP3    H1 4675   6.947   2.677   6.054
 1578TIP3    H2 4676   6.811   2.617   6.027
 1579TIP3   OH2 4677   1.990   1.796   4.900
 1579TIP3    H1 4678   2.068   1.761   4.945
 1579TIP3    H2 4679   1.956   1.863   4.961
 1580TIP3   OH2 4680   2.131   3.271   0.073
 1580TIP3    H1 4681   2.154   3.186   0.109
 1580TIP3    H2 4682   2.215   3.310   0.048
 1581TIP3   OH2 4683   0.562   2.784   4.260
 1581TIP3    H1 4684   0.483   2.838   4.253
 1581TIP3    H2 4685   0.585   2.764   4.169
 1582TIP3   OH2 4686   7.706   6.258   6.645
 1582TIP3    H1 4687   7.682   6.240   6.554
 1582TIP3    H2 4688   7.773   6.193   6.666
 1583TIP3   OH2 4689   0.550   1.712   2.534
 1583TIP3    H1 4690   0.496   1.638   2.563
 1583TIP3    H2 4691   0.571   1.759   2.615
 1584TIP3   OH2 4692   2.188   6.424   0.363
 1584TIP3    H1 4693   2.107   6.469   0.389
 1584TIP3    H2 4694   2.176   6.403   0.271
 1585TIP3   OH2 4695   0.136   3.491   0.818
 1585TIP3    H1 4696   0.097   3.465   0.734
 1585TIP3    H2 4697   0.106   3.581   0.831
 1586TIP3   OH2 4698   3.782   2.495   5.817
 1586TIP3    H1 4699   3.749   2.405   5.818
 1586TIP3    H2 4700   3.711   2.547   5.856
 1587TIP3   OH2 4701   6.686   3.519   0.830
 1587TIP3    H1 4702   6.636   3.601   0.832
 1587TIP3    H2 4703   6.707   3.502   0.921
 1588TIP3   OH2 4704   1.030   4.825   0.009
 1588TIP3    H1 4705   1.096   4.763   0.043
 1588TIP3    H2 4706   0.952   4.772  -0.003
 1589TIP3   OH2 4707   2.050   0.466   2.422
 1589TIP3    H1 4708   2.027   0.557   2.403
 1589TIP3    H2 4709   2.106   0.472   2.500
 1590TIP3   OH2 4710   2.401   1.377   5.023
 1590TIP3    H1 4711   2.387   1.465   4.989
 1590TIP3    H2 4712   2.467   1.388   5.091
 1591TIP3   OH2 4713   2.331   0.241   0.870
 1591TIP3    H1 4714   2.416   0.198   0.856
 1591TIP3    H2 4715   2.346   0.332   0.843
 1592TIP3   OH2 4716   0.510   4.990   1.829
 1592TIP3    H1 4717   0.583   4.951   1.781
 1592TIP3    H2 4718   0.431   4.954   1.788
 1593TIP3   OH2 4719   7.705   5.318   5.016
 1593TIP3    H1 4720   7.708   5.224   5.034
 1593TIP3    H2 4721   7.786   5.352   5.054
 1594TIP3   OH2 4722   0.951   7.348   0.335
 1594TIP3    H1 4723   0.925   7.439   0.320
 1594TIP3    H2 4724   0.930   7.333   0.427
 1595TIP3   OH2 4725   0.465   7.316   4.383
 1595TIP3    H1 4726   0.450   7.245   4.321
 1595TIP3    H2 4727   0.479   7.393   4.328
 1596TIP3   OH2 4728   1.069   7.181   6.554
 1596TIP3    H1 4729   1.123   7.222   6.487
 1596TIP3    H2 4730   1.059   7.090   6.524
 1597TIP3   OH2 4731   8.355   5.801   1.008
 1597TIP3    H1 4732   8.382   5.787   0.918
 1597TIP3    H2 4733   8.437   5.799   1.058
 1598TIP3   OH2 4734   3.855   1.000   3.707
 1598TIP3    H1 4735   3.787   0.983   3.771
 1598TIP3    H2 4736   3.933   1.020   3.759
 1599TIP3   OH2 4737   0.368   4.254   4.575
 1599TIP3    H1 4738   0.372   4.174   4.628
 1599TIP3    H2 4739   0.275   4.275   4.569
 1600TIP3   OH2 4740   0.423   6.678   6.742
 1600TIP3    H1 4741   0.483   6.684   6.668
 1600TIP3    H2 4742   0.478   6.648   6.815
 1601TIP3   OH2 4743   3.059   4.741   1.720
 1601TIP3    H1 4744   3.139   4.733   1.667
 1601TIP3    H2 4745   3.062   4.830   1.754
 1602TIP3   OH2 4746   1.336   4.593   5.319
 1602TIP3    H1 4747   1.289   4.676   5.331
 1602TIP3    H2 4748   1.267   4.530   5.298
 1603TIP3   OH2 4749   5.527   5.085   6.826
 1603TIP3    H1 4750   5.618   5.072   6.855
 1603TIP3    H2 4751   5.501   5.001   6.791
 1604TIP3   OH2 4752   5.713   3.791   0.101
 1604TIP3    H1 4753   5.663   3.864   0.138
 1604TIP3    H2 4754   5.647   3.733   0.065
 1605TIP3   OH2 4755   1.750   0.597   2.260
 1605TIP3    H1 4756   1.845   0.608   2.264
 1605TIP3    H2 4757   1.718   0.678   2.221
 1606TIP3   OH2 4758   0.628   6.513   1.670
 1606TIP3    H1 4759   0.535   6.514   1.695
 1606TIP3    H2 4760   0.659   6.602   1.688
 1607TIP3   OH2 4761   1.330   5.008   6.166
 1607TIP3    H1 4762   1.256   4.964   6.208
 1607TIP3    H2 4763   1.294   5.090   6.132
 1608TIP3   OH2 4764   5.700   4.611   3.163
 1608TIP3    H1 4765   5.780   4.564   3.139
 1608TIP3    H2 4766   5.677   4.662   3.086
 1609TIP3   OH2 4767   2.715   6.405   2.074
 1609TIP3    H1 4768   2.772   6.329   2.078
 1609TIP3    H2 4769   2.771   6.478   2.101
 1610TIP3   OH2 4770   5.472   4.284   5.808
 1610TIP3    H1 4771   5.532   4.346   5.849
 1610TIP3    H2 4772   5.388   4.329   5.806
 1611TIP3   OH2 4773   6.284   0.784   4.883
 1611TIP3    H1 4774   6.233   0.725   4.827
 1611TIP3    H2 4775   6.369   0.741   4.893
 1612TIP3   OH2 4776   3.499   4.462   1.769
 1612TIP3    H1 4777   3.449   4.467   1.850
 1612TIP3    H2 4778   3.493   4.550   1.732
 1613TIP3   OH2 4779   2.976   1.529   3.023
 1613TIP3    H1 4780   3.000   1.621   3.034
 1613TIP3    H2 4781   2.930   1.526   2.939
 1614TIP3   OH2 4782   0.890   7.289   3.844
 1614TIP3    H1 4783   0.934   7.297   3.759
 1614TIP3    H2 4784   0.945   7.339   3.904
 1615TIP3   OH2 4785   6.834   2.846   3.622
 1615TIP3    H1 4786   6.869   2.818   3.538
 1615TIP3    H2 4787   6.752   2.890   3.601
 1616TIP3   OH2 4788   3.245   5.468   4.229
 1616TIP3    H1 4789   3.309   5.459   4.159
 1616TIP3    H2 4790   3.282   5.419   4.303
 1617TIP3   OH2 4791   0.527   3.466   6.114
 1617TIP3    H1 4792   0.496   3.546   6.072
 1617TIP3    H2 4793   0.560   3.495   6.200
 1618TIP3   OH2 4794   6.554   4.069   2.772
 1618TIP3    H1 4795   6.622   4.044   2.835
 1618TIP3    H2 4796   6.483   4.006   2.787
 1619TIP3   OH2 4797   4.536   1.261   4.147
 1619TIP3    H1 4798   4.631   1.264   4.160
 1619TIP3    H2 4799   4.525   1.223   4.060
 1620TIP3   OH2 4800   0.491   5.587   6.015
 1620TIP3    H1 4801   0.440   5.621   6.089
 1620TIP3    H2 4802   0.550   5.659   5.992
 1621TIP3   OH2 4803   5.675   1.470   5.154
 1621TIP3    H1 4804   5.681   1.563   5.174
 1621TIP3    H2 4805   5.583   1.455   5.136
 1622TIP3   OH2 4806   7.135   5.629   3.199
 1622TIP3    H1 4807   7.204   5.679   3.156
 1622TIP3    H2 4808   7.067   5.620   3.133
 1623TIP3   OH2 4809   2.558   3.447   0.676
 1623TIP3    H1 4810   2.498   3.399   0.619
 1623TIP3    H2 4811   2.502   3.511   0.721
 1624TIP3   OH2 4812   4.558   7.700   0.656
 1624TIP3    H1 4813   4.537   7.715   0.748
 1624TIP3    H2 4814   4.497   7.756   0.608
 1625TIP3   OH2 4815   1.535   2.541   0.673
 1625TIP3    H1 4816   1.571   2.580   0.752
 1625TIP3    H2 4817   1.462   2.487   0.705
 1626TIP3   OH2 4818   5.014   1.923   1.053
 1626TIP3    H1 4819   5.060   1.927   1.137
 1626TIP3    H2 4820   5.016   1.831   1.029
 1627TIP3   OH2 4821   8.348   6.744   2.267
 1627TIP3    H1 4822   8.257   6.739   2.297
 1627TIP3    H2 4823   8.397   6.694   2.331
 1628TIP3   OH2 4824   0.226   3.927   6.459
 1628TIP3    H1 4825   0.149   3.919   6.402
 1628TIP3    H2 4826   0.270   3.842   6.451
 1629TIP3   OH2 4827   3.971   0.197   6.617
 1629TIP3    H1 4828   4.021   0.278   6.623
 1629TIP3    H2 4829   3.979   0.157   6.704
 1630TIP3   OH2 4830   4.541   4.726   5.115
 1630TIP3    H1 4831   4.515   4.644   5.157
 1630TIP3    H2 4832   4.484   4.732   5.038
 1631TIP3   OH2 4833   0.906   2.002   0.387
 1631TIP3    H1 4834   0.825   2.005   0.335
 1631TIP3    H2 4835   0.876   2.015   0.477
 1632TIP3   OH2 4836   1.083   7.754   4.937
 1632TIP3    H1 4837   1.075   7.680   4.997
 1632TIP3    H2 4838   1.159   7.732   4.883
 1633TIP3   OH2 4839   1.129   2.359   3.893
 1633TIP3    H1 4840   1.135   2.274   3.848
 1633TIP3    H2 4841   1.114   2.336   3.984
 1634TIP3   OH2 4842   1.488   3.860   4.588
 1634TIP3    H1 4843   1.395   3.837   4.583
 1634TIP3    H2 4844   1.505   3.871   4.682
 1635TIP3   OH2 4845   1.682   6.199   3.204
 1635TIP3    H1 4846   1.597   6.212   3.161
 1635TIP3    H2 4847   1.705   6.285   3.237
 1636TIP3   OH2 4848   8.135   3.101   6.461
 1636TIP3    H1 4849   8.188   3.030   6.497
 1636TIP3    H2 4850   8.160   3.105   6.369
 1637TIP3   OH2 4851   2.264   7.575   1.634
 1637TIP3    H1 4852   2.333   7.611   1.691
 1637TIP3    H2 4853   2.199   7.540   1.695
 1638TIP3   OH2 4854   1.877   5.772   1.400
 1638TIP3    H1 4855   1.854   5.839   1.336
 1638TIP3    H2 4856   1.792   5.736   1.428
 1639TIP3   OH2 4857   2.930   4.766   4.777
 1639TIP3    H1 4858   2.997   4.767   4.846
 1639TIP3    H2 4859   2.899   4.676   4.775
 1640TIP3   OH2 4860   4.839   3.114   6.249
 1640TIP3    H1 4861   4.782   3.085   6.177
 1640TIP3    H2 4862   4.780   3.158   6.310
 1641TIP3   OH2 4863   2.429   0.263   4.485
 1641TIP3    H1 4864   2.523   0.281   4.490
 1641TIP3    H2 4865   2.391   0.315   4.556
 1642TIP3   OH2 4866   6.342   7.768   0.757
 1642TIP3    H1 4867   6.338   7.800   0.667
 1642TIP3    H2 4868   6.391   7.835   0.804
 1643TIP3   OH2 4869   6.984   0.782   2.677
 1643TIP3    H1 4870   7.007   0.709   2.735
 1643TIP3    H2 4871   6.896   0.760   2.646
 1644TIP3   OH2 4872   4.142   3.102   2.877
 1644TIP3    H1 4873   4.182   3.128   2.960
 1644TIP3    H2 4874   4.191   3.149   2.810
 1645TIP3   OH2 4875   4.756   2.851   1.737
 1645TIP3    H1 4876   4.776   2.902   1.659
 1645TIP3    H2 4877   4.767   2.913   1.810
 1646TIP3   OH2 4878   1.652   5.013   2.549
 1646TIP3    H1 4879   1.708   5.048   2.480
 1646TIP3    H2 4880   1.593   4.953   2.503
 1647TIP3   OH2 4881   5.944   4.644   3.540
 1647TIP3    H1 4882   5.894   4.710   3.492
 1647TIP3    H2 4883   5.972   4.689   3.620
 1648TIP3   OH2 4884   4.110   6.757   0.476
 1648TIP3    H1 4885   4.189   6.707   0.499
 1648TIP3    H2 4886   4.138   6.815   0.406
 1649TIP3   OH2 4887   6.519   6.398   1.976
 1649TIP3    H1 4888   6.427   6.408   2.000
 1649TIP3    H2 4889   6.560   6.480   2.002
 1650TIP3   OH2 4890   1.049   4.394   3.676
 1650TIP3    H1 4891   1.106   4.371   3.603
 1650TIP3    H2 4892   1.096   4.463   3.723
 1651TIP3   OH2 4893   7.468   5.640   6.504
 1651TIP3    H1 4894   7.429   5.715   6.461
 1651TIP3    H2 4895   7.395   5.580   6.520
 1652TIP3   OH2 4896   2.378   3.432   2.014
 1652TIP3    H1 4897   2.339   3.405   1.931
 1652TIP3    H2 4898   2.401   3.350   2.058
 1653TIP3   OH2 4899   0.753   4.825   2.327
 1653TIP3    H1 4900   0.685   4.823   2.261
 1653TIP3    H2 4901   0.708   4.807   2.409
 1654TIP3   OH2 4902   7.545   4.676   3.073
 1654TIP3    H1 4903   7.634   4.673   3.107
 1654TIP3    H2 4904   7.494   4.622   3.134
 1655TIP3   OH2 4905   5.109   1.641   2.198
 1655TIP3    H1 4906   5.132   1.605   2.112
 1655TIP3    H2 4907   5.036   1.587   2.227
 1656TIP3   OH2 4908   1.094   0.485   4.985
 1656TIP3    H1 4909   1.150   0.434   4.927
 1656TIP3    H2 4910   1.027   0.522   4.928
 1657TIP3   OH2 4911   0.389   2.847   1.934
 1657TIP3    H1 4912   0.370   2.941   1.938
 1657TIP3    H2 4913   0.307   2.807   1.905
 1658TIP3   OH2 4914   2.483   2.708   2.472
 1658TIP3    H1 4915   2.510   2.742   2.557
 1658TIP3    H2 4916   2.554   2.732   2.412
 1659TIP3   OH2 4917   0.579   2.658   1.847
 1659TIP3    H1 4918   0.502   2.715   1.858
 1659TIP3    H2 4919   0.602   2.632   1.937
 1660TIP3   OH2 4920   6.325   5.164   0.056
 1660TIP3    H1 4921   6.377   5.242   0.075
 1660TIP3    H2 4922   6.248   5.173   0.112
 1661TIP3   OH2 4923   3.875   1.726   4.973
 1661TIP3    H1 4924   3.868   1.812   5.015
 1661TIP3    H2 4925   3.968   1.706   4.977
 1662TIP3   OH2 4926   5.285   1.484   4.628
 1662TIP3    H1 4927   5.297   1.555   4.565
 1662TIP3    H2 4928   5.348   1.417   4.601
 1663TIP3   OH2 4929   5.445   3.708   6.405
 1663TIP3    H1 4930   5.468   3.649   6.333
 1663TIP3    H2 4931   5.500   3.785   6.392
 1664TIP3   OH2 4932   0.978   6.375   4.134
 1664TIP3    H1 4933   1.026   6.292   4.141
 1664TIP3    H2 4934   0.979   6.396   4.041
 1665TIP3   OH2 4935   4.398   1.823   3.423
 1665TIP3    H1 4936   4.351   1.839   3.341
 1665TIP3    H2 4937   4.347   1.754   3.466
 1666TIP3   OH2 4938   3.021   6.626   1.575
 1666TIP3    H1 4939   2.998   6.579   1.655
 1666TIP3    H2 4940   2.965   6.704   1.575
 1667TIP3   OH2 4941   3.784   5.806   4.665
 1667TIP3    H1 4942   3.810   5.714   4.659
 1667TIP3    H2 4943   3.857   5.848   4.710
 1668TIP3   OH2 4944   2.325   6.780   6.280
 1668TIP3    H1 4945   2.264   6.845   6.243
 1668TIP3    H2 4946   2.321   6.795   6.375
 1669TIP3   OH2 4947   2.061   0.851   0.982
 1669TIP3    H1 4948   1.989   0.896   0.937
 1669TIP3    H2 4949   2.027   0.834   1.070
 1670TIP3   OH2 4950   7.641   7.445   2.190
 1670TIP3    H1 4951   7.597   7.391   2.124
 1670TIP3    H2 4952   7.725   7.467   2.149
 1671TIP3   OH2 4953   4.038   2.839   0.612
 1671TIP3    H1 4954   3.980   2.808   0.682
 1671TIP3    H2 4955   4.107   2.887   0.658
 1672TIP3   OH2 4956   7.724   4.516   0.076
 1672TIP3    H1 4957   7.771   4.444   0.118
 1672TIP3    H2 4958   7.778   4.594   0.094
 1673TIP3   OH2 4959   5.821   5.632   5.334
 1673TIP3    H1 4960   5.785   5.708   5.288
 1673TIP3    H2 4961   5.766   5.624   5.412
 1674TIP3   OH2 4962   8.217   6.901   2.628
 1674TIP3    H1 4963   8.241   6.809   2.641
 1674TIP3    H2 4964   8.229   6.942   2.713
 1675TIP3   OH2 4965   7.901   7.322   2.790
 1675TIP3    H1 4966   7.839   7.353   2.723
 1675TIP3    H2 4967   7.848   7.267   2.848
 1676TIP3   OH2 4968   0.776   0.028   0.548
 1676TIP3    H1 4969   0.690   0.066   0.567
 1676TIP3    H2 4970   0.785   0.034   0.453
 1677TIP3   OH2 4971   5.659   2.531   6.182
 1677TIP3    H1 4972   5.643   2.497   6.094
 1677TIP3    H2 4973   5.574   2.565   6.210
 1678TIP3   OH2 4974   2.953   2.040   6.128
 1678TIP3    H1 4975   2.970   1.986   6.206
 1678TIP3    H2 4976   2.891   2.106   6.158
 1679TIP3   OH2 4977   7.343   0.484   1.742
 1679TIP3    H1 4978   7.410   0.531   1.693
 1679TIP3    H2 4979   7.353   0.514   1.832
 1680TIP3   OH2 4980   5.819   0.780   4.925
 1680TIP3    H1 4981   5.846   0.849   4.985
 1680TIP3    H2 4982   5.732   0.805   4.896
 1681TIP3   OH2 4983   0.075   0.965   0.042
 1681TIP3    H1 4984   0.076   0.992  -0.049
 1681TIP3    H2 4985   0.165   0.937   0.060
 1682TIP3   OH2 4986   0.378   1.658   6.635
 1682TIP3    H1 4987   0.381   1.564   6.614
 1682TIP3    H2 4988   0.456   1.694   6.592
 1683TIP3   OH2 4989   0.088   1.499   4.381
 1683TIP3    H1 4990   0.030   1.575   4.379
 1683TIP3    H2 4991   0.075   1.461   4.468
 1684TIP3   OH2 4992   7.400   2.444   1.997
 1684TIP3    H1 4993   7.430   2.366   2.043
 1684TIP3    H2 4994   7.462   2.512   2.023
 1685TIP3   OH2 4995   1.084   6.448   1.296
 1685TIP3    H1 4996   1.024   6.522   1.287
 1685TIP3    H2 4997   1.153   6.464   1.232
 1686TIP3   OH2 4998   1.626   7.464   3.507
 1686TIP3    H1 4999   1.544   7.430   3.472
 1686TIP3    H2 5000   1.606   7.489   3.597
 1687TIP3   OH2 5001   0.954   4.408   4.318
 1687TIP3    H1 5002   0.902   4.405   4.237
 1687TIP3    H2 5003   0.891   4.389   4.388
 1688TIP3   OH2 5004   6.026   0.477   5.037
 1688TIP3    H1 5005   5.969   0.421   4.985
 1688TIP3    H2 5006   5.996   0.566   5.018
 1689TIP3   OH2 5007   3.757   5.987   0.616
 1689TIP3    H1 5008   3.783   5.903   0.579
 1689TIP3    H2 5009   3.822   6.049   0.583
 1690TIP3   OH2 5010   0.718   6.847   5.733
 1690TIP3    H1 5011   0.694   6.884   5.648
 1690TIP3    H2 5012   0.662   6.893   5.796
 1691TIP3   OH2 5013   0.174   7.507   4.218
 1691TIP3    H1 5014   0.248   7.528   4.161
 1691TIP3    H2 5015   0.174   7.576   4.284
 1692TIP3   OH2 5016   2.200   0.576   5.021
 1692TIP3    H1 5017   2.144   0.568   4.943
 1692TIP3    H2 5018   2.142   0.609   5.089
 1693TIP3   OH2 5019   5.840   4.200   2.585
 1693TIP3    H1 5020   5.748   4.226   2.590
 1693TIP3    H2 5021   5.864   4.214   2.493
 1694TIP3   OH2 5022   2.236   6.122   4.562
 1694TIP3    H1 5023   2.280   6.080   4.488
 1694TIP3    H2 5024   2.301   6.181   4.598
 1695TIP3   OH2 5025   5.215   2.494   4.707
 1695TIP3    H1 5026   5.166   2.412   4.705
 1695TIP3    H2 5027   5.159   2.554   4.757
 1696TIP3   OH2 5028   2.954   5.844   0.571
 1696TIP3    H1 5029   3.004   5.853   0.490
 1696TIP3    H2 5030   2.993   5.908   0.631
 1697TIP3   OH2 5031   5.375   0.398   2.357
 1697TIP3    H1 5032   5.321   0.368   2.284
 1697TIP3    H2 5033   5.350   0.341   2.430
 1698TIP3   OH2 5034   1.604   6.905   2.875
 1698TIP3    H1 5035   1.671   6.885   2.810
 1698TIP3    H2 5036   1.521   6.890   2.830
 1699TIP3   OH2 5037   2.817   4.909   3.521
 1699TIP3    H1 5038   2.887   4.852   3.551
 1699TIP3    H2 5039   2.807   4.888   3.428
 1700TIP3   OH2 5040   7.490   7.724   5.529
 1700TIP3    H1 5041   7.551   7.669   5.479
 1700TIP3    H2 5042   7.423   7.663   5.560
 1701TIP3   OH2 5043   4.457   6.783   0.628
 1701TIP3    H1 5044   4.487   6.873   0.637
 1701TIP3    H2 5045   4.475   6.760   0.537
 1702TIP3   OH2 5046   7.148   2.445   3.030
 1702TIP3    H1 5047   7.240   2.420   3.017
 1702TIP3    H2 5048   7.146   2.540   3.018
 1703TIP3   OH2 5049   1.206   5.858   3.140
 1703TIP3    H1 5050   1.216   5.785   3.078
 1703TIP3    H2 5051   1.225   5.936   3.089
 1704TIP3   OH2 5052   5.579   1.483   1.734
 1704TIP3    H1 5053   5.617   1.542   1.669
 1704TIP3    H2 5054   5.491   1.464   1.701
 1705TIP3   OH2 5055   6.116   6.357   0.270
 1705TIP3    H1 5056   6.054   6.336   0.200
 1705TIP3    H2 5057   6.162   6.275   0.287
 1706TIP3   OH2 5058   5.218   7.864   1.076
 1706TIP3    H1 5059   5.274   7.935   1.108
 1706TIP3    H2 5060   5.279   7.796   1.047
 1707TIP3   OH2 5061   2.289   7.430   1.169
 1707TIP3    H1 5062   2.364   7.441   1.110
 1707TIP3    H2 5063   2.232   7.368   1.123
 1708TIP3   OH2 5064   0.943   2.703   3.214
 1708TIP3    H1 5065   0.957   2.758   3.291
 1708TIP3    H2 5066   0.852   2.674   3.222
 1709TIP3   OH2 5067   4.327   0.365   0.489
 1709TIP3    H1 5068   4.320   0.449   0.533
 1709TIP3    H2 5069   4.378   0.383   0.410
 1710TIP3   OH2 5070   1.249   7.305   6.374
 1710TIP3    H1 5071   1.243   7.278   6.282
 1710TIP3    H2 5072   1.294   7.232   6.417
 1711TIP3   OH2 5073   5.339   6.491   4.629
 1711TIP3    H1 5074   5.378   6.491   4.542
 1711TIP3    H2 5075   5.300   6.578   4.638
 1712TIP3   OH2 5076   3.126   2.390   3.102
 1712TIP3    H1 5077   3.114   2.481   3.077
 1712TIP3    H2 5078   3.051   2.370   3.158
 1713TIP3   OH2 5079   7.569   7.655   0.974
 1713TIP3    H1 5080   7.561   7.721   1.043
 1713TIP3    H2 5081   7.480   7.647   0.938
 1714TIP3   OH2 5082   6.585   5.964   1.021
 1714TIP3    H1 5083   6.630   6.018   1.087
 1714TIP3    H2 5084   6.630   5.880   1.025
 1715TIP3   OH2 5085   2.623   3.035   3.181
 1715TIP3    H1 5086   2.615   3.102   3.249
 1715TIP3    H2 5087   2.712   3.046   3.148
 1716TIP3   OH2 5088   0.167   0.292   1.870
 1716TIP3    H1 5089   0.136   0.288   1.779
 1716TIP3    H2 5090   0.135   0.211   1.909
 1717TIP3   OH2 5091   6.598   0.663   6.272
 1717TIP3    H1 5092   6.609   0.752   6.239
 1717TIP3    H2 5093   6.518   0.666   6.325
 1718TIP3   OH2 5094   1.781   1.213   1.082
 1718TIP3    H1 5095   1.757   1.290   1.030
 1718TIP3    H2 5096   1.763   1.239   1.173
 1719TIP3   OH2 5097   5.890   7.810   4.121
 1719TIP3    H1 5098   5.798   7.833   4.132
 1719TIP3    H2 5099   5.888   7.726   4.075
 1720TIP3   OH2 5100   0.115   6.910   1.603
 1720TIP3    H1 5101   0.205   6.904   1.635
 1720TIP3    H2 5102   0.068   6.955   1.672
 1721TIP3   OH2 5103   3.426   6.661   4.209
 1721TIP3    H1 5104   3.463   6.741   4.246
 1721TIP3    H2 5105   3.465   6.590   4.260
 1722TIP3   OH2 5106   7.307   3.669   2.610
 1722TIP3    H1 5107   7.252   3.633   2.680
 1722TIP3    H2 5108   7.248   3.725   2.560
 1723TIP3   OH2 5109   8.074   1.302   2.894
 1723TIP3    H1 5110   7.994   1.335   2.936
 1723TIP3    H2 5111   8.078   1.210   2.921
 1724TIP3   OH2 5112   3.928   3.581   5.332
 1724TIP3    H1 5113   3.996   3.644   5.356
 1724TIP3    H2 5114   3.846   3.624   5.356
 1725TIP3   OH2 5115   6.824   6.063   2.476
 1725TIP3    H1 5116   6.905   6.083   2.523
 1725TIP3    H2 5117   6.756   6.067   2.543
 1726TIP3   OH2 5118   8.391   6.397   4.113
 1726TIP3    H1 5119   8.399   6.375   4.205
 1726TIP3    H2 5120   8.300   6.379   4.092
 1727TIP3   OH2 5121   1.588   7.164   0.452
 1727TIP3    H1 5122   1.668   7.115   0.433
 1727TIP3    H2 5123   1.578   7.223   0.377
 1728TIP3   OH2 5124   6.169   6.014   1.965
 1728TIP3    H1 5125   6.173   5.919   1.968
 1728TIP3    H2 5126   6.201   6.042   2.051
 1729TIP3   OH2 5127   0.238   0.686   1.403
 1729TIP3    H1 5128   0.175   0.642   1.460
 1729TIP3    H2 5129   0.204   0.775   1.393
 1730TIP3   OH2 5130   7.671   0.507   5.945
 1730TIP3    H1 5131   7.730   0.583   5.943
 1730TIP3    H2 5132   7.684   0.469   6.031
 1731TIP3   OH2 5133   5.770   4.651   2.380
 1731TIP3    H1 5134   5.826   4.592   2.431
 1731TIP3    H2 5135   5.769   4.732   2.431
 1732TIP3   OH2 5136   4.834   0.153   4.713
 1732TIP3    H1 5137   4.739   0.138   4.713
 1732TIP3    H2 5138   4.845   0.233   4.661
 1733TIP3   OH2 5139   6.716   6.377   3.440
 1733TIP3    H1 5140   6.647   6.415   3.495
 1733TIP3    H2 5141   6.676   6.298   3.404
 1734TIP3   OH2 5142   4.844   5.603   3.174
 1734TIP3    H1 5143   4.867   5.577   3.085
 1734TIP3    H2 5144   4.836   5.521   3.222
 1735TIP3   OH2 5145   6.266   7.322   5.003
 1735TIP3    H1 5146   6.336   7.381   5.030
 1735TIP3    H2 5147   6.186   7.362   5.037
 1736TIP3   OH2 5148   7.930   2.464   2.221
 1736TIP3    H1 5149   7.859   2.417   2.265
 1736TIP3    H2 5150   7.964   2.523   2.288
 1737TIP3   OH2 5151   0.134   0.558   6.055
 1737TIP3    H1 5152   0.146   0.587   5.964
 1737TIP3    H2 5153   0.056   0.502   6.052
 1738TIP3   OH2 5154   0.673   5.840   1.686
 1738TIP3    H1 5155   0.709   5.755   1.659
 1738TIP3    H2 5156   0.734   5.872   1.752
 1739TIP3   OH2 5157   6.981   1.143   3.186
 1739TIP3    H1 5158   7.033   1.111   3.259
 1739TIP3    H2 5159   6.896   1.164   3.225
 1740TIP3   OH2 5160   0.595   1.530   5.549
 1740TIP3    H1 5161   0.537   1.454   5.536
 1740TIP3    H2 5162   0.657   1.501   5.616
 1741TIP3   OH2 5163   5.368   5.733   2.271
 1741TIP3    H1 5164   5.387   5.664   2.335
 1741TIP3    H2 5165   5.454   5.769   2.248
 1742TIP3   OH2 5166   6.052   5.564   5.928
 1742TIP3    H1 5167   5.974   5.514   5.902
 1742TIP3    H2 5168   6.121   5.534   5.869
 1743TIP3   OH2 5169   2.228   2.872   5.597
 1743TIP3    H1 5170   2.191   2.805   5.654
 1743TIP3    H2 5171   2.188   2.857   5.512
 1744TIP3   OH2 5172   4.010   6.226   5.737
 1744TIP3    H1 5173   4.077   6.210   5.671
 1744TIP3    H2 5174   4.038   6.174   5.813
 1745TIP3   OH2 5175   7.691   0.845   5.554
 1745TIP3    H1 5176   7.662   0.766   5.600
 1745TIP3    H2 5177   7.741   0.812   5.480
 1746TIP3   OH2 5178   7.588   0.497   2.899
 1746TIP3    H1 5179   7.665   0.494   2.842
 1746TIP3    H2 5180   7.552   0.585   2.886
 1747TIP3   OH2 5181   1.314   2.795   3.026
 1747TIP3    H1 5182   1.358   2.749   2.954
 1747TIP3    H2 5183   1.221   2.789   3.004
 1748TIP3   OH2 5184   2.409   1.527   3.607
 1748TIP3    H1 5185   2.489   1.554   3.561
 1748TIP3    H2 5186   2.342   1.588   3.574
 1749TIP3   OH2 5187   4.752   3.951   5.040
 1749TIP3    H1 5188   4.819   3.975   5.104
 1749TIP3    H2 5189   4.693   3.893   5.088
 1750TIP3   OH2 5190   3.017   2.929   2.381
 1750TIP3    H1 5191   3.056   2.844   2.399
 1750TIP3    H2 5192   3.076   2.992   2.423
 1751TIP3   OH2 5193   4.320   7.270   0.533
 1751TIP3    H1 5194   4.292   7.192   0.582
 1751TIP3    H2 5195   4.413   7.256   0.517
 1752TIP3   OH2 5196   4.867   5.596   0.733
 1752TIP3    H1 5197   4.896   5.582   0.643
 1752TIP3    H2 5198   4.836   5.687   0.735
 1753TIP3   OH2 5199   7.036   6.416   5.763
 1753TIP3    H1 5200   7.124   6.422   5.799
 1753TIP3    H2 5201   7.014   6.323   5.769
 1754TIP3   OH2 5202   1.536   1.968   0.402
 1754TIP3    H1 5203   1.472   2.039   0.395
 1754TIP3    H2 5204   1.484   1.888   0.392
 1755TIP3   OH2 5205   5.176   6.936   4.790
 1755TIP3    H1 5206   5.195   6.998   4.720
 1755TIP3    H2 5207   5.082   6.946   4.805
 1756TIP3   OH2 5208   5.744   6.106   0.836
 1756TIP3    H1 5209   5.742   6.111   0.931
 1756TIP3    H2 5210   5.797   6.029   0.816
 1757TIP3   OH2 5211   8.284   1.166   1.302
 1757TIP3    H1 5212   8.205   1.208   1.270
 1757TIP3    H2 5213   8.356   1.213   1.259
 1758TIP3   OH2 5214   2.933   7.563   1.464
 1758TIP3    H1 5215   2.926   7.580   1.370
 1758TIP3    H2 5216   2.871   7.625   1.504
 1759TIP3   OH2 5217   6.333   6.419   2.398
 1759TIP3    H1 5218   6.365   6.508   2.385
 1759TIP3    H2 5219   6.291   6.396   2.315
 1760TIP3   OH2 5220   1.903   1.305   2.854
 1760TIP3    H1 5221   1.873   1.363   2.924
 1760TIP3    H2 5222   1.885   1.217   2.887
 1761TIP3   OH2 5223   0.506   7.872   6.821
 1761TIP3    H1 5224   0.441   7.941   6.830
 1761TIP3    H2 5225   0.483   7.808   6.888
 1762TIP3   OH2 5226   8.355   6.316   2.884
 1762TIP3    H1 5227   8.432   6.365   2.913
 1762TIP3    H2 5228   8.359   6.234   2.933
 1763TIP3   OH2 5229   6.330   2.917   6.651
 1763TIP3    H1 5230   6.243   2.917   6.610
 1763TIP3    H2 5231   6.313   2.896   6.743
 1764TIP3   OH2 5232   3.216   4.473   5.333
 1764TIP3    H1 5233   3.192   4.538   5.267
 1764TIP3    H2 5234   3.149   4.405   5.326
 1765TIP3   OH2 5235   4.236   4.452   0.773
 1765TIP3    H1 5236   4.330   4.450   0.756
 1765TIP3    H2 5237   4.197   4.454   0.686
 1766TIP3   OH2 5238   3.430   2.513   2.357
 1766TIP3    H1 5239   3.350   2.506   2.410
 1766TIP3    H2 5240   3.465   2.600   2.378
 1767TIP3   OH2 5241   0.180   7.346   4.589
 1767TIP3    H1 5242   0.137   7.340   4.504
 1767TIP3    H2 5243   0.147   7.427   4.627
 1768TIP3   OH2 5244   0.890   7.899   3.434
 1768TIP3    H1 5245   0.980   7.867   3.437
 1768TIP3    H2 5246   0.867   7.899   3.342
 1769TIP3   OH2 5247   5.752   5.597   4.000
 1769TIP3    H1 5248   5.800   5.678   4.017
 1769TIP3    H2 5249   5.739   5.559   4.087
 1770TIP3   OH2 5250   4.605   0.140   0.112
 1770TIP3    H1 5251   4.675   0.161   0.049
 1770TIP3    H2 5252   4.585   0.048   0.095
 1771TIP3   OH2 5253   7.890   0.039   3.484
 1771TIP3    H1 5254   7.938   0.053   3.566
 1771TIP3    H2 5255   7.909   0.117   3.431
 1772TIP3   OH2 5256   1.671   1.822   1.433
 1772TIP3    H1 5257   1.707   1.776   1.509
 1772TIP3    H2 5258   1.744   1.875   1.402
 1773TIP3   OH2 5259   3.513   0.623   2.050
 1773TIP3    H1 5260   3.418   0.619   2.039
 1773TIP3    H2 5261   3.549   0.608   1.963
 1774TIP3   OH2 5262   3.244   4.263   6.485
 1774TIP3    H1 5263   3.267   4.171   6.476
 1774TIP3    H2 5264   3.264   4.302   6.400
 1775TIP3   OH2 5265   2.446   4.400   0.238
 1775TIP3    H1 5266   2.395   4.425   0.161
 1775TIP3    H2 5267   2.401   4.323   0.272
 1776TIP3   OH2 5268   1.513   1.774   5.478
 1776TIP3    H1 5269   1.459   1.782   5.557
 1776TIP3    H2 5270   1.503   1.683   5.451
 1777TIP3   OH2 5271   6.053   5.650   3.698
 1777TIP3    H1 5272   6.087   5.568   3.733
 1777TIP3    H2 5273   5.968   5.626   3.659
 1778TIP3   OH2 5274   3.296   3.785   4.754
 1778TIP3    H1 5275   3.386   3.790   4.787
 1778TIP3    H2 5276   3.298   3.832   4.671
 1779TIP3   OH2 5277   6.627   1.404   4.638
 1779TIP3    H1 5278   6.532   1.396   4.646
 1779TIP3    H2 5279   6.644   1.395   4.545
 1780TIP3   OH2 5280   0.032   5.379   5.325
 1780TIP3    H1 5281  -0.036   5.440   5.353
 1780TIP3    H2 5282  -0.017   5.304   5.291
 1781TIP3   OH2 5283   8.179   0.809   4.068
 1781TIP3    H1 5284   8.236   0.837   3.996
 1781TIP3    H2 5285   8.202   0.868   4.140
 1782TIP3   OH2 5286   5.898   7.816   2.314
 1782TIP3    H1 5287   5.861   7.728   2.318
 1782TIP3    H2 5288   5.917   7.829   2.221
 1783TIP3   OH2 5289   6.104   2.405   6.056
 1783TIP3    H1 5290   6.104   2.353   6.136
 1783TIP3    H2 5291   6.065   2.488   6.082
 1784TIP3   OH2 5292   7.552   0.507   0.515
 1784TIP3    H1 5293   7.590   0.440   0.459
 1784TIP3    H2 5294   7.612   0.581   0.509
 1785TIP3   OH2 5295   2.938   0.254   6.312
 1785TIP3    H1 5296   2.926   0.339   6.269
 1785TIP3    H2 5297   2.978   0.199   6.244
 1786TIP3   OH2 5298   3.740   4.654   0.031
 1786TIP3    H1 5299   3.816   4.689   0.077
 1786TIP3    H2 5300   3.695   4.731  -0.003
 1787TIP3   OH2 5301   3.390   6.321   4.145
 1787TIP3    H1 5302   3.356   6.364   4.066
 1787TIP3    H2 5303   3.378   6.228   4.128
 1788TIP3   OH2 5304   7.380   6.448   4.937
 1788TIP3    H1 5305   7.369   6.536   4.902
 1788TIP3    H2 5306   7.386   6.461   5.032
 1789TIP3   OH2 5307   1.457   1.562   0.753
 1789TIP3    H1 5308   1.395   1.633   0.738
 1789TIP3    H2 5309   1.543   1.605   0.750
 1790TIP3   OH2 5310   4.267   4.175   6.317
 1790TIP3    H1 5311   4.223   4.145   6.396
 1790TIP3    H2 5312   4.294   4.095   6.273
 1791TIP3   OH2 5313   6.928   2.029   5.999
 1791TIP3    H1 5314   6.995   2.091   5.970
 1791TIP3    H2 5315   6.960   1.997   6.083
 1792TIP3   OH2 5316   6.106   5.952   1.565
 1792TIP3    H1 5317   6.093   6.010   1.640
 1792TIP3    H2 5318   6.081   6.004   1.489
 1793TIP3   OH2 5319   1.433   7.825   6.751
 1793TIP3    H1 5320   1.527   7.829   6.768
 1793TIP3    H2 5321   1.407   7.737   6.777
 1794TIP3   OH2 5322   4.585   4.470   3.628
 1794TIP3    H1 5323   4.554   4.459   3.538
 1794TIP3    H2 5324   4.521   4.527   3.669
 1795TIP3   OH2 5325   1.998   1.756   6.584
 1795TIP3    H1 5326   1.947   1.675   6.579
 1795TIP3    H2 5327   1.936   1.821   6.616
 1796TIP3   OH2 5328   2.395   5.432   0.647
 1796TIP3    H1 5329   2.374   5.338   0.653
 1796TIP3    H2 5330   2.312   5.474   0.625
 1797TIP3   OH2 5331   8.213   0.770   3.151
 1797TIP3    H1 5332   8.154   0.777   3.077
 1797TIP3    H2 5333   8.232   0.861   3.175
 1798TIP3   OH2 5334   6.920   0.268   0.427
 1798TIP3    H1 5335   6.977   0.318   0.486
 1798TIP3    H2 5336   6.981   0.213   0.377
 1799TIP3   OH2 5337   1.724   6.196   0.009
 1799TIP3    H1 5338   1.630   6.177   0.001
 1799TIP3    H2 5339   1.758   6.189  -0.080
 1800TIP3   OH2 5340   7.618   1.500   6.793
 1800TIP3    H1 5341   7.532   1.459   6.802
 1800TIP3    H2 5342   7.659   1.487   6.878
 1801TIP3   OH2 5343   2.951   1.779   5.986
 1801TIP3    H1 5344   2.881   1.842   5.970
 1801TIP3    H2 5345   2.981   1.798   6.075
 1802TIP3   OH2 5346   5.385   6.715   6.011
 1802TIP3    H1 5347   5.305   6.737   6.059
 1802TIP3    H2 5348   5.422   6.640   6.057
 1803TIP3   OH2 5349   4.937   7.415   2.645
 1803TIP3    H1 5350   4.903   7.493   2.600
 1803TIP3    H2 5351   5.015   7.446   2.691
 1804TIP3   OH2 5352   1.915   3.633   1.251
 1804TIP3    H1 5353   2.002   3.597   1.237
 1804TIP3    H2 5354   1.856   3.569   1.211
 1805TIP3   OH2 5355   4.252   3.183   3.128
 1805TIP3    H1 5356   4.343   3.183   3.158
 1805TIP3    H2 5357   4.240   3.269   3.089
 1806TIP3   OH2 5358   7.020   6.073   5.427
 1806TIP3    H1 5359   7.068   6.095   5.347
 1806TIP3    H2 5360   6.931   6.102   5.410
 1807TIP3   OH2 5361   2.452   5.717   2.996
 1807TIP3    H1 5362   2.416   5.806   3.004
 1807TIP3    H2 5363   2.546   5.728   3.013
 1808TIP3   OH2 5364   7.349   0.044   5.955
 1808TIP3    H1 5365   7.334   0.043   6.050
 1808TIP3    H2 5366   7.316  -0.041   5.925
 1809TIP3   OH2 5367   3.477   2.563   0.298
 1809TIP3    H1 5368   3.533   2.605   0.233
 1809TIP3    H2 5369   3.479   2.470   0.275
 1810TIP3   OH2 5370   2.463   2.531   5.331
 1810TIP3    H1 5371   2.530   2.590   5.366
 1810TIP3    H2 5372   2.416   2.500   5.408
 1811TIP3   OH2 5373   5.467   1.088   1.639
 1811TIP3    H1 5374   5.534   1.099   1.707
 1811TIP3    H2 5375   5.497   1.144   1.568
 1812TIP3   OH2 5376   5.708   0.563   6.844
 1812TIP3    H1 5377   5.776   0.516   6.796
 1812TIP3    H2 5378   5.695   0.643   6.793
 1813TIP3   OH2 5379   6.963   1.663   0.742
 1813TIP3    H1 5380   7.035   1.612   0.779
 1813TIP3    H2 5381   6.920   1.702   0.818
 1814TIP3   OH2 5382   1.790   5.141   6.642
 1814TIP3    H1 5383   1.771   5.190   6.561
 1814TIP3    H2 5384   1.712   5.154   6.696
 1815TIP3   OH2 5385   7.432   2.295   2.447
 1815TIP3    H1 5386   7.455   2.382   2.480
 1815TIP3    H2 5387   7.470   2.235   2.511
 1816TIP3   OH2 5388   5.472   0.364   6.617
 1816TIP3    H1 5389   5.480   0.346   6.523
 1816TIP3    H2 5390   5.533   0.304   6.658
 1817TIP3   OH2 5391   1.920   5.483   3.680
 1817TIP3    H1 5392   1.916   5.406   3.736
 1817TIP3    H2 5393   1.960   5.550   3.735
 1818TIP3   OH2 5394   5.717   2.369   3.148
 1818TIP3    H1 5395   5.736   2.275   3.148
 1818TIP3    H2 5396   5.799   2.410   3.176
 1819TIP3   OH2 5397   6.116   0.918   1.108
 1819TIP3    H1 5398   6.071   0.953   1.031
 1819TIP3    H2 5399   6.063   0.842   1.133
 1820TIP3   OH2 5400   6.422   1.905   4.775
 1820TIP3    H1 5401   6.436   1.839   4.843
 1820TIP3    H2 5402   6.343   1.876   4.730
 1821TIP3   OH2 5403   4.135   4.498   1.523
 1821TIP3    H1 5404   4.226   4.486   1.549
 1821TIP3    H2 5405   4.095   4.412   1.536
 1822TIP3   OH2 5406   6.437   0.153   6.183
 1822TIP3    H1 5407   6.362   0.135   6.240
 1822TIP3    H2 5408   6.481   0.069   6.172
 1823TIP3   OH2 5409   4.396   3.072   2.186
 1823TIP3    H1 5410   4.374   3.119   2.106
 1823TIP3    H2 5411   4.312   3.058   2.229
 1824TIP3   OH2 5412   2.872   1.878   0.137
 1824TIP3    H1 5413   2.957   1.908   0.170
 1824TIP3    H2 5414   2.823   1.959   0.121
 1825TIP3   OH2 5415   1.870   0.073   0.205
 1825TIP3    H1 5416   1.798   0.013   0.224
 1825TIP3    H2 5417   1.935   0.056   0.273
 1826TIP3   OH2 5418   5.723   5.178   0.897
 1826TIP3    H1 5419   5.811   5.207   0.921
 1826TIP3    H2 5420   5.718   5.087   0.928
 1827TIP3   OH2 5421   3.926   6.572   0.955
 1827TIP3    H1 5422   3.891   6.513   0.889
 1827TIP3    H2 5423   3.853   6.587   1.015
 1828TIP3   OH2 5424   1.954   5.968   6.672
 1828TIP3    H1 5425   1.863   5.938   6.682
 1828TIP3    H2 5426   1.992   5.958   6.759
 1829TIP3   OH2 5427   5.484   0.936   6.538
 1829TIP3    H1 5428   5.485   0.879   6.461
 1829TIP3    H2 5429   5.536   0.890   6.603
 1830TIP3   OH2 5430   5.634   5.897   2.342
 1830TIP3    H1 5431   5.624   5.935   2.254
 1830TIP3    H2 5432   5.724   5.865   2.343
 1831TIP3   OH2 5433   0.613   7.494   5.413
 1831TIP3    H1 5434   0.575   7.582   5.416
 1831TIP3    H2 5435   0.560   7.443   5.475
 1832TIP3   OH2 5436   5.365   6.769   4.666
 1832TIP3    H1 5437   5.384   6.818   4.586
 1832TIP3    H2 5438   5.332   6.835   4.728
 1833TIP3   OH2 5439   2.180   5.964   5.913
 1833TIP3    H1 5440   2.153   6.006   5.994
 1833TIP3    H2 5441   2.099   5.943   5.867
 1834TIP3   OH2 5442   6.826   7.450   3.176
 1834TIP3    H1 5443   6.886   7.448   3.250
 1834TIP3    H2 5444   6.744   7.484   3.212
 1835TIP3   OH2 5445   5.496   0.321   0.973
 1835TIP3    H1 5446   5.494   0.388   1.042
 1835TIP3    H2 5447   5.551   0.251   1.008
 1836TIP3   OH2 5448   1.698   7.068   5.199
 1836TIP3    H1 5449   1.606   7.047   5.217
 1836TIP3    H2 5450   1.714   7.149   5.247
 1837TIP3   OH2 5451   1.966   7.776   0.278
 1837TIP3    H1 5452   1.976   7.682   0.293
 1837TIP3    H2 5453   1.995   7.817   0.360
 1838TIP3   OH2 5454   8.156   6.795   5.481
 1838TIP3    H1 5455   8.220   6.727   5.501
 1838TIP3    H2 5456   8.187   6.833   5.399
 1839TIP3   OH2 5457   3.985   3.468   6.852
 1839TIP3    H1 5458   4.039   3.416   6.791
 1839TIP3    H2 5459   3.922   3.512   6.796
 1840TIP3   OH2 5460   7.258   5.339   2.318
 1840TIP3    H1 5461   7.257   5.254   2.362
 1840TIP3    H2 5462   7.212   5.398   2.378
 1841TIP3   OH2 5463   2.681   3.462   0.962
 1841TIP3    H1 5464   2.614   3.418   0.909
 1841TIP3    H2 5465   2.760   3.409   0.949
 1842TIP3   OH2 5466   3.703   0.074   5.448
 1842TIP3    H1 5467   3.688   0.091   5.355
 1842TIP3    H2 5468   3.629   0.115   5.492
 1843TIP3   OH2 5469   5.418   3.834   6.679
 1843TIP3    H1 5470   5.344   3.781   6.709
 1843TIP3    H2 5471   5.459   3.783   6.610
 1844TIP3   OH2 5472   4.142   1.217   3.114
 1844TIP3    H1 5473   4.196   1.250   3.042
 1844TIP3    H2 5474   4.063   1.184   3.071
 1845TIP3   OH2 5475   3.481   1.432   6.473
 1845TIP3    H1 5476   3.477   1.351   6.524
 1845TIP3    H2 5477   3.451   1.407   6.386
 1846TIP3   OH2 5478   0.924   5.448   6.728
 1846TIP3    H1 5479   0.982   5.520   6.752
 1846TIP3    H2 5480   0.929   5.444   6.632
 1847TIP3   OH2 5481   5.806   0.328   1.555
 1847TIP3    H1 5482   5.819   0.413   1.597
 1847TIP3    H2 5483   5.891   0.285   1.560
 1848TIP3   OH2 5484   2.196   6.680   5.717
 1848TIP3    H1 5485   2.138   6.637   5.654
 1848TIP3    H2 5486   2.139   6.701   5.792
 1849TIP3   OH2 5487   1.223   0.419   4.756
 1849TIP3    H1 5488   1.234   0.333   4.716
 1849TIP3    H2 5489   1.268   0.479   4.696
 1850TIP3   OH2 5490   8.010   4.510   3.834
 1850TIP3    H1 5491   8.048   4.422   3.844
 1850TIP3    H2 5492   8.085   4.566   3.814
 1851TIP3   OH2 5493   6.309   6.314   5.750
 1851TIP3    H1 5494   6.379   6.259   5.714
 1851TIP3    H2 5495   6.355   6.390   5.786
 1852TIP3   OH2 5496   1.812   3.585   3.680
 1852TIP3    H1 5497   1.854   3.668   3.699
 1852TIP3    H2 5498   1.850   3.558   3.596
 1853TIP3   OH2 5499   7.414   1.745   2.076
 1853TIP3    H1 5500   7.485   1.687   2.050
 1853TIP3    H2 5501   7.411   1.811   2.006
 1854TIP3   OH2 5502   8.230   5.100   1.143
 1854TIP3    H1 5503   8.216   5.035   1.073
 1854TIP3    H2 5504   8.202   5.183   1.104
 1855TIP3   OH2 5505   5.411   7.140   4.985
 1855TIP3    H1 5506   5.449   7.075   4.925
 1855TIP3    H2 5507   5.409   7.095   5.069
 1856TIP3   OH2 5508   3.442   2.860   0.805
 1856TIP3    H1 5509   3.386   2.812   0.744
 1856TIP3    H2 5510   3.385   2.928   0.841
 1857TIP3   OH2 5511   0.614   6.536   0.058
 1857TIP3    H1 5512   0.662   6.481  -0.003
 1857TIP3    H2 5513   0.679   6.597   0.093
 1858TIP3   OH2 5514   4.407   1.016   5.304
 1858TIP3    H1 5515   4.355   0.987   5.378
 1858TIP3    H2 5516   4.497   0.997   5.329
 1859TIP3   OH2 5517   6.900   6.682   0.083
 1859TIP3    H1 5518   6.834   6.664   0.151
 1859TIP3    H2 5519   6.858   6.653   0.002
 1860TIP3   OH2 5520   0.192   3.368   4.602
 1860TIP3    H1 5521   0.121   3.322   4.647
 1860TIP3    H2 5522   0.177   3.460   4.621
 1861TIP3   OH2 5523   2.978   6.436   2.649
 1861TIP3    H1 5524   3.016   6.361   2.603
 1861TIP3    H2 5525   2.905   6.464   2.593
 1862TIP3   OH2 5526   8.065   5.871   2.499
 1862TIP3    H1 5527   7.992   5.872   2.438
 1862TIP3    H2 5528   8.143   5.878   2.444
 1863TIP3   OH2 5529   2.188   4.515   4.450
 1863TIP3    H1 5530   2.142   4.465   4.382
 1863TIP3    H2 5531   2.276   4.477   4.452
 1864TIP3   OH2 5532   7.819   5.620   0.253
 1864TIP3    H1 5533   7.741   5.664   0.220
 1864TIP3    H2 5534   7.802   5.527   0.238
 1865TIP3   OH2 5535   3.338   2.223   5.611
 1865TIP3    H1 5536   3.337   2.257   5.700
 1865TIP3    H2 5537   3.298   2.293   5.559
 1866TIP3   OH2 5538   6.999   0.931   1.185
 1866TIP3    H1 5539   7.011   0.965   1.274
 1866TIP3    H2 5540   6.930   0.985   1.148
 1867TIP3   OH2 5541   6.513   3.620   0.551
 1867TIP3    H1 5542   6.545   3.535   0.520
 1867TIP3    H2 5543   6.586   3.680   0.538
 1868TIP3   OH2 5544   1.108   2.685   2.475
 1868TIP3    H1 5545   1.083   2.625   2.544
 1868TIP3    H2 5546   1.142   2.629   2.405
 1869TIP3   OH2 5547   7.724   1.278   1.449
 1869TIP3    H1 5548   7.716   1.361   1.496
 1869TIP3    H2 5549   7.684   1.295   1.363
 1870TIP3   OH2 5550   3.187   3.170   3.923
 1870TIP3    H1 5551   3.217   3.140   3.837
 1870TIP3    H2 5552   3.208   3.097   3.982
 1871TIP3   OH2 5553   5.633   0.654   2.483
 1871TIP3    H1 5554   5.703   0.622   2.427
 1871TIP3    H2 5555   5.559   0.667   2.424
 1872TIP3   OH2 5556   5.606   3.622   3.221
 1872TIP3    H1 5557   5.700   3.603   3.229
 1872TIP3    H2 5558   5.588   3.613   3.128
 1873TIP3   OH2 5559   7.346   6.015   3.450
 1873TIP3    H1 5560   7.432   5.975   3.436
 1873TIP3    H2 5561   7.304   6.013   3.364
 1874TIP3   OH2 5562   1.627   0.961   1.738
 1874TIP3    H1 5563   1.592   1.047   1.761
 1874TIP3    H2 5564   1.709   0.979   1.692
 1875TIP3   OH2 5565   0.799   2.045   0.626
 1875TIP3    H1 5566   0.714   2.089   0.631
 1875TIP3    H2 5567   0.793   1.975   0.692
 1876TIP3   OH2 5568   5.686   3.918   4.863
 1876TIP3    H1 5569   5.613   3.861   4.842
 1876TIP3    H2 5570   5.763   3.871   4.832
 1877TIP3   OH2 5571   7.110   7.699   6.134
 1877TIP3    H1 5572   7.101   7.686   6.039
 1877TIP3    H2 5573   7.179   7.638   6.160
 1878TIP3   OH2 5574   6.476   6.261   0.845
 1878TIP3    H1 5575   6.439   6.289   0.761
 1878TIP3    H2 5576   6.486   6.343   0.894
 1879TIP3   OH2 5577   3.968   5.645   5.099
 1879TIP3    H1 5578   4.051   5.627   5.143
 1879TIP3    H2 5579   3.939   5.729   5.134
 1880TIP3   OH2 5580   3.471   1.584   2.570
 1880TIP3    H1 5581   3.449   1.551   2.483
 1880TIP3    H2 5582   3.404   1.548   2.628
 1881TIP3   OH2 5583   6.689   4.694   1.859
 1881TIP3    H1 5584   6.595   4.681   1.858
 1881TIP3    H2 5585   6.726   4.614   1.822
 1882TIP3   OH2 5586   1.561   2.704   4.118
 1882TIP3    H1 5587   1.583   2.733   4.206
 1882TIP3    H2 5588   1.644   2.677   4.079
 1883TIP3   OH2 5589   7.177   3.614   1.337
 1883TIP3    H1 5590   7.114   3.551   1.372
 1883TIP3    H2 5591   7.216   3.655   1.414
 1884TIP3   OH2 5592   7.342   3.454   3.186
 1884TIP3    H1 5593   7.278   3.391   3.156
 1884TIP3    H2 5594   7.362   3.428   3.276
 1885TIP3   OH2 5595   3.561   2.067   1.375
 1885TIP3    H1 5596   3.553   1.972   1.364
 1885TIP3    H2 5597   3.556   2.102   1.286
 1886TIP3   OH2 5598   4.763   7.191   2.556
 1886TIP3    H1 5599   4.834   7.252   2.578
 1886TIP3    H2 5600   4.768   7.183   2.461
 1887TIP3   OH2 5601   6.419   0.377   3.752
 1887TIP3    H1 5602   6.330   0.402   3.777
 1887TIP3    H2 5603   6.469   0.458   3.756
 1888TIP3   OH2 5604   5.637   4.752   5.950
 1888TIP3    H1 5605   5.596   4.802   5.879
 1888TIP3    H2 5606   5.703   4.697   5.906
 1889TIP3   OH2 5607   0.702   4.540   5.093
 1889TIP3    H1 5608   0.637   4.472   5.111
 1889TIP3    H2 5609   0.650   4.616   5.067
 1890TIP3   OH2 5610   5.676   7.417   2.677
 1890TIP3    H1 5611   5.670   7.366   2.597
 1890TIP3    H2 5612   5.755   7.386   2.720
 1891TIP3   OH2 5613   3.126   3.578   3.694
 1891TIP3    H1 5614   3.083   3.493   3.697
 1891TIP3    H2 5615   3.174   3.578   3.611
 1892TIP3   OH2 5616   4.873   3.339   1.111
 1892TIP3    H1 5617   4.827   3.406   1.162
 1892TIP3    H2 5618   4.936   3.301   1.172
 1893TIP3   OH2 5619   3.145   2.425   3.982
 1893TIP3    H1 5620   3.070   2.478   4.011
 1893TIP3    H2 5621   3.105   2.348   3.941
 1894TIP3   OH2 5622   7.830   7.524   6.054
 1894TIP3    H1 5623   7.739   7.531   6.083
 1894TIP3    H2 5624   7.830   7.559   5.965
 1895TIP3   OH2 5625   5.458   4.143   1.237
 1895TIP3    H1 5626   5.551   4.120   1.247
 1895TIP3    H2 5627   5.425   4.082   1.171
 1896TIP3   OH2 5628   3.535   7.744   4.748
 1896TIP3    H1 5629   3.497   7.831   4.754
 1896TIP3    H2 5630   3.619   7.757   4.703
 1897TIP3   OH2 5631   7.405   0.273   3.479
 1897TIP3    H1 5632   7.476   0.336   3.488
 1897TIP3    H2 5633   7.416   0.236   3.392
 1898TIP3   OH2 5634   3.358   2.501   0.823
 1898TIP3    H1 5635   3.280   2.504   0.767
 1898TIP3    H2 5636   3.428   2.534   0.767
 1899TIP3   OH2 5637   2.367   0.875   2.079
 1899TIP3    H1 5638   2.390   0.810   2.013
 1899TIP3    H2 5639   2.352   0.956   2.029
 1900TIP3   OH2 5640   1.510   6.744   1.150
 1900TIP3    H1 5641   1.502   6.671   1.088
 1900TIP3    H2 5642   1.588   6.723   1.201
 1901TIP3   OH2 5643   4.976   1.447   4.154
 1901TIP3    H1 5644   4.983   1.360   4.193
 1901TIP3    H2 5645   4.882   1.458   4.139
 1902TIP3   OH2 5646   7.862   7.089   2.614
 1902TIP3    H1 5647   7.902   7.090   2.702
 1902TIP3    H2 5648   7.924   7.138   2.560
 1903TIP3   OH2 5649   2.316   3.040   1.144
 1903TIP3    H1 5650   2.398   3.017   1.100
 1903TIP3    H2 5651   2.285   3.117   1.098
 1904TIP3   OH2 5652   7.022   6.497   2.750
 1904TIP3    H1 5653   7.090   6.564   2.745
 1904TIP3    H2 5654   6.952   6.537   2.802
 1905TIP3   OH2 5655   6.895   6.800   2.437
 1905TIP3    H1 5656   6.828   6.867   2.446
 1905TIP3    H2 5657   6.972   6.847   2.403
 1906TIP3   OH2 5658   3.923   7.650   5.355
 1906TIP3    H1 5659   3.892   7.727   5.308
 1906TIP3    H2 5660   3.870   7.578   5.320
 1907TIP3   OH2 5661   7.807   4.176   5.724
 1907TIP3    H1 5662   7.858   4.098   5.702
 1907TIP3    H2 5663   7.858   4.249   5.689
 1908TIP3   OH2 5664   4.052   5.889   1.837
 1908TIP3    H1 5665   4.017   5.830   1.770
 1908TIP3    H2 5666   4.146   5.873   1.837
 1909TIP3   OH2 5667   3.532   3.442   1.595
 1909TIP3    H1 5668   3.441   3.413   1.600
 1909TIP3    H2 5669   3.561   3.418   1.507
 1910TIP3   OH2 5670   1.591   6.592   6.210
 1910TIP3    H1 5671   1.640   6.656   6.158
 1910TIP3    H2 5672   1.640   6.586   6.292
 1911TIP3   OH2 5673   5.559   6.765   5.009
 1911TIP3    H1 5674   5.582   6.727   4.924
 1911TIP3    H2 5675   5.487   6.710   5.041
 1912TIP3   OH2 5676   5.463   2.072   4.584
 1912TIP3    H1 5677   5.454   1.998   4.524
 1912TIP3    H2 5678   5.479   2.148   4.527
 1913TIP3   OH2 5679   6.390   1.754   0.230
 1913TIP3    H1 5680   6.338   1.684   0.191
 1913TIP3    H2 5681   6.335   1.787   0.301
 1914TIP3   OH2 5682   0.166   2.973   3.677
 1914TIP3    H1 5683   0.230   2.990   3.608
 1914TIP3    H2 5684   0.142   2.881   3.665
 1915TIP3   OH2 5685   2.070   5.389   4.936
 1915TIP3    H1 5686   2.125   5.461   4.968
 1915TIP3    H2 5687   2.044   5.417   4.848
 1916TIP3   OH2 5688   7.945   0.259   5.539
 1916TIP3    H1 5689   8.008   0.219   5.479
 1916TIP3    H2 5690   7.941   0.351   5.512
 1917TIP3   OH2 5691   7.536   6.886   5.835
 1917TIP3    H1 5692   7.629   6.882   5.812
 1917TIP3    H2 5693   7.532   6.946   5.910
 1918TIP3   OH2 5694   8.126   3.306   4.935
 1918TIP3    H1 5695   8.038   3.342   4.936
 1918TIP3    H2 5696   8.118   3.223   4.888
 1919TIP3   OH2 5697   3.266   5.559   5.778
 1919TIP3    H1 5698   3.351   5.526   5.807
 1919TIP3    H2 5699   3.284   5.601   5.694
 1920TIP3   OH2 5700   1.584   3.881   6.658
 1920TIP3    H1 5701   1.504   3.906   6.611
 1920TIP3    H2 5702   1.576   3.787   6.670
 1921TIP3   OH2 5703   0.017   4.692   0.253
 1921TIP3    H1 5704   0.079   4.760   0.227
 1921TIP3    H2 5705  -0.050   4.694   0.183
 1922TIP3   OH2 5706   4.606   5.222   1.673
 1922TIP3    H1 5707   4.534   5.274   1.710
 1922TIP3    H2 5708   4.611   5.248   1.582
 1923TIP3   OH2 5709   0.907   0.667   3.881
 1923TIP3    H1 5710   0.896   0.582   3.924
 1923TIP3    H2 5711   0.875   0.653   3.792
 1924TIP3   OH2 5712   1.273   5.641   3.316
 1924TIP3    H1 5713   1.361   5.628   3.351
 1924TIP3    H2 5714   1.286   5.697   3.239
 1925TIP3   OH2 5715   1.114   2.708   1.457
 1925TIP3    H1 5716   1.061   2.722   1.379
 1925TIP3    H2 5717   1.170   2.634   1.435
 1926TIP3   OH2 5718   7.892   1.028   5.118
 1926TIP3    H1 5719   7.985   1.014   5.135
 1926TIP3    H2 5720   7.864   1.089   5.186
 1927TIP3   OH2 5721   0.063   0.821   1.899
 1927TIP3    H1 5722  -0.028   0.793   1.893
 1927TIP3    H2 5723   0.114   0.742   1.883
 1928TIP3   OH2 5724   2.177   2.930   3.197
 1928TIP3    H1 5725   2.160   3.016   3.236
 1928TIP3    H2 5726   2.127   2.931   3.115
 1929TIP3   OH2 5727   2.994   2.097   4.586
 1929TIP3    H1 5728   3.067   2.149   4.552
 1929TIP3    H2 5729   2.960   2.148   4.659
 1930TIP3   OH2 5730   6.931   2.104   4.410
 1930TIP3    H1 5731   6.925   2.188   4.366
 1930TIP3    H2 5732   6.851   2.099   4.463
 1931TIP3   OH2 5733   1.095   6.072   1.579
 1931TIP3    H1 5734   1.035   6.004   1.549
 1931TIP3    H2 5735   1.080   6.079   1.673
 1932TIP3   OH2 5736   5.783   6.470   1.616
 1932TIP3    H1 5737   5.719   6.403   1.641
 1932TIP3    H2 5738   5.732   6.551   1.612
 1933TIP3   OH2 5739   0.145   5.287   5.953
 1933TIP3    H1 5740   0.103   5.202   5.963
 1933TIP3    H2 5741   0.231   5.276   5.994
 1934TIP3   OH2 5742   7.751   1.776   2.229
 1934TIP3    H1 5743   7.826   1.767   2.172
 1934TIP3    H2 5744   7.732   1.687   2.259
 1935TIP3   OH2 5745   3.908   7.044   3.195
 1935TIP3    H1 5746   3.946   7.061   3.282
 1935TIP3    H2 5747   3.835   6.986   3.211
 1936TIP3   OH2 5748   6.997   0.097   2.071
 1936TIP3    H1 5749   6.981   0.061   1.984
 1936TIP3    H2 5750   6.953   0.182   2.071
 1937TIP3   OH2 5751   0.371   6.888   6.172
 1937TIP3    H1 5752   0.457   6.895   6.213
 1937TIP3    H2 5753   0.330   6.973   6.190
 1938TIP3   OH2 5754   8.032   2.726   1.772
 1938TIP3    H1 5755   7.970   2.790   1.737
 1938TIP3    H2 5756   8.109   2.735   1.716
 1939TIP3   OH2 5757   5.907   6.277   5.390
 1939TIP3    H1 5758   5.970   6.271   5.462
 1939TIP3    H2 5759   5.829   6.317   5.429
 1940TIP3   OH2 5760   0.216   7.730   3.937
 1940TIP3    H1 5761   0.159   7.707   3.864
 1940TIP3    H2 5762   0.268   7.651   3.952
 1941TIP3   OH2 5763   4.836   1.944   5.214
 1941TIP3    H1 5764   4.757   1.939   5.161
 1941TIP3    H2 5765   4.804   1.959   5.303
 1942TIP3   OH2 5766   7.168   5.376   2.043
 1942TIP3    H1 5767   7.219   5.411   2.116
 1942TIP3    H2 5768   7.087   5.343   2.082
 1943TIP3   OH2 5769   4.798   4.319   2.378
 1943TIP3    H1 5770   4.765   4.241   2.333
 1943TIP3    H2 5771   4.847   4.286   2.453
 1944TIP3   OH2 5772   2.313   4.869   5.058
 1944TIP3    H1 5773   2.272   4.833   4.979
 1944TIP3    H2 5774   2.349   4.794   5.104
 1945TIP3   OH2 5775   0.388   5.843   3.879
 1945TIP3    H1 5776   0.401   5.793   3.959
 1945TIP3    H2 5777   0.437   5.924   3.893
 1946TIP3   OH2 5778   0.652   6.667   0.471
 1946TIP3    H1 5779   0.611   6.582   0.489
 1946TIP3    H2 5780   0.609   6.698   0.391
 1947TIP3   OH2 5781   8.383   3.435   2.430
 1947TIP3    H1 5782   8.318   3.498   2.402
 1947TIP3    H2 5783   8.342   3.387   2.501
 1948TIP3   OH2 5784   2.757   2.492   0.810
 1948TIP3    H1 5785   2.765   2.569   0.755
 1948TIP3    H2 5786   2.848   2.465   0.827
 1949TIP3   OH2 5787   1.067   0.198   3.474
 1949TIP3    H1 5788   1.079   0.205   3.379
 1949TIP3    H2 5789   0.973   0.190   3.486
 1950TIP3   OH2 5790   3.855   2.267   3.617
 1950TIP3    H1 5791   3.763   2.243   3.622
 1950TIP3    H2 5792   3.856   2.362   3.635
 1951TIP3   OH2 5793   5.322   3.515   0.482
 1951TIP3    H1 5794   5.414   3.514   0.458
 1951TIP3    H2 5795   5.316   3.460   0.560
 1952TIP3   OH2 5796   7.467   0.302   0.237
 1952TIP3    H1 5797   7.555   0.306   0.273
 1952TIP3    H2 5798   7.410   0.332   0.307
 1953TIP3   OH2 5799   4.751   0.793   3.913
 1953TIP3    H1 5800   4.839   0.756   3.908
 1953TIP3    H2 5801   4.748   0.858   3.843
 1954TIP3   OH2 5802   3.837   0.467   3.396
 1954TIP3    H1 5803   3.837   0.552   3.351
 1954TIP3    H2 5804   3.747   0.456   3.425
 1955TIP3   OH2 5805   1.684   0.483   6.039
 1955TIP3    H1 5806   1.652   0.534   6.114
 1955TIP3    H2 5807   1.774   0.513   6.027
 1956TIP3   OH2 5808   0.950   2.939   0.537
 1956TIP3    H1 5809   0.955   2.847   0.560
 1956TIP3    H2 5810   1.039   2.973   0.553
 1957TIP3   OH2 5811   0.786   3.929   0.293
 1957TIP3    H1 5812   0.751   3.942   0.381
 1957TIP3    H2 5813   0.881   3.926   0.304
 1958TIP3   OH2 5814   7.101   5.528   1.534
 1958TIP3    H1 5815   7.186   5.483   1.532
 1958TIP3    H2 5816   7.096   5.570   1.448
 1959TIP3   OH2 5817   8.352   4.772   2.295
 1959TIP3    H1 5818   8.423   4.835   2.283
 1959TIP3    H2 5819   8.395   4.687   2.292
 1960TIP3   OH2 5820   0.868   2.690   6.525
 1960TIP3    H1 5821   0.825   2.716   6.444
 1960TIP3    H2 5822   0.837   2.601   6.540
 1961TIP3   OH2 5823   7.153   7.296   4.990
 1961TIP3    H1 5824   7.123   7.220   5.040
 1961TIP3    H2 5825   7.084   7.310   4.925
 1962TIP3   OH2 5826   6.186   1.958   4.005
 1962TIP3    H1 5827   6.269   2.003   3.990
 1962TIP3    H2 5828   6.141   2.012   4.071
 1963TIP3   OH2 5829   3.447   0.054   3.013
 1963TIP3    H1 5830   3.437   0.149   3.002
 1963TIP3    H2 5831   3.529   0.033   2.967
 1964TIP3   OH2 5832   1.816   2.350   5.751
 1964TIP3    H1 5833   1.777   2.296   5.683
 1964TIP3    H2 5834   1.790   2.308   5.833
 1965TIP3   OH2 5835   0.741   1.243   3.424
 1965TIP3    H1 5836   0.659   1.194   3.431
 1965TIP3    H2 5837   0.808   1.176   3.411
 1966TIP3   OH2 5838   0.921   2.620   5.096
 1966TIP3    H1 5839   0.835   2.588   5.069
 1966TIP3    H2 5840   0.912   2.715   5.095
 1967TIP3   OH2 5841   8.198   1.687   4.618
 1967TIP3    H1 5842   8.269   1.648   4.669
 1967TIP3    H2 5843   8.190   1.776   4.652
 1968TIP3   OH2 5844   8.323   0.285   2.527
 1968TIP3    H1 5845   8.325   0.309   2.435
 1968TIP3    H2 5846   8.414   0.266   2.550
 1969TIP3   OH2 5847   1.316   6.094   3.010
 1969TIP3    H1 5848   1.225   6.125   3.010
 1969TIP3    H2 5849   1.360   6.149   2.946
 1970TIP3   OH2 5850   4.948   7.863   0.526
 1970TIP3    H1 5851   4.873   7.839   0.472
 1970TIP3    H2 5852   4.916   7.935   0.581
 1971TIP3   OH2 5853   4.936   7.479   6.093
 1971TIP3    H1 5854   4.998   7.458   6.023
 1971TIP3    H2 5855   4.985   7.535   6.153
 1972TIP3   OH2 5856   4.516   0.489   4.129
 1972TIP3    H1 5857   4.485   0.553   4.065
 1972TIP3    H2 5858   4.454   0.495   4.201
 1973TIP3   OH2 5859   0.831   4.545   5.467
 1973TIP3    H1 5860   0.778   4.496   5.405
 1973TIP3    H2 5861   0.921   4.520   5.445
 1974TIP3   OH2 5862   2.795   4.603   2.359
 1974TIP3    H1 5863   2.751   4.535   2.410
 1974TIP3    H2 5864   2.787   4.682   2.411
 1975TIP3   OH2 5865   4.406   4.682   4.020
 1975TIP3    H1 5866   4.451   4.630   4.086
 1975TIP3    H2 5867   4.470   4.747   3.992
 1976TIP3   OH2 5868   6.238   6.973   3.269
 1976TIP3    H1 5869   6.332   6.975   3.288
 1976TIP3    H2 5870   6.226   7.038   3.201
 1977TIP3   OH2 5871   7.402   4.700   3.414
 1977TIP3    H1 5872   7.388   4.625   3.357
 1977TIP3    H2 5873   7.497   4.714   3.414
 1978TIP3   OH2 5874   7.281   1.586   4.906
 1978TIP3    H1 5875   7.309   1.542   4.826
 1978TIP3    H2 5876   7.362   1.601   4.955
 1979TIP3   OH2 5877   1.679   1.068   4.372
 1979TIP3    H1 5878   1.597   1.079   4.419
 1979TIP3    H2 5879   1.737   1.024   4.434
 1980TIP3   OH2 5880   6.780   2.620   5.378
 1980TIP3    H1 5881   6.837   2.632   5.454
 1980TIP3    H2 5882   6.832   2.651   5.304
 1981TIP3   OH2 5883   1.423   0.765   4.420
 1981TIP3    H1 5884   1.425   0.857   4.395
 1981TIP3    H2 5885   1.500   0.726   4.378
 1982TIP3   OH2 5886   2.316   1.850   6.413
 1982TIP3    H1 5887   2.296   1.836   6.321
 1982TIP3    H2 5888   2.367   1.931   6.415
 1983TIP3   OH2 5889   6.603   2.551   4.076
 1983TIP3    H1 5890   6.578   2.639   4.104
 1983TIP3    H2 5891   6.578   2.495   4.148
 1984TIP3   OH2 5892   3.123   1.521   6.291
 1984TIP3    H1 5893   3.188   1.453   6.312
 1984TIP3    H2 5894   3.039   1.476   6.299
 1985TIP3   OH2 5895   2.595   5.544   2.527
 1985TIP3    H1 5896   2.542   5.513   2.454
 1985TIP3    H2 5897   2.551   5.509   2.605
 1986TIP3   OH2 5898   8.079   2.210   6.484
 1986TIP3    H1 5899   8.091   2.138   6.546
 1986TIP3    H2 5900   8.024   2.174   6.415
 1987TIP3   OH2 5901   1.770   3.481   6.791
 1987TIP3    H1 5902   1.792   3.574   6.795
 1987TIP3    H2 5903   1.836   3.438   6.845
 1988TIP3   OH2 5904   3.619   5.967   1.960
 1988TIP3    H1 5905   3.695   5.949   2.014
 1988TIP3    H2 5906   3.648   5.949   1.870
 1989TIP3   OH2 5907   5.315   1.929   3.536
 1989TIP3    H1 5908   5.408   1.926   3.556
 1989TIP3    H2 5909   5.289   1.838   3.528
 1990TIP3   OH2 5910   3.727   0.116   1.731
 1990TIP3    H1 5911   3.689   0.092   1.647
 1990TIP3    H2 5912   3.794   0.050   1.747
 1991TIP3   OH2 5913   3.879   3.052   1.012
 1991TIP3    H1 5914   3.929   2.971   1.017
 1991TIP3    H2 5915   3.838   3.059   1.099
 1992TIP3   OH2 5916   5.220   1.647   2.449
 1992TIP3    H1 5917   5.315   1.647   2.442
 1992TIP3    H2 5918   5.190   1.685   2.366
 1993TIP3   OH2 5919   2.023   5.534   1.548
 1993TIP3    H1 5920   1.971   5.580   1.482
 1993TIP3    H2 5921   2.085   5.481   1.499
 1994TIP3   OH2 5922   2.885   5.934   1.151
 1994TIP3    H1 5923   2.973   5.920   1.116
 1994TIP3    H2 5924   2.827   5.927   1.075
 1995TIP3   OH2 5925   6.950   6.401   4.447
 1995TIP3    H1 5926   6.901   6.319   4.452
 1995TIP3    H2 5927   6.890   6.462   4.404
 1996TIP3   OH2 5928   1.667   7.451   4.784
 1996TIP3    H1 5929   1.581   7.423   4.814
 1996TIP3    H2 5930   1.693   7.519   4.846
 1997TIP3   OH2 5931   2.526   0.474   1.482
 1997TIP3    H1 5932   2.467   0.485   1.557
 1997TIP3    H2 5933   2.609   0.510   1.512
 1998TIP3   OH2 5934   3.352   4.448   2.012
 1998TIP3    H1 5935   3.350   4.513   2.083
 1998TIP3    H2 5936   3.353   4.364   2.056
 1999TIP3   OH2 5937   7.978   4.642   0.872
 1999TIP3    H1 5938   7.953   4.588   0.947
 1999TIP3    H2 5939   7.899   4.692   0.852
 2000TIP3   OH2 5940   7.451   4.764   3.696
 2000TIP3    H1 5941   7.398   4.700   3.649
 2000TIP3    H2 5942   7.523   4.785   3.637
 2001TIP3   OH2 5943   5.605   4.977   6.148
 2001TIP3    H1 5944   5.627   4.897   6.100
 2001TIP3    H2 5945   5.570   4.946   6.232
 2002TIP3   OH2 5946   4.087   7.373   5.015
 2002TIP3    H1 5947   4.035   7.311   5.066
 2002TIP3    H2 5948   4.030   7.448   5.003
 2003TIP3   OH2 5949   4.832   3.286   2.113
 2003TIP3    H1 5950   4.911   3.305   2.062
 2003TIP3    H2 5951   4.760   3.301   2.051
 2004TIP3   OH2 5952   5.875   4.221   4.675
 2004TIP3    H1 5953   5.922   4.197   4.755
 2004TIP3    H2 5954   5.783   4.204   4.696
 2005TIP3   OH2 5955   7.348   3.435   3.742
 2005TIP3    H1 5956   7.378   3.381   3.669
 2005TIP3    H2 5957   7.412   3.420   3.811
 2006TIP3   OH2 5958   0.542   0.959   0.374
 2006TIP3    H1 5959   0.527   1.053   0.382
 2006TIP3    H2 5960   0.468   0.918   0.419
 2007TIP3   OH2 5961   4.607   4.869   3.912
 2007TIP3    H1 5962   4.636   4.941   3.856
 2007TIP3    H2 5963   4.686   4.817   3.928
 2008TIP3   OH2 5964   7.875   6.019   3.316
 2008TIP3    H1 5965   7.920   5.935   3.303
 2008TIP3    H2 5966   7.898   6.070   3.239
 2009TIP3   OH2 5967   4.940   6.045   6.614
 2009TIP3    H1 5968   4.981   5.978   6.668
 2009TIP3    H2 5969   4.962   6.021   6.524
 2010TIP3   OH2 5970   1.036   0.322   5.196
 2010TIP3    H1 5971   1.065   0.392   5.138
 2010TIP3    H2 5972   0.964   0.280   5.148
 2011TIP3   OH2 5973   4.066   5.164   3.813
 2011TIP3    H1 5974   4.129   5.222   3.854
 2011TIP3    H2 5975   4.105   5.143   3.727
 2012TIP3   OH2 5976   8.026   3.088   5.882
 2012TIP3    H1 5977   8.003   3.181   5.886
 2012TIP3    H2 5978   8.116   3.084   5.915
 2013TIP3   OH2 5979   1.653   6.324   3.922
 2013TIP3    H1 5980   1.730   6.308   3.868
 2013TIP3    H2 5981   1.667   6.270   4.000
 2014TIP3   OH2 5982   4.009   6.647   4.418
 2014TIP3    H1 5983   3.940   6.581   4.408
 2014TIP3    H2 5984   3.990   6.689   4.503
 2015TIP3   OH2 5985   6.036   4.310   2.792
 2015TIP3    H1 5986   5.993   4.285   2.710
 2015TIP3    H2 5987   6.102   4.374   2.767
 2016TIP3   OH2 5988   4.725   5.587   2.622
 2016TIP3    H1 5989   4.811   5.572   2.661
 2016TIP3    H2 5990   4.681   5.647   2.683
 2017TIP3   OH2 5991   6.096   7.492   1.631
 2017TIP3    H1 5992   6.002   7.495   1.612
 2017TIP3    H2 5993   6.128   7.580   1.609
 2018TIP3   OH2 5994   7.872   4.964   1.967
 2018TIP3    H1 5995   7.918   4.997   2.045
 2018TIP3    H2 5996   7.820   5.039   1.938
 2019TIP3   OH2 5997   7.917   4.107   6.364
 2019TIP3    H1 5998   7.966   4.184   6.334
 2019TIP3    H2 5999   7.859   4.141   6.432
 2020TIP3   OH2 6000   0.795   4.265   6.804
 2020TIP3    H1 6001   0.850   4.214   6.864
 2020TIP3    H2 6002   0.708   4.259   6.842
 2021TIP3   OH2 6003   6.757   4.311   0.022
 2021TIP3    H1 6004   6.806   4.229   0.031
 2021TIP3    H2 6005   6.672   4.284  -0.012
 2022TIP3   OH2 6006   4.355   3.496   5.382
 2022TIP3    H1 6007   4.349   3.512   5.287
 2022TIP3    H2 6008   4.266   3.475   5.409
 2023TIP3   OH2 6009   6.485   3.967   1.047
 2023TIP3    H1 6010   6.518   3.927   1.128
 2023TIP3    H2 6011   6.546   4.039   1.030
 2024TIP3   OH2 6012   6.062   2.920   5.252
 2024TIP3    H1 6013   6.131   2.854   5.247
 2024TIP3    H2 6014   6.103   2.994   5.296
 2025TIP3   OH2 6015   6.994   6.105   3.369
 2025TIP3    H1 6016   7.027   6.106   3.459
 2025TIP3    H2 6017   7.057   6.052   3.320
 2026TIP3   OH2 6018   7.979   1.974   0.487
 2026TIP3    H1 6019   7.906   2.001   0.542
 2026TIP3    H2 6020   7.961   1.882   0.465
 2027TIP3   OH2 6021   5.115   5.643   4.774
 2027TIP3    H1 6022   5.077   5.677   4.692
 2027TIP3    H2 6023   5.101   5.714   4.837
 2028TIP3   OH2 6024   4.623   5.747   6.248
 2028TIP3    H1 6025   4.696   5.798   6.212
 2028TIP3    H2 6026   4.547   5.805   6.240
 2029TIP3   OH2 6027   2.176   7.690   1.316
 2029TIP3    H1 6028   2.202   7.782   1.319
 2029TIP3    H2 6029   2.088   7.689   1.353
 2030TIP3   OH2 6030   4.907   4.668   1.919
 2030TIP3    H1 6031   4.884   4.602   1.984
 2030TIP3    H2 6032   4.827   4.718   1.906
 2031TIP3   OH2 6033   3.627   5.031   4.154
 2031TIP3    H1 6034   3.588   4.948   4.182
 2031TIP3    H2 6035   3.651   5.075   4.235
 2032TIP3   OH2 6036   4.649   3.781   6.264
 2032TIP3    H1 6037   4.674   3.696   6.228
 2032TIP3    H2 6038   4.669   3.775   6.357
 2033TIP3   OH2 6039   5.994   1.083   2.259
 2033TIP3    H1 6040   5.986   1.124   2.173
 2033TIP3    H2 6041   5.923   1.018   2.261
 2034TIP3   OH2 6042   5.696   7.478   1.257
 2034TIP3    H1 6043   5.747   7.428   1.193
 2034TIP3    H2 6044   5.685   7.564   1.217
 2035TIP3   OH2 6045   2.565   3.045   3.948
 2035TIP3    H1 6046   2.586   3.138   3.943
 2035TIP3    H2 6047   2.613   3.006   3.875
 2036TIP3   OH2 6048   2.980   1.673   0.532
 2036TIP3    H1 6049   3.039   1.650   0.604
 2036TIP3    H2 6050   3.018   1.753   0.495
 2037TIP3   OH2 6051   5.548   3.495   0.303
 2037TIP3    H1 6052   5.495   3.546   0.241
 2037TIP3    H2 6053   5.630   3.479   0.257
 2038TIP3   OH2 6054   8.128   3.768   2.888
 2038TIP3    H1 6055   8.112   3.679   2.918
 2038TIP3    H2 6056   8.114   3.823   2.965
 2039TIP3   OH2 6057   1.531   5.228   1.077
 2039TIP3    H1 6058   1.609   5.283   1.088
 2039TIP3    H2 6059   1.480   5.273   1.010
 2040TIP3   OH2 6060   2.420   7.846   5.357
 2040TIP3    H1 6061   2.410   7.768   5.301
 2040TIP3    H2 6062   2.495   7.892   5.320
 2041TIP3   OH2 6063   1.596   6.178   2.102
 2041TIP3    H1 6064   1.577   6.241   2.032
 2041TIP3    H2 6065   1.541   6.102   2.082
 2042TIP3   OH2 6066   4.652   7.680   6.508
 2042TIP3    H1 6067   4.719   7.721   6.454
 2042TIP3    H2 6068   4.701   7.640   6.580
 2043TIP3   OH2 6069   3.648   2.034   1.697
 2043TIP3    H1 6070   3.681   2.122   1.677
 2043TIP3    H2 6071   3.705   2.002   1.766
 2044TIP3   OH2 6072   5.630   1.395   3.172
 2044TIP3    H1 6073   5.581   1.324   3.213
 2044TIP3    H2 6074   5.700   1.351   3.124
 2045TIP3   OH2 6075   4.971   0.267   5.459
 2045TIP3    H1 6076   4.892   0.212   5.451
 2045TIP3    H2 6077   4.968   0.324   5.382
 2046TIP3   OH2 6078   1.117   1.659   3.115
 2046TIP3    H1 6079   1.201   1.665   3.161
 2046TIP3    H2 6080   1.084   1.572   3.137
 2047TIP3   OH2 6081   2.213   7.707   2.515
 2047TIP3    H1 6082   2.307   7.709   2.494
 2047TIP3    H2 6083   2.202   7.628   2.567
 2048TIP3   OH2 6084   6.321   5.633   1.833
 2048TIP3    H1 6085   6.369   5.658   1.754
 2048TIP3    H2 6086   6.274   5.553   1.808
 2049TIP3   OH2 6087   7.624   2.214   0.674
 2049TIP3    H1 6088   7.568   2.291   0.671
 2049TIP3    H2 6089   7.658   2.206   0.585
 2050TIP3   OH2 6090   4.011   6.159   0.038
 2050TIP3    H1 6091   4.045   6.141  -0.049
 2050TIP3    H2 6092   3.917   6.170   0.025
 2051TIP3   OH2 6093   6.190   0.523   3.868
 2051TIP3    H1 6094   6.229   0.599   3.912
 2051TIP3    H2 6095   6.111   0.505   3.918
 2052TIP3   OH2 6096   6.047   3.850   0.937
 2052TIP3    H1 6097   6.108   3.793   0.891
 2052TIP3    H2 6098   6.100   3.894   1.004
 2053TIP3   OH2 6099   6.304   1.047   1.526
 2053TIP3    H1 6100   6.283   1.127   1.572
 2053TIP3    H2 6101   6.363   1.074   1.455
 2054TIP3   OH2 6102   8.101   3.065   1.543
 2054TIP3    H1 6103   8.187   3.100   1.520
 2054TIP3    H2 6104   8.091   3.084   1.636
 2055TIP3   OH2 6105   5.454   2.320   0.909
 2055TIP3    H1 6106   5.457   2.312   0.814
 2055TIP3    H2 6107   5.545   2.330   0.936
 2056TIP3   OH2 6108   4.053   7.550   2.682
 2056TIP3    H1 6109   4.014   7.564   2.595
 2056TIP3    H2 6110   4.083   7.637   2.709
 2057TIP3   OH2 6111   1.059   6.273   5.397
 2057TIP3    H1 6112   1.096   6.327   5.327
 2057TIP3    H2 6113   1.004   6.209   5.351
 2058TIP3   OH2 6114   7.373   4.283   4.387
 2058TIP3    H1 6115   7.383   4.374   4.360
 2058TIP3    H2 6116   7.433   4.234   4.331
 2059TIP3   OH2 6117   3.289   1.470   2.735
 2059TIP3    H1 6118   3.274   1.380   2.764
 2059TIP3    H2 6119   3.234   1.523   2.793
 2060TIP3   OH2 6120   3.786   1.533   0.049
 2060TIP3    H1 6121   3.882   1.532   0.056
 2060TIP3    H2 6122   3.757   1.468   0.113
 2061TIP3   OH2 6123   1.214   1.036   4.625
 2061TIP3    H1 6124   1.146   1.099   4.600
 2061TIP3    H2 6125   1.294   1.087   4.629
 2062TIP3   OH2 6126   1.835   1.332   5.327
 2062TIP3    H1 6127   1.806   1.314   5.237
 2062TIP3    H2 6128   1.926   1.302   5.329
 2063TIP3   OH2 6129   1.443   3.756   4.330
 2063TIP3    H1 6130   1.474   3.675   4.371
 2063TIP3    H2 6131   1.457   3.823   4.396
 2064TIP3   OH2 6132   7.505   0.853   1.665
 2064TIP3    H1 6133   7.579   0.898   1.624
 2064TIP3    H2 6134   7.483   0.907   1.740
 2065TIP3   OH2 6135   2.436   2.716   4.905
 2065TIP3    H1 6136   2.506   2.776   4.932
 2065TIP3    H2 6137   2.443   2.713   4.810
 2066TIP3   OH2 6138   4.827   5.454   5.310
 2066TIP3    H1 6139   4.790   5.542   5.320
 2066TIP3    H2 6140   4.825   5.417   5.399
 2067TIP3   OH2 6141   6.200   7.750   0.256
 2067TIP3    H1 6142   6.193   7.753   0.160
 2067TIP3    H2 6143   6.210   7.841   0.282
 2068TIP3   OH2 6144   7.281   0.640   1.977
 2068TIP3    H1 6145   7.216   0.573   1.957
 2068TIP3    H2 6146   7.274   0.653   2.071
 2069TIP3   OH2 6147   2.118   1.930   3.190
 2069TIP3    H1 6148   2.082   1.844   3.165
 2069TIP3    H2 6149   2.091   1.941   3.281
 2070TIP3   OH2 6150   2.006   2.831   4.037
 2070TIP3    H1 6151   2.060   2.854   3.961
 2070TIP3    H2 6152   1.929   2.888   4.029
 2071TIP3   OH2 6153   0.928   5.090   3.666
 2071TIP3    H1 6154   1.011   5.050   3.639
 2071TIP3    H2 6155   0.949   5.183   3.675
 2072TIP3   OH2 6156   4.943   3.518   2.548
 2072TIP3    H1 6157   4.944   3.423   2.560
 2072TIP3    H2 6158   4.973   3.554   2.632
 2073TIP3   OH2 6159   0.644   0.633   4.086
 2073TIP3    H1 6160   0.644   0.569   4.015
 2073TIP3    H2 6161   0.589   0.705   4.053
 2074TIP3   OH2 6162   3.920   4.202   3.484
 2074TIP3    H1 6163   3.896   4.290   3.454
 2074TIP3    H2 6164   3.951   4.215   3.574
 2075TIP3   OH2 6165   0.743   7.484   6.575
 2075TIP3    H1 6166   0.775   7.540   6.645
 2075TIP3    H2 6167   0.770   7.527   6.494
 2076TIP3   OH2 6168   3.343   6.280   0.687
 2076TIP3    H1 6169   3.302   6.218   0.626
 2076TIP3    H2 6170   3.418   6.233   0.723
 2077TIP3   OH2 6171   0.723   5.732   0.968
 2077TIP3    H1 6172   0.638   5.690   0.985
 2077TIP3    H2 6173   0.740   5.716   0.875
 2078TIP3   OH2 6174   2.150   4.545   5.247
 2078TIP3    H1 6175   2.111   4.632   5.243
 2078TIP3    H2 6176   2.148   4.522   5.340
 2079TIP3   OH2 6177   2.299   4.877   4.767
 2079TIP3    H1 6178   2.248   4.959   4.762
 2079TIP3    H2 6179   2.242   4.811   4.727
 2080TIP3   OH2 6180   7.336   7.488   1.470
 2080TIP3    H1 6181   7.336   7.444   1.555
 2080TIP3    H2 6182   7.408   7.447   1.422
 2081TIP3   OH2 6183   4.763   1.512   0.427
 2081TIP3    H1 6184   4.769   1.461   0.508
 2081TIP3    H2 6185   4.854   1.529   0.403
 2082TIP3   OH2 6186   2.700   1.983   3.710
 2082TIP3    H1 6187   2.728   2.024   3.627
 2082TIP3    H2 6188   2.743   1.897   3.709
 2083TIP3   OH2 6189   0.778   4.977   6.126
 2083TIP3    H1 6190   0.710   5.022   6.176
 2083TIP3    H2 6191   0.739   4.893   6.101
 2084TIP3   OH2 6192   2.393   1.699   4.989
 2084TIP3    H1 6193   2.394   1.760   4.915
 2084TIP3    H2 6194   2.476   1.716   5.034
 2085TIP3   OH2 6195   0.532   4.608   2.082
 2085TIP3    H1 6196   0.563   4.536   2.138
 2085TIP3    H2 6197   0.568   4.588   1.996
 2086TIP3   OH2 6198   5.492   3.556   2.940
 2086TIP3    H1 6199   5.536   3.501   2.875
 2086TIP3    H2 6200   5.429   3.607   2.888
 2087TIP3   OH2 6201   5.416   2.723   2.099
 2087TIP3    H1 6202   5.436   2.814   2.121
 2087TIP3    H2 6203   5.392   2.684   2.183
 2088TIP3   OH2 6204   7.845   1.272   5.301
 2088TIP3    H1 6205   7.869   1.268   5.394
 2088TIP3    H2 6206   7.749   1.265   5.302
 2089TIP3   OH2 6207   3.960   6.587   6.594
 2089TIP3    H1 6208   3.944   6.680   6.576
 2089TIP3    H2 6209   3.879   6.543   6.568
 2090TIP3   OH2 6210   4.223   5.335   5.579
 2090TIP3    H1 6211   4.261   5.250   5.555
 2090TIP3    H2 6212   4.210   5.329   5.674
 2091TIP3   OH2 6213   4.480   7.605   1.546
 2091TIP3    H1 6214   4.472   7.689   1.590
 2091TIP3    H2 6215   4.406   7.553   1.578
 2092TIP3   OH2 6216   2.117   3.568   0.939
 2092TIP3    H1 6217   2.028   3.587   0.968
 2092TIP3    H2 6218   2.151   3.507   1.004
 2093TIP3   OH2 6219   4.394   5.577   4.548
 2093TIP3    H1 6220   4.435   5.519   4.484
 2093TIP3    H2 6221   4.465   5.632   4.580
 2094TIP3   OH2 6222   6.932   2.121   3.153
 2094TIP3    H1 6223   6.926   2.201   3.101
 2094TIP3    H2 6224   6.851   2.119   3.204
 2095TIP3   OH2 6225   2.865   1.054   2.251
 2095TIP3    H1 6226   2.849   1.012   2.336
 2095TIP3    H2 6227   2.778   1.061   2.211
 2096TIP3   OH2 6228   6.755   2.387   2.608
 2096TIP3    H1 6229   6.676   2.400   2.556
 2096TIP3    H2 6230   6.773   2.473   2.647
 2097TIP3   OH2 6231   5.110   3.301   3.789
 2097TIP3    H1 6232   5.192   3.257   3.808
 2097TIP3    H2 6233   5.111   3.380   3.843
 2098TIP3   OH2 6234   5.688   2.567   2.113
 2098TIP3    H1 6235   5.649   2.536   2.031
 2098TIP3    H2 6236   5.618   2.554   2.178
 2099TIP3   OH2 6237   2.236   4.578   6.420
 2099TIP3    H1 6238   2.175   4.555   6.490
 2099TIP3    H2 6239   2.292   4.645   6.459
 2100TIP3   OH2 6240   7.812   1.942   3.800
 2100TIP3    H1 6241   7.734   1.963   3.748
 2100TIP3    H2 6242   7.881   1.926   3.735
 2101TIP3   OH2 6243   8.311   0.328   2.240
 2101TIP3    H1 6244   8.306   0.232   2.241
 2101TIP3    H2 6245   8.220   0.356   2.230
 2102TIP3   OH2 6246   7.012   4.294   0.523
 2102TIP3    H1 6247   7.065   4.364   0.561
 2102TIP3    H2 6248   7.042   4.289   0.432
 2103TIP3   OH2 6249   3.537   5.794   0.694
 2103TIP3    H1 6250   3.601   5.865   0.687
 2103TIP3    H2 6251   3.585   5.715   0.673
 2104TIP3   OH2 6252   3.138   4.753   0.775
 2104TIP3    H1 6253   3.188   4.835   0.772
 2104TIP3    H2 6254   3.197   4.687   0.739
 2105TIP3   OH2 6255   2.286   1.108   1.479
 2105TIP3    H1 6256   2.289   1.143   1.568
 2105TIP3    H2 6257   2.343   1.031   1.481
 2106TIP3   OH2 6258   5.081   2.724   0.029
 2106TIP3    H1 6259   5.109   2.814   0.013
 2106TIP3    H2 6260   5.021   2.704  -0.043
 2107TIP3   OH2 6261   5.219   2.818   6.020
 2107TIP3    H1 6262   5.250   2.860   6.101
 2107TIP3    H2 6263   5.142   2.769   6.047
 2108TIP3   OH2 6264   1.973   4.229   3.898
 2108TIP3    H1 6265   1.930   4.304   3.940
 2108TIP3    H2 6266   2.065   4.238   3.921
 2109TIP3   OH2 6267   5.312   5.230   1.912
 2109TIP3    H1 6268   5.303   5.174   1.989
 2109TIP3    H2 6269   5.232   5.215   1.861
 2110TIP3   OH2 6270   5.520   4.177   3.229
 2110TIP3    H1 6271   5.615   4.175   3.214
 2110TIP3    H2 6272   5.484   4.222   3.152
 2111TIP3   OH2 6273   5.381   6.501   1.637
 2111TIP3    H1 6274   5.394   6.512   1.543
 2111TIP3    H2 6275   5.413   6.582   1.676
 2112TIP3   OH2 6276   2.634   4.914   5.182
 2112TIP3    H1 6277   2.572   4.873   5.242
 2112TIP3    H2 6278   2.581   4.970   5.126
 2113TIP3   OH2 6279   3.522   2.570   1.796
 2113TIP3    H1 6280   3.493   2.580   1.886
 2113TIP3    H2 6281   3.443   2.546   1.747
 2114TIP3   OH2 6282   2.133   4.284   5.975
 2114TIP3    H1 6283   2.137   4.329   6.060
 2114TIP3    H2 6284   2.169   4.197   5.992
 2115TIP3   OH2 6285   8.222   1.729   4.197
 2115TIP3    H1 6286   8.161   1.717   4.270
 2115TIP3    H2 6287   8.295   1.777   4.235
 2116TIP3   OH2 6288   3.727   7.106   6.744
 2116TIP3    H1 6289   3.673   7.110   6.665
 2116TIP3    H2 6290   3.747   7.013   6.754
 2117TIP3   OH2 6291   5.095   3.726   2.045
 2117TIP3    H1 6292   5.141   3.663   1.990
 2117TIP3    H2 6293   5.046   3.673   2.107
 2118TIP3   OH2 6294   7.458   7.034   1.844
 2118TIP3    H1 6295   7.509   6.956   1.867
 2118TIP3    H2 6296   7.391   7.039   1.911
 2119TIP3   OH2 6297   5.854   1.402   6.089
 2119TIP3    H1 6298   5.787   1.337   6.110
 2119TIP3    H2 6299   5.904   1.413   6.170
 2120TIP3   OH2 6300   3.817   1.838   0.745
 2120TIP3    H1 6301   3.906   1.817   0.774
 2120TIP3    H2 6302   3.802   1.927   0.776
 2121TIP3   OH2 6303   4.613   1.415   3.871
 2121TIP3    H1 6304   4.597   1.357   3.796
 2121TIP3    H2 6305   4.708   1.416   3.881
 2122TIP3   OH2 6306   4.550   6.607   4.372
 2122TIP3    H1 6307   4.522   6.535   4.316
 2122TIP3    H2 6308   4.469   6.653   4.394
 2123TIP3   OH2 6309   2.414   5.963   3.105
 2123TIP3    H1 6310   2.475   5.977   3.178
 2123TIP3    H2 6311   2.331   5.944   3.148
 2124TIP3   OH2 6312   6.401   3.163   0.871
 2124TIP3    H1 6313   6.415   3.069   0.880
 2124TIP3    H2 6314   6.451   3.202   0.942
 2125TIP3   OH2 6315   0.658   4.168   4.635
 2125TIP3    H1 6316   0.651   4.173   4.731
 2125TIP3    H2 6317   0.572   4.195   4.603
 2126TIP3   OH2 6318   1.643   5.668   1.489
 2126TIP3    H1 6319   1.612   5.597   1.434
 2126TIP3    H2 6320   1.564   5.717   1.513
 2127TIP3   OH2 6321   1.523   5.540   3.384
 2127TIP3    H1 6322   1.599   5.482   3.386
 2127TIP3    H2 6323   1.541   5.607   3.451
 2128TIP3   OH2 6324   0.865   1.112   0.713
 2128TIP3    H1 6325   0.893   1.022   0.699
 2128TIP3    H2 6326   0.939   1.153   0.759
 2129TIP3   OH2 6327   5.886   4.647   1.339
 2129TIP3    H1 6328   5.931   4.568   1.370
 2129TIP3    H2 6329   5.886   4.639   1.244
 2130TIP3   OH2 6330   3.844   6.330   5.232
 2130TIP3    H1 6331   3.858   6.409   5.179
 2130TIP3    H2 6332   3.775   6.283   5.186
 2131TIP3   OH2 6333   1.223   2.983   1.813
 2131TIP3    H1 6334   1.142   2.939   1.838
 2131TIP3    H2 6335   1.273   2.988   1.895
 2132TIP3   OH2 6336   3.499   5.271   1.641
 2132TIP3    H1 6337   3.439   5.234   1.576
 2132TIP3    H2 6338   3.443   5.323   1.699
 2133TIP3   OH2 6339   4.182   2.028   5.494
 2133TIP3    H1 6340   4.260   1.983   5.464
 2133TIP3    H2 6341   4.110   1.969   5.472
 2134TIP3   OH2 6342   7.482   2.224   2.158
 2134TIP3    H1 6343   7.465   2.242   2.250
 2134TIP3    H2 6344   7.558   2.166   2.158
 2135TIP3   OH2 6345   8.032   6.919   5.948
 2135TIP3    H1 6346   7.943   6.955   5.944
 2135TIP3    H2 6347   8.057   6.908   5.857
 2136TIP3   OH2 6348   7.604   2.491   3.808
 2136TIP3    H1 6349   7.589   2.567   3.864
 2136TIP3    H2 6350   7.697   2.472   3.817
 2137TIP3   OH2 6351   0.453   6.227   6.236
 2137TIP3    H1 6352   0.508   6.149   6.229
 2137TIP3    H2 6353   0.478   6.268   6.318
 2138TIP3   OH2 6354   6.226   0.108   1.797
 2138TIP3    H1 6355   6.320   0.125   1.787
 2138TIP3    H2 6356   6.215   0.088   1.890
 2139TIP3   OH2 6357   4.953   2.192   5.776
 2139TIP3    H1 6358   4.943   2.282   5.747
 2139TIP3    H2 6359   5.046   2.173   5.767
 2140TIP3   OH2 6360   1.077   4.256   4.695
 2140TIP3    H1 6361   1.072   4.343   4.654
 2140TIP3    H2 6362   1.099   4.273   4.786
 2141TIP3   OH2 6363   8.126   7.356   3.576
 2141TIP3    H1 6364   8.203   7.397   3.537
 2141TIP3    H2 6365   8.082   7.427   3.623
 2142TIP3   OH2 6366   1.628   0.380   3.728
 2142TIP3    H1 6367   1.631   0.315   3.798
 2142TIP3    H2 6368   1.718   0.388   3.698
 2143TIP3   OH2 6369   5.209   6.919   5.059
 2143TIP3    H1 6370   5.127   6.869   5.059
 2143TIP3    H2 6371   5.216   6.952   4.969
 2144TIP3   OH2 6372   1.549   5.474   5.331
 2144TIP3    H1 6373   1.513   5.412   5.393
 2144TIP3    H2 6374   1.489   5.472   5.256
 2145TIP3   OH2 6375   3.759   6.414   5.921
 2145TIP3    H1 6376   3.701   6.355   5.872
 2145TIP3    H2 6377   3.768   6.491   5.866
 2146TIP3   OH2 6378   2.760   4.198   5.190
 2146TIP3    H1 6379   2.743   4.112   5.151
 2146TIP3    H2 6380   2.678   4.246   5.175
 2147TIP3   OH2 6381   0.556   3.087   0.070
 2147TIP3    H1 6382   0.538   3.009   0.017
 2147TIP3    H2 6383   0.555   3.055   0.160
 2148TIP3   OH2 6384   2.360   2.739   0.119
 2148TIP3    H1 6385   2.362   2.660   0.172
 2148TIP3    H2 6386   2.281   2.786   0.149
 2149TIP3   OH2 6387   5.128   0.639   3.552
 2149TIP3    H1 6388   5.084   0.630   3.636
 2149TIP3    H2 6389   5.058   0.630   3.487
 2150TIP3   OH2 6390   2.114   1.542   0.774
 2150TIP3    H1 6391   2.201   1.536   0.813
 2150TIP3    H2 6392   2.129   1.558   0.681
 2151TIP3   OH2 6393   4.107   7.414   3.539
 2151TIP3    H1 6394   4.178   7.474   3.516
 2151TIP3    H2 6395   4.127   7.385   3.628
 2152TIP3   OH2 6396   3.409   4.091   6.333
 2152TIP3    H1 6397   3.395   4.174   6.288
 2152TIP3    H2 6398   3.504   4.078   6.329
 2153TIP3   OH2 6399   4.671   7.321   5.611
 2153TIP3    H1 6400   4.718   7.393   5.569
 2153TIP3    H2 6401   4.588   7.360   5.640
 2154TIP3   OH2 6402   3.460   4.839   0.091
 2154TIP3    H1 6403   3.443   4.799   0.005
 2154TIP3    H2 6404   3.390   4.904   0.100
 2155TIP3   OH2 6405   7.988   1.311   6.804
 2155TIP3    H1 6406   8.012   1.365   6.880
 2155TIP3    H2 6407   7.951   1.232   6.842
 2156TIP3   OH2 6408   3.974   4.410   5.117
 2156TIP3    H1 6409   3.965   4.366   5.201
 2156TIP3    H2 6410   4.053   4.463   5.125
 2157TIP3   OH2 6411   5.767   7.844   4.401
 2157TIP3    H1 6412   5.712   7.884   4.468
 2157TIP3    H2 6413   5.761   7.904   4.326
 2158TIP3   OH2 6414   6.582   3.434   6.788
 2158TIP3    H1 6415   6.494   3.410   6.819
 2158TIP3    H2 6416   6.602   3.370   6.720
 2159TIP3   OH2 6417   3.506   2.588   3.739
 2159TIP3    H1 6418   3.469   2.591   3.651
 2159TIP3    H2 6419   3.465   2.512   3.780
 2160TIP3   OH2 6420   1.264   3.406   3.972
 2160TIP3    H1 6421   1.291   3.315   3.982
 2160TIP3    H2 6422   1.188   3.415   4.031
 2161TIP3   OH2 6423   3.336   0.251   4.873
 2161TIP3    H1 6424   3.397   0.269   4.801
 2161TIP3    H2 6425   3.347   0.157   4.889
 2162TIP3   OH2 6426   1.223   1.085   2.785
 2162TIP3    H1 6427   1.225   1.180   2.797
 2162TIP3    H2 6428   1.132   1.067   2.762
 2163TIP3   OH2 6429   0.863   4.592   2.795
 2163TIP3    H1 6430   0.948   4.565   2.829
 2163TIP3    H2 6431   0.850   4.680   2.829
 2164TIP3   OH2 6432   2.880   3.944   1.779
 2164TIP3    H1 6433   2.855   4.022   1.829
 2164TIP3    H2 6434   2.798   3.912   1.741
 2165TIP3   OH2 6435   2.613   0.878   0.218
 2165TIP3    H1 6436   2.533   0.917   0.182
 2165TIP3    H2 6437   2.604   0.888   0.313
 2166TIP3   OH2 6438   5.072   3.759   3.177
 2166TIP3    H1 6439   5.166   3.767   3.196
 2166TIP3    H2 6440   5.061   3.801   3.092
 2167TIP3   OH2 6441   4.640   1.487   2.319
 2167TIP3    H1 6442   4.637   1.395   2.347
 2167TIP3    H2 6443   4.548   1.514   2.316
 2168TIP3   OH2 6444   0.518   1.546   6.290
 2168TIP3    H1 6445   0.489   1.631   6.259
 2168TIP3    H2 6446   0.529   1.493   6.210
 2169TIP3   OH2 6447   5.016   4.733   3.406
 2169TIP3    H1 6448   4.984   4.814   3.446
 2169TIP3    H2 6449   5.060   4.762   3.326
 2170TIP3   OH2 6450   1.670   0.667   1.643
 2170TIP3    H1 6451   1.648   0.736   1.706
 2170TIP3    H2 6452   1.759   0.688   1.614
 2171TIP3   OH2 6453   2.877   5.454   3.933
 2171TIP3    H1 6454   2.916   5.380   3.887
 2171TIP3    H2 6455   2.812   5.489   3.872
 2172TIP3   OH2 6456   1.473   7.261   4.018
 2172TIP3    H1 6457   1.497   7.183   3.968
 2172TIP3    H2 6458   1.493   7.239   4.109
 2173TIP3   OH2 6459   0.028   7.305   4.360
 2173TIP3    H1 6460   0.054   7.380   4.307
 2173TIP3    H2 6461  -0.047   7.268   4.313
 2174TIP3   OH2 6462   2.748   6.026   1.374
 2174TIP3    H1 6463   2.672   5.976   1.344
 2174TIP3    H2 6464   2.816   6.008   1.308
 2175TIP3   OH2 6465   3.662   2.532   6.573
 2175TIP3    H1 6466   3.668   2.451   6.623
 2175TIP3    H2 6467   3.667   2.601   6.639
 2176TIP3   OH2 6468   7.921   2.811   2.768
 2176TIP3    H1 6469   7.842   2.862   2.749
 2176TIP3    H2 6470   7.951   2.783   2.681
 2177TIP3   OH2 6471   2.894   0.619   0.972
 2177TIP3    H1 6472   2.883   0.545   1.032
 2177TIP3    H2 6473   2.840   0.689   1.009
 2178TIP3   OH2 6474   5.501   4.380   4.387
 2178TIP3    H1 6475   5.477   4.402   4.477
 2178TIP3    H2 6476   5.592   4.350   4.394
 2179TIP3   OH2 6477   1.672   7.765   4.939
 2179TIP3    H1 6478   1.709   7.845   4.977
 2179TIP3    H2 6479   1.722   7.695   4.979
 2180TIP3   OH2 6480   1.279   3.893   0.692
 2180TIP3    H1 6481   1.203   3.837   0.680
 2180TIP3    H2 6482   1.244   3.980   0.708
 2181TIP3   OH2 6483   0.922   5.470   0.882
 2181TIP3    H1 6484   0.829   5.450   0.886
 2181TIP3    H2 6485   0.937   5.530   0.955
 2182TIP3   OH2 6486   3.280   6.744   2.498
 2182TIP3    H1 6487   3.273   6.683   2.424
 2182TIP3    H2 6488   3.240   6.697   2.571
 2183TIP3   OH2 6489   3.306   6.892   0.198
 2183TIP3    H1 6490   3.261   6.890   0.113
 2183TIP3    H2 6491   3.238   6.867   0.261
 2184TIP3   OH2 6492   3.515   1.917   4.082
 2184TIP3    H1 6493   3.497   1.824   4.094
 2184TIP3    H2 6494   3.490   1.934   3.991
 2185TIP3   OH2 6495   2.984   1.530   5.766
 2185TIP3    H1 6496   3.041   1.605   5.784
 2185TIP3    H2 6497   3.003   1.469   5.837
 2186TIP3   OH2 6498   0.634   5.353   3.973
 2186TIP3    H1 6499   0.665   5.279   3.920
 2186TIP3    H2 6500   0.567   5.315   4.030
 2187TIP3   OH2 6501   6.092   1.400   5.026
 2187TIP3    H1 6502   6.100   1.364   5.114
 2187TIP3    H2 6503   6.074   1.325   4.970
 2188TIP3   OH2 6504   2.889   5.938   5.143
 2188TIP3    H1 6505   2.821   5.871   5.145
 2188TIP3    H2 6506   2.843   6.021   5.153
 2189TIP3   OH2 6507   0.738   1.308   1.796
 2189TIP3    H1 6508   0.667   1.346   1.848
 2189TIP3    H2 6509   0.749   1.220   1.832
 2190TIP3   OH2 6510   6.184   2.748   2.536
 2190TIP3    H1 6511   6.227   2.735   2.452
 2190TIP3    H2 6512   6.185   2.843   2.549
 2191TIP3   OH2 6513   1.852   1.331   3.414
 2191TIP3    H1 6514   1.781   1.343   3.478
 2191TIP3    H2 6515   1.872   1.238   3.418
 2192TIP3   OH2 6516   7.933   2.087   3.505
 2192TIP3    H1 6517   7.972   2.000   3.505
 2192TIP3    H2 6518   7.995   2.141   3.456
 2193TIP3   OH2 6519   1.608   0.768   1.246
 2193TIP3    H1 6520   1.631   0.829   1.316
 2193TIP3    H2 6521   1.645   0.685   1.274
 2194TIP3   OH2 6522   1.807   0.988   6.056
 2194TIP3    H1 6523   1.856   1.030   5.986
 2194TIP3    H2 6524   1.855   0.908   6.075
 2195TIP3   OH2 6525   3.193   5.522   3.102
 2195TIP3    H1 6526   3.155   5.435   3.096
 2195TIP3    H2 6527   3.287   5.509   3.090
 2196TIP3   OH2 6528   7.272   4.051   6.052
 2196TIP3    H1 6529   7.305   4.106   6.123
 2196TIP3    H2 6530   7.201   4.001   6.092
 2197TIP3   OH2 6531   6.306   5.518   6.319
 2197TIP3    H1 6532   6.307   5.430   6.356
 2197TIP3    H2 6533   6.337   5.506   6.229
 2198TIP3   OH2 6534   0.481   2.177   5.516
 2198TIP3    H1 6535   0.399   2.182   5.467
 2198TIP3    H2 6536   0.548   2.163   5.449
 2199TIP3   OH2 6537   6.946   1.929   3.501
 2199TIP3    H1 6538   6.898   2.003   3.539
 2199TIP3    H2 6539   7.006   1.969   3.438
 2200TIP3   OH2 6540   5.170   4.887   1.748
 2200TIP3    H1 6541   5.192   4.898   1.840
 2200TIP3    H2 6542   5.082   4.849   1.748
 2201TIP3   OH2 6543   1.742   7.378   1.337
 2201TIP3    H1 6544   1.828   7.350   1.306
 2201TIP3    H2 6545   1.722   7.455   1.285
 2202TIP3   OH2 6546   2.909   4.848   5.320
 2202TIP3    H1 6547   2.825   4.888   5.342
 2202TIP3    H2 6548   2.886   4.776   5.261
 2203TIP3   OH2 6549   5.171   4.728   5.004
 2203TIP3    H1 6550   5.125   4.781   4.939
 2203TIP3    H2 6551   5.263   4.734   4.979
 2204TIP3   OH2 6552   6.584   3.692   4.761
 2204TIP3    H1 6553   6.564   3.599   4.775
 2204TIP3    H2 6554   6.615   3.697   4.671
 2205TIP3   OH2 6555   1.874   1.733   5.358
 2205TIP3    H1 6556   1.904   1.651   5.397
 2205TIP3    H2 6557   1.845   1.708   5.270
 2206TIP3   OH2 6558   3.467   4.830   4.311
 2206TIP3    H1 6559   3.517   4.877   4.379
 2206TIP3    H2 6560   3.473   4.738   4.338
 2207TIP3   OH2 6561   4.332   5.377   5.297
 2207TIP3    H1 6562   4.271   5.331   5.355
 2207TIP3    H2 6563   4.414   5.381   5.348
 2208TIP3   OH2 6564   3.645   0.895   0.192
 2208TIP3    H1 6565   3.685   0.954   0.256
 2208TIP3    H2 6566   3.573   0.854   0.240
 2209TIP3   OH2 6567   7.439   6.141   1.536
 2209TIP3    H1 6568   7.356   6.177   1.504
 2209TIP3    H2 6569   7.418   6.106   1.623
 2210TIP3   OH2 6570   8.301   7.450   3.079
 2210TIP3    H1 6571   8.230   7.399   3.041
 2210TIP3    H2 6572   8.351   7.387   3.131
 2211TIP3   OH2 6573   5.782   1.861   4.034
 2211TIP3    H1 6574   5.792   1.904   4.119
 2211TIP3    H2 6575   5.747   1.930   3.977
 2212TIP3   OH2 6576   1.728   0.008   4.653
 2212TIP3    H1 6577   1.714  -0.087   4.647
 2212TIP3    H2 6578   1.642   0.043   4.678
 2213TIP3   OH2 6579   1.445   1.095   1.566
 2213TIP3    H1 6580   1.351   1.098   1.584
 2213TIP3    H2 6581   1.468   1.002   1.574
 2214TIP3   OH2 6582   2.504   5.184   0.435
 2214TIP3    H1 6583   2.423   5.179   0.486
 2214TIP3    H2 6584   2.547   5.100   0.452
 2215TIP3   OH2 6585   7.069   2.512   3.701
 2215TIP3    H1 6586   7.051   2.585   3.761
 2215TIP3    H2 6587   7.160   2.525   3.674
 2216TIP3   OH2 6588   4.295   1.550   2.863
 2216TIP3    H1 6589   4.304   1.456   2.877
 2216TIP3    H2 6590   4.379   1.579   2.829
 2217TIP3   OH2 6591   7.869   2.518   1.660
 2217TIP3    H1 6592   7.936   2.449   1.656
 2217TIP3    H2 6593   7.919   2.599   1.670
 2218TIP3   OH2 6594   6.717   5.405   3.971
 2218TIP3    H1 6595   6.675   5.441   3.892
 2218TIP3    H2 6596   6.795   5.360   3.938
 2219TIP3   OH2 6597   5.790   1.050   5.837
 2219TIP3    H1 6598   5.881   1.035   5.864
 2219TIP3    H2 6599   5.739   0.989   5.891
 2220TIP3   OH2 6600   1.776   6.487   3.184
 2220TIP3    H1 6601   1.719   6.556   3.149
 2220TIP3    H2 6602   1.825   6.530   3.254
 2221TIP3   OH2 6603   5.440   1.953   0.527
 2221TIP3    H1 6604   5.366   1.931   0.470
 2221TIP3    H2 6605   5.402   1.961   0.615
 2222TIP3   OH2 6606   1.758   3.201   3.414
 2222TIP3    H1 6607   1.815   3.269   3.379
 2222TIP3    H2 6608   1.799   3.174   3.496
 2223TIP3   OH2 6609   2.374   3.750   3.859
 2223TIP3    H1 6610   2.330   3.666   3.847
 2223TIP3    H2 6611   2.351   3.801   3.782
 2224TIP3   OH2 6612   5.319   5.835   6.397
 2224TIP3    H1 6613   5.370   5.756   6.384
 2224TIP3    H2 6614   5.383   5.901   6.426
 2225TIP3   OH2 6615   6.414   5.906   4.781
 2225TIP3    H1 6616   6.346   5.972   4.800
 2225TIP3    H2 6617   6.451   5.934   4.697
 2226TIP3   OH2 6618   2.747   1.819   3.977
 2226TIP3    H1 6619   2.688   1.755   3.939
 2226TIP3    H2 6620   2.719   1.826   4.069
 2227TIP3   OH2 6621   1.512   4.359   0.153
 2227TIP3    H1 6622   1.455   4.327   0.083
 2227TIP3    H2 6623   1.540   4.446   0.123
 2228TIP3   OH2 6624   5.492   5.471   4.457
 2228TIP3    H1 6625   5.518   5.485   4.548
 2228TIP3    H2 6626   5.415   5.415   4.463
 2229TIP3   OH2 6627   8.079   4.382   6.646
 2229TIP3    H1 6628   8.001   4.348   6.602
 2229TIP3    H2 6629   8.112   4.449   6.586
 2230TIP3   OH2 6630   0.541   1.362   4.645
 2230TIP3    H1 6631   0.556   1.281   4.597
 2230TIP3    H2 6632   0.505   1.422   4.579
 2231TIP3   OH2 6633   0.067   3.435   1.287
 2231TIP3    H1 6634   0.072   3.373   1.215
 2231TIP3    H2 6635   0.141   3.412   1.344
 2232TIP3   OH2 6636   2.795   3.413   2.065
 2232TIP3    H1 6637   2.764   3.342   2.009
 2232TIP3    H2 6638   2.885   3.427   2.038
 2233TIP3   OH2 6639   5.170   6.317   4.408
 2233TIP3    H1 6640   5.181   6.272   4.492
 2233TIP3    H2 6641   5.146   6.406   4.432
 2234TIP3   OH2 6642   5.460   6.976   1.830
 2234TIP3    H1 6643   5.399   6.994   1.903
 2234TIP3    H2 6644   5.432   6.892   1.796
 2235TIP3   OH2 6645   6.597   7.517   2.488
 2235TIP3    H1 6646   6.508   7.552   2.489
 2235TIP3    H2 6647   6.586   7.423   2.506
 2236TIP3   OH2 6648   0.313   1.136   3.656
 2236TIP3    H1 6649   0.277   1.217   3.692
 2236TIP3    H2 6650   0.250   1.069   3.680
 2237TIP3   OH2 6651   0.787   1.514   4.671
 2237TIP3    H1 6652   0.853   1.460   4.627
 2237TIP3    H2 6653   0.710   1.458   4.678
 2238TIP3   OH2 6654   4.843   6.063   0.840
 2238TIP3    H1 6655   4.931   6.031   0.858
 2238TIP3    H2 6656   4.855   6.157   0.823
 2239TIP3   OH2 6657   6.304   5.038   0.535
 2239TIP3    H1 6658   6.338   5.121   0.567
 2239TIP3    H2 6659   6.227   5.062   0.482
 2240TIP3   OH2 6660   0.810   3.033   3.381
 2240TIP3    H1 6661   0.881   2.991   3.430
 2240TIP3    H2 6662   0.837   3.026   3.290
 2241TIP3   OH2 6663   7.647   4.200   3.650
 2241TIP3    H1 6664   7.680   4.275   3.599
 2241TIP3    H2 6665   7.702   4.198   3.728
 2242TIP3   OH2 6666   2.481   6.728   1.570
 2242TIP3    H1 6667   2.417   6.664   1.604
 2242TIP3    H2 6668   2.509   6.692   1.486
 2243TIP3   OH2 6669   2.991   0.729   2.056
 2243TIP3    H1 6670   2.952   0.667   2.118
 2243TIP3    H2 6671   3.033   0.795   2.111
 2244TIP3   OH2 6672   6.320   7.558   2.509
 2244TIP3    H1 6673   6.276   7.608   2.577
 2244TIP3    H2 6674   6.254   7.493   2.481
 2245TIP3   OH2 6675   2.678   1.780   3.140
 2245TIP3    H1 6676   2.616   1.818   3.078
 2245TIP3    H2 6677   2.764   1.795   3.100
 2246TIP3   OH2 6678   4.750   6.672   5.164
 2246TIP3    H1 6679   4.754   6.606   5.233
 2246TIP3    H2 6680   4.656   6.679   5.143
 2247TIP3   OH2 6681   0.789   5.038   2.507
 2247TIP3    H1 6682   0.809   4.984   2.430
 2247TIP3    H2 6683   0.841   5.118   2.495
 2248TIP3   OH2 6684   7.152   5.995   2.956
 2248TIP3    H1 6685   7.090   6.061   2.925
 2248TIP3    H2 6686   7.132   5.917   2.904
 2249TIP3   OH2 6687   7.100   3.008   3.969
 2249TIP3    H1 6688   7.107   3.088   3.917
 2249TIP3    H2 6689   7.176   3.009   4.026
 2250TIP3   OH2 6690   1.254   7.797   2.592
 2250TIP3    H1 6691   1.279   7.787   2.501
 2250TIP3    H2 6692   1.190   7.868   2.592
 2251TIP3   OH2 6693   3.149   3.928   0.163
 2251TIP3    H1 6694   3.227   3.926   0.218
 2251TIP3    H2 6695   3.085   3.977   0.215
 2252TIP3   OH2 6696   5.416   5.983   5.806
 2252TIP3    H1 6697   5.358   5.939   5.869
 2252TIP3    H2 6698   5.484   6.024   5.859
 2253TIP3   OH2 6699   0.929   0.090   6.331
 2253TIP3    H1 6700   0.999   0.062   6.272
 2253TIP3    H2 6701   0.907   0.178   6.302
 2254TIP3   OH2 6702   6.323   4.849   0.729
 2254TIP3    H1 6703   6.260   4.794   0.682
 2254TIP3    H2 6704   6.345   4.918   0.667
 2255TIP3   OH2 6705   5.291   1.367   4.228
 2255TIP3    H1 6706   5.249   1.448   4.198
 2255TIP3    H2 6707   5.222   1.300   4.219
 2256TIP3   OH2 6708   3.520   6.629   1.560
 2256TIP3    H1 6709   3.600   6.630   1.612
 2256TIP3    H2 6710   3.450   6.639   1.624
 2257TIP3   OH2 6711   2.802   1.877   3.410
 2257TIP3    H1 6712   2.815   1.970   3.426
 2257TIP3    H2 6713   2.760   1.874   3.324
 2258TIP3   OH2 6714   7.998   7.532   4.872
 2258TIP3    H1 6715   8.001   7.451   4.821
 2258TIP3    H2 6716   8.083   7.573   4.856
 2259TIP3   OH2 6717   4.419   6.988   1.720
 2259TIP3    H1 6718   4.378   6.968   1.804
 2259TIP3    H2 6719   4.502   7.030   1.744
 2260TIP3   OH2 6720   1.585   0.499   0.033
 2260TIP3    H1 6721   1.626   0.413   0.027
 2260TIP3    H2 6722   1.580   0.530  -0.057
 2261TIP3   OH2 6723   3.886   0.542   0.305
 2261TIP3    H1 6724   3.793   0.553   0.286
 2261TIP3    H2 6725   3.930   0.605   0.248
 2262TIP3   OH2 6726   0.028   5.568   1.806
 2262TIP3    H1 6727   0.076   5.615   1.874
 2262TIP3    H2 6728  -0.024   5.503   1.853
 2263TIP3   OH2 6729   1.115   7.489   2.275
 2263TIP3    H1 6730   1.173   7.484   2.199
 2263TIP3    H2 6731   1.174   7.495   2.350
 2264TIP3   OH2 6732   4.484   1.091   3.950
 2264TIP3    H1 6733   4.506   1.048   3.868
 2264TIP3    H2 6734   4.441   1.024   4.002
 2265TIP3   OH2 6735   1.670   0.593   0.465
 2265TIP3    H1 6736   1.762   0.571   0.454
 2265TIP3    H2 6737   1.668   0.689   0.468
 2266TIP3   OH2 6738   4.774   5.936   6.100
 2266TIP3    H1 6739   4.804   5.957   6.012
 2266TIP3    H2 6740   4.759   6.022   6.142
 2267TIP3   OH2 6741   0.809   5.786   3.601
 2267TIP3    H1 6742   0.715   5.792   3.586
 2267TIP3    H2 6743   0.836   5.709   3.551
 2268TIP3   OH2 6744   3.076   6.301   6.327
 2268TIP3    H1 6745   3.163   6.282   6.362
 2268TIP3    H2 6746   3.085   6.387   6.286
 2269TIP3   OH2 6747   1.763   5.436   1.088
 2269TIP3    H1 6748   1.709   5.515   1.093
 2269TIP3    H2 6749   1.812   5.435   1.170
 2270TIP3   OH2 6750   0.073   5.684   5.383
 2270TIP3    H1 6751   0.052   5.701   5.291
 2270TIP3    H2 6752   0.115   5.597   5.382
 2271TIP3   OH2 6753   2.179   4.114   4.207
 2271TIP3    H1 6754   2.176   4.070   4.122
 2271TIP3    H2 6755   2.164   4.043   4.270
 2272TIP3   OH2 6756   1.391   7.689   0.698
 2272TIP3    H1 6757   1.434   7.612   0.735
 2272TIP3    H2 6758   1.302   7.685   0.732
 2273TIP3   OH2 6759   0.906   7.066   4.600
 2273TIP3    H1 6760   0.825   7.083   4.649
 2273TIP3    H2 6761   0.974   7.109   4.652
 2274TIP3   OH2 6762   1.257   3.181   2.326
 2274TIP3    H1 6763   1.309   3.247   2.280
 2274TIP3    H2 6764   1.213   3.229   2.396
 2275TIP3   OH2 6765   4.881   0.715   5.062
 2275TIP3    H1 6766   4.814   0.647   5.068
 2275TIP3    H2 6767   4.840   0.793   5.098
 2276TIP3   OH2 6768   4.502   5.685   4.818
 2276TIP3    H1 6769   4.575   5.744   4.799
 2276TIP3    H2 6770   4.425   5.742   4.822
 2277TIP3   OH2 6771   8.211   0.350   2.812
 2277TIP3    H1 6772   8.197   0.444   2.803
 2277TIP3    H2 6773   8.244   0.322   2.727
 2278TIP3   OH2 6774   3.281   7.615   3.093
 2278TIP3    H1 6775   3.354   7.618   3.155
 2278TIP3    H2 6776   3.240   7.530   3.108
 2279TIP3   OH2 6777   7.071   5.814   6.624
 2279TIP3    H1 6778   7.112   5.860   6.697
 2279TIP3    H2 6779   7.062   5.880   6.555
 2280TIP3   OH2 6780   5.314   6.552   3.508
 2280TIP3    H1 6781   5.297   6.469   3.464
 2280TIP3    H2 6782   5.399   6.540   3.550
 2281TIP3   OH2 6783   1.306   0.875   3.164
 2281TIP3    H1 6784   1.378   0.821   3.198
 2281TIP3    H2 6785   1.328   0.889   3.072
 2282TIP3   OH2 6786   6.502   6.547   6.266
 2282TIP3    H1 6787   6.424   6.583   6.308
 2282TIP3    H2 6788   6.575   6.582   6.317
 2283TIP3   OH2 6789   5.038   3.892   2.936
 2283TIP3    H1 6790   4.948   3.874   2.965
 2283TIP3    H2 6791   5.048   3.987   2.943
 2284TIP3   OH2 6792   2.515   4.571   2.675
 2284TIP3    H1 6793   2.606   4.559   2.700
 2284TIP3    H2 6794   2.519   4.599   2.583
 2285TIP3   OH2 6795   3.252   2.073   4.796
 2285TIP3    H1 6796   3.319   2.129   4.836
 2285TIP3    H2 6797   3.202   2.039   4.870
 2286TIP3   OH2 6798   4.109   5.252   2.101
 2286TIP3    H1 6799   4.105   5.194   2.025
 2286TIP3    H2 6800   4.105   5.194   2.177
 2287TIP3   OH2 6801   2.581   3.036   5.446
 2287TIP3    H1 6802   2.491   3.065   5.457
 2287TIP3    H2 6803   2.633   3.103   5.491
 2288TIP3   OH2 6804   7.499   2.141   2.649
 2288TIP3    H1 6805   7.426   2.087   2.681
 2288TIP3    H2 6806   7.567   2.130   2.715
 2289TIP3   OH2 6807   3.051   0.820   1.611
 2289TIP3    H1 6808   3.060   0.725   1.624
 2289TIP3    H2 6809   3.026   0.854   1.696
 2290TIP3   OH2 6810   1.441   6.828   0.066
 2290TIP3    H1 6811   1.503   6.819   0.138
 2290TIP3    H2 6812   1.405   6.916   0.077
 2291TIP3   OH2 6813   3.840   0.791   6.176
 2291TIP3    H1 6814   3.891   0.786   6.257
 2291TIP3    H2 6815   3.906   0.788   6.106
 2292TIP3   OH2 6816   4.341   5.787   3.037
 2292TIP3    H1 6817   4.339   5.761   2.945
 2292TIP3    H2 6818   4.432   5.777   3.064
 2293TIP3   OH2 6819   3.421   6.970   4.054
 2293TIP3    H1 6820   3.470   6.976   4.137
 2293TIP3    H2 6821   3.467   7.030   3.995
 2294TIP3   OH2 6822   0.948   2.996   6.331
 2294TIP3    H1 6823   1.040   2.968   6.328
 2294TIP3    H2 6824   0.930   3.008   6.424
 2295TIP3   OH2 6825   2.528   3.160   0.657
 2295TIP3    H1 6826   2.463   3.198   0.716
 2295TIP3    H2 6827   2.477   3.125   0.584
 2296TIP3   OH2 6828   1.783   5.713   4.662
 2296TIP3    H1 6829   1.847   5.757   4.606
 2296TIP3    H2 6830   1.747   5.783   4.717
 2297TIP3   OH2 6831   5.628   3.864   6.321
 2297TIP3    H1 6832   5.681   3.943   6.309
 2297TIP3    H2 6833   5.664   3.800   6.260
 2298TIP3   OH2 6834   7.977   6.884   2.474
 2298TIP3    H1 6835   7.920   6.924   2.540
 2298TIP3    H2 6836   8.063   6.923   2.491
 2299TIP3   OH2 6837   4.106   6.078   6.830
 2299TIP3    H1 6838   4.143   6.096   6.743
 2299TIP3    H2 6839   4.164   6.013   6.867
 2300TIP3   OH2 6840   5.561   4.439   0.597
 2300TIP3    H1 6841   5.634   4.378   0.588
 2300TIP3    H2 6842   5.580   4.510   0.535
 2301TIP3   OH2 6843   4.148   7.342   5.757
 2301TIP3    H1 6844   4.182   7.411   5.815
 2301TIP3    H2 6845   4.139   7.266   5.814
 2302TIP3   OH2 6846   4.794   7.531   1.142
 2302TIP3    H1 6847   4.859   7.480   1.189
 2302TIP3    H2 6848   4.845   7.598   1.096
 2303TIP3   OH2 6849   2.306   6.976   3.612
 2303TIP3    H1 6850   2.279   6.904   3.669
 2303TIP3    H2 6851   2.279   7.055   3.658
 2304TIP3   OH2 6852   6.734   2.659   2.494
 2304TIP3    H1 6853   6.686   2.701   2.423
 2304TIP3    H2 6854   6.677   2.587   2.522
 2305TIP3   OH2 6855   3.634   0.248   0.322
 2305TIP3    H1 6856   3.683   0.167   0.334
 2305TIP3    H2 6857   3.559   0.223   0.267
 2306TIP3   OH2 6858   3.051   7.085   3.521
 2306TIP3    H1 6859   2.990   7.015   3.544
 2306TIP3    H2 6860   3.124   7.076   3.582
 2307TIP3   OH2 6861   7.114   6.823   1.064
 2307TIP3    H1 6862   7.196   6.785   1.095
 2307TIP3    H2 6863   7.061   6.832   1.143
 2308TIP3   OH2 6864   5.584   2.285   0.675
 2308TIP3    H1 6865   5.612   2.202   0.637
 2308TIP3    H2 6866   5.649   2.304   0.743
 2309TIP3   OH2 6867   0.195   5.704   3.754
 2309TIP3    H1 6868   0.146   5.629   3.787
 2309TIP3    H2 6869   0.275   5.706   3.806
 2310TIP3   OH2 6870   5.965   3.500   2.213
 2310TIP3    H1 6871   6.029   3.565   2.239
 2310TIP3    H2 6872   5.924   3.472   2.295
 2311TIP3   OH2 6873   2.891   2.296   2.073
 2311TIP3    H1 6874   2.840   2.272   1.995
 2311TIP3    H2 6875   2.877   2.390   2.082
 2312TIP3   OH2 6876   2.157   2.287   0.193
 2312TIP3    H1 6877   2.160   2.193   0.175
 2312TIP3    H2 6878   2.096   2.296   0.266
 2313TIP3   OH2 6879   3.201   4.542   0.390
 2313TIP3    H1 6880   3.291   4.549   0.359
 2313TIP3    H2 6881   3.161   4.475   0.334
 2314TIP3   OH2 6882   4.580   3.863   1.354
 2314TIP3    H1 6883   4.508   3.867   1.291
 2314TIP3    H2 6884   4.589   3.770   1.375
 2315TIP3   OH2 6885   4.510   3.920   5.882
 2315TIP3    H1 6886   4.519   4.011   5.852
 2315TIP3    H2 6887   4.439   3.922   5.946
 2316TIP3   OH2 6888   6.930   6.703   6.015
 2316TIP3    H1 6889   7.003   6.704   5.952
 2316TIP3    H2 6890   6.906   6.795   6.024
 2317TIP3   OH2 6891   6.532   5.971   1.894
 2317TIP3    H1 6892   6.576   6.026   1.959
 2317TIP3    H2 6893   6.481   5.909   1.946
 2318TIP3   OH2 6894   6.305   2.759   5.212
 2318TIP3    H1 6895   6.358   2.825   5.168
 2318TIP3    H2 6896   6.330   2.676   5.172
 2319TIP3   OH2 6897   8.087   2.655   1.032
 2319TIP3    H1 6898   8.090   2.750   1.016
 2319TIP3    H2 6899   8.033   2.645   1.111
 2320TIP3   OH2 6900   4.697   6.248   3.574
 2320TIP3    H1 6901   4.713   6.323   3.516
 2320TIP3    H2 6902   4.784   6.224   3.606
 2321TIP3   OH2 6903   0.382   7.244   2.246
 2321TIP3    H1 6904   0.448   7.261   2.313
 2321TIP3    H2 6905   0.431   7.240   2.164
 2322TIP3   OH2 6906   6.894   0.451   3.289
 2322TIP3    H1 6907   6.814   0.433   3.339
 2322TIP3    H2 6908   6.964   0.442   3.353
 2323TIP3   OH2 6909   7.089   6.738   5.059
 2323TIP3    H1 6910   7.135   6.817   5.029
 2323TIP3    H2 6911   7.069   6.691   4.979
 2324TIP3   OH2 6912   7.050   7.417   3.340
 2324TIP3    H1 6913   7.036   7.425   3.434
 2324TIP3    H2 6914   7.109   7.343   3.331
 2325TIP3   OH2 6915   5.242   2.170   5.759
 2325TIP3    H1 6916   5.227   2.111   5.685
 2325TIP3    H2 6917   5.336   2.186   5.758
 2326TIP3   OH2 6918   7.639   6.044   3.425
 2326TIP3    H1 6919   7.733   6.039   3.404
 2326TIP3    H2 6920   7.618   6.137   3.417
 2327TIP3   OH2 6921   4.424   2.267   1.643
 2327TIP3    H1 6922   4.497   2.301   1.591
 2327TIP3    H2 6923   4.423   2.173   1.623
 2328TIP3   OH2 6924   0.046   3.411   0.561
 2328TIP3    H1 6925   0.116   3.413   0.497
 2328TIP3    H2 6926  -0.034   3.412   0.509
 2329TIP3   OH2 6927   1.647   6.367   4.945
 2329TIP3    H1 6928   1.706   6.408   4.882
 2329TIP3    H2 6929   1.692   6.374   5.029
 2330TIP3   OH2 6930   7.070   7.022   4.042
 2330TIP3    H1 6931   7.008   7.092   4.064
 2330TIP3    H2 6932   7.130   7.062   3.980
 2331TIP3   OH2 6933   1.069   5.013   1.049
 2331TIP3    H1 6934   1.142   5.058   1.092
 2331TIP3    H2 6935   1.029   5.080   0.994
 2332TIP3   OH2 6936   3.651   7.640   0.209
 2332TIP3    H1 6937   3.631   7.650   0.302
 2332TIP3    H2 6938   3.742   7.669   0.201
 2333TIP3   OH2 6939   5.913   5.920   1.005
 2333TIP3    H1 6940   5.844   5.877   0.955
 2333TIP3    H2 6941   5.875   5.935   1.091
 2334TIP3   OH2 6942   2.066   1.234   0.500
 2334TIP3    H1 6943   2.152   1.207   0.531
 2334TIP3    H2 6944   2.068   1.216   0.406
 2335TIP3   OH2 6945   6.671   2.979   2.941
 2335TIP3    H1 6946   6.647   2.887   2.929
 2335TIP3    H2 6947   6.654   3.019   2.856
 2336TIP3   OH2 6948   0.550   5.574   1.291
 2336TIP3    H1 6949   0.541   5.479   1.296
 2336TIP3    H2 6950   0.504   5.599   1.211
 2337TIP3   OH2 6951   4.455   7.051   4.282
 2337TIP3    H1 6952   4.488   7.133   4.245
 2337TIP3    H2 6953   4.477   6.985   4.216
 2338TIP3   OH2 6954   1.109   1.740   4.065
 2338TIP3    H1 6955   1.048   1.696   4.006
 2338TIP3    H2 6956   1.139   1.817   4.017
 2339TIP3   OH2 6957   6.680   7.466   5.305
 2339TIP3    H1 6958   6.634   7.525   5.364
 2339TIP3    H2 6959   6.769   7.461   5.339
 2340TIP3   OH2 6960   7.647   1.569   3.407
 2340TIP3    H1 6961   7.595   1.599   3.481
 2340TIP3    H2 6962   7.687   1.487   3.438
 2341TIP3   OH2 6963   3.549   5.809   1.392
 2341TIP3    H1 6964   3.453   5.810   1.397
 2341TIP3    H2 6965   3.576   5.751   1.463
 2342TIP3   OH2 6966   2.397   4.870   1.198
 2342TIP3    H1 6967   2.314   4.840   1.162
 2342TIP3    H2 6968   2.421   4.946   1.145
 2343TIP3   OH2 6969   5.798   5.892   3.780
 2343TIP3    H1 6970   5.795   5.806   3.737
 2343TIP3    H2 6971   5.805   5.955   3.708
 2344TIP3   OH2 6972   2.865   2.832   3.327
 2344TIP3    H1 6973   2.875   2.865   3.238
 2344TIP3    H2 6974   2.923   2.756   3.331
 2345TIP3   OH2 6975   7.307   2.994   4.175
 2345TIP3    H1 6976   7.401   3.011   4.173
 2345TIP3    H2 6977   7.300   2.898   4.181
 2346TIP3   OH2 6978   4.518   3.184   5.727
 2346TIP3    H1 6979   4.613   3.196   5.725
 2346TIP3    H2 6980   4.491   3.192   5.636
 2347TIP3   OH2 6981   3.776   3.725   2.325
 2347TIP3    H1 6982   3.854   3.721   2.270
 2347TIP3    H2 6983   3.764   3.819   2.342
 2348TIP3   OH2 6984   6.009   4.242   1.731
 2348TIP3    H1 6985   5.932   4.285   1.694
 2348TIP3    H2 6986   5.974   4.184   1.799
 2349TIP3   OH2 6987   2.502   5.106   3.935
 2349TIP3    H1 6988   2.513   5.037   4.000
 2349TIP3    H2 6989   2.589   5.145   3.927
 2350TIP3   OH2 6990   0.484   2.201   0.596
 2350TIP3    H1 6991   0.465   2.172   0.685
 2350TIP3    H2 6992   0.526   2.286   0.608
 2351TIP3   OH2 6993   5.081   0.077   3.042
 2351TIP3    H1 6994   5.020   0.037   3.104
 2351TIP3    H2 6995   5.132   0.003   3.008
 2352TIP3   OH2 6996   4.344   4.328   2.512
 2352TIP3    H1 6997   4.425   4.285   2.539
 2352TIP3    H2 6998   4.355   4.420   2.535
 2353TIP3   OH2 6999   0.526   5.080   6.441
 2353TIP3    H1 7000   0.433   5.098   6.459
 2353TIP3    H2 7001   0.527   4.990   6.409
 2354TIP3   OH2 7002   4.260   3.354   5.725
 2354TIP3    H1 7003   4.243   3.448   5.727
 2354TIP3    H2 7004   4.338   3.344   5.670
 2355TIP3   OH2 7005   3.324   2.935   2.034
 2355TIP3    H1 7006   3.307   2.841   2.029
 2355TIP3    H2 7007   3.337   2.963   1.944
 2356TIP3   OH2 7008   5.905   0.088   2.118
 2356TIP3    H1 7009   5.896   0.048   2.204
 2356TIP3    H2 7010   5.817   0.085   2.080
 2357TIP3   OH2 7011   0.903   6.773   2.865
 2357TIP3    H1 7012   0.860   6.752   2.948
 2357TIP3    H2 7013   0.938   6.861   2.877
 2358TIP3   OH2 7014   1.869   1.559   1.805
 2358TIP3    H1 7015   1.959   1.527   1.812
 2358TIP3    H2 7016   1.869   1.615   1.728
 2359TIP3   OH2 7017   6.345   4.865   1.913
 2359TIP3    H1 7018   6.273   4.900   1.861
 2359TIP3    H2 7019   6.423   4.910   1.879
 2360TIP3   OH2 7020   0.297   6.117   6.625
 2360TIP3    H1 7021   0.336   6.133   6.711
 2360TIP3    H2 7022   0.371   6.112   6.565
 2361TIP3   OH2 7023   6.337   1.838   1.648
 2361TIP3    H1 7024   6.426   1.839   1.612
 2361TIP3    H2 7025   6.295   1.915   1.611
 2362TIP3   OH2 7026   4.024   4.419   1.010
 2362TIP3    H1 7027   4.106   4.468   0.997
 2362TIP3    H2 7028   3.968   4.448   0.938
 2363TIP3   OH2 7029   7.248   7.424   1.900
 2363TIP3    H1 7030   7.185   7.418   1.972
 2363TIP3    H2 7031   7.216   7.496   1.847
 2364TIP3   OH2 7032   4.201   7.773   1.587
 2364TIP3    H1 7033   4.280   7.797   1.538
 2364TIP3    H2 7034   4.203   7.678   1.590
 2365TIP3   OH2 7035   0.242   6.816   3.498
 2365TIP3    H1 7036   0.172   6.751   3.488
 2365TIP3    H2 7037   0.318   6.776   3.456
 2366TIP3   OH2 7038   5.749   3.862   1.587
 2366TIP3    H1 7039   5.673   3.814   1.555
 2366TIP3    H2 7040   5.758   3.836   1.679
 2367TIP3   OH2 7041   8.242   2.028   4.315
 2367TIP3    H1 7042   8.335   2.025   4.291
 2367TIP3    H2 7043   8.196   1.993   4.239
 2368TIP3   OH2 7044   0.905   7.675   6.425
 2368TIP3    H1 7045   0.818   7.705   6.399
 2368TIP3    H2 7046   0.947   7.650   6.343
 2369TIP3   OH2 7047   5.372   7.496   1.011
 2369TIP3    H1 7048   5.327   7.564   0.961
 2369TIP3    H2 7049   5.452   7.479   0.962
 2370TIP3   OH2 7050   4.367   2.732   3.583
 2370TIP3    H1 7051   4.431   2.662   3.574
 2370TIP3    H2 7052   4.315   2.708   3.660
 2371TIP3   OH2 7053   4.858   3.418   6.459
 2371TIP3    H1 7054   4.856   3.450   6.368
 2371TIP3    H2 7055   4.934   3.460   6.497
 2372TIP3   OH2 7056   4.080   3.827   6.692
 2372TIP3    H1 7057   4.138   3.888   6.646
 2372TIP3    H2 7058   4.045   3.877   6.765
 2373TIP3   OH2 7059   3.984   5.415   3.555
 2373TIP3    H1 7060   3.967   5.436   3.647
 2373TIP3    H2 7061   3.943   5.486   3.507
 2374TIP3   OH2 7062   5.987   4.827   0.347
 2374TIP3    H1 7063   5.899   4.862   0.359
 2374TIP3    H2 7064   5.975   4.732   0.342
 2375TIP3   OH2 7065   0.600   7.134   4.603
 2375TIP3    H1 7066   0.566   7.194   4.537
 2375TIP3    H2 7067   0.556   7.051   4.584
 2376TIP3   OH2 7068   0.254   5.944   6.274
 2376TIP3    H1 7069   0.186   5.897   6.323
 2376TIP3    H2 7070   0.265   6.026   6.322
 2377TIP3   OH2 7071   4.804   4.559   4.674
 2377TIP3    H1 7072   4.856   4.580   4.597
 2377TIP3    H2 7073   4.857   4.588   4.748
 2378TIP3   OH2 7074   4.828   2.015   3.356
 2378TIP3    H1 7075   4.877   2.097   3.343
 2378TIP3    H2 7076   4.863   1.978   3.437
 2379TIP3   OH2 7077   6.211   2.206   4.755
 2379TIP3    H1 7078   6.124   2.176   4.779
 2379TIP3    H2 7079   6.211   2.300   4.775
 2380TIP3   OH2 7080   7.700   1.345   2.120
 2380TIP3    H1 7081   7.687   1.268   2.176
 2380TIP3    H2 7082   7.611   1.376   2.102
 2381TIP3   OH2 7083   7.629   0.808   0.924
 2381TIP3    H1 7084   7.669   0.757   0.854
 2381TIP3    H2 7085   7.702   0.852   0.966
 2382TIP3   OH2 7086   5.522   7.255   5.557
 2382TIP3    H1 7087   5.486   7.167   5.569
 2382TIP3    H2 7088   5.462   7.312   5.604
 2383TIP3   OH2 7089   2.913   7.893   2.719
 2383TIP3    H1 7090   3.003   7.869   2.740
 2383TIP3    H2 7091   2.899   7.977   2.764
 2384TIP3   OH2 7092   5.828   2.263   4.670
 2384TIP3    H1 7093   5.829   2.358   4.665
 2384TIP3    H2 7094   5.871   2.244   4.754
 2385TIP3   OH2 7095   0.776   0.802   1.630
 2385TIP3    H1 7096   0.869   0.778   1.630
 2385TIP3    H2 7097   0.745   0.778   1.543
 2386TIP3   OH2 7098   0.029   5.212   1.336
 2386TIP3    H1 7099  -0.022   5.174   1.264
 2386TIP3    H2 7100   0.040   5.304   1.312
 2387TIP3   OH2 7101   4.339   1.065   3.209
 2387TIP3    H1 7102   4.329   1.011   3.287
 2387TIP3    H2 7103   4.252   1.101   3.194
 2388TIP3   OH2 7104   3.884   6.514   5.023
 2388TIP3    H1 7105   3.893   6.486   4.932
 2388TIP3    H2 7106   3.855   6.605   5.017
 2389TIP3   OH2 7107   1.791   5.161   0.377
 2389TIP3    H1 7108   1.825   5.163   0.287
 2389TIP3    H2 7109   1.868   5.174   0.432
 2390TIP3   OH2 7110   7.327   4.399   0.909
 2390TIP3    H1 7111   7.367   4.317   0.939
 2390TIP3    H2 7112   7.372   4.419   0.827
 2391TIP3   OH2 7113   5.069   1.291   0.903
 2391TIP3    H1 7114   5.040   1.357   0.840
 2391TIP3    H2 7115   5.126   1.338   0.964
 2392TIP3   OH2 7116   5.010   4.965   0.859
 2392TIP3    H1 7117   5.062   5.031   0.904
 2392TIP3    H2 7118   5.012   4.992   0.767
 2393TIP3   OH2 7119   6.598   1.504   3.246
 2393TIP3    H1 7120   6.669   1.465   3.297
 2393TIP3    H2 7121   6.575   1.437   3.182
 2394TIP3   OH2 7122   4.786   4.828   5.133
 2394TIP3    H1 7123   4.695   4.798   5.126
 2394TIP3    H2 7124   4.786   4.888   5.208
 2395TIP3   OH2 7125   0.500   1.737   1.611
 2395TIP3    H1 7126   0.405   1.748   1.619
 2395TIP3    H2 7127   0.531   1.737   1.702
 2396TIP3   OH2 7128   7.315   2.169   6.537
 2396TIP3    H1 7129   7.344   2.085   6.573
 2396TIP3    H2 7130   7.266   2.145   6.458
 2397TIP3   OH2 7131   1.869   7.469   4.526
 2397TIP3    H1 7132   1.821   7.413   4.587
 2397TIP3    H2 7133   1.869   7.555   4.568
 2398TIP3   OH2 7134   5.061   4.544   3.876
 2398TIP3    H1 7135   4.982   4.491   3.865
 2398TIP3    H2 7136   5.084   4.571   3.787
 2399TIP3   OH2 7137   1.951   1.741   3.378
 2399TIP3    H1 7138   1.972   1.691   3.299
 2399TIP3    H2 7139   2.037   1.761   3.416
 2400TIP3   OH2 7140   4.676   2.331   3.891
 2400TIP3    H1 7141   4.700   2.240   3.873
 2400TIP3    H2 7142   4.757   2.372   3.921
 2401TIP3   OH2 7143   3.708   1.871   1.138
 2401TIP3    H1 7144   3.686   1.778   1.132
 2401TIP3    H2 7145   3.668   1.911   1.061
 2402TIP3   OH2 7146   5.890   7.859   5.403
 2402TIP3    H1 7147   5.854   7.920   5.467
 2402TIP3    H2 7148   5.813   7.821   5.360
 2403TIP3   OH2 7149   5.136   6.941   1.238
 2403TIP3    H1 7150   5.176   6.966   1.321
 2403TIP3    H2 7151   5.206   6.948   1.174
 2404TIP3   OH2 7152   5.277   6.840   0.921
 2404TIP3    H1 7153   5.344   6.790   0.873
 2404TIP3    H2 7154   5.327   6.907   0.968
 2405TIP3   OH2 7155   0.753   0.951   3.838
 2405TIP3    H1 7156   0.676   0.915   3.881
 2405TIP3    H2 7157   0.733   1.044   3.827
 2406TIP3   OH2 7158   2.518   5.944   0.182
 2406TIP3    H1 7159   2.439   5.973   0.227
 2406TIP3    H2 7160   2.490   5.867   0.132
 2407TIP3   OH2 7161   2.869   4.183   4.805
 2407TIP3    H1 7162   2.916   4.148   4.881
 2407TIP3    H2 7163   2.802   4.117   4.786
 2408TIP3   OH2 7164   0.923   1.305   0.515
 2408TIP3    H1 7165   0.897   1.220   0.551
 2408TIP3    H2 7166   0.970   1.347   0.587
 2409TIP3   OH2 7167   1.697   3.373   1.942
 2409TIP3    H1 7168   1.694   3.429   1.864
 2409TIP3    H2 7169   1.613   3.328   1.942
 2410TIP3   OH2 7170   3.970   6.941   0.983
 2410TIP3    H1 7171   3.991   6.953   0.890
 2410TIP3    H2 7172   4.048   6.901   1.020
 2411TIP3   OH2 7173   7.870   6.828   1.742
 2411TIP3    H1 7174   7.905   6.901   1.793
 2411TIP3    H2 7175   7.936   6.759   1.751
 2412TIP3   OH2 7176   0.751   0.980   4.833
 2412TIP3    H1 7177   0.786   1.068   4.848
 2412TIP3    H2 7178   0.758   0.968   4.738
 2413TIP3   OH2 7179   0.698   3.954   1.649
 2413TIP3    H1 7180   0.639   3.952   1.724
 2413TIP3    H2 7181   0.785   3.968   1.687
 2414TIP3   OH2 7182   2.840   3.783   5.213
 2414TIP3    H1 7183   2.893   3.791   5.134
 2414TIP3    H2 7184   2.795   3.699   5.204
 2415TIP3   OH2 7185   0.450   2.622   0.782
 2415TIP3    H1 7186   0.356   2.604   0.781
 2415TIP3    H2 7187   0.472   2.628   0.875
 2416TIP3   OH2 7188   0.037   2.642   1.271
 2416TIP3    H1 7189   0.021   2.719   1.324
 2416TIP3    H2 7190   0.005   2.569   1.324
 2417TIP3   OH2 7191   8.109   1.990   5.534
 2417TIP3    H1 7192   8.023   2.029   5.548
 2417TIP3    H2 7193   8.102   1.903   5.574
 2418TIP3   OH2 7194   7.973   4.047   2.144
 2418TIP3    H1 7195   8.027   4.093   2.208
 2418TIP3    H2 7196   7.904   4.006   2.197
 2419TIP3   OH2 7197   5.819   3.051   4.831
 2419TIP3    H1 7198   5.910   3.072   4.811
 2419TIP3    H2 7199   5.775   3.135   4.837
 2420TIP3   OH2 7200   4.789   3.070   2.587
 2420TIP3    H1 7201   4.847   3.056   2.512
 2420TIP3    H2 7202   4.719   3.006   2.576
 2421TIP3   OH2 7203   4.340   4.761   2.299
 2421TIP3    H1 7204   4.374   4.796   2.381
 2421TIP3    H2 7205   4.261   4.713   2.324
 2422TIP3   OH2 7206   2.325   0.941   4.063
 2422TIP3    H1 7207   2.279   1.019   4.033
 2422TIP3    H2 7208   2.263   0.896   4.119
 2423TIP3   OH2 7209   0.424   7.786   6.118
 2423TIP3    H1 7210   0.440   7.692   6.130
 2423TIP3    H2 7211   0.474   7.828   6.188
 2424TIP3   OH2 7212   6.408   4.510   6.024
 2424TIP3    H1 7213   6.461   4.558   6.088
 2424TIP3    H2 7214   6.335   4.569   6.004
 2425TIP3   OH2 7215   1.835   7.299   4.236
 2425TIP3    H1 7216   1.831   7.297   4.331
 2425TIP3    H2 7217   1.928   7.293   4.215
 2426TIP3   OH2 7218   6.693   2.836   0.909
 2426TIP3    H1 7219   6.656   2.765   0.963
 2426TIP3    H2 7220   6.647   2.828   0.826
 2427TIP3   OH2 7221   0.099   1.667   2.804
 2427TIP3    H1 7222   0.165   1.736   2.810
 2427TIP3    H2 7223   0.105   1.635   2.714
 2428TIP3   OH2 7224   0.028   5.896   0.031
 2428TIP3    H1 7225  -0.050   5.855  -0.006
 2428TIP3    H2 7226   0.063   5.950  -0.040
 2429TIP3   OH2 7227   2.244   6.497   3.881
 2429TIP3    H1 7228   2.264   6.465   3.793
 2429TIP3    H2 7229   2.148   6.500   3.885
 2430TIP3   OH2 7230   8.101   7.231   2.987
 2430TIP3    H1 7231   8.026   7.265   2.939
 2430TIP3    H2 7232   8.067   7.209   3.074
 2431TIP3   OH2 7233   6.262   7.209   4.528
 2431TIP3    H1 7234   6.280   7.255   4.609
 2431TIP3    H2 7235   6.262   7.116   4.552
 2432TIP3   OH2 7236   2.168   1.155   3.968
 2432TIP3    H1 7237   2.171   1.248   3.990
 2432TIP3    H2 7238   2.090   1.145   3.913
 2433TIP3   OH2 7239   4.415   7.596   6.357
 2433TIP3    H1 7240   4.496   7.628   6.395
 2433TIP3    H2 7241   4.368   7.674   6.329
 2434TIP3   OH2 7242   1.369   2.878   2.695
 2434TIP3    H1 7243   1.446   2.933   2.711
 2434TIP3    H2 7244   1.396   2.791   2.726
 2435TIP3   OH2 7245   1.544   5.325   0.490
 2435TIP3    H1 7246   1.639   5.332   0.479
 2435TIP3    H2 7247   1.527   5.231   0.487
 2436TIP3   OH2 7248   4.043   0.023   0.530
 2436TIP3    H1 7249   3.988  -0.051   0.557
 2436TIP3    H2 7250   4.106   0.035   0.601
 2437TIP3   OH2 7251   7.991   5.782   0.822
 2437TIP3    H1 7252   7.905   5.825   0.822
 2437TIP3    H2 7253   8.032   5.810   0.903
 2438TIP3   OH2 7254   6.775   3.037   1.348
 2438TIP3    H1 7255   6.767   3.012   1.440
 2438TIP3    H2 7256   6.709   3.104   1.335
 2439TIP3   OH2 7257   3.230   1.451   1.533
 2439TIP3    H1 7258   3.230   1.438   1.438
 2439TIP3    H2 7259   3.137   1.464   1.554
 2440TIP3   OH2 7260   0.586   6.996   0.731
 2440TIP3    H1 7261   0.640   6.935   0.781
 2440TIP3    H2 7262   0.644   7.031   0.664
 2441TIP3   OH2 7263   5.533   3.320   1.070
 2441TIP3    H1 7264   5.439   3.330   1.056
 2441TIP3    H2 7265   5.573   3.354   0.990
 2442TIP3   OH2 7266   7.612   3.202   4.544
 2442TIP3    H1 7267   7.659   3.164   4.470
 2442TIP3    H2 7268   7.576   3.284   4.510
 2443TIP3   OH2 7269   3.954   4.792   4.296
 2443TIP3    H1 7270   4.038   4.748   4.283
 2443TIP3    H2 7271   3.949   4.856   4.224
 2444TIP3   OH2 7272   4.931   3.371   4.992
 2444TIP3    H1 7273   4.935   3.348   5.085
 2444TIP3    H2 7274   5.001   3.319   4.952
 2445TIP3   OH2 7275   1.180   1.641   6.386
 2445TIP3    H1 7276   1.183   1.612   6.295
 2445TIP3    H2 7277   1.159   1.735   6.381
 2446TIP3   OH2 7278   3.711   6.979   2.695
 2446TIP3    H1 7279   3.670   6.893   2.705
 2446TIP3    H2 7280   3.642   7.034   2.659
 2447TIP3   OH2 7281   6.673   0.400   3.453
 2447TIP3    H1 7282   6.591   0.391   3.404
 2447TIP3    H2 7283   6.665   0.485   3.497
 2448TIP3   OH2 7284   1.544   3.129   0.402
 2448TIP3    H1 7285   1.607   3.112   0.332
 2448TIP3    H2 7286   1.487   3.053   0.402
 2449TIP3   OH2 7287   5.590   5.842   2.881
 2449TIP3    H1 7288   5.608   5.934   2.859
 2449TIP3    H2 7289   5.510   5.821   2.833
 2450TIP3   OH2 7290   7.528   5.094   2.530
 2450TIP3    H1 7291   7.514   5.125   2.620
 2450TIP3    H2 7292   7.592   5.156   2.494
 2451TIP3   OH2 7293   3.167   6.688   2.750
 2451TIP3    H1 7294   3.094   6.644   2.706
 2451TIP3    H2 7295   3.141   6.690   2.842
 2452TIP3   OH2 7296   4.717   0.417   3.804
 2452TIP3    H1 7297   4.793   0.474   3.790
 2452TIP3    H2 7298   4.750   0.347   3.861
 2453TIP3   OH2 7299   1.576   2.010   6.571
 2453TIP3    H1 7300   1.486   1.980   6.585
 2453TIP3    H2 7301   1.583   2.020   6.476
 2454TIP3   OH2 7302   0.524   6.983   3.007
 2454TIP3    H1 7303   0.439   6.947   3.031
 2454TIP3    H2 7304   0.512   7.016   2.918
 2455TIP3   OH2 7305   1.796   0.208   6.623
 2455TIP3    H1 7306   1.762   0.141   6.563
 2455TIP3    H2 7307   1.884   0.178   6.645
 2456TIP3   OH2 7308   5.213   1.684   3.507
 2456TIP3    H1 7309   5.135   1.688   3.451
 2456TIP3    H2 7310   5.223   1.591   3.527
 2457TIP3   OH2 7311   1.815   6.425   5.526
 2457TIP3    H1 7312   1.725   6.430   5.559
 2457TIP3    H2 7313   1.832   6.331   5.517
 2458TIP3   OH2 7314   2.373   0.109   3.860
 2458TIP3    H1 7315   2.292   0.161   3.863
 2458TIP3    H2 7316   2.442   0.174   3.848
 2459TIP3   OH2 7317   3.094   3.922   0.803
 2459TIP3    H1 7318   3.089   3.852   0.867
 2459TIP3    H2 7319   3.182   3.959   0.814
 2460TIP3   OH2 7320   1.208   0.201   1.312
 2460TIP3    H1 7321   1.268   0.270   1.282
 2460TIP3    H2 7322   1.246   0.169   1.393
 2461TIP3   OH2 7323   5.323   5.356   2.715
 2461TIP3    H1 7324   5.380   5.312   2.651
 2461TIP3    H2 7325   5.241   5.369   2.668
 2462TIP3   OH2 7326   3.450   2.477   6.816
 2462TIP3    H1 7327   3.495   2.555   6.848
 2462TIP3    H2 7328   3.520   2.418   6.789
 2463TIP3   OH2 7329   1.933   2.798   5.737
 2463TIP3    H1 7330   1.899   2.774   5.823
 2463TIP3    H2 7331   1.906   2.889   5.725
 2464TIP3   OH2 7332   6.599   2.729   2.991
 2464TIP3    H1 7333   6.505   2.748   2.989
 2464TIP3    H2 7334   6.617   2.706   3.083
 2465TIP3   OH2 7335   4.054   3.230   5.161
 2465TIP3    H1 7336   4.005   3.252   5.240
 2465TIP3    H2 7337   4.035   3.138   5.145
 2466TIP3   OH2 7338   4.412   3.309   2.343
 2466TIP3    H1 7339   4.485   3.302   2.404
 2466TIP3    H2 7340   4.412   3.226   2.296
 2467TIP3   OH2 7341   2.645   3.789   4.752
 2467TIP3    H1 7342   2.597   3.872   4.756
 2467TIP3    H2 7343   2.722   3.809   4.699
 2468TIP3   OH2 7344   2.847   4.524   4.901
 2468TIP3    H1 7345   2.902   4.448   4.880
 2468TIP3    H2 7346   2.757   4.491   4.892
 2469TIP3   OH2 7347   7.522   3.593   1.749
 2469TIP3    H1 7348   7.441   3.580   1.800
 2469TIP3    H2 7349   7.517   3.527   1.680
 2470TIP3   OH2 7350   5.868   0.056   0.964
 2470TIP3    H1 7351   5.909   0.142   0.954
 2470TIP3    H2 7352   5.853   0.027   0.874
 2471TIP3   OH2 7353   4.075   5.858   3.130
 2471TIP3    H1 7354   4.083   5.838   3.037
 2471TIP3    H2 7355   4.131   5.936   3.142
 2472TIP3   OH2 7356   2.523   3.112   5.963
 2472TIP3    H1 7357   2.519   3.065   5.880
 2472TIP3    H2 7358   2.432   3.132   5.984
 2473TIP3   OH2 7359   7.041   3.111   3.673
 2473TIP3    H1 7360   7.124   3.066   3.660
 2473TIP3    H2 7361   6.983   3.075   3.606
 2474TIP3   OH2 7362   6.140   7.121   6.140
 2474TIP3    H1 7363   6.234   7.127   6.154
 2474TIP3    H2 7364   6.111   7.212   6.133
 2475TIP3   OH2 7365   2.705   6.042   5.359
 2475TIP3    H1 7366   2.609   6.038   5.363
 2475TIP3    H2 7367   2.731   6.054   5.451
 2476TIP3   OH2 7368   3.353   3.499   3.872
 2476TIP3    H1 7369   3.294   3.507   3.797
 2476TIP3    H2 7370   3.319   3.562   3.936
 2477TIP3   OH2 7371   4.685   3.949   0.371
 2477TIP3    H1 7372   4.779   3.962   0.377
 2477TIP3    H2 7373   4.675   3.865   0.325
 2478TIP3   OH2 7374   5.803   0.382   3.389
 2478TIP3    H1 7375   5.716   0.394   3.351
 2478TIP3    H2 7376   5.793   0.309   3.450
 2479TIP3   OH2 7377   0.936   6.806   4.590
 2479TIP3    H1 7378   0.893   6.886   4.559
 2479TIP3    H2 7379   0.903   6.737   4.533
 2480TIP3   OH2 7380   7.478   3.485   2.412
 2480TIP3    H1 7381   7.542   3.550   2.386
 2480TIP3    H2 7382   7.441   3.518   2.494
 2481TIP3   OH2 7383   7.909   1.839   4.487
 2481TIP3    H1 7384   7.847   1.840   4.413
 2481TIP3    H2 7385   7.904   1.928   4.523
 2482TIP3   OH2 7386   0.438   7.682   5.694
 2482TIP3    H1 7387   0.416   7.760   5.745
 2482TIP3    H2 7388   0.362   7.624   5.706
 2483TIP3   OH2 7389   5.437   7.711   2.057
 2483TIP3    H1 7390   5.410   7.802   2.044
 2483TIP3    H2 7391   5.390   7.661   1.990
 2484TIP3   OH2 7392   3.593   4.728   5.749
 2484TIP3    H1 7393   3.520   4.786   5.774
 2484TIP3    H2 7394   3.671   4.781   5.765
 2485TIP3   OH2 7395   5.401   7.603   3.883
 2485TIP3    H1 7396   5.367   7.651   3.808
 2485TIP3    H2 7397   5.348   7.633   3.957
 2486TIP3   OH2 7398   6.280   7.122   0.005
 2486TIP3    H1 7399   6.195   7.136   0.048
 2486TIP3    H2 7400   6.338   7.095   0.075
 2487TIP3   OH2 7401   3.839   6.845   3.554
 2487TIP3    H1 7402   3.753   6.807   3.535
 2487TIP3    H2 7403   3.834   6.867   3.647
 2488TIP3   OH2 7404   0.907   0.664   3.422
 2488TIP3    H1 7405   0.900   0.720   3.500
 2488TIP3    H2 7406   0.817   0.649   3.395
 2489TIP3   OH2 7407   2.069   5.904   1.923
 2489TIP3    H1 7408   2.045   5.818   1.958
 2489TIP3    H2 7409   1.993   5.960   1.941
 2490TIP3   OH2 7410   8.044   5.651   3.651
 2490TIP3    H1 7411   8.068   5.570   3.606
 2490TIP3    H2 7412   8.053   5.631   3.744
 2491TIP3   OH2 7413   6.706   5.127   0.589
 2491TIP3    H1 7414   6.777   5.186   0.564
 2491TIP3    H2 7415   6.649   5.123   0.512
 2492TIP3   OH2 7416   2.585   4.366   4.040
 2492TIP3    H1 7417   2.585   4.390   4.133
 2492TIP3    H2 7418   2.501   4.398   4.007
 2493TIP3   OH2 7419   3.520   4.048   0.961
 2493TIP3    H1 7420   3.427   4.038   0.981
 2493TIP3    H2 7421   3.551   4.113   1.024
 2494TIP3   OH2 7422   6.525   5.726   1.257
 2494TIP3    H1 7423   6.439   5.744   1.294
 2494TIP3    H2 7424   6.573   5.809   1.266
 2495TIP3   OH2 7425   2.345   2.222   4.512
 2495TIP3    H1 7426   2.275   2.210   4.575
 2495TIP3    H2 7427   2.301   2.222   4.427
 2496TIP3   OH2 7428   1.449   1.978   1.383
 2496TIP3    H1 7429   1.422   2.013   1.468
 2496TIP3    H2 7430   1.542   1.957   1.394
 2497TIP3   OH2 7431   4.656   7.543   0.449
 2497TIP3    H1 7432   4.627   7.600   0.520
 2497TIP3    H2 7433   4.596   7.561   0.377
 2498TIP3   OH2 7434   0.581   2.858   6.058
 2498TIP3    H1 7435   0.595   2.949   6.034
 2498TIP3    H2 7436   0.520   2.825   5.991
 2499TIP3   OH2 7437   3.525   1.504   5.629
 2499TIP3    H1 7438   3.526   1.542   5.541
 2499TIP3    H2 7439   3.592   1.552   5.677
 2500TIP3   OH2 7440   7.236   6.249   6.065
 2500TIP3    H1 7441   7.313   6.193   6.060
 2500TIP3    H2 7442   7.267   6.329   6.109
 2501TIP3   OH2 7443   0.280   6.656   1.175
 2501TIP3    H1 7444   0.315   6.679   1.261
 2501TIP3    H2 7445   0.307   6.565   1.162
 2502TIP3   OH2 7446   5.587   3.599   1.849
 2502TIP3    H1 7447   5.655   3.572   1.911
 2502TIP3    H2 7448   5.560   3.519   1.806
 2503TIP3   OH2 7449   5.149   7.403   2.865
 2503TIP3    H1 7450   5.129   7.493   2.839
 2503TIP3    H2 7451   5.240   7.390   2.838
 2504TIP3   OH2 7452   1.476   5.916   3.281
 2504TIP3    H1 7453   1.469   5.943   3.190
 2504TIP3    H2 7454   1.567   5.887   3.291
 2505TIP3   OH2 7455   6.730   4.964   6.286
 2505TIP3    H1 7456   6.700   4.873   6.289
 2505TIP3    H2 7457   6.651   5.016   6.302
 2506TIP3   OH2 7458   4.708   2.702   3.922
 2506TIP3    H1 7459   4.649   2.757   3.870
 2506TIP3    H2 7460   4.760   2.655   3.856
 2507TIP3   OH2 7461   1.523   1.006   6.454
 2507TIP3    H1 7462   1.562   1.043   6.533
 2507TIP3    H2 7463   1.591   1.018   6.387
 2508TIP3   OH2 7464   0.031   2.759   4.209
 2508TIP3    H1 7465   0.113   2.711   4.218
 2508TIP3    H2 7466  -0.032   2.693   4.181
 2509TIP3   OH2 7467   7.671   7.869   2.424
 2509TIP3    H1 7468   7.663   7.773   2.418
 2509TIP3    H2 7469   7.586   7.901   2.396
 2510TIP3   OH2 7470   2.639   5.315   4.309
 2510TIP3    H1 7471   2.619   5.227   4.341
 2510TIP3    H2 7472   2.631   5.309   4.214
 2511TIP3   OH2 7473   6.857   1.774   4.800
 2511TIP3    H1 7474   6.843   1.858   4.843
 2511TIP3    H2 7475   6.799   1.776   4.724
 2512TIP3   OH2 7476   0.323   3.903   1.656
 2512TIP3    H1 7477   0.261   3.916   1.585
 2512TIP3    H2 7478   0.406   3.939   1.624
 2513TIP3   OH2 7479   7.623   6.316   3.435
 2513TIP3    H1 7480   7.621   6.313   3.530
 2513TIP3    H2 7481   7.716   6.321   3.413
 2514TIP3   OH2 7482   7.243   1.497   2.738
 2514TIP3    H1 7483   7.223   1.443   2.814
 2514TIP3    H2 7484   7.242   1.586   2.771
 2515TIP3   OH2 7485   8.037   2.310   0.150
 2515TIP3    H1 7486   8.038   2.397   0.189
 2515TIP3    H2 7487   8.050   2.325   0.056
 2516TIP3   OH2 7488   5.024   3.744   5.179
 2516TIP3    H1 7489   4.987   3.795   5.251
 2516TIP3    H2 7490   5.033   3.806   5.107
 2517TIP3   OH2 7491   2.714   6.291   5.029
 2517TIP3    H1 7492   2.686   6.206   4.993
 2517TIP3    H2 7493   2.797   6.310   4.985
 2518TIP3   OH2 7494   6.173   6.324   2.193
 2518TIP3    H1 7495   6.249   6.265   2.192
 2518TIP3    H2 7496   6.101   6.272   2.157
 2519TIP3   OH2 7497   4.813   5.973   3.766
 2519TIP3    H1 7498   4.736   6.021   3.796
 2519TIP3    H2 7499   4.865   5.961   3.846
 2520TIP3   OH2 7500   0.565   0.446   4.595
 2520TIP3    H1 7501   0.480   0.416   4.562
 2520TIP3    H2 7502   0.601   0.371   4.642
 2521TIP3   OH2 7503   7.071   6.720   1.345
 2521TIP3    H1 7504   7.023   6.701   1.426
 2521TIP3    H2 7505   7.156   6.678   1.356
 2522TIP3   OH2 7506   6.846   5.618   1.814
 2522TIP3    H1 7507   6.828   5.647   1.725
 2522TIP3    H2 7508   6.912   5.680   1.846
 2523TIP3   OH2 7509   0.095   3.645   6.521
 2523TIP3    H1 7510   0.152   3.653   6.445
 2523TIP3    H2 7511   0.007   3.632   6.484
 2524TIP3   OH2 7512   2.390   1.052   4.939
 2524TIP3    H1 7513   2.419   0.965   4.911
 2524TIP3    H2 7514   2.454   1.079   5.005
 2525TIP3   OH2 7515   4.810   5.896   3.260
 2525TIP3    H1 7516   4.824   5.939   3.344
 2525TIP3    H2 7517   4.897   5.872   3.230
 2526TIP3   OH2 7518   3.524   3.787   1.054
 2526TIP3    H1 7519   3.539   3.873   1.015
 2526TIP3    H2 7520   3.569   3.791   1.138
 2527TIP3   OH2 7521   4.276   0.276   1.508
 2527TIP3    H1 7522   4.328   0.264   1.429
 2527TIP3    H2 7523   4.186   0.288   1.477
 2528TIP3   OH2 7524   1.200   4.050   3.694
 2528TIP3    H1 7525   1.275   3.994   3.713
 2528TIP3    H2 7526   1.191   4.106   3.772
 2529TIP3   OH2 7527   5.299   2.224   1.793
 2529TIP3    H1 7528   5.223   2.180   1.755
 2529TIP3    H2 7529   5.266   2.265   1.873
 2530TIP3   OH2 7530   0.643   5.923   2.154
 2530TIP3    H1 7531   0.555   5.931   2.190
 2530TIP3    H2 7532   0.700   5.908   2.230
 2531TIP3   OH2 7533   3.867   3.076   2.868
 2531TIP3    H1 7534   3.961   3.091   2.878
 2531TIP3    H2 7535   3.848   3.098   2.777
 2532TIP3   OH2 7536   6.419   4.242   1.918
 2532TIP3    H1 7537   6.411   4.337   1.925
 2532TIP3    H2 7538   6.512   4.226   1.902
 2533TIP3   OH2 7539   4.119   7.684   5.891
 2533TIP3    H1 7540   4.203   7.639   5.894
 2533TIP3    H2 7541   4.076   7.650   5.812
 2534TIP3   OH2 7542   7.613   1.546   5.277
 2534TIP3    H1 7543   7.550   1.479   5.249
 2534TIP3    H2 7544   7.662   1.504   5.347
 2535TIP3   OH2 7545   7.036   0.015   5.402
 2535TIP3    H1 7546   7.021  -0.066   5.353
 2535TIP3    H2 7547   7.103   0.062   5.353
 2536TIP3   OH2 7548   8.152   6.223   2.026
 2536TIP3    H1 7549   8.111   6.282   1.964
 2536TIP3    H2 7550   8.150   6.137   1.983
 2537TIP3   OH2 7551   6.942   5.734   0.267
 2537TIP3    H1 7552   6.913   5.825   0.267
 2537TIP3    H2 7553   7.030   5.737   0.304
 2538TIP3   OH2 7554   6.400   5.135   6.064
 2538TIP3    H1 7555   6.391   5.046   6.031
 2538TIP3    H2 7556   6.323   5.147   6.120
 2539TIP3   OH2 7557   3.775   1.447   1.448
 2539TIP3    H1 7558   3.716   1.419   1.518
 2539TIP3    H2 7559   3.834   1.372   1.436
 2540TIP3   OH2 7560   7.880   5.189   0.784
 2540TIP3    H1 7561   7.959   5.143   0.757
 2540TIP3    H2 7562   7.856   5.243   0.708
 2541TIP3   OH2 7563   2.646   4.412   5.364
 2541TIP3    H1 7564   2.702   4.370   5.299
 2541TIP3    H2 7565   2.561   4.370   5.353
 2542TIP3   OH2 7566   0.182   5.131   2.404
 2542TIP3    H1 7567   0.233   5.180   2.468
 2542TIP3    H2 7568   0.222   5.153   2.320
 2543TIP3   OH2 7569   1.806   7.507   5.010
 2543TIP3    H1 7570   1.838   7.549   5.090
 2543TIP3    H2 7571   1.740   7.445   5.040
 2544TIP3   OH2 7572   0.296   5.396   5.162
 2544TIP3    H1 7573   0.263   5.306   5.162
 2544TIP3    H2 7574   0.263   5.433   5.244
 2545TIP3   OH2 7575   2.568   5.929   4.654
 2545TIP3    H1 7576   2.604   5.848   4.688
 2545TIP3    H2 7577   2.499   5.902   4.593
 2546TIP3   OH2 7578   3.022   1.478   3.846
 2546TIP3    H1 7579   3.005   1.463   3.940
 2546TIP3    H2 7580   3.061   1.396   3.816
 2547TIP3   OH2 7581   8.118   2.948   1.921
 2547TIP3    H1 7582   8.063   2.870   1.917
 2547TIP3    H2 7583   8.203   2.919   1.887
 2548TIP3   OH2 7584   0.908   5.414   4.525
 2548TIP3    H1 7585   0.983   5.470   4.546
 2548TIP3    H2 7586   0.847   5.428   4.597
 2549TIP3   OH2 7587   1.317   4.484   4.039
 2549TIP3    H1 7588   1.264   4.523   4.108
 2549TIP3    H2 7589   1.399   4.458   4.082
 2550TIP3   OH2 7590   1.920   1.686   1.524
 2550TIP3    H1 7591   2.009   1.714   1.541
 2550TIP3    H2 7592   1.923   1.648   1.436
 2551TIP3   OH2 7593   4.846   0.905   4.329
 2551TIP3    H1 7594   4.764   0.954   4.330
 2551TIP3    H2 7595   4.883   0.922   4.242
 2552TIP3   OH2 7596   8.134   2.137   4.541
 2552TIP3    H1 7597   8.136   2.100   4.453
 2552TIP3    H2 7598   8.203   2.091   4.588
 2553TIP3   OH2 7599   3.903   6.247   6.087
 2553TIP3    H1 7600   3.864   6.296   6.015
 2553TIP3    H2 7601   3.837   6.249   6.156
 2554TIP3   OH2 7602   3.097   0.361   2.064
 2554TIP3    H1 7603   3.037   0.313   2.006
 2554TIP3    H2 7604   3.039   0.411   2.121
 2555TIP3   OH2 7605   2.154   4.861   1.910
 2555TIP3    H1 7606   2.151   4.950   1.877
 2555TIP3    H2 7607   2.222   4.862   1.978
 2556TIP3   OH2 7608   3.661   5.520   5.353
 2556TIP3    H1 7609   3.722   5.454   5.321
 2556TIP3    H2 7610   3.653   5.582   5.281
 2557TIP3   OH2 7611   5.577   6.384   5.806
 2557TIP3    H1 7612   5.653   6.400   5.751
 2557TIP3    H2 7613   5.525   6.320   5.758
 2558TIP3   OH2 7614   1.449   1.346   1.079
 2558TIP3    H1 7615   1.466   1.264   1.125
 2558TIP3    H2 7616   1.462   1.414   1.146
 2559TIP3   OH2 7617   3.690   3.007   5.014
 2559TIP3    H1 7618   3.761   3.036   4.956
 2559TIP3    H2 7619   3.622   3.074   5.003
 2560TIP3   OH2 7620   5.231   6.371   1.894
 2560TIP3    H1 7621   5.198   6.414   1.815
 2560TIP3    H2 7622   5.158   6.377   1.956
 2561TIP3   OH2 7623   5.166   3.238   6.235
 2561TIP3    H1 7624   5.131   3.168   6.180
 2561TIP3    H2 7625   5.100   3.249   6.303
 2562TIP3   OH2 7626   4.911   4.201   6.042
 2562TIP3    H1 7627   4.887   4.109   6.031
 2562TIP3    H2 7628   4.828   4.248   6.039
 2563TIP3   OH2 7629   7.947   6.473   3.166
 2563TIP3    H1 7630   8.019   6.423   3.127
 2563TIP3    H2 7631   7.979   6.563   3.168
 2564TIP3   OH2 7632   7.897   3.101   2.882
 2564TIP3    H1 7633   7.876   3.023   2.831
 2564TIP3    H2 7634   7.828   3.164   2.859
 2565TIP3   OH2 7635   3.567   0.716   2.514
 2565TIP3    H1 7636   3.580   0.747   2.603
 2565TIP3    H2 7637   3.632   0.763   2.462
 2566TIP3   OH2 7638   3.991   0.260   1.456
 2566TIP3    H1 7639   3.918   0.319   1.437
 2566TIP3    H2 7640   3.951   0.173   1.459
 2567TIP3   OH2 7641   3.023   5.104   2.580
 2567TIP3    H1 7642   3.112   5.069   2.585
 2567TIP3    H2 7643   2.978   5.045   2.519
 2568TIP3   OH2 7644   0.164   1.795   3.117
 2568TIP3    H1 7645   0.166   1.876   3.169
 2568TIP3    H2 7646   0.253   1.784   3.086
 2569TIP3   OH2 7647   7.617   3.967   4.252
 2569TIP3    H1 7648   7.635   3.875   4.235
 2569TIP3    H2 7649   7.524   3.970   4.275
 2570TIP3   OH2 7650   1.491   3.690   4.938
 2570TIP3    H1 7651   1.567   3.690   4.997
 2570TIP3    H2 7652   1.507   3.764   4.879
 2571TIP3   OH2 7653   8.039   5.879   0.052
 2571TIP3    H1 7654   8.032   5.798   0.103
 2571TIP3    H2 7655   7.973   5.937   0.090
 2572TIP3   OH2 7656   6.106   4.936   3.382
 2572TIP3    H1 7657   6.101   5.008   3.445
 2572TIP3    H2 7658   6.194   4.900   3.394
 2573TIP3   OH2 7659   2.749   1.165   6.235
 2573TIP3    H1 7660   2.809   1.140   6.166
 2573TIP3    H2 7661   2.798   1.225   6.290
 2574TIP3   OH2 7662   3.953   1.093   2.923
 2574TIP3    H1 7663   4.016   1.032   2.885
 2574TIP3    H2 7664   3.893   1.037   2.973
 2575TIP3   OH2 7665   1.764   3.203   6.102
 2575TIP3    H1 7666   1.707   3.264   6.055
 2575TIP3    H2 7667   1.713   3.178   6.180
 2576TIP3   OH2 7668   5.655   4.289   5.054
 2576TIP3    H1 7669   5.658   4.195   5.074
 2576TIP3    H2 7670   5.745   4.312   5.032
 2577TIP3   OH2 7671   6.352   0.843   1.729
 2577TIP3    H1 7672   6.346   0.888   1.644
 2577TIP3    H2 7673   6.445   0.843   1.749
 2578TIP3   OH2 7674   7.003   7.543   0.438
 2578TIP3    H1 7675   6.951   7.560   0.360
 2578TIP3    H2 7676   6.964   7.465   0.477
 2579TIP3   OH2 7677   4.686   7.898   2.501
 2579TIP3    H1 7678   4.709   7.845   2.577
 2579TIP3    H2 7679   4.725   7.852   2.427
 2580TIP3   OH2 7680   6.928   1.208   5.127
 2580TIP3    H1 7681   6.966   1.273   5.068
 2580TIP3    H2 7682   6.855   1.254   5.169
 2581TIP3   OH2 7683   7.007   2.843   4.722
 2581TIP3    H1 7684   7.034   2.930   4.753
 2581TIP3    H2 7685   7.026   2.844   4.629
 2582TIP3   OH2 7686   1.165   5.914   1.163
 2582TIP3    H1 7687   1.147   5.989   1.220
 2582TIP3    H2 7688   1.260   5.905   1.164
 2583TIP3   OH2 7689   1.428   1.588   3.491
 2583TIP3    H1 7690   1.442   1.643   3.568
 2583TIP3    H2 7691   1.515   1.553   3.470
 2584TIP3   OH2 7692   4.034   2.744   2.097
 2584TIP3    H1 7693   4.037   2.765   2.004
 2584TIP3    H2 7694   3.947   2.770   2.126
 2585TIP3   OH2 7695   5.220   4.123   6.465
 2585TIP3    H1 7696   5.315   4.134   6.463
 2585TIP3    H2 7697   5.190   4.187   6.529
 2586TIP3   OH2 7698   0.364   4.994   4.170
 2586TIP3    H1 7699   0.458   4.979   4.171
 2586TIP3    H2 7700   0.335   4.975   4.259
 2587TIP3   OH2 7701   8.165   7.322   1.716
 2587TIP3    H1 7702   8.186   7.392   1.654
 2587TIP3    H2 7703   8.212   7.246   1.682
 2588TIP3   OH2 7704   0.367   3.643   3.821
 2588TIP3    H1 7705   0.455   3.645   3.783
 2588TIP3    H2 7706   0.309   3.636   3.745
 2589TIP3   OH2 7707   0.386   3.263   1.214
 2589TIP3    H1 7708   0.360   3.327   1.281
 2589TIP3    H2 7709   0.363   3.305   1.131
 2590TIP3   OH2 7710   5.951   7.353   5.853
 2590TIP3    H1 7711   6.026   7.307   5.814
 2590TIP3    H2 7712   5.876   7.321   5.804
 2591TIP3   OH2 7713   0.807   7.400   4.750
 2591TIP3    H1 7714   0.794   7.331   4.815
 2591TIP3    H2 7715   0.718   7.428   4.728
 2592TIP3   OH2 7716   1.358   7.088   0.092
 2592TIP3    H1 7717   1.405   7.112   0.012
 2592TIP3    H2 7718   1.297   7.161   0.107
 2593TIP3   OH2 7719   5.288   2.719   0.329
 2593TIP3    H1 7720   5.243   2.672   0.260
 2593TIP3    H2 7721   5.350   2.776   0.283
 2594TIP3   OH2 7722   4.983   0.758   1.996
 2594TIP3    H1 7723   4.989   0.663   2.000
 2594TIP3    H2 7724   5.072   0.788   1.979
 2595TIP3   OH2 7725   3.629   2.258   5.839
 2595TIP3    H1 7726   3.625   2.244   5.744
 2595TIP3    H2 7727   3.559   2.202   5.874
 2596TIP3   OH2 7728   6.887   3.476   0.172
 2596TIP3    H1 7729   6.887   3.492   0.266
 2596TIP3    H2 7730   6.855   3.386   0.162
 2597TIP3   OH2 7731   7.475   7.258   0.613
 2597TIP3    H1 7732   7.489   7.339   0.661
 2597TIP3    H2 7733   7.398   7.275   0.559
 2598TIP3   OH2 7734   5.888   3.522   2.789
 2598TIP3    H1 7735   5.959   3.465   2.819
 2598TIP3    H2 7736   5.826   3.462   2.747
 2599TIP3   OH2 7737   2.866   2.513   5.633
 2599TIP3    H1 7738   2.938   2.451   5.644
 2599TIP3    H2 7739   2.813   2.476   5.562
 2600TIP3   OH2 7740   5.952   2.256   4.951
 2600TIP3    H1 7741   5.974   2.331   5.006
 2600TIP3    H2 7742   5.978   2.180   5.003
 2601TIP3   OH2 7743   2.325   7.505   4.939
 2601TIP3    H1 7744   2.359   7.557   4.867
 2601TIP3    H2 7745   2.256   7.451   4.900
 2602TIP3   OH2 7746   6.526   1.357   5.113
 2602TIP3    H1 7747   6.582   1.368   5.036
 2602TIP3    H2 7748   6.507   1.264   5.116
 2603TIP3   OH2 7749   6.148   0.545   3.588
 2603TIP3    H1 7750   6.182   0.537   3.676
 2603TIP3    H2 7751   6.073   0.485   3.586
 2604TIP3   OH2 7752   3.949   5.771   2.419
 2604TIP3    H1 7753   3.923   5.782   2.328
 2604TIP3    H2 7754   3.874   5.803   2.470
 2605TIP3   OH2 7755   2.845   6.834   2.903
 2605TIP3    H1 7756   2.929   6.794   2.927
 2605TIP3    H2 7757   2.827   6.802   2.814
 2606TIP3   OH2 7758   0.300   1.229   0.315
 2606TIP3    H1 7759   0.393   1.248   0.320
 2606TIP3    H2 7760   0.285   1.205   0.224
 2607TIP3   OH2 7761   1.410   7.749   6.105
 2607TIP3    H1 7762   1.340   7.715   6.049
 2607TIP3    H2 7763   1.433   7.675   6.161
 2608TIP3   OH2 7764   7.561   1.958   3.324
 2608TIP3    H1 7765   7.529   1.928   3.238
 2608TIP3    H2 7766   7.656   1.949   3.319
 2609TIP3   OH2 7767   5.251   7.197   2.209
 2609TIP3    H1 7768   5.223   7.285   2.232
 2609TIP3    H2 7769   5.228   7.144   2.285
 2610TIP3   OH2 7770   5.829   4.620   1.076
 2610TIP3    H1 7771   5.795   4.554   1.015
 2610TIP3    H2 7772   5.751   4.665   1.108
 2611TIP3   OH2 7773   5.467   2.675   0.995
 2611TIP3    H1 7774   5.440   2.766   0.980
 2611TIP3    H2 7775   5.534   2.659   0.929
 2612TIP3   OH2 7776   4.098   6.267   6.427
 2612TIP3    H1 7777   4.193   6.258   6.421
 2612TIP3    H2 7778   4.080   6.355   6.394
 2613TIP3   OH2 7779   0.901   6.359   3.849
 2613TIP3    H1 7780   0.857   6.274   3.849
 2613TIP3    H2 7781   0.873   6.400   3.767
 2614TIP3   OH2 7782   8.178   5.899   3.720
 2614TIP3    H1 7783   8.230   5.908   3.640
 2614TIP3    H2 7784   8.112   5.833   3.698
 2615TIP3   OH2 7785   0.908   4.030   3.921
 2615TIP3    H1 7786   0.902   4.078   4.004
 2615TIP3    H2 7787   0.985   3.974   3.931
 2616TIP3   OH2 7788   6.292   2.969   4.182
 2616TIP3    H1 7789   6.263   3.046   4.133
 2616TIP3    H2 7790   6.302   3.000   4.272
 2617TIP3   OH2 7791   7.397   1.509   5.777
 2617TIP3    H1 7792   7.301   1.510   5.779
 2617TIP3    H2 7793   7.422   1.564   5.851
 2618TIP3   OH2 7794   0.772   5.694   2.481
 2618TIP3    H1 7795   0.804   5.764   2.423
 2618TIP3    H2 7796   0.799   5.613   2.438
 2619TIP3   OH2 7797   4.319   3.238   1.978
 2619TIP3    H1 7798   4.269   3.272   1.903
 2619TIP3    H2 7799   4.399   3.290   1.980
 2620TIP3   OH2 7800   6.884   2.388   5.649
 2620TIP3    H1 7801   6.963   2.398   5.701
 2620TIP3    H2 7802   6.914   2.343   5.569
 2621TIP3   OH2 7803   1.202   6.320   4.392
 2621TIP3    H1 7804   1.270   6.369   4.345
 2621TIP3    H2 7805   1.177   6.251   4.330
 2622TIP3   OH2 7806   7.723   5.054   5.043
 2622TIP3    H1 7807   7.721   5.007   4.960
 2622TIP3    H2 7808   7.783   5.003   5.098
 2623TIP3   OH2 7809   5.562   4.221   0.790
 2623TIP3    H1 7810   5.633   4.258   0.739
 2623TIP3    H2 7811   5.541   4.289   0.855
 2624TIP3   OH2 7812   4.569   7.349   1.121
 2624TIP3    H1 7813   4.476   7.338   1.141
 2624TIP3    H2 7814   4.583   7.444   1.128
 2625TIP3   OH2 7815   4.953   1.479   0.722
 2625TIP3    H1 7816   5.026   1.480   0.660
 2625TIP3    H2 7817   4.920   1.569   0.720
 2626TIP3   OH2 7818   3.308   2.262   6.711
 2626TIP3    H1 7819   3.295   2.223   6.798
 2626TIP3    H2 7820   3.361   2.339   6.728
 2627TIP3   OH2 7821   5.612   1.320   4.028
 2627TIP3    H1 7822   5.601   1.406   3.989
 2627TIP3    H2 7823   5.616   1.336   4.123
 2628TIP3   OH2 7824   2.237   2.840   6.431
 2628TIP3    H1 7825   2.232   2.769   6.367
 2628TIP3    H2 7826   2.192   2.806   6.508
 2629TIP3   OH2 7827   3.648   5.146   0.926
 2629TIP3    H1 7828   3.722   5.188   0.970
 2629TIP3    H2 7829   3.605   5.216   0.878
 2630TIP3   OH2 7830   3.252   6.726   6.371
 2630TIP3    H1 7831   3.237   6.814   6.407
 2630TIP3    H2 7832   3.340   6.731   6.333
 2631TIP3   OH2 7833   7.834   1.839   6.763
 2631TIP3    H1 7834   7.862   1.808   6.848
 2631TIP3    H2 7835   7.903   1.811   6.703
 2632TIP3   OH2 7836   1.051   3.305   2.485
 2632TIP3    H1 7837   1.032   3.300   2.579
 2632TIP3    H2 7838   0.965   3.303   2.444
 2633TIP3   OH2 7839   6.246   6.596   6.404
 2633TIP3    H1 7840   6.190   6.657   6.354
 2633TIP3    H2 7841   6.225   6.615   6.495
 2634TIP3   OH2 7842   7.578   4.481   1.274
 2634TIP3    H1 7843   7.554   4.466   1.182
 2634TIP3    H2 7844   7.664   4.521   1.271
 2635TIP3   OH2 7845   2.820   4.820   6.477
 2635TIP3    H1 7846   2.813   4.760   6.551
 2635TIP3    H2 7847   2.837   4.905   6.517
 2636TIP3   OH2 7848   5.504   7.103   4.529
 2636TIP3    H1 7849   5.456   7.159   4.591
 2636TIP3    H2 7850   5.531   7.163   4.460
 2637TIP3   OH2 7851   8.331   3.951   6.484
 2637TIP3    H1 7852   8.362   4.033   6.523
 2637TIP3    H2 7853   8.302   3.899   6.558
 2638TIP3   OH2 7854   7.361   5.293   0.144
 2638TIP3    H1 7855   7.294   5.327   0.085
 2638TIP3    H2 7856   7.406   5.226   0.093
 2639TIP3   OH2 7857   8.206   7.802   6.657
 2639TIP3    H1 7858   8.236   7.729   6.603
 2639TIP3    H2 7859   8.213   7.771   6.747
 2640TIP3   OH2 7860   0.807   2.761   2.525
 2640TIP3    H1 7861   0.887   2.795   2.565
 2640TIP3    H2 7862   0.749   2.836   2.518
 2641TIP3   OH2 7863   0.591   1.250   0.361
 2641TIP3    H1 7864   0.666   1.229   0.305
 2641TIP3    H2 7865   0.612   1.336   0.398
 2642TIP3   OH2 7866   1.371   2.411   5.242
 2642TIP3    H1 7867   1.361   2.473   5.170
 2642TIP3    H2 7868   1.432   2.345   5.208
 2643TIP3   OH2 7869   0.862   0.819   2.972
 2643TIP3    H1 7870   0.876   0.755   3.042
 2643TIP3    H2 7871   0.832   0.898   3.016
 2644TIP3   OH2 7872   4.043   0.152   6.128
 2644TIP3    H1 7873   4.101   0.100   6.183
 2644TIP3    H2 7874   3.981   0.192   6.189
 2645TIP3   OH2 7875   3.750   1.732   5.451
 2645TIP3    H1 7876   3.772   1.789   5.526
 2645TIP3    H2 7877   3.819   1.665   5.451
 2646TIP3   OH2 7878   4.956   6.869   5.700
 2646TIP3    H1 7879   4.893   6.821   5.645
 2646TIP3    H2 7880   4.918   6.957   5.709
 2647TIP3   OH2 7881   0.449   0.476   3.884
 2647TIP3    H1 7882   0.359   0.478   3.917
 2647TIP3    H2 7883   0.480   0.388   3.903
 2648TIP3   OH2 7884   1.592   6.674   5.480
 2648TIP3    H1 7885   1.588   6.596   5.534
 2648TIP3    H2 7886   1.643   6.737   5.532
 2649TIP3   OH2 7887   4.892   2.387   6.650
 2649TIP3    H1 7888   4.945   2.322   6.604
 2649TIP3    H2 7889   4.805   2.381   6.609
 2650TIP3   OH2 7890   5.458   6.137   4.232
 2650TIP3    H1 7891   5.395   6.199   4.196
 2650TIP3    H2 7892   5.406   6.059   4.250
 2651TIP3   OH2 7893   6.122   2.015   1.788
 2651TIP3    H1 7894   6.093   1.943   1.732
 2651TIP3    H2 7895   6.194   2.055   1.738
 2652TIP3   OH2 7896   4.964  -0.001   3.650
 2652TIP3    H1 7897   5.051   0.035   3.632
 2652TIP3    H2 7898   4.915   0.014   3.569
 2653TIP3   OH2 7899   7.464   2.334   1.620
 2653TIP3    H1 7900   7.498   2.348   1.531
 2653TIP3    H2 7901   7.424   2.418   1.644
 2654TIP3   OH2 7902   7.563   0.655   4.606
 2654TIP3    H1 7903   7.562   0.613   4.692
 2654TIP3    H2 7904   7.578   0.747   4.625
 2655TIP3   OH2 7905   0.729   7.659   2.740
 2655TIP3    H1 7906   0.730   7.577   2.691
 2655TIP3    H2 7907   0.806   7.654   2.797
 2656TIP3   OH2 7908   5.056   5.696   2.750
 2656TIP3    H1 7909   5.025   5.783   2.775
 2656TIP3    H2 7910   5.117   5.712   2.678
 2657TIP3   OH2 7911   4.376   0.293   1.771
 2657TIP3    H1 7912   4.467   0.322   1.772
 2657TIP3    H2 7913   4.350   0.300   1.679
 2658TIP3   OH2 7914   6.515   6.257   5.327
 2658TIP3    H1 7915   6.466   6.332   5.360
 2658TIP3    H2 7916   6.461   6.222   5.257
 2659TIP3   OH2 7917   0.795   5.566   1.623
 2659TIP3    H1 7918   0.792   5.548   1.529
 2659TIP3    H2 7919   0.825   5.484   1.663
 2660TIP3   OH2 7920   7.395   7.725   1.714
 2660TIP3    H1 7921   7.339   7.796   1.742
 2660TIP3    H2 7922   7.417   7.678   1.794
 2661TIP3   OH2 7923   2.126   4.368   1.123
 2661TIP3    H1 7924   2.082   4.308   1.182
 2661TIP3    H2 7925   2.174   4.312   1.062
 2662TIP3   OH2 7926   6.147   5.744   5.282
 2662TIP3    H1 7927   6.117   5.656   5.259
 2662TIP3    H2 7928   6.235   5.751   5.245
 2663TIP3   OH2 7929   1.139   3.997   5.077
 2663TIP3    H1 7930   1.147   3.931   5.146
 2663TIP3    H2 7931   1.200   3.968   5.010
 2664TIP3   OH2 7932   3.329   5.964   5.605
 2664TIP3    H1 7933   3.347   5.884   5.555
 2664TIP3    H2 7934   3.246   5.946   5.650
 2665TIP3   OH2 7935   6.433   0.626   5.442
 2665TIP3    H1 7936   6.489   0.596   5.371
 2665TIP3    H2 7937   6.361   0.563   5.444
 2666TIP3   OH2 7938   2.523   2.019   1.784
 2666TIP3    H1 7939   2.603   1.970   1.763
 2666TIP3    H2 7940   2.546   2.071   1.860
 2667TIP3   OH2 7941   2.743   0.009   2.177
 2667TIP3    H1 7942   2.778   0.094   2.204
 2667TIP3    H2 7943   2.794  -0.055   2.227
 2668TIP3   OH2 7944   4.796   3.705   5.425
 2668TIP3    H1 7945   4.804   3.685   5.332
 2668TIP3    H2 7946   4.713   3.752   5.433
 2669TIP3   OH2 7947   6.739   5.557   0.159
 2669TIP3    H1 7948   6.824   5.597   0.179
 2669TIP3    H2 7949   6.689   5.565   0.240
 2670TIP3   OH2 7950   5.559   2.587   0.580
 2670TIP3    H1 7951   5.466   2.565   0.571
 2670TIP3    H2 7952   5.603   2.502   0.585
 2671TIP3   OH2 7953   6.961   4.465   3.691
 2671TIP3    H1 7954   6.935   4.390   3.744
 2671TIP3    H2 7955   7.056   4.457   3.681
 2672TIP3   OH2 7956   5.279   0.430   2.699
 2672TIP3    H1 7957   5.325   0.348   2.679
 2672TIP3    H2 7958   5.216   0.406   2.767
 2673TIP3   OH2 7959   4.831   2.799   1.404
 2673TIP3    H1 7960   4.787   2.750   1.334
 2673TIP3    H2 7961   4.918   2.818   1.368
 2674TIP3   OH2 7962   3.706   0.186   6.803
 2674TIP3    H1 7963   3.615   0.176   6.832
 2674TIP3    H2 7964   3.720   0.112   6.743
 2675TIP3   OH2 7965   2.203   6.042   3.331
 2675TIP3    H1 7966   2.163   5.956   3.320
 2675TIP3    H2 7967   2.213   6.052   3.426
 2676TIP3   OH2 7968   7.113   5.422   2.849
 2676TIP3    H1 7969   7.046   5.484   2.877
 2676TIP3    H2 7970   7.172   5.474   2.794
 2677TIP3   OH2 7971   6.788   1.315   2.530
 2677TIP3    H1 7972   6.765   1.366   2.453
 2677TIP3    H2 7973   6.761   1.225   2.509
 2678TIP3   OH2 7974   3.585   7.316   1.953
 2678TIP3    H1 7975   3.622   7.246   2.006
 2678TIP3    H2 7976   3.517   7.356   2.008
 2679TIP3   OH2 7977   7.393   6.654   0.951
 2679TIP3    H1 7978   7.392   6.725   0.886
 2679TIP3    H2 7979   7.479   6.661   0.992
 2680TIP3   OH2 7980   1.932   1.084   4.731
 2680TIP3    H1 7981   1.908   1.172   4.759
 2680TIP3    H2 7982   2.005   1.097   4.671
 2681TIP3   OH2 7983   2.965   5.080   4.636
 2681TIP3    H1 7984   3.050   5.103   4.600
 2681TIP3    H2 7985   2.976   4.991   4.669
 2682TIP3   OH2 7986   5.604   1.421   0.465
 2682TIP3    H1 7987   5.650   1.495   0.504
 2682TIP3    H2 7988   5.581   1.450   0.376
 2683TIP3   OH2 7989   2.986   2.038   5.018
 2683TIP3    H1 7990   2.922   2.047   4.948
 2683TIP3    H2 7991   3.002   1.944   5.025
 2684TIP3   OH2 7992   1.885   1.135   2.346
 2684TIP3    H1 7993   1.855   1.103   2.430
 2684TIP3    H2 7994   1.964   1.085   2.327
 2685TIP3   OH2 7995   7.837   0.157   1.103
 2685TIP3    H1 7996   7.859   0.203   1.022
 2685TIP3    H2 7997   7.867   0.067   1.089
 2686TIP3   OH2 7998   5.870   0.850   6.673
 2686TIP3    H1 7999   5.898   0.939   6.694
 2686TIP3    H2 8000   5.951   0.798   6.675
 2687TIP3   OH2 8001   5.502   0.991   0.681
 2687TIP3    H1 8002   5.516   0.944   0.763
 2687TIP3    H2 8003   5.472   0.924   0.619
 2688TIP3   OH2 8004   2.977   3.993   4.482
 2688TIP3    H1 8005   2.882   3.989   4.476
 2688TIP3    H2 8006   2.995   4.061   4.547
 2689TIP3   OH2 8007   3.815   3.158   3.128
 2689TIP3    H1 8008   3.804   3.253   3.131
 2689TIP3    H2 8009   3.857   3.142   3.043
 2690TIP3   OH2 8010   4.295   5.910   1.720
 2690TIP3    H1 8011   4.280   5.950   1.634
 2690TIP3    H2 8012   4.335   5.826   1.700
 2691TIP3   OH2 8013   5.839   4.830   1.834
 2691TIP3    H1 8014   5.854   4.906   1.777
 2691TIP3    H2 8015   5.877   4.757   1.786
 2692TIP3   OH2 8016   8.109   0.582   0.368
 2692TIP3    H1 8017   8.115   0.570   0.463
 2692TIP3    H2 8018   8.086   0.675   0.358
 2693TIP3   OH2 8019   5.577   7.200   1.090
 2693TIP3    H1 8020   5.615   7.208   1.178
 2693TIP3    H2 8021   5.612   7.274   1.042
 2694TIP3   OH2 8022   3.048   7.133   0.274
 2694TIP3    H1 8023   3.016   7.164   0.358
 2694TIP3    H2 8024   3.055   7.038   0.284
 2695TIP3   OH2 8025   3.776   6.400   1.585
 2695TIP3    H1 8026   3.824   6.482   1.577
 2695TIP3    H2 8027   3.789   6.374   1.676
 2696TIP3   OH2 8028   3.603   3.016   3.009
 2696TIP3    H1 8029   3.659   2.984   2.938
 2696TIP3    H2 8030   3.654   3.086   3.050
 2697TIP3   OH2 8031   2.241   0.974   4.387
 2697TIP3    H1 8032   2.269   1.052   4.338
 2697TIP3    H2 8033   2.194   0.921   4.323
 2698TIP3   OH2 8034   7.884   0.186   2.302
 2698TIP3    H1 8035   7.936   0.109   2.324
 2698TIP3    H2 8036   7.796   0.152   2.284
 2699TIP3   OH2 8037   7.852   1.089   3.503
 2699TIP3    H1 8038   7.791   1.030   3.458
 2699TIP3    H2 8039   7.927   1.096   3.444
 2700TIP3   OH2 8040   6.881   3.357   5.895
 2700TIP3    H1 8041   6.928   3.273   5.889
 2700TIP3    H2 8042   6.788   3.332   5.894
 2701TIP3   OH2 8043   8.245   4.598   4.794
 2701TIP3    H1 8044   8.239   4.666   4.860
 2701TIP3    H2 8045   8.190   4.527   4.826
 2702TIP3   OH2 8046   0.258   2.481   1.361
 2702TIP3    H1 8047   0.337   2.427   1.362
 2702TIP3    H2 8048   0.196   2.432   1.306
 2703TIP3   OH2 8049   4.579   0.575   4.384
 2703TIP3    H1 8050   4.529   0.653   4.406
 2703TIP3    H2 8051   4.627   0.598   4.305
 2704TIP3   OH2 8052   2.269   3.519   1.530
 2704TIP3    H1 8053   2.192   3.464   1.514
 2704TIP3    H2 8054   2.313   3.478   1.604
 2705TIP3   OH2 8055   5.759   2.082   3.167
 2705TIP3    H1 8056   5.770   2.007   3.227
 2705TIP3    H2 8057   5.766   2.044   3.080
 2706TIP3   OH2 8058   7.753   2.460   6.418
 2706TIP3    H1 8059   7.827   2.503   6.461
 2706TIP3    H2 8060   7.788   2.429   6.334
 2707TIP3   OH2 8061   4.058   2.305   6.373
 2707TIP3    H1 8062   4.035   2.220   6.336
 2707TIP3    H2 8063   3.984   2.361   6.350
 2708TIP3   OH2 8064   0.145   5.467   1.353
 2708TIP3    H1 8065   0.181   5.407   1.418
 2708TIP3    H2 8066   0.111   5.540   1.405
 2709TIP3   OH2 8067   0.237   2.908   3.403
 2709TIP3    H1 8068   0.263   2.886   3.314
 2709TIP3    H2 8069   0.161   2.851   3.420
 2710TIP3   OH2 8070   7.454   6.108   2.293
 2710TIP3    H1 8071   7.368   6.145   2.314
 2710TIP3    H2 8072   7.489   6.080   2.378
 2711TIP3   OH2 8073   4.567   0.610   0.520
 2711TIP3    H1 8074   4.589   0.517   0.524
 2711TIP3    H2 8075   4.588   0.644   0.607
 2712TIP3   OH2 8076   6.891   2.639   3.368
 2712TIP3    H1 8077   6.822   2.687   3.324
 2712TIP3    H2 8078   6.970   2.658   3.317
 2713TIP3   OH2 8079   5.773   1.615   3.296
 2713TIP3    H1 8080   5.828   1.646   3.224
 2713TIP3    H2 8081   5.708   1.559   3.254
 2714TIP3   OH2 8082   6.894   2.880   0.616
 2714TIP3    H1 8083   6.823   2.927   0.573
 2714TIP3    H2 8084   6.913   2.930   0.695
 2715TIP3   OH2 8085   5.264   6.333   0.984
 2715TIP3    H1 8086   5.240   6.304   1.072
 2715TIP3    H2 8087   5.351   6.372   0.994
 2716TIP3   OH2 8088   5.797   7.791   5.986
 2716TIP3    H1 8089   5.871   7.778   5.927
 2716TIP3    H2 8090   5.726   7.741   5.946
 2717TIP3   OH2 8091   8.362   3.868   3.159
 2717TIP3    H1 8092   8.373   3.789   3.106
 2717TIP3    H2 8093   8.351   3.938   3.095
 2718TIP3   OH2 8094   7.676   7.286   4.402
 2718TIP3    H1 8095   7.709   7.311   4.316
 2718TIP3    H2 8096   7.602   7.345   4.418
 2719TIP3   OH2 8097   8.107   0.853   3.483
 2719TIP3    H1 8098   8.184   0.872   3.431
 2719TIP3    H2 8099   8.139   0.846   3.573
 2720TIP3   OH2 8100   8.071   6.111   4.521
 2720TIP3    H1 8101   8.029   6.167   4.456
 2720TIP3    H2 8102   8.110   6.172   4.584
 2721TIP3   OH2 8103   1.211   7.580   3.007
 2721TIP3    H1 8104   1.257   7.598   3.089
 2721TIP3    H2 8105   1.235   7.653   2.950
 2722TIP3   OH2 8106   2.797   6.212   4.295
 2722TIP3    H1 8107   2.761   6.140   4.347
 2722TIP3    H2 8108   2.756   6.203   4.209
 2723TIP3   OH2 8109   6.203   4.312   4.792
 2723TIP3    H1 8110   6.154   4.263   4.859
 2723TIP3    H2 8111   6.295   4.296   4.814
 2724TIP3   OH2 8112   6.124   4.755   2.702
 2724TIP3    H1 8113   6.124   4.797   2.789
 2724TIP3    H2 8114   6.172   4.673   2.715
 2725TIP3   OH2 8115   4.466   2.814   1.633
 2725TIP3    H1 8116   4.446   2.854   1.549
 2725TIP3    H2 8117   4.507   2.884   1.684
 2726TIP3   OH2 8118   0.718   3.153   1.104
 2726TIP3    H1 8119   0.806   3.187   1.118
 2726TIP3    H2 8120   0.730   3.076   1.049
 2727TIP3   OH2 8121   2.216   5.851   2.735
 2727TIP3    H1 8122   2.196   5.901   2.814
 2727TIP3    H2 8123   2.144   5.789   2.727
 2728TIP3   OH2 8124   1.691   5.699   5.257
 2728TIP3    H1 8125   1.662   5.609   5.272
 2728TIP3    H2 8126   1.786   5.696   5.265
 2729TIP3   OH2 8127   2.548   5.274   5.340
 2729TIP3    H1 8128   2.596   5.272   5.257
 2729TIP3    H2 8129   2.554   5.185   5.374
 2730TIP3   OH2 8130   3.515   0.684   4.800
 2730TIP3    H1 8131   3.538   0.711   4.889
 2730TIP3    H2 8132   3.548   0.754   4.744
 2731TIP3   OH2 8133   1.261   2.719   4.821
 2731TIP3    H1 8134   1.258   2.648   4.758
 2731TIP3    H2 8135   1.180   2.768   4.806
 2732TIP3   OH2 8136   6.522   6.492   5.132
 2732TIP3    H1 8137   6.595   6.444   5.172
 2732TIP3    H2 8138   6.468   6.424   5.092
 2733TIP3   OH2 8139   0.683   2.135   2.750
 2733TIP3    H1 8140   0.666   2.229   2.760
 2733TIP3    H2 8141   0.608   2.092   2.792
 2734TIP3   OH2 8142   4.727   6.206   6.500
 2734TIP3    H1 8143   4.708   6.282   6.556
 2734TIP3    H2 8144   4.812   6.174   6.533
 2735TIP3   OH2 8145   0.817   3.779   2.091
 2735TIP3    H1 8146   0.898   3.771   2.141
 2735TIP3    H2 8147   0.819   3.869   2.056
 2736TIP3   OH2 8148   4.350   3.618   6.100
 2736TIP3    H1 8149   4.335   3.549   6.035
 2736TIP3    H2 8150   4.380   3.572   6.178
 2737TIP3   OH2 8151   1.502   6.459   2.375
 2737TIP3    H1 8152   1.579   6.439   2.323
 2737TIP3    H2 8153   1.435   6.485   2.311
 2738TIP3   OH2 8154   5.079   2.974   3.402
 2738TIP3    H1 8155   5.088   2.883   3.373
 2738TIP3    H2 8156   5.137   2.981   3.478
 2739TIP3   OH2 8157   1.239   5.639   0.939
 2739TIP3    H1 8158   1.181   5.713   0.955
 2739TIP3    H2 8159   1.291   5.665   0.863
 2740TIP3   OH2 8160   3.033   4.685   3.868
 2740TIP3    H1 8161   3.097   4.731   3.921
 2740TIP3    H2 8162   3.001   4.614   3.924
 2741TIP3   OH2 8163   2.183   7.772   5.442
 2741TIP3    H1 8164   2.125   7.844   5.468
 2741TIP3    H2 8165   2.270   7.811   5.441
 2742TIP3   OH2 8166   4.314   6.384   6.777
 2742TIP3    H1 8167   4.240   6.406   6.834
 2742TIP3    H2 8168   4.368   6.463   6.777
 2743TIP3   OH2 8169   4.343   1.790   5.950
 2743TIP3    H1 8170   4.267   1.770   5.897
 2743TIP3    H2 8171   4.338   1.885   5.965
 2744TIP3   OH2 8172   0.884   7.407   1.698
 2744TIP3    H1 8173   0.932   7.464   1.759
 2744TIP3    H2 8174   0.866   7.463   1.623
 2745TIP3   OH2 8175   6.170   4.529   3.029
 2745TIP3    H1 8176   6.076   4.512   3.038
 2745TIP3    H2 8177   6.211   4.478   3.099
 2746TIP3   OH2 8178   3.205   0.949   2.858
 2746TIP3    H1 8179   3.269   0.968   2.927
 2746TIP3    H2 8180   3.169   1.035   2.835
 2747TIP3   OH2 8181   1.146   6.829   4.894
 2747TIP3    H1 8182   1.112   6.740   4.881
 2747TIP3    H2 8183   1.108   6.856   4.977
 2748TIP3   OH2 8184   5.128   2.389   0.820
 2748TIP3    H1 8185   5.174   2.406   0.902
 2748TIP3    H2 8186   5.074   2.312   0.839
 2749TIP3   OH2 8187   7.383   5.345   0.704
 2749TIP3    H1 8188   7.439   5.375   0.633
 2749TIP3    H2 8189   7.392   5.250   0.704
 2750TIP3   OH2 8190   3.644   2.479   4.967
 2750TIP3    H1 8191   3.567   2.448   4.919
 2750TIP3    H2 8192   3.646   2.573   4.950
 2751TIP3   OH2 8193   8.363   2.211   2.159
 2751TIP3    H1 8194   8.319   2.220   2.074
 2751TIP3    H2 8195   8.348   2.120   2.184
 2752TIP3   OH2 8196   1.414   7.345   5.206
 2752TIP3    H1 8197   1.450   7.280   5.265
 2752TIP3    H2 8198   1.332   7.372   5.247
 2753TIP3   OH2 8199   2.163   4.833   5.401
 2753TIP3    H1 8200   2.256   4.812   5.413
 2753TIP3    H2 8201   2.128   4.837   5.491
 2754TIP3   OH2 8202   2.293   6.132   0.329
 2754TIP3    H1 8203   2.257   6.075   0.260
 2754TIP3    H2 8204   2.216   6.163   0.377
 2755TIP3   OH2 8205   0.473   2.592   5.130
 2755TIP3    H1 8206   0.482   2.668   5.072
 2755TIP3    H2 8207   0.379   2.575   5.132
 2756TIP3   OH2 8208   1.134   4.808   3.913
 2756TIP3    H1 8209   1.080   4.883   3.939
 2756TIP3    H2 8210   1.143   4.757   3.994
 2757TIP3   OH2 8211   7.095   0.065   0.328
 2757TIP3    H1 8212   7.122   0.071   0.237
 2757TIP3    H2 8213   7.024   0.001   0.328
 2758TIP3   OH2 8214   6.526   3.023   1.663
 2758TIP3    H1 8215   6.517   3.100   1.719
 2758TIP3    H2 8216   6.620   3.018   1.645
 2759TIP3   OH2 8217   7.973   6.351   1.810
 2759TIP3    H1 8218   7.896   6.314   1.766
 2759TIP3    H2 8219   7.937   6.406   1.879
 2760TIP3   OH2 8220   0.017   0.074   1.954
 2760TIP3    H1 8221  -0.078   0.071   1.945
 2760TIP3    H2 8222   0.033   0.078   2.048
 2761TIP3   OH2 8223   8.243   0.793   1.571
 2761TIP3    H1 8224   8.244   0.887   1.585
 2761TIP3    H2 8225   8.172   0.778   1.510
 2762TIP3   OH2 8226   1.498   1.741   3.710
 2762TIP3    H1 8227   1.468   1.792   3.785
 2762TIP3    H2 8228   1.580   1.782   3.684
 2763TIP3   OH2 8229   4.782   0.640   5.944
 2763TIP3    H1 8230   4.871   0.621   5.974
 2763TIP3    H2 8231   4.727   0.576   5.990
 2764TIP3   OH2 8232   6.530   3.493   4.461
 2764TIP3    H1 8233   6.523   3.402   4.433
 2764TIP3    H2 8234   6.536   3.542   4.379
 2765TIP3   OH2 8235   4.779   7.095   5.730
 2765TIP3    H1 8236   4.725   7.164   5.693
 2765TIP3    H2 8237   4.781   7.114   5.824
 2766TIP3   OH2 8238   0.544   4.489   3.511
 2766TIP3    H1 8239   0.486   4.420   3.543
 2766TIP3    H2 8240   0.613   4.494   3.577
 2767TIP3   OH2 8241   2.389   6.002   5.721
 2767TIP3    H1 8242   2.349   5.999   5.808
 2767TIP3    H2 8243   2.347   5.930   5.673
 2768TIP3   OH2 8244   7.024   4.326   4.911
 2768TIP3    H1 8245   7.106   4.376   4.908
 2768TIP3    H2 8246   6.986   4.338   4.824
 2769TIP3   OH2 8247   6.220   4.548   0.346
 2769TIP3    H1 8248   6.296   4.490   0.344
 2769TIP3    H2 8249   6.242   4.619   0.285
 2770TIP3   OH2 8250   5.057   0.362   3.378
 2770TIP3    H1 8251   5.145   0.331   3.356
 2770TIP3    H2 8252   5.057   0.372   3.473
 2771TIP3   OH2 8253   3.713   6.690   1.870
 2771TIP3    H1 8254   3.765   6.709   1.792
 2771TIP3    H2 8255   3.747   6.749   1.937
 2772TIP3   OH2 8256   0.215   0.438   2.375
 2772TIP3    H1 8257   0.120   0.435   2.372
 2772TIP3    H2 8258   0.243   0.372   2.311
 2773TIP3   OH2 8259   6.442   2.555   1.353
 2773TIP3    H1 8260   6.527   2.600   1.350
 2773TIP3    H2 8261   6.455   2.483   1.414
 2774TIP3   OH2 8262   6.185   0.744   6.419
 2774TIP3    H1 8263   6.278   0.752   6.440
 2774TIP3    H2 8264   6.140   0.751   6.503
 2775TIP3   OH2 8265   0.090   0.122   3.480
 2775TIP3    H1 8266   0.021   0.097   3.541
 2775TIP3    H2 8267   0.101   0.216   3.495
 2776TIP3   OH2 8268   5.994   5.640   0.923
 2776TIP3    H1 8269   5.975   5.718   0.975
 2776TIP3    H2 8270   5.992   5.568   0.987
 2777TIP3   OH2 8271   1.093   5.831   5.998
 2777TIP3    H1 8272   1.176   5.814   6.042
 2777TIP3    H2 8273   1.118   5.869   5.914
 2778TIP3   OH2 8274   2.787   6.676   0.509
 2778TIP3    H1 8275   2.827   6.667   0.422
 2778TIP3    H2 8276   2.853   6.643   0.569
 2779TIP3   OH2 8277   6.250   1.006   0.515
 2779TIP3    H1 8278   6.290   0.947   0.452
 2779TIP3    H2 8279   6.315   1.013   0.585
 2780TIP3   OH2 8280   1.128   2.503   2.252
 2780TIP3    H1 8281   1.102   2.411   2.242
 2780TIP3    H2 8282   1.049   2.552   2.232
 2781TIP3   OH2 8283   3.986   2.140   3.182
 2781TIP3    H1 8284   4.003   2.070   3.246
 2781TIP3    H2 8285   3.913   2.107   3.130
 2782TIP3   OH2 8286   2.318   5.952   4.113
 2782TIP3    H1 8287   2.233   5.937   4.154
 2782TIP3    H2 8288   2.317   5.898   4.034
 2783TIP3   OH2 8289   1.618   6.573   4.511
 2783TIP3    H1 8290   1.639   6.648   4.457
 2783TIP3    H2 8291   1.546   6.603   4.567
 2784TIP3   OH2 8292   3.417   1.630   4.967
 2784TIP3    H1 8293   3.487   1.642   4.903
 2784TIP3    H2 8294   3.428   1.540   4.999
 2785TIP3   OH2 8295   7.637   7.310   0.180
 2785TIP3    H1 8296   7.543   7.294   0.181
 2785TIP3    H2 8297   7.673   7.241   0.125
 2786TIP3   OH2 8298   5.578   7.677   5.873
 2786TIP3    H1 8299   5.536   7.592   5.861
 2786TIP3    H2 8300   5.591   7.711   5.785
 2787TIP3   OH2 8301   2.436   6.007   5.361
 2787TIP3    H1 8302   2.405   5.919   5.384
 2787TIP3    H2 8303   2.361   6.049   5.319
 2788TIP3   OH2 8304   3.953   1.379   4.909
 2788TIP3    H1 8305   4.030   1.365   4.964
 2788TIP3    H2 8306   3.925   1.468   4.929
 2789TIP3   OH2 8307   0.489   1.207   6.060
 2789TIP3    H1 8308   0.513   1.296   6.032
 2789TIP3    H2 8309   0.528   1.150   5.994
 2790TIP3   OH2 8310   2.819   2.183   6.305
 2790TIP3    H1 8311   2.727   2.208   6.299
 2790TIP3    H2 8312   2.861   2.258   6.347
 2791TIP3   OH2 8313   0.673   1.312   2.853
 2791TIP3    H1 8314   0.705   1.328   2.941
 2791TIP3    H2 8315   0.597   1.370   2.844
 2792TIP3   OH2 8316   6.308   3.095   3.654
 2792TIP3    H1 8317   6.239   3.139   3.604
 2792TIP3    H2 8318   6.302   3.003   3.628
 2793TIP3   OH2 8319   2.897   1.481   4.091
 2793TIP3    H1 8320   2.816   1.493   4.041
 2793TIP3    H2 8321   2.868   1.440   4.173
 2794TIP3   OH2 8322   1.371   0.091   0.326
 2794TIP3    H1 8323   1.338   0.163   0.272
 2794TIP3    H2 8324   1.309   0.086   0.399
 2795TIP3   OH2 8325   6.281   7.321   3.245
 2795TIP3    H1 8326   6.334   7.352   3.319
 2795TIP3    H2 8327   6.194   7.358   3.260
 2796TIP3   OH2 8328   4.138   7.233   6.816
 2796TIP3    H1 8329   4.183   7.290   6.878
 2796TIP3    H2 8330   4.092   7.169   6.870
 2797TIP3   OH2 8331   0.701   5.121   3.838
 2797TIP3    H1 8332   0.740   5.111   3.751
 2797TIP3    H2 8333   0.620   5.070   3.834
 2798TIP3   OH2 8334   5.329   1.584   2.755
 2798TIP3    H1 8335   5.375   1.667   2.761
 2798TIP3    H2 8336   5.358   1.534   2.831
 2799TIP3   OH2 8337   0.822   6.015   4.506
 2799TIP3    H1 8338   0.774   5.940   4.472
 2799TIP3    H2 8339   0.783   6.032   4.591
 2800TIP3   OH2 8340   0.944   1.752   4.398
 2800TIP3    H1 8341   0.992   1.828   4.367
 2800TIP3    H2 8342   0.927   1.770   4.490
 2801TIP3   OH2 8343   4.733   5.378   4.926
 2801TIP3    H1 8344   4.700   5.329   4.852
 2801TIP3    H2 8345   4.715   5.322   5.002
 2802TIP3   OH2 8346   0.449   2.914   3.849
 2802TIP3    H1 8347   0.436   3.006   3.872
 2802TIP3    H2 8348   0.492   2.917   3.764
 2803TIP3   OH2 8349   7.570   5.892   3.132
 2803TIP3    H1 8350   7.635   5.922   3.195
 2803TIP3    H2 8351   7.547   5.971   3.081
 2804TIP3   OH2 8352   8.222   7.786   1.166
 2804TIP3    H1 8353   8.149   7.840   1.195
 2804TIP3    H2 8354   8.183   7.722   1.106
 2805TIP3   OH2 8355   4.512   3.085   0.712
 2805TIP3    H1 8356   4.582   3.108   0.773
 2805TIP3    H2 8357   4.555   3.036   0.643
 2806TIP3   OH2 8358   1.930   5.049   3.787
 2806TIP3    H1 8359   1.946   5.118   3.852
 2806TIP3    H2 8360   1.925   4.969   3.838
 2807TIP3   OH2 8361   3.571   2.834   2.702
 2807TIP3    H1 8362   3.527   2.754   2.673
 2807TIP3    H2 8363   3.659   2.804   2.728
 2808TIP3   OH2 8364   1.754   1.572   2.765
 2808TIP3    H1 8365   1.766   1.657   2.723
 2808TIP3    H2 8366   1.813   1.514   2.717
 2809TIP3   OH2 8367   4.593   2.649   4.607
 2809TIP3    H1 8368   4.512   2.599   4.613
 2809TIP3    H2 8369   4.592   2.706   4.684
 2810TIP3   OH2 8370   4.654   2.382   4.196
 2810TIP3    H1 8371   4.574   2.353   4.152
 2810TIP3    H2 8372   4.623   2.440   4.265
 2811TIP3   OH2 8373   8.224   3.454   3.197
 2811TIP3    H1 8374   8.312   3.415   3.193
 2811TIP3    H2 8375   8.233   3.526   3.260
 2812TIP3   OH2 8376   1.333   6.341   6.658
 2812TIP3    H1 8377   1.360   6.428   6.685
 2812TIP3    H2 8378   1.415   6.295   6.639
 2813TIP3   OH2 8379   0.105   2.414   2.288
 2813TIP3    H1 8380   0.190   2.400   2.246
 2813TIP3    H2 8381   0.047   2.348   2.248
 2814TIP3   OH2 8382   6.793   3.478   2.921
 2814TIP3    H1 8383   6.832   3.563   2.943
 2814TIP3    H2 8384   6.804   3.471   2.826
 2815TIP3   OH2 8385   5.084   7.174   6.554
 2815TIP3    H1 8386   5.103   7.268   6.556
 2815TIP3    H2 8387   4.990   7.169   6.536
 2816TIP3   OH2 8388   7.273   6.612   0.564
 2816TIP3    H1 8389   7.308   6.664   0.492
 2816TIP3    H2 8390   7.195   6.571   0.528
 2817TIP3   OH2 8391   7.694   3.348   0.210
 2817TIP3    H1 8392   7.660   3.407   0.142
 2817TIP3    H2 8393   7.788   3.369   0.214
 2818TIP3   OH2 8394   3.256   7.161   6.166
 2818TIP3    H1 8395   3.189   7.222   6.136
 2818TIP3    H2 8396   3.274   7.105   6.091
 2819TIP3   OH2 8397   3.638   0.911   4.696
 2819TIP3    H1 8398   3.733   0.907   4.709
 2819TIP3    H2 8399   3.626   0.979   4.630
 2820TIP3   OH2 8400   1.931   5.870   0.605
 2820TIP3    H1 8401   1.983   5.864   0.524
 2820TIP3    H2 8402   1.988   5.913   0.668
 2821TIP3   OH2 8403   0.796   3.169   5.219
 2821TIP3    H1 8404   0.764   3.245   5.170
 2821TIP3    H2 8405   0.857   3.206   5.283
 2822TIP3   OH2 8406   4.580   7.221   1.853
 2822TIP3    H1 8407   4.516   7.227   1.925
 2822TIP3    H2 8408   4.540   7.272   1.782
 2823TIP3   OH2 8409   1.830   5.742   6.473
 2823TIP3    H1 8410   1.795   5.757   6.561
 2823TIP3    H2 8411   1.802   5.654   6.450
 2824TIP3   OH2 8412   6.103   3.663   0.522
 2824TIP3    H1 8413   6.083   3.720   0.596
 2824TIP3    H2 8414   6.175   3.706   0.476
 2825TIP3   OH2 8415   6.955   6.286   0.154
 2825TIP3    H1 8416   6.888   6.313   0.217
 2825TIP3    H2 8417   6.909   6.280   0.071
 2826TIP3   OH2 8418   0.281   4.153   1.204
 2826TIP3    H1 8419   0.335   4.208   1.147
 2826TIP3    H2 8420   0.243   4.215   1.267
 2827TIP3   OH2 8421   8.121   6.974   5.686
 2827TIP3    H1 8422   8.104   6.903   5.624
 2827TIP3    H2 8423   8.212   6.999   5.669
 2828TIP3   OH2 8424   0.244   0.737   6.431
 2828TIP3    H1 8425   0.305   0.774   6.494
 2828TIP3    H2 8426   0.208   0.813   6.385
 2829TIP3   OH2 8427   8.359   5.393   4.610
 2829TIP3    H1 8428   8.437   5.448   4.602
 2829TIP3    H2 8429   8.290   5.454   4.636
 2830TIP3   OH2 8430   0.900   6.964   1.078
 2830TIP3    H1 8431   0.918   6.932   1.166
 2830TIP3    H2 8432   0.974   6.934   1.025
 2831TIP3   OH2 8433   5.259   6.233   3.892
 2831TIP3    H1 8434   5.204   6.236   3.970
 2831TIP3    H2 8435   5.278   6.325   3.873
 2832TIP3   OH2 8436   6.727   0.319   2.576
 2832TIP3    H1 8437   6.656   0.381   2.556
 2832TIP3    H2 8438   6.785   0.323   2.500
 2833TIP3   OH2 8439   6.356   5.041   1.020
 2833TIP3    H1 8440   6.440   5.012   0.984
 2833TIP3    H2 8441   6.354   5.135   1.002
 2834TIP3   OH2 8442   6.064   3.092   4.427
 2834TIP3    H1 8443   6.024   3.157   4.369
 2834TIP3    H2 8444   5.991   3.046   4.466
 2835TIP3   OH2 8445   5.362   0.642   4.837
 2835TIP3    H1 8446   5.410   0.560   4.854
 2835TIP3    H2 8447   5.424   0.711   4.860
 2836TIP3   OH2 8448   4.592   7.233   3.036
 2836TIP3    H1 8449   4.538   7.309   3.061
 2836TIP3    H2 8450   4.550   7.159   3.080
 2837TIP3   OH2 8451   6.324   7.117   6.501
 2837TIP3    H1 8452   6.297   7.155   6.418
 2837TIP3    H2 8453   6.360   7.031   6.478
 2838TIP3   OH2 8454   6.213   1.806   5.208
 2838TIP3    H1 8455   6.267   1.838   5.135
 2838TIP3    H2 8456   6.276   1.781   5.275
 2839TIP3   OH2 8457   1.471   5.629   5.942
 2839TIP3    H1 8458   1.469   5.550   5.996
 2839TIP3    H2 8459   1.418   5.608   5.866
 2840TIP3   OH2 8460   7.712   2.060   5.381
 2840TIP3    H1 8461   7.735   1.967   5.391
 2840TIP3    H2 8462   7.633   2.059   5.327
 2841TIP3   OH2 8463   5.685   5.092   1.275
 2841TIP3    H1 8464   5.767   5.091   1.226
 2841TIP3    H2 8465   5.641   5.011   1.251
 2842TIP3   OH2 8466   2.340   5.804   4.863
 2842TIP3    H1 8467   2.290   5.884   4.847
 2842TIP3    H2 8468   2.402   5.800   4.790
 2843TIP3   OH2 8469   4.761   2.161   0.772
 2843TIP3    H1 8470   4.682   2.200   0.809
 2843TIP3    H2 8471   4.788   2.095   0.837
 2844TIP3   OH2 8472   5.231   2.300   6.744
 2844TIP3    H1 8473   5.309   2.269   6.699
 2844TIP3    H2 8474   5.258   2.380   6.788
 2845TIP3   OH2 8475   0.082   7.060   3.345
 2845TIP3    H1 8476   0.160   7.008   3.365
 2845TIP3    H2 8477   0.022   7.042   3.417
 2846TIP3   OH2 8478   3.019   2.355   0.419
 2846TIP3    H1 8479   2.960   2.282   0.402
 2846TIP3    H2 8480   3.019   2.405   0.338
 2847TIP3   OH2 8481   3.537   0.192   4.664
 2847TIP3    H1 8482   3.616   0.150   4.629
 2847TIP3    H2 8483   3.566   0.280   4.688
 2848TIP3   OH2 8484   3.660   3.191   6.329
 2848TIP3    H1 8485   3.755   3.184   6.318
 2848TIP3    H2 8486   3.648   3.206   6.422
 2849TIP3   OH2 8487   5.174   0.620   0.130
 2849TIP3    H1 8488   5.081   0.639   0.116
 2849TIP3    H2 8489   5.180   0.601   0.224
 2850TIP3   OH2 8490   7.307   1.169   0.493
 2850TIP3    H1 8491   7.371   1.106   0.460
 2850TIP3    H2 8492   7.228   1.117   0.509
 2851TIP3   OH2 8493   1.803   3.951   4.977
 2851TIP3    H1 8494   1.801   4.022   5.041
 2851TIP3    H2 8495   1.892   3.952   4.942
 2852TIP3   OH2 8496   0.511   0.794   6.718
 2852TIP3    H1 8497   0.465   0.845   6.651
 2852TIP3    H2 8498   0.454   0.799   6.794
 2853TIP3   OH2 8499   4.630   3.123   4.261
 2853TIP3    H1 8500   4.664   3.044   4.304
 2853TIP3    H2 8501   4.599   3.178   4.332
 2854TIP3   OH2 8502   4.374   4.265   5.489
 2854TIP3    H1 8503   4.283   4.280   5.515
 2854TIP3    H2 8504   4.421   4.342   5.523
 2855TIP3   OH2 8505   1.154   1.556   4.253
 2855TIP3    H1 8506   1.083   1.501   4.218
 2855TIP3    H2 8507   1.149   1.637   4.202
 2856TIP3   OH2 8508   0.023   2.504   2.019
 2856TIP3    H1 8509   0.058   2.433   1.965
 2856TIP3    H2 8510  -0.071   2.500   2.005
 2857TIP3   OH2 8511   2.427   1.397   4.096
 2857TIP3    H1 8512   2.351   1.448   4.123
 2857TIP3    H2 8513   2.410   1.375   4.005
 2858TIP3   OH2 8514   3.375   3.067   2.738
 2858TIP3    H1 8515   3.440   3.113   2.791
 2858TIP3    H2 8516   3.425   3.000   2.692
 2859TIP3   OH2 8517   1.651   2.533   2.220
 2859TIP3    H1 8518   1.712   2.494   2.283
 2859TIP3    H2 8519   1.654   2.627   2.238
 2860TIP3   OH2 8520   0.820   1.770   5.357
 2860TIP3    H1 8521   0.887   1.810   5.414
 2860TIP3    H2 8522   0.851   1.681   5.343
 2861TIP3   OH2 8523   2.049   4.529   1.516
 2861TIP3    H1 8524   2.081   4.439   1.526
 2861TIP3    H2 8525   2.069   4.571   1.599
 2862TIP3   OH2 8526   0.721   2.492   2.446
 2862TIP3    H1 8527   0.793   2.438   2.478
 2862TIP3    H2 8528   0.746   2.581   2.468
 2863TIP3   OH2 8529   1.887   0.190   2.923
 2863TIP3    H1 8530   1.866   0.192   2.830
 2863TIP3    H2 8531   1.969   0.238   2.931
 2864TIP3   OH2 8532   1.736   3.250   0.565
 2864TIP3    H1 8533   1.651   3.206   0.560
 2864TIP3    H2 8534   1.799   3.179   0.567
 2865TIP3   OH2 8535   4.421   6.896   5.369
 2865TIP3    H1 8536   4.472   6.967   5.408
 2865TIP3    H2 8537   4.443   6.819   5.421
 2866TIP3   OH2 8538   1.380   5.540   5.690
 2866TIP3    H1 8539   1.461   5.519   5.645
 2866TIP3    H2 8540   1.361   5.631   5.665
 2867TIP3   OH2 8541   4.712   2.216   0.252
 2867TIP3    H1 8542   4.731   2.245   0.341
 2867TIP3    H2 8543   4.626   2.173   0.258
 2868TIP3   OH2 8544   3.893   6.559   2.823
 2868TIP3    H1 8545   3.887   6.598   2.735
 2868TIP3    H2 8546   3.893   6.634   2.882
 2869TIP3   OH2 8547   0.023   7.663   3.221
 2869TIP3    H1 8548  -0.046   7.607   3.187
 2869TIP3    H2 8549  -0.018   7.711   3.293
 2870TIP3   OH2 8550   7.525   0.784   3.813
 2870TIP3    H1 8551   7.546   0.691   3.804
 2870TIP3    H2 8552   7.562   0.809   3.898
 2871TIP3   OH2 8553   8.094   5.727   5.626
 2871TIP3    H1 8554   8.020   5.767   5.671
 2871TIP3    H2 8555   8.055   5.671   5.559
 2872TIP3   OH2 8556   2.395   7.601   4.096
 2872TIP3    H1 8557   2.450   7.543   4.149
 2872TIP3    H2 8558   2.352   7.658   4.159
 2873TIP3   OH2 8559   4.509   2.559   5.103
 2873TIP3    H1 8560   4.426   2.582   5.062
 2873TIP3    H2 8561   4.484   2.525   5.189
 2874TIP3   OH2 8562   3.143   0.208   5.548
 2874TIP3    H1 8563   3.170   0.131   5.497
 2874TIP3    H2 8564   3.198   0.206   5.626
 2875TIP3   OH2 8565   5.089   7.069   1.764
 2875TIP3    H1 8566   5.168   7.053   1.713
 2875TIP3    H2 8567   5.024   7.098   1.699
 2876TIP3   OH2 8568   8.127   3.431   3.964
 2876TIP3    H1 8569   8.087   3.503   3.915
 2876TIP3    H2 8570   8.158   3.370   3.897
 2877TIP3   OH2 8571   4.012   5.866   3.942
 2877TIP3    H1 8572   4.089   5.907   3.902
 2877TIP3    H2 8573   3.949   5.938   3.950
 2878TIP3   OH2 8574   5.136   4.046   1.110
 2878TIP3    H1 8575   5.139   4.000   1.194
 2878TIP3    H2 8576   5.050   4.025   1.075
 2879TIP3   OH2 8577   3.721   1.070   4.415
 2879TIP3    H1 8578   3.725   1.026   4.330
 2879TIP3    H2 8579   3.804   1.048   4.457
 2880TIP3   OH2 8580   2.268   5.758   5.549
 2880TIP3    H1 8581   2.193   5.785   5.603
 2880TIP3    H2 8582   2.239   5.676   5.509
 2881TIP3   OH2 8583   3.591   2.607   3.432
 2881TIP3    H1 8584   3.542   2.526   3.418
 2881TIP3    H2 8585   3.613   2.636   3.344
 2882TIP3   OH2 8586   7.485   6.340   6.312
 2882TIP3    H1 8587   7.523   6.264   6.268
 2882TIP3    H2 8588   7.541   6.413   6.285
 2883TIP3   OH2 8589   0.961   4.749   2.181
 2883TIP3    H1 8590   0.934   4.759   2.090
 2883TIP3    H2 8591   0.888   4.782   2.232
 2884TIP3   OH2 8592   2.327   2.318   3.990
 2884TIP3    H1 8593   2.309   2.401   3.947
 2884TIP3    H2 8594   2.301   2.252   3.926
 2885TIP3   OH2 8595   4.284   7.147   6.367
 2885TIP3    H1 8596   4.305   7.155   6.460
 2885TIP3    H2 8597   4.346   7.082   6.334
 2886TIP3   OH2 8598   2.953   6.099   4.660
 2886TIP3    H1 8599   2.928   6.059   4.577
 2886TIP3    H2 8600   2.966   6.192   4.639
 2887TIP3   OH2 8601   2.807   7.200   6.116
 2887TIP3    H1 8602   2.883   7.151   6.149
 2887TIP3    H2 8603   2.838   7.291   6.112
 2888TIP3   OH2 8604   5.373   2.664   1.394
 2888TIP3    H1 8605   5.286   2.647   1.357
 2888TIP3    H2 8606   5.356   2.718   1.472
 2889TIP3   OH2 8607   1.819   0.581   0.189
 2889TIP3    H1 8608   1.726   0.576   0.166
 2889TIP3    H2 8609   1.839   0.675   0.185
 2890TIP3   OH2 8610   5.442   0.780   6.315
 2890TIP3    H1 8611   5.447   0.710   6.381
 2890TIP3    H2 8612   5.382   0.746   6.248
 2891TIP3   OH2 8613   7.903   4.517   6.438
 2891TIP3    H1 8614   7.813   4.491   6.423
 2891TIP3    H2 8615   7.904   4.550   6.528
 2892TIP3   OH2 8616   7.324   5.756   3.067
 2892TIP3    H1 8617   7.315   5.823   2.999
 2892TIP3    H2 8618   7.409   5.774   3.107
 2893TIP3   OH2 8619   6.068   3.071   1.770
 2893TIP3    H1 8620   6.127   2.996   1.772
 2893TIP3    H2 8621   6.044   3.080   1.677
 2894TIP3   OH2 8622   0.958   2.960   1.528
 2894TIP3    H1 8623   1.028   3.014   1.492
 2894TIP3    H2 8624   1.003   2.888   1.573
 2895TIP3   OH2 8625   4.693   7.449   2.154
 2895TIP3    H1 8626   4.688   7.426   2.061
 2895TIP3    H2 8627   4.634   7.522   2.164
 2896TIP3   OH2 8628   8.334   7.909   2.523
 2896TIP3    H1 8629   8.416   7.959   2.518
 2896TIP3    H2 8630   8.358   7.828   2.567
 2897TIP3   OH2 8631   0.542   5.487   3.587
 2897TIP3    H1 8632   0.481   5.557   3.564
 2897TIP3    H2 8633   0.612   5.493   3.523
 2898TIP3   OH2 8634   7.085   4.498   1.994
 2898TIP3    H1 8635   7.077   4.406   2.021
 2898TIP3    H2 8636   7.118   4.494   1.904
 2899TIP3   OH2 8637   3.980   1.984   1.870
 2899TIP3    H1 8638   3.977   1.939   1.954
 2899TIP3    H2 8639   3.987   2.077   1.892
 2900TIP3   OH2 8640   3.855   7.394   3.358
 2900TIP3    H1 8641   3.794   7.384   3.431
 2900TIP3    H2 8642   3.907   7.314   3.360
 2901TIP3   OH2 8643   2.891   7.642   1.216
 2901TIP3    H1 8644   2.975   7.680   1.191
 2901TIP3    H2 8645   2.827   7.686   1.161
 2902TIP3   OH2 8646   1.531   5.067   6.722
 2902TIP3    H1 8647   1.535   5.061   6.818
 2902TIP3    H2 8648   1.438   5.073   6.702
 2903TIP3   OH2 8649   5.406   4.274   0.033
 2903TIP3    H1 8650   5.321   4.245   0.000
 2903TIP3    H2 8651   5.428   4.350  -0.021
 2904TIP3   OH2 8652   3.230   4.099   2.444
 2904TIP3    H1 8653   3.172   4.027   2.419
 2904TIP3    H2 8654   3.172   4.162   2.488
 2905TIP3   OH2 8655   8.304   6.660   3.936
 2905TIP3    H1 8656   8.374   6.679   3.874
 2905TIP3    H2 8657   8.331   6.578   3.978
 2906TIP3   OH2 8658   0.502   3.710   6.659
 2906TIP3    H1 8659   0.454   3.783   6.620
 2906TIP3    H2 8660   0.449   3.685   6.735
 2907TIP3   OH2 8661   2.516   4.758   3.606
 2907TIP3    H1 8662   2.541   4.752   3.698
 2907TIP3    H2 8663   2.517   4.852   3.587
 2908TIP3   OH2 8664   1.222   4.678   0.535
 2908TIP3    H1 8665   1.220   4.758   0.587
 2908TIP3    H2 8666   1.315   4.661   0.520
 2909TIP3   OH2 8667   2.532   5.027   5.487
 2909TIP3    H1 8668   2.470   5.065   5.549
 2909TIP3    H2 8669   2.484   4.956   5.445
 2910TIP3   OH2 8670   4.788   7.366   6.704
 2910TIP3    H1 8671   4.834   7.314   6.769
 2910TIP3    H2 8672   4.800   7.456   6.733
 2911TIP3   OH2 8673   0.649   6.862   1.024
 2911TIP3    H1 8674   0.731   6.888   1.067
 2911TIP3    H2 8675   0.580   6.900   1.078
 2912TIP3   OH2 8676   7.585   3.000   0.786
 2912TIP3    H1 8677   7.593   3.059   0.711
 2912TIP3    H2 8678   7.521   2.934   0.758
 2913TIP3   OH2 8679   3.457   0.844   5.878
 2913TIP3    H1 8680   3.406   0.766   5.899
 2913TIP3    H2 8681   3.504   0.864   5.959
 2914TIP3   OH2 8682   0.144   0.042   3.149
 2914TIP3    H1 8683   0.210  -0.022   3.177
 2914TIP3    H2 8684   0.061  -0.006   3.155
 2915TIP3   OH2 8685   8.273   7.498   3.398
 2915TIP3    H1 8686   8.362   7.490   3.363
 2915TIP3    H2 8687   8.260   7.592   3.409
 2916TIP3   OH2 8688   1.975   6.914   4.267
 2916TIP3    H1 8689   2.033   6.851   4.224
 2916TIP3    H2 8690   2.033   6.984   4.296
 2917TIP3   OH2 8691   6.728   4.570   6.046
 2917TIP3    H1 8692   6.722   4.575   5.951
 2917TIP3    H2 8693   6.763   4.482   6.063
 2918TIP3   OH2 8694   1.267   5.128   2.447
 2918TIP3    H1 8695   1.236   5.043   2.416
 2918TIP3    H2 8696   1.244   5.189   2.377
 2919TIP3   OH2 8697   0.714   3.940   5.641
 2919TIP3    H1 8698   0.778   3.889   5.691
 2919TIP3    H2 8699   0.641   3.880   5.626
 2920TIP3   OH2 8700   5.885   0.182   6.307
 2920TIP3    H1 8701   5.839   0.112   6.260
 2920TIP3    H2 8702   5.903   0.248   6.240
 2921TIP3   OH2 8703   6.873   7.651   5.564
 2921TIP3    H1 8704   6.893   7.677   5.654
 2921TIP3    H2 8705   6.813   7.718   5.531
 2922TIP3   OH2 8706   8.167   3.290   4.198
 2922TIP3    H1 8707   8.171   3.360   4.263
 2922TIP3    H2 8708   8.134   3.333   4.119
 2923TIP3   OH2 8709   0.962   4.020   2.061
 2923TIP3    H1 8710   1.015   3.962   2.007
 2923TIP3    H2 8711   1.023   4.055   2.126
 2924TIP3   OH2 8712   2.050   0.206   6.152
 2924TIP3    H1 8713   2.030   0.239   6.240
 2924TIP3    H2 8714   1.986   0.136   6.138
 2925TIP3   OH2 8715   3.793   0.626   5.933
 2925TIP3    H1 8716   3.828   0.538   5.920
 2925TIP3    H2 8717   3.793   0.638   6.028
 2926TIP3   OH2 8718   5.444   2.138   6.060
 2926TIP3    H1 8719   5.415   2.229   6.050
 2926TIP3    H2 8720   5.507   2.126   5.989
 2927TIP3   OH2 8721   4.108   6.940   2.699
 2927TIP3    H1 8722   4.055   6.939   2.620
 2927TIP3    H2 8723   4.191   6.981   2.673
 2928TIP3   OH2 8724   1.469   0.469   6.586
 2928TIP3    H1 8725   1.385   0.485   6.542
 2928TIP3    H2 8726   1.534   0.482   6.518
 2929TIP3   OH2 8727   0.003   3.382   0.087
 2929TIP3    H1 8728   0.043   3.298   0.108
 2929TIP3    H2 8729  -0.083   3.359   0.051
 2930TIP3   OH2 8730   6.850   3.305   0.710
 2930TIP3    H1 8731   6.863   3.225   0.761
 2930TIP3    H2 8732   6.774   3.347   0.750
 2931TIP3   OH2 8733   6.256   1.233   0.359
 2931TIP3    H1 8734   6.194   1.198   0.294
 2931TIP3    H2 8735   6.255   1.169   0.430
 2932TIP3   OH2 8736   3.475   1.859   0.631
 2932TIP3    H1 8737   3.404   1.796   0.629
 2932TIP3    H2 8738   3.555   1.805   0.629
 2933TIP3   OH2 8739   7.048   0.143   5.632
 2933TIP3    H1 8740   7.074   0.090   5.556
 2933TIP3    H2 8741   7.079   0.092   5.708
 2934TIP3   OH2 8742   1.870   3.552   3.413
 2934TIP3    H1 8743   1.829   3.622   3.362
 2934TIP3    H2 8744   1.964   3.561   3.396
 2935TIP3   OH2 8745   0.703   2.478   6.725
 2935TIP3    H1 8746   0.765   2.412   6.694
 2935TIP3    H2 8747   0.623   2.460   6.676
 2936TIP3   OH2 8748   6.164   5.358   0.762
 2936TIP3    H1 8749   6.156   5.451   0.783
 2936TIP3    H2 8750   6.258   5.341   0.764
 2937TIP3   OH2 8751   5.009   3.827   6.658
 2937TIP3    H1 8752   4.951   3.753   6.673
 2937TIP3    H2 8753   4.961   3.902   6.692
 2938TIP3   OH2 8754   0.274   2.372   4.473
 2938TIP3    H1 8755   0.327   2.293   4.457
 2938TIP3    H2 8756   0.185   2.339   4.485
 2939TIP3   OH2 8757   7.565   3.603   3.569
 2939TIP3    H1 8758   7.480   3.647   3.570
 2939TIP3    H2 8759   7.544   3.511   3.583
 2940TIP3   OH2 8760   4.458   2.550   1.314
 2940TIP3    H1 8761   4.456   2.561   1.409
 2940TIP3    H2 8762   4.550   2.533   1.294
 2941TIP3   OH2 8763   0.681   7.305   2.417
 2941TIP3    H1 8764   0.713   7.230   2.367
 2941TIP3    H2 8765   0.705   7.381   2.364
 2942TIP3   OH2 8766   3.614   5.647   5.595
 2942TIP3    H1 8767   3.653   5.596   5.525
 2942TIP3    H2 8768   3.631   5.738   5.571
 2943TIP3   OH2 8769   7.775   3.671   3.389
 2943TIP3    H1 8770   7.705   3.636   3.444
 2943TIP3    H2 8771   7.826   3.728   3.447
 2944TIP3   OH2 8772   1.837   2.380   2.399
 2944TIP3    H1 8773   1.903   2.368   2.468
 2944TIP3    H2 8774   1.754   2.388   2.446
 2945TIP3   OH2 8775   0.977   6.892   1.353
 2945TIP3    H1 8776   0.939   6.807   1.332
 2945TIP3    H2 8777   0.962   6.903   1.447
 2946TIP3   OH2 8778   7.344   7.335   6.013
 2946TIP3    H1 8779   7.292   7.372   5.942
 2946TIP3    H2 8780   7.289   7.346   6.091
 2947TIP3   OH2 8781   1.371   3.267   1.954
 2947TIP3    H1 8782   1.343   3.357   1.973
 2947TIP3    H2 8783   1.292   3.215   1.969
 2948TIP3   OH2 8784   7.852   6.620   6.112
 2948TIP3    H1 8785   7.809   6.595   6.030
 2948TIP3    H2 8786   7.945   6.625   6.089
 2949TIP3   OH2 8787   1.039   1.958   0.116
 2949TIP3    H1 8788   0.961   1.906   0.133
 2949TIP3    H2 8789   1.032   2.033   0.176
 2950TIP3   OH2 8790   1.445   6.592   0.755
 2950TIP3    H1 8791   1.498   6.513   0.741
 2950TIP3    H2 8792   1.508   6.657   0.787
 2951TIP3   OH2 8793   3.367   3.215   2.330
 2951TIP3    H1 8794   3.438   3.173   2.282
 2951TIP3    H2 8795   3.315   3.259   2.263
 2952TIP3   OH2 8796   1.503   5.091   5.892
 2952TIP3    H1 8797   1.548   5.055   5.815
 2952TIP3    H2 8798   1.410   5.082   5.872
 2953TIP3   OH2 8799   6.071   1.464   0.898
 2953TIP3    H1 8800   6.109   1.536   0.848
 2953TIP3    H2 8801   5.977   1.470   0.883
 2954TIP3   OH2 8802   4.747   5.685   4.083
 2954TIP3    H1 8803   4.835   5.707   4.112
 2954TIP3    H2 8804   4.749   5.697   3.988
 2955TIP3   OH2 8805   0.147   6.043   6.038
 2955TIP3    H1 8806   0.080   5.983   6.004
 2955TIP3    H2 8807   0.188   5.995   6.110
 2956TIP3   OH2 8808   2.142   2.650   5.755
 2956TIP3    H1 8809   2.057   2.690   5.736
 2956TIP3    H2 8810   2.174   2.697   5.831
 2957TIP3   OH2 8811   0.800   0.866   5.398
 2957TIP3    H1 8812   0.893   0.882   5.383
 2957TIP3    H2 8813   0.795   0.774   5.424
 2958TIP3   OH2 8814   6.911   4.315   3.435
 2958TIP3    H1 8815   6.967   4.392   3.446
 2958TIP3    H2 8816   6.895   4.311   3.340
 2959TIP3   OH2 8817   0.170   5.144   5.552
 2959TIP3    H1 8818   0.171   5.150   5.457
 2959TIP3    H2 8819   0.138   5.229   5.581
 2960TIP3   OH2 8820   4.456   6.093   6.329
 2960TIP3    H1 8821   4.515   6.037   6.380
 2960TIP3    H2 8822   4.425   6.159   6.391
 2961TIP3   OH2 8823   4.810   5.122   3.293
 2961TIP3    H1 8824   4.862   5.083   3.364
 2961TIP3    H2 8825   4.861   5.198   3.265
 2962TIP3   OH2 8826   4.808   1.271   6.544
 2962TIP3    H1 8827   4.832   1.204   6.479
 2962TIP3    H2 8828   4.746   1.327   6.498
 2963TIP3   OH2 8829   5.489   1.387   6.809
 2963TIP3    H1 8830   5.500   1.397   6.903
 2963TIP3    H2 8831   5.566   1.428   6.770
 2964TIP3   OH2 8832   3.786   1.409   0.566
 2964TIP3    H1 8833   3.868   1.458   0.575
 2964TIP3    H2 8834   3.790   1.341   0.633
 2965TIP3   OH2 8835   8.227   5.162   5.279
 2965TIP3    H1 8836   8.231   5.126   5.190
 2965TIP3    H2 8837   8.149   5.122   5.318
 2966TIP3   OH2 8838   1.160   7.765   2.050
 2966TIP3    H1 8839   1.229   7.698   2.043
 2966TIP3    H2 8840   1.190   7.836   1.993
 2967TIP3   OH2 8841   3.820   4.406   3.646
 2967TIP3    H1 8842   3.756   4.351   3.691
 2967TIP3    H2 8843   3.870   4.447   3.716
 2968TIP3   OH2 8844   0.131   3.836   0.705
 2968TIP3    H1 8845   0.058   3.819   0.765
 2968TIP3    H2 8846   0.094   3.826   0.618
 2969TIP3   OH2 8847   3.229   1.882   6.767
 2969TIP3    H1 8848   3.151   1.828   6.775
 2969TIP3    H2 8849   3.215   1.934   6.688
 2970TIP3   OH2 8850   6.648   3.915   1.744
 2970TIP3    H1 8851   6.728   3.952   1.782
 2970TIP3    H2 8852   6.597   3.887   1.820
 2971TIP3   OH2 8853   5.776   1.984   2.894
 2971TIP3    H1 8854   5.737   1.933   2.823
 2971TIP3    H2 8855   5.828   2.051   2.850
 2972TIP3   OH2 8856   1.839   4.378   2.187
 2972TIP3    H1 8857   1.794   4.368   2.271
 2972TIP3    H2 8858   1.771   4.362   2.121
 2973TIP3   OH2 8859   6.602   3.900   3.438
 2973TIP3    H1 8860   6.677   3.862   3.483
 2973TIP3    H2 8861   6.539   3.918   3.508
 2974TIP3   OH2 8862   2.824   5.341   1.063
 2974TIP3    H1 8863   2.903   5.394   1.056
 2974TIP3    H2 8864   2.753   5.401   1.041
 2975TIP3   OH2 8865   2.336   2.098   6.511
 2975TIP3    H1 8866   2.387   2.173   6.483
 2975TIP3    H2 8867   2.265   2.091   6.447
 2976TIP3   OH2 8868   1.694   1.718   0.799
 2976TIP3    H1 8869   1.762   1.720   0.866
 2976TIP3    H2 8870   1.708   1.797   0.747
 2977TIP3   OH2 8871   2.534   3.177   0.969
 2977TIP3    H1 8872   2.623   3.173   1.003
 2977TIP3    H2 8873   2.516   3.087   0.939
 2978TIP3   OH2 8874   6.550   5.162   0.352
 2978TIP3    H1 8875   6.536   5.210   0.271
 2978TIP3    H2 8876   6.557   5.070   0.324
 2979TIP3   OH2 8877   4.112   5.238   2.431
 2979TIP3    H1 8878   4.120   5.333   2.429
 2979TIP3    H2 8879   4.113   5.216   2.525
 2980TIP3   OH2 8880   7.829   6.569   6.413
 2980TIP3    H1 8881   7.839   6.581   6.319
 2980TIP3    H2 8882   7.855   6.652   6.451
 2981TIP3   OH2 8883   7.097   6.070   0.233
 2981TIP3    H1 8884   7.032   6.035   0.293
 2981TIP3    H2 8885   7.054   6.146   0.192
 2982TIP3   OH2 8886   4.340   4.369   0.479
 2982TIP3    H1 8887   4.287   4.334   0.408
 2982TIP3    H2 8888   4.427   4.332   0.465
 2983TIP3   OH2 8889   4.210   1.532   6.010
 2983TIP3    H1 8890   4.279   1.478   6.050
 2983TIP3    H2 8891   4.243   1.621   6.015
 2984TIP3   OH2 8892   1.800   7.277   1.856
 2984TIP3    H1 8893   1.804   7.216   1.930
 2984TIP3    H2 8894   1.708   7.302   1.851
 2985TIP3   OH2 8895   7.678   5.363   1.776
 2985TIP3    H1 8896   7.720   5.293   1.826
 2985TIP3    H2 8897   7.610   5.397   1.835
 2986TIP3   OH2 8898   0.929   1.375   3.586
 2986TIP3    H1 8899   0.863   1.327   3.535
 2986TIP3    H2 8900   0.905   1.358   3.677
 2987TIP3   OH2 8901   0.624   7.785   1.239
 2987TIP3    H1 8902   0.624   7.780   1.334
 2987TIP3    H2 8903   0.609   7.695   1.210
 2988TIP3   OH2 8904   3.222   4.902   3.035
 2988TIP3    H1 8905   3.153   4.898   2.968
 2988TIP3    H2 8906   3.302   4.880   2.988
 2989TIP3   OH2 8907   2.687   0.651   3.458
 2989TIP3    H1 8908   2.709   0.648   3.551
 2989TIP3    H2 8909   2.592   0.655   3.456
 2990TIP3   OH2 8910   3.439   7.508   5.100
 2990TIP3    H1 8911   3.461   7.554   5.181
 2990TIP3    H2 8912   3.414   7.420   5.128
 2991TIP3   OH2 8913   5.779   2.279   3.975
 2991TIP3    H1 8914   5.858   2.245   4.017
 2991TIP3    H2 8915   5.757   2.357   4.027
 2992TIP3   OH2 8916   8.349   5.187   2.738
 2992TIP3    H1 8917   8.283   5.170   2.671
 2992TIP3    H2 8918   8.321   5.134   2.813
 2993TIP3   OH2 8919   3.089   0.096   6.506
 2993TIP3    H1 8920   3.148   0.083   6.432
 2993TIP3    H2 8921   3.013   0.142   6.469
 2994TIP3   OH2 8922   0.202   3.577   1.906
 2994TIP3    H1 8923   0.228   3.568   1.998
 2994TIP3    H2 8924   0.230   3.494   1.866
 2995TIP3   OH2 8925   6.004   1.631   5.213
 2995TIP3    H1 8926   6.079   1.690   5.220
 2995TIP3    H2 8927   6.035   1.549   5.253
 2996TIP3   OH2 8928   1.363   1.953   1.131
 2996TIP3    H1 8929   1.428   1.970   1.200
 2996TIP3    H2 8930   1.393   2.006   1.057
 2997TIP3   OH2 8931   1.521   1.165   2.975
 2997TIP3    H1 8932   1.538   1.156   2.881
 2997TIP3    H2 8933   1.474   1.085   2.999
 2998TIP3   OH2 8934   4.824   7.225   3.383
 2998TIP3    H1 8935   4.914   7.214   3.414
 2998TIP3    H2 8936   4.793   7.136   3.367
 2999TIP3   OH2 8937   6.008   1.864   2.724
 2999TIP3    H1 8938   5.952   1.852   2.800
 2999TIP3    H2 8939   5.960   1.824   2.652
 3000TIP3   OH2 8940   3.050   6.044   1.461
 3000TIP3    H1 8941   2.973   6.101   1.460
 3000TIP3    H2 8942   3.028   5.975   1.524
 3001TIP3   OH2 8943   6.669   4.893   2.169
 3001TIP3    H1 8944   6.681   4.871   2.262
 3001TIP3    H2 8945   6.649   4.809   2.128
 3002TIP3   OH2 8946   4.145   7.120   4.847
 3002TIP3    H1 8947   4.183   7.104   4.933
 3002TIP3    H2 8948   4.143   7.216   4.839
 3003TIP3   OH2 8949   1.765   2.473   4.309
 3003TIP3    H1 8950   1.675   2.491   4.338
 3003TIP3    H2 8951   1.789   2.394   4.355
 3004TIP3   OH2 8952   1.910   3.965   3.990
 3004TIP3    H1 8953   2.002   3.974   3.965
 3004TIP3    H2 8954   1.873   4.052   3.979
 3005TIP3   OH2 8955   0.828   1.722   0.161
 3005TIP3    H1 8956   0.739   1.756   0.172
 3005TIP3    H2 8957   0.840   1.664   0.236
 3006TIP3   OH2 8958   3.996   4.272   1.601
 3006TIP3    H1 8959   3.958   4.307   1.682
 3006TIP3    H2 8960   3.931   4.211   1.567
 3007TIP3   OH2 8961   6.583   4.585   3.003
 3007TIP3    H1 8962   6.535   4.535   2.937
 3007TIP3    H2 8963   6.671   4.546   3.003
 3008TIP3   OH2 8964   3.662   2.318   6.739
 3008TIP3    H1 8965   3.754   2.330   6.764
 3008TIP3    H2 8966   3.647   2.224   6.749
 3009TIP3   OH2 8967   3.756   4.051   0.120
 3009TIP3    H1 8968   3.807   4.106   0.060
 3009TIP3    H2 8969   3.665   4.069   0.098
 3010TIP3   OH2 8970   7.725   3.647   0.665
 3010TIP3    H1 8971   7.781   3.643   0.587
 3010TIP3    H2 8972   7.782   3.620   0.737
 3011TIP3   OH2 8973   7.483   3.831   2.041
 3011TIP3    H1 8974   7.404   3.791   2.078
 3011TIP3    H2 8975   7.542   3.758   2.026
 3012TIP3   OH2 8976   4.775   4.992   5.377
 3012TIP3    H1 8977   4.707   5.016   5.440
 3012TIP3    H2 8978   4.812   4.910   5.410
 3013TIP3   OH2 8979   1.762   0.658   3.682
 3013TIP3    H1 8980   1.781   0.747   3.712
 3013TIP3    H2 8981   1.825   0.602   3.728
 3014TIP3   OH2 8982   3.019   3.062   6.459
 3014TIP3    H1 8983   3.082   3.134   6.470
 3014TIP3    H2 8984   2.967   3.065   6.539
 3015TIP3   OH2 8985   5.933   4.800   0.004
 3015TIP3    H1 8986   5.845   4.835  -0.007
 3015TIP3    H2 8987   5.921   4.706   0.017
 3016TIP3   OH2 8988   4.790   5.027   5.828
 3016TIP3    H1 8989   4.870   5.007   5.781
 3016TIP3    H2 8990   4.722   5.033   5.760
 3017TIP3   OH2 8991   5.008   4.428   4.423
 3017TIP3    H1 8992   5.048   4.364   4.364
 3017TIP3    H2 8993   4.974   4.375   4.495
 3018TIP3   OH2 8994   7.525   1.548   0.567
 3018TIP3    H1 8995   7.435   1.578   0.557
 3018TIP3    H2 8996   7.557   1.594   0.645
 3019TIP3   OH2 8997   0.108   5.821   3.044
 3019TIP3    H1 8998   0.119   5.769   2.964
 3019TIP3    H2 8999   0.057   5.764   3.102
 3020TIP3   OH2 9000   0.253   1.514   2.586
 3020TIP3    H1 9001   0.224   1.559   2.507
 3020TIP3    H2 9002   0.320   1.452   2.556
 3021TIP3   OH2 9003   2.912   1.631   5.395
 3021TIP3    H1 9004   2.911   1.711   5.447
 3021TIP3    H2 9005   2.988   1.640   5.338
 3022TIP3   OH2 9006   1.521   4.393   1.348
 3022TIP3    H1 9007   1.470   4.365   1.424
 3022TIP3    H2 9008   1.565   4.473   1.377
 3023TIP3   OH2 9009   3.419   0.164   0.142
 3023TIP3    H1 9010   3.379   0.091   0.094
 3023TIP3    H2 9011   3.365   0.174   0.220
 3024TIP3   OH2 9012   7.677   2.945   3.608
 3024TIP3    H1 9013   7.707   2.913   3.693
 3024TIP3    H2 9014   7.715   3.033   3.601
 3025TIP3   OH2 9015   6.810   6.585   2.868
 3025TIP3    H1 9016   6.722   6.604   2.835
 3025TIP3    H2 9017   6.796   6.537   2.949
 3026TIP3   OH2 9018   5.016   3.189   2.300
 3026TIP3    H1 9019   4.944   3.238   2.260
 3026TIP3    H2 9020   4.976   3.106   2.325
 3027TIP3   OH2 9021   2.673   3.433   0.060
 3027TIP3    H1 9022   2.688   3.341   0.040
 3027TIP3    H2 9023   2.601   3.432   0.123
 3028TIP3   OH2 9024   1.173   4.559   6.317
 3028TIP3    H1 9025   1.131   4.483   6.358
 3028TIP3    H2 9026   1.198   4.614   6.391
 3029TIP3   OH2 9027   7.967   4.308   4.318
 3029TIP3    H1 9028   7.950   4.360   4.397
 3029TIP3    H2 9029   7.962   4.371   4.246
 3030TIP3   OH2 9030   6.519   3.278   4.017
 3030TIP3    H1 9031   6.605   3.315   3.999
 3030TIP3    H2 9032   6.520   3.260   4.111
 3031TIP3   OH2 9033   0.684   6.553   2.407
 3031TIP3    H1 9034   0.608   6.557   2.464
 3031TIP3    H2 9035   0.718   6.464   2.416
 3032TIP3   OH2 9036   0.012   7.168   1.426
 3032TIP3    H1 9037  -0.081   7.172   1.449
 3032TIP3    H2 9038   0.027   7.076   1.405
 3033TIP3   OH2 9039   0.882   1.603   6.243
 3033TIP3    H1 9040   0.858   1.695   6.243
 3033TIP3    H2 9041   0.886   1.579   6.336
 3034TIP3   OH2 9042   6.106   2.584   2.032
 3034TIP3    H1 9043   6.078   2.630   2.111
 3034TIP3    H2 9044   6.063   2.630   1.960
 3035TIP3   OH2 9045   1.343   4.275   5.378
 3035TIP3    H1 9046   1.300   4.222   5.445
 3035TIP3    H2 9047   1.399   4.335   5.426
 3036TIP3   OH2 9048   2.572   2.344   3.398
 3036TIP3    H1 9049   2.483   2.377   3.385
 3036TIP3    H2 9050   2.594   2.303   3.315
 3037TIP3   OH2 9051   2.589   1.073   6.542
 3037TIP3    H1 9052   2.572   1.023   6.462
 3037TIP3    H2 9053   2.675   1.113   6.527
 3038TIP3   OH2 9054   2.921   3.322   0.945
 3038TIP3    H1 9055   2.988   3.309   1.012
 3038TIP3    H2 9056   2.958   3.281   0.867
 3039TIP3   OH2 9057   4.771   4.835   2.851
 3039TIP3    H1 9058   4.849   4.856   2.800
 3039TIP3    H2 9059   4.800   4.770   2.914
 3040TIP3   OH2 9060   0.932   6.971   4.221
 3040TIP3    H1 9061   0.895   6.975   4.133
 3040TIP3    H2 9062   0.858   6.990   4.279
 3041TIP3   OH2 9063   0.921   0.499   2.486
 3041TIP3    H1 9064   0.871   0.520   2.565
 3041TIP3    H2 9065   0.855   0.486   2.418
 3042TIP3   OH2 9066   2.333   4.419   3.038
 3042TIP3    H1 9067   2.319   4.345   2.979
 3042TIP3    H2 9068   2.428   4.430   3.042
 3043TIP3   OH2 9069   7.169   1.654   3.324
 3043TIP3    H1 9070   7.197   1.679   3.413
 3043TIP3    H2 9071   7.171   1.559   3.324
 3044TIP3   OH2 9072   2.152   6.202   3.883
 3044TIP3    H1 9073   2.191   6.259   3.817
 3044TIP3    H2 9074   2.120   6.126   3.833
 3045TIP3   OH2 9075   6.027   5.036   6.034
 3045TIP3    H1 9076   6.102   5.075   6.079
 3045TIP3    H2 9077   5.956   5.040   6.099
 3046TIP3   OH2 9078   4.851   2.963   2.341
 3046TIP3    H1 9079   4.861   2.869   2.327
 3046TIP3    H2 9080   4.787   2.990   2.274
 3047TIP3   OH2 9081   0.175   4.987   3.214
 3047TIP3    H1 9082   0.172   5.074   3.175
 3047TIP3    H2 9083   0.177   5.003   3.309
 3048TIP3   OH2 9084   7.960   0.655   3.907
 3048TIP3    H1 9085   8.051   0.683   3.910
 3048TIP3    H2 9086   7.926   0.675   3.994
 3049TIP3   OH2 9087   0.717   1.935   0.840
 3049TIP3    H1 9088   0.739   1.991   0.914
 3049TIP3    H2 9089   0.726   1.846   0.874
 3050TIP3   OH2 9090   4.532   1.824   3.877
 3050TIP3    H1 9091   4.464   1.870   3.927
 3050TIP3    H2 9092   4.509   1.731   3.887
 3051TIP3   OH2 9093   2.641   6.892   0.614
 3051TIP3    H1 9094   2.626   6.834   0.689
 3051TIP3    H2 9095   2.732   6.876   0.590
 3052TIP3   OH2 9096   5.886   1.410   2.687
 3052TIP3    H1 9097   5.980   1.420   2.675
 3052TIP3    H2 9098   5.868   1.320   2.662
 3053TIP3   OH2 9099   4.989   4.347   3.167
 3053TIP3    H1 9100   4.939   4.406   3.223
 3053TIP3    H2 9101   5.055   4.403   3.126
 3054TIP3   OH2 9102   3.572   4.516   6.686
 3054TIP3    H1 9103   3.662   4.545   6.701
 3054TIP3    H2 9104   3.572   4.423   6.706
 3055TIP3   OH2 9105   6.344   4.794   4.840
 3055TIP3    H1 9106   6.422   4.847   4.855
 3055TIP3    H2 9107   6.283   4.853   4.796
 3056TIP3   OH2 9108   5.411   1.432   2.962
 3056TIP3    H1 9109   5.394   1.338   2.961
 3056TIP3    H2 9110   5.490   1.442   3.015
 3057TIP3   OH2 9111   4.193   6.808   1.052
 3057TIP3    H1 9112   4.264   6.871   1.064
 3057TIP3    H2 9113   4.226   6.748   0.985
 3058TIP3   OH2 9114   7.614   3.965   5.177
 3058TIP3    H1 9115   7.538   3.942   5.125
 3058TIP3    H2 9116   7.581   4.030   5.240
 3059TIP3   OH2 9117   7.242   2.521   0.379
 3059TIP3    H1 9118   7.196   2.564   0.450
 3059TIP3    H2 9119   7.323   2.569   0.369
 3060TIP3   OH2 9120   1.759   4.247   1.435
 3060TIP3    H1 9121   1.677   4.200   1.420
 3060TIP3    H2 9122   1.752   4.326   1.381
 3061TIP3   OH2 9123   7.326   0.199   4.303
 3061TIP3    H1 9124   7.295   0.261   4.237
 3061TIP3    H2 9125   7.318   0.114   4.261
 3062TIP3   OH2 9126   0.224   7.648   1.413
 3062TIP3    H1 9127   0.289   7.657   1.342
 3062TIP3    H2 9128   0.188   7.561   1.400
 3063TIP3   OH2 9129   2.840   6.765   6.560
 3063TIP3    H1 9130   2.889   6.846   6.547
 3063TIP3    H2 9131   2.749   6.792   6.565
 3064TIP3   OH2 9132   6.528   6.239   2.460
 3064TIP3    H1 9133   6.565   6.274   2.541
 3064TIP3    H2 9134   6.453   6.296   2.441
 3065TIP3   OH2 9135   6.797   3.370   4.193
 3065TIP3    H1 9136   6.790   3.318   4.273
 3065TIP3    H2 9137   6.726   3.435   4.201
 3066TIP3   OH2 9138   1.492   0.456   0.629
 3066TIP3    H1 9139   1.554   0.478   0.559
 3066TIP3    H2 9140   1.487   0.534   0.683
 3067TIP3   OH2 9141   0.320   3.479   3.123
 3067TIP3    H1 9142   0.354   3.476   3.213
 3067TIP3    H2 9143   0.307   3.572   3.106
 3068TIP3   OH2 9144   1.022   2.807   2.964
 3068TIP3    H1 9145   0.977   2.753   3.029
 3068TIP3    H2 9146   0.981   2.894   2.972
 3069TIP3   OH2 9147   5.858   2.926   3.818
 3069TIP3    H1 9148   5.844   2.857   3.883
 3069TIP3    H2 9149   5.780   2.924   3.763
 3070TIP3   OH2 9150   3.125   5.584   3.998
 3070TIP3    H1 9151   3.054   5.537   3.953
 3070TIP3    H2 9152   3.119   5.554   4.088
 3071TIP3   OH2 9153   0.985   6.937   5.107
 3071TIP3    H1 9154   0.994   7.033   5.112
 3071TIP3    H2 9155   0.919   6.923   5.039
 3072TIP3   OH2 9156   7.076   6.583   0.909
 3072TIP3    H1 9157   7.060   6.669   0.947
 3072TIP3    H2 9158   7.172   6.575   0.906
 3073TIP3   OH2 9159   2.462   3.033   1.844
 3073TIP3    H1 9160   2.426   2.976   1.776
 3073TIP3    H2 9161   2.388   3.053   1.901
 3074TIP3   OH2 9162   4.356   3.906   6.747
 3074TIP3    H1 9163   4.307   3.977   6.788
 3074TIP3    H2 9164   4.364   3.840   6.816
 3075TIP3   OH2 9165   3.404   3.557   1.156
 3075TIP3    H1 9166   3.425   3.626   1.093
 3075TIP3    H2 9167   3.368   3.604   1.232
 3076TIP3   OH2 9168   2.919   0.150   2.681
 3076TIP3    H1 9169   2.952   0.227   2.635
 3076TIP3    H2 9170   2.846   0.183   2.734
 3077TIP3   OH2 9171   7.821   6.879   4.787
 3077TIP3    H1 9172   7.753   6.816   4.811
 3077TIP3    H2 9173   7.892   6.862   4.850
 3078TIP3   OH2 9174   2.132   7.583   3.905
 3078TIP3    H1 9175   2.177   7.606   3.823
 3078TIP3    H2 9176   2.199   7.590   3.972
 3079TIP3   OH2 9177   3.994   4.397   1.981
 3079TIP3    H1 9178   4.024   4.488   1.976
 3079TIP3    H2 9179   3.907   4.398   1.940
 3080TIP3   OH2 9180   3.282   4.763   1.416
 3080TIP3    H1 9181   3.262   4.689   1.359
 3080TIP3    H2 9182   3.285   4.839   1.357
 3081TIP3   OH2 9183   8.076   4.775   3.431
 3081TIP3    H1 9184   8.047   4.823   3.509
 3081TIP3    H2 9185   8.168   4.799   3.421
 3082TIP3   OH2 9186   7.419   5.369   3.449
 3082TIP3    H1 9187   7.489   5.372   3.383
 3082TIP3    H2 9188   7.399   5.461   3.466
 3083TIP3   OH2 9189   1.006   6.197   1.102
 3083TIP3    H1 9190   1.081   6.187   1.161
 3083TIP3    H2 9191   0.932   6.215   1.160
 3084TIP3   OH2 9192   1.696   6.941   0.258
 3084TIP3    H1 9193   1.763   6.899   0.313
 3084TIP3    H2 9194   1.740   6.956   0.174
 3085TIP3   OH2 9195   6.569   2.477   2.399
 3085TIP3    H1 9196   6.587   2.417   2.326
 3085TIP3    H2 9197   6.474   2.489   2.396
 3086TIP3   OH2 9198   8.034   4.704   5.846
 3086TIP3    H1 9199   8.108   4.695   5.906
 3086TIP3    H2 9200   7.962   4.659   5.891
 3087TIP3   OH2 9201   2.516   5.380   0.243
 3087TIP3    H1 9202   2.519   5.453   0.305
 3087TIP3    H2 9203   2.502   5.303   0.298
 3088TIP3   OH2 9204   1.951   3.809   3.717
 3088TIP3    H1 9205   1.931   3.874   3.785
 3088TIP3    H2 9206   2.001   3.742   3.764
 3089TIP3   OH2 9207   8.047   5.526   3.248
 3089TIP3    H1 9208   8.029   5.455   3.187
 3089TIP3    H2 9209   8.052   5.485   3.334
 3090TIP3   OH2 9210   3.259   1.266   6.299
 3090TIP3    H1 9211   3.280   1.251   6.391
 3090TIP3    H2 9212   3.264   1.179   6.259
 3091TIP3   OH2 9213   7.812   3.678   0.234
 3091TIP3    H1 9214   7.818   3.703   0.326
 3091TIP3    H2 9215   7.719   3.691   0.212
 3092TIP3   OH2 9216   5.726   6.896   4.239
 3092TIP3    H1 9217   5.809   6.866   4.276
 3092TIP3    H2 9218   5.730   6.991   4.243
 3093TIP3   OH2 9219   2.898   4.944   5.788
 3093TIP3    H1 9220   2.886   5.033   5.753
 3093TIP3    H2 9221   2.906   4.889   5.710
 3094TIP3   OH2 9222   0.422   5.909   1.809
 3094TIP3    H1 9223   0.505   5.885   1.768
 3094TIP3    H2 9224   0.402   5.837   1.869
 3095TIP3   OH2 9225   1.894   3.936   0.457
 3095TIP3    H1 9226   1.885   3.847   0.422
 3095TIP3    H2 9227   1.805   3.970   0.460
 3096TIP3   OH2 9228   0.197   4.175   1.798
 3096TIP3    H1 9229   0.244   4.259   1.792
 3096TIP3    H2 9230   0.261   4.110   1.771
 3097TIP3   OH2 9231   4.802   6.236   0.554
 3097TIP3    H1 9232   4.823   6.296   0.626
 3097TIP3    H2 9233   4.773   6.156   0.598
 3098TIP3   OH2 9234   4.254   2.359   0.343
 3098TIP3    H1 9235   4.185   2.413   0.303
 3098TIP3    H2 9236   4.333   2.411   0.335
 3099TIP3   OH2 9237   2.943   1.804   4.597
 3099TIP3    H1 9238   2.991   1.883   4.619
 3099TIP3    H2 9239   2.899   1.779   4.678
 3100TIP3   OH2 9240   1.226   3.334   4.884
 3100TIP3    H1 9241   1.165   3.311   4.955
 3100TIP3    H2 9242   1.199   3.279   4.810
 3101TIP3   OH2 9243   7.826   6.346   0.823
 3101TIP3    H1 9244   7.889   6.396   0.770
 3101TIP3    H2 9245   7.842   6.375   0.913
 3102TIP3   OH2 9246   5.076   0.632   2.504
 3102TIP3    H1 9247   5.090   0.538   2.518
 3102TIP3    H2 9248   5.128   0.674   2.572
 3103TIP3   OH2 9249   5.248   1.374   1.098
 3103TIP3    H1 9250   5.264   1.280   1.086
 3103TIP3    H2 9251   5.336   1.412   1.108
 3104TIP3   OH2 9252   5.602   5.077   1.807
 3104TIP3    H1 9253   5.513   5.109   1.795
 3104TIP3    H2 9254   5.639   5.133   1.876
 3105TIP3   OH2 9255   3.028   3.325   4.743
 3105TIP3    H1 9256   2.965   3.281   4.801
 3105TIP3    H2 9257   3.000   3.301   4.655
 3106TIP3   OH2 9258   5.625   5.915   4.006
 3106TIP3    H1 9259   5.633   5.935   3.912
 3106TIP3    H2 9260   5.710   5.941   4.042
 3107TIP3   OH2 9261   1.125   0.819   0.363
 3107TIP3    H1 9262   1.150   0.909   0.380
 3107TIP3    H2 9263   1.162   0.800   0.277
 3108TIP3   OH2 9264   1.914   0.473   6.674
 3108TIP3    H1 9265   1.864   0.393   6.657
 3108TIP3    H2 9266   1.864   0.543   6.632
 3109TIP3   OH2 9267   2.061   4.713   0.121
 3109TIP3    H1 9268   2.020   4.741   0.039
 3109TIP3    H2 9269   2.008   4.754   0.189
 3110TIP3   OH2 9270   7.369   0.662   6.192
 3110TIP3    H1 9271   7.282   0.666   6.233
 3110TIP3    H2 9272   7.390   0.569   6.192
 3111TIP3   OH2 9273   7.506   0.270   4.941
 3111TIP3    H1 9274   7.484   0.192   4.889
 3111TIP3    H2 9275   7.515   0.238   5.031
 3112TIP3   OH2 9276   5.205   4.114   3.114
 3112TIP3    H1 9277   5.259   4.191   3.132
 3112TIP3    H2 9278   5.267   4.041   3.114
 3113TIP3   OH2 9279   4.690   0.851   6.681
 3113TIP3    H1 9280   4.785   0.844   6.693
 3113TIP3    H2 9281   4.660   0.896   6.760
 3114TIP3   OH2 9282   4.253   2.184   1.268
 3114TIP3    H1 9283   4.339   2.178   1.309
 3114TIP3    H2 9284   4.223   2.093   1.263
 3115TIP3   OH2 9285   4.729   1.188   5.708
 3115TIP3    H1 9286   4.690   1.131   5.643
 3115TIP3    H2 9287   4.703   1.276   5.681
 3116TIP3   OH2 9288   6.781   4.629   3.551
 3116TIP3    H1 9289   6.850   4.578   3.594
 3116TIP3    H2 9290   6.821   4.715   3.537
 3117TIP3   OH2 9291   5.137   0.458   6.418
 3117TIP3    H1 9292   5.073   0.520   6.385
 3117TIP3    H2 9293   5.095   0.418   6.494
 3118TIP3   OH2 9294   7.248   7.127   1.001
 3118TIP3    H1 9295   7.295   7.207   1.027
 3118TIP3    H2 9296   7.292   7.099   0.920
 3119TIP3   OH2 9297   6.209   4.281   6.015
 3119TIP3    H1 9298   6.298   4.315   6.028
 3119TIP3    H2 9299   6.215   4.227   5.936
 3120TIP3   OH2 9300   5.661   6.311   4.165
 3120TIP3    H1 9301   5.597   6.241   4.174
 3120TIP3    H2 9302   5.650   6.364   4.244
 3121TIP3   OH2 9303   4.072   1.167   4.668
 3121TIP3    H1 9304   4.151   1.134   4.710
 3121TIP3    H2 9305   4.090   1.260   4.651
 3122TIP3   OH2 9306   5.507   5.499   3.369
 3122TIP3    H1 9307   5.519   5.552   3.289
 3122TIP3    H2 9308   5.590   5.453   3.380
 3123TIP3   OH2 9309   2.063   1.909   2.680
 3123TIP3    H1 9310   2.097   1.987   2.724
 3123TIP3    H2 9311   2.005   1.944   2.612
 3124TIP3   OH2 9312   4.545   7.837   1.708
 3124TIP3    H1 9313   4.510   7.926   1.706
 3124TIP3    H2 9314   4.637   7.847   1.684
 3125TIP3   OH2 9315   4.913   4.800   6.720
 3125TIP3    H1 9316   4.980   4.855   6.681
 3125TIP3    H2 9317   4.958   4.718   6.740
 3126TIP3   OH2 9318   0.294   2.621   4.598
 3126TIP3    H1 9319   0.283   2.698   4.542
 3126TIP3    H2 9320   0.277   2.547   4.540
 3127TIP3   OH2 9321   8.125   0.109   2.622
 3127TIP3    H1 9322   8.201   0.163   2.599
 3127TIP3    H2 9323   8.097   0.071   2.538
 3128TIP3   OH2 9324   6.785   4.923   4.574
 3128TIP3    H1 9325   6.707   4.871   4.555
 3128TIP3    H2 9326   6.836   4.920   4.493
 3129TIP3   OH2 9327   0.561   2.398   4.123
 3129TIP3    H1 9328   0.618   2.474   4.111
 3129TIP3    H2 9329   0.480   2.421   4.076
 3130TIP3   OH2 9330   4.727   7.566   5.513
 3130TIP3    H1 9331   4.794   7.569   5.444
 3130TIP3    H2 9332   4.648   7.600   5.471
 3131TIP3   OH2 9333   4.625   7.146   6.604
 3131TIP3    H1 9334   4.661   7.211   6.665
 3131TIP3    H2 9335   4.564   7.197   6.550
 3132TIP3   OH2 9336   4.793   0.835   0.476
 3132TIP3    H1 9337   4.741   0.829   0.396
 3132TIP3    H2 9338   4.738   0.886   0.536
 3133TIP3   OH2 9339   5.168   6.766   2.139
 3133TIP3    H1 9340   5.076   6.775   2.165
 3133TIP3    H2 9341   5.166   6.705   2.066
 3134TIP3   OH2 9342   4.781   4.175   4.841
 3134TIP3    H1 9343   4.822   4.248   4.887
 3134TIP3    H2 9344   4.761   4.112   4.911
 3135TIP3   OH2 9345   5.660   1.911   1.595
 3135TIP3    H1 9346   5.691   1.962   1.521
 3135TIP3    H2 9347   5.571   1.942   1.611
 3136TIP3   OH2 9348   4.142   7.346   0.059
 3136TIP3    H1 9349   4.130   7.434   0.095
 3136TIP3    H2 9350   4.056   7.322   0.025
 3137TIP3   OH2 9351   7.672   7.029   0.321
 3137TIP3    H1 9352   7.700   7.070   0.239
 3137TIP3    H2 9353   7.713   7.082   0.389
 3138TIP3   OH2 9354   6.110   6.479   6.130
 3138TIP3    H1 9355   6.026   6.432   6.123
 3138TIP3    H2 9356   6.094   6.546   6.197
 3139TIP3   OH2 9357   4.231   4.156   6.836
 3139TIP3    H1 9358   4.185   4.229   6.877
 3139TIP3    H2 9359   4.315   4.151   6.882
 3140TIP3   OH2 9360   4.267   2.288   5.872
 3140TIP3    H1 9361   4.181   2.324   5.853
 3140TIP3    H2 9362   4.259   2.194   5.854
 3141TIP3   OH2 9363   7.686   1.841   1.040
 3141TIP3    H1 9364   7.655   1.757   1.072
 3141TIP3    H2 9365   7.770   1.823   0.999
 3142TIP3   OH2 9366   8.344   0.589   6.441
 3142TIP3    H1 9367   8.259   0.634   6.443
 3142TIP3    H2 9368   8.407   0.657   6.419
 3143TIP3   OH2 9369   8.261   4.284   4.547
 3143TIP3    H1 9370   8.289   4.262   4.458
 3143TIP3    H2 9371   8.341   4.313   4.591
 3144TIP3   OH2 9372   4.137   0.888   2.834
 3144TIP3    H1 9373   4.183   0.857   2.912
 3144TIP3    H2 9374   4.188   0.853   2.760
 3145TIP3   OH2 9375   4.510   3.869   2.281
 3145TIP3    H1 9376   4.538   3.779   2.262
 3145TIP3    H2 9377   4.425   3.877   2.238
 3146TIP3   OH2 9378   2.351   5.054   3.699
 3146TIP3    H1 9379   2.384   5.054   3.789
 3146TIP3    H2 9380   2.428   5.037   3.645
 3147TIP3   OH2 9381   7.455   4.782   0.514
 3147TIP3    H1 9382   7.518   4.761   0.583
 3147TIP3    H2 9383   7.505   4.774   0.433
 3148TIP3   OH2 9384   6.615   2.476   3.418
 3148TIP3    H1 9385   6.610   2.506   3.327
 3148TIP3    H2 9386   6.674   2.538   3.460
 3149TIP3   OH2 9387   4.348   1.402   6.779
 3149TIP3    H1 9388   4.421   1.369   6.727
 3149TIP3    H2 9389   4.289   1.327   6.788
 3150TIP3   OH2 9390   1.940   0.699   1.591
 3150TIP3    H1 9391   2.023   0.691   1.544
 3150TIP3    H2 9392   1.962   0.679   1.682
 3151TIP3   OH2 9393   7.186   5.605   5.763
 3151TIP3    H1 9394   7.227   5.659   5.695
 3151TIP3    H2 9395   7.253   5.540   5.785
 3152TIP3   OH2 9396   0.589   2.218   6.002
 3152TIP3    H1 9397   0.539   2.144   5.968
 3152TIP3    H2 9398   0.613   2.268   5.924
 3153TIP3   OH2 9399   0.827   0.450   3.707
 3153TIP3    H1 9400   0.734   0.446   3.683
 3153TIP3    H2 9401   0.831   0.404   3.791
 3154TIP3   OH2 9402   4.575   3.122   3.192
 3154TIP3    H1 9403   4.595   3.092   3.281
 3154TIP3    H2 9404   4.636   3.074   3.136
 3155TIP3   OH2 9405   5.087   4.479   5.335
 3155TIP3    H1 9406   5.113   4.529   5.257
 3155TIP3    H2 9407   5.139   4.399   5.330
 3156TIP3   OH2 9408   1.087   3.412   4.195
 3156TIP3    H1 9409   1.001   3.379   4.168
 3156TIP3    H2 9410   1.067   3.479   4.261
 3157TIP3   OH2 9411   2.520   3.805   5.518
 3157TIP3    H1 9412   2.540   3.763   5.434
 3157TIP3    H2 9413   2.487   3.733   5.573
 3158TIP3   OH2 9414   7.698   0.995   1.564
 3158TIP3    H1 9415   7.744   0.999   1.481
 3158TIP3    H2 9416   7.674   1.085   1.584
 3159TIP3   OH2 9417   5.977   6.139   0.097
 3159TIP3    H1 9418   5.922   6.157   0.173
 3159TIP3    H2 9419   6.012   6.052   0.113
 3160TIP3   OH2 9420   4.153   7.772   6.340
 3160TIP3    H1 9421   4.145   7.698   6.400
 3160TIP3    H2 9422   4.092   7.752   6.269
 3161TIP3   OH2 9423   4.846   4.517   0.692
 3161TIP3    H1 9424   4.782   4.461   0.647
 3161TIP3    H2 9425   4.930   4.475   0.675
 3162TIP3   OH2 9426   6.547   3.253   4.281
 3162TIP3    H1 9427   6.484   3.191   4.319
 3162TIP3    H2 9428   6.631   3.207   4.285
 3163TIP3   OH2 9429   2.181   3.429   5.774
 3163TIP3    H1 9430   2.182   3.498   5.840
 3163TIP3    H2 9431   2.126   3.361   5.811
 3164TIP3   OH2 9432   4.519   1.994   5.085
 3164TIP3    H1 9433   4.440   1.962   5.041
 3164TIP3    H2 9434   4.580   2.013   5.014
 3165TIP3   OH2 9435   4.625   1.524   0.104
 3165TIP3    H1 9436   4.700   1.470   0.077
 3165TIP3    H2 9437   4.561   1.461   0.138
 3166TIP3   OH2 9438   1.231   6.478   1.077
 3166TIP3    H1 9439   1.317   6.461   1.117
 3166TIP3    H2 9440   1.237   6.437   0.990
 3167TIP3   OH2 9441   0.083   5.480   3.350
 3167TIP3    H1 9442   0.060   5.388   3.336
 3167TIP3    H2 9443   0.039   5.504   3.432
 3168TIP3   OH2 9444   2.705   2.972   1.955
 3168TIP3    H1 9445   2.630   2.986   1.898
 3168TIP3    H2 9446   2.724   2.878   1.947
 3169TIP3   OH2 9447   0.324   4.168   2.428
 3169TIP3    H1 9448   0.399   4.142   2.482
 3169TIP3    H2 9449   0.288   4.245   2.473
 3170TIP3   OH2 9450   1.381   6.795   2.771
 3170TIP3    H1 9451   1.388   6.713   2.722
 3170TIP3    H2 9452   1.332   6.854   2.712
 3171TIP3   OH2 9453   6.427   3.158   6.290
 3171TIP3    H1 9454   6.407   3.167   6.383
 3171TIP3    H2 9455   6.446   3.247   6.260
 3172TIP3   OH2 9456   1.252   2.028   5.827
 3172TIP3    H1 9457   1.199   2.050   5.750
 3172TIP3    H2 9458   1.204   1.957   5.870
 3173TIP3   OH2 9459   4.686   1.526   5.290
 3173TIP3    H1 9460   4.651   1.615   5.285
 3173TIP3    H2 9461   4.763   1.533   5.346
 3174TIP3   OH2 9462   6.253   1.517   0.146
 3174TIP3    H1 9463   6.212   1.488   0.227
 3174TIP3    H2 9464   6.324   1.454   0.132
 3175TIP3   OH2 9465   4.257   6.020   2.706
 3175TIP3    H1 9466   4.324   6.055   2.764
 3175TIP3    H2 9467   4.217   6.097   2.667
 3176TIP3   OH2 9468   1.317   6.483   2.153
 3176TIP3    H1 9469   1.239   6.428   2.169
 3176TIP3    H2 9470   1.296   6.531   2.073
 3177TIP3   OH2 9471   1.889   3.936   2.436
 3177TIP3    H1 9472   1.942   3.992   2.493
 3177TIP3    H2 9473   1.883   3.853   2.483
 3178TIP3   OH2 9474   5.834   0.239   0.219
 3178TIP3    H1 9475   5.818   0.170   0.154
 3178TIP3    H2 9476   5.929   0.236   0.234
 3179TIP3   OH2 9477   4.391   4.782   4.887
 3179TIP3    H1 9478   4.451   4.857   4.883
 3179TIP3    H2 9479   4.324   4.801   4.821
 3180TIP3   OH2 9480   4.559   6.075   3.836
 3180TIP3    H1 9481   4.517   6.085   3.750
 3180TIP3    H2 9482   4.543   6.158   3.880
 3181TIP3   OH2 9483   2.365   5.148   0.732
 3181TIP3    H1 9484   2.368   5.057   0.760
 3181TIP3    H2 9485   2.307   5.191   0.795
 3182TIP3   OH2 9486   1.897   6.104   5.186
 3182TIP3    H1 9487   1.958   6.037   5.156
 3182TIP3    H2 9488   1.914   6.179   5.129
 3183TIP3   OH2 9489   1.236   3.804   6.371
 3183TIP3    H1 9490   1.245   3.859   6.449
 3183TIP3    H2 9491   1.270   3.858   6.300
 3184TIP3   OH2 9492   2.903   3.039   3.951
 3184TIP3    H1 9493   2.913   3.033   3.856
 3184TIP3    H2 9494   2.922   3.131   3.971
 3185TIP3   OH2 9495   0.501   7.366   6.691
 3185TIP3    H1 9496   0.582   7.415   6.673
 3185TIP3    H2 9497   0.435   7.408   6.636
 3186TIP3   OH2 9498   5.441   2.976   2.223
 3186TIP3    H1 9499   5.346   2.980   2.212
 3186TIP3    H2 9500   5.463   3.057   2.270
 3187TIP3   OH2 9501   4.374   2.911   5.954
 3187TIP3    H1 9502   4.371   2.946   5.864
 3187TIP3    H2 9503   4.298   2.853   5.959
 3188TIP3   OH2 9504   8.387   1.903   1.963
 3188TIP3    H1 9505   8.456   1.965   1.939
 3188TIP3    H2 9506   8.385   1.905   2.059
 3189TIP3   OH2 9507   1.003   5.568   3.293
 3189TIP3    H1 9508   1.092   5.586   3.323
 3189TIP3    H2 9509   1.011   5.556   3.199
 3190TIP3   OH2 9510   2.806   3.409   6.717
 3190TIP3    H1 9511   2.786   3.342   6.652
 3190TIP3    H2 9512   2.739   3.399   6.784
 3191TIP3   OH2 9513   1.763   1.085   6.323
 3191TIP3    H1 9514   1.798   1.053   6.239
 3191TIP3    H2 9515   1.778   1.179   6.321
 3192TIP3   OH2 9516   3.964   6.635   1.507
 3192TIP3    H1 9517   4.044   6.612   1.554
 3192TIP3    H2 9518   3.973   6.592   1.422
 3193TIP3   OH2 9519   6.306   5.868   2.849
 3193TIP3    H1 9520   6.357   5.860   2.768
 3193TIP3    H2 9521   6.242   5.937   2.831
 3194TIP3   OH2 9522   0.132   3.042   1.607
 3194TIP3    H1 9523   0.221   3.037   1.573
 3194TIP3    H2 9524   0.091   2.961   1.578
 3195TIP3   OH2 9525   0.185   6.650   5.449
 3195TIP3    H1 9526   0.157   6.577   5.394
 3195TIP3    H2 9527   0.127   6.648   5.525
 3196TIP3   OH2 9528   2.117   5.390   2.005
 3196TIP3    H1 9529   2.124   5.385   1.909
 3196TIP3    H2 9530   2.146   5.479   2.026
 3197TIP3   OH2 9531   7.289   7.798   3.630
 3197TIP3    H1 9532   7.201   7.768   3.609
 3197TIP3    H2 9533   7.343   7.764   3.558
 3198TIP3   OH2 9534   0.288   2.698   3.780
 3198TIP3    H1 9535   0.343   2.669   3.707
 3198TIP3    H2 9536   0.332   2.777   3.813
 3199TIP3   OH2 9537   4.735   3.744   0.719
 3199TIP3    H1 9538   4.668   3.807   0.691
 3199TIP3    H2 9539   4.687   3.661   0.727
 3200TIP3   OH2 9540   3.479   2.892   0.145
 3200TIP3    H1 9541   3.552   2.830   0.150
 3200TIP3    H2 9542   3.474   2.930   0.233
 3201TIP3   OH2 9543   7.004   1.405   2.123
 3201TIP3    H1 9544   6.963   1.451   2.050
 3201TIP3    H2 9545   7.079   1.360   2.085
 3202TIP3   OH2 9546   4.259   1.672   1.389
 3202TIP3    H1 9547   4.268   1.618   1.468
 3202TIP3    H2 9548   4.262   1.610   1.317
 3203TIP3   OH2 9549   3.219   2.653   0.354
 3203TIP3    H1 9550   3.168   2.608   0.287
 3203TIP3    H2 9551   3.310   2.635   0.331
 3204TIP3   OH2 9552   1.608   1.856   3.197
 3204TIP3    H1 9553   1.684   1.910   3.178
 3204TIP3    H2 9554   1.626   1.773   3.153
 3205TIP3   OH2 9555   0.091   3.601   5.757
 3205TIP3    H1 9556   0.129   3.550   5.686
 3205TIP3    H2 9557   0.072   3.686   5.718
 3206TIP3   OH2 9558   6.094   3.683   3.121
 3206TIP3    H1 9559   6.155   3.756   3.120
 3206TIP3    H2 9560   6.038   3.696   3.045
 3207TIP3   OH2 9561   0.002   7.665   2.595
 3207TIP3    H1 9562   0.006   7.616   2.677
 3207TIP3    H2 9563  -0.032   7.601   2.532
 3208TIP3   OH2 9564   8.204   1.406   1.010
 3208TIP3    H1 9565   8.273   1.463   0.976
 3208TIP3    H2 9566   8.127   1.427   0.958
 3209TIP3   OH2 9567   0.420   4.351   1.064
 3209TIP3    H1 9568   0.402   4.437   1.028
 3209TIP3    H2 9569   0.441   4.297   0.988
 3210TIP3   OH2 9570   6.376   6.542   0.570
 3210TIP3    H1 9571   6.467   6.573   0.563
 3210TIP3    H2 9572   6.381   6.448   0.553
 3211TIP3   OH2 9573   7.443   3.669   0.379
 3211TIP3    H1 9574   7.400   3.735   0.434
 3211TIP3    H2 9575   7.468   3.716   0.300
 3212TIP3   OH2 9576   6.291   5.714   4.181
 3212TIP3    H1 9577   6.222   5.647   4.183
 3212TIP3    H2 9578   6.277   5.766   4.260
 3213TIP3   OH2 9579   0.996   2.596   1.866
 3213TIP3    H1 9580   0.994   2.510   1.824
 3213TIP3    H2 9581   1.072   2.640   1.827
 3214TIP3   OH2 9582   6.738   5.759   2.400
 3214TIP3    H1 9583   6.683   5.743   2.477
 3214TIP3    H2 9584   6.752   5.853   2.401
 3215TIP3   OH2 9585   7.845   5.786   3.545
 3215TIP3    H1 9586   7.876   5.784   3.455
 3215TIP3    H2 9587   7.909   5.733   3.594
 3216TIP3   OH2 9588   4.652   1.335   6.297
 3216TIP3    H1 9589   4.653   1.260   6.238
 3216TIP3    H2 9590   4.729   1.386   6.273
 3217TIP3   OH2 9591   5.813   1.458   4.928
 3217TIP3    H1 9592   5.767   1.464   5.011
 3217TIP3    H2 9593   5.901   1.490   4.948
 3218TIP3   OH2 9594   6.747   3.101   4.329
 3218TIP3    H1 9595   6.733   3.009   4.353
 3218TIP3    H2 9596   6.835   3.102   4.292
 3219TIP3   OH2 9597   5.609   1.527   0.196
 3219TIP3    H1 9598   5.606   1.614   0.235
 3219TIP3    H2 9599   5.571   1.538   0.109
 3220TIP3   OH2 9600   8.349   6.865   5.295
 3220TIP3    H1 9601   8.380   6.888   5.208
 3220TIP3    H2 9602   8.393   6.783   5.316
 3221TIP3   OH2 9603   1.170   5.481   5.493
 3221TIP3    H1 9604   1.127   5.566   5.499
 3221TIP3    H2 9605   1.235   5.482   5.563
 3222TIP3   OH2 9606   6.317   5.666   3.479
 3222TIP3    H1 9607   6.294   5.573   3.486
 3222TIP3    H2 9608   6.241   5.706   3.435
 3223TIP3   OH2 9609   4.469   1.065   1.209
 3223TIP3    H1 9610   4.439   0.983   1.170
 3223TIP3    H2 9611   4.543   1.040   1.264
 3224TIP3   OH2 9612   5.083   7.753   1.563
 3224TIP3    H1 9613   5.112   7.740   1.473
 3224TIP3    H2 9614   5.092   7.667   1.603
 3225TIP3   OH2 9615   3.923   4.199   6.175
 3225TIP3    H1 9616   3.965   4.113   6.173
 3225TIP3    H2 9617   3.969   4.246   6.245
 3226TIP3   OH2 9618   2.936   0.252   3.210
 3226TIP3    H1 9619   2.855   0.203   3.225
 3226TIP3    H2 9620   2.919   0.301   3.130
 3227TIP3   OH2 9621   5.455   7.555   5.376
 3227TIP3    H1 9622   5.436   7.477   5.323
 3227TIP3    H2 9623   5.536   7.590   5.339
 3228TIP3   OH2 9624   6.094   3.834   5.943
 3228TIP3    H1 9625   6.033   3.884   5.890
 3228TIP3    H2 9626   6.142   3.900   5.994
 3229TIP3   OH2 9627   8.207   1.274   3.980
 3229TIP3    H1 9628   8.187   1.357   4.024
 3229TIP3    H2 9629   8.141   1.213   4.011
 3230TIP3   OH2 9630   4.389   3.331   0.991
 3230TIP3    H1 9631   4.469   3.278   0.987
 3230TIP3    H2 9632   4.333   3.285   1.052
 3231TIP3   OH2 9633   5.556   1.923   3.662
 3231TIP3    H1 9634   5.629   1.971   3.700
 3231TIP3    H2 9635   5.595   1.846   3.622
 3232TIP3   OH2 9636   7.404   7.302   3.431
 3232TIP3    H1 9637   7.452   7.261   3.503
 3232TIP3    H2 9638   7.430   7.394   3.434
 3233TIP3   OH2 9639   3.461   2.245   1.972
 3233TIP3    H1 9640   3.496   2.292   1.897
 3233TIP3    H2 9641   3.438   2.159   1.937
 3234TIP3   OH2 9642   4.463   6.695   1.124
 3234TIP3    H1 9643   4.537   6.701   1.185
 3234TIP3    H2 9644   4.499   6.728   1.041
 3235TIP3   OH2 9645   2.635   2.496   2.145
 3235TIP3    H1 9646   2.644   2.456   2.059
 3235TIP3    H2 9647   2.666   2.429   2.206
 3236TIP3   OH2 9648   2.194   1.836   5.627
 3236TIP3    H1 9649   2.106   1.867   5.648
 3236TIP3    H2 9650   2.189   1.741   5.637
 3237TIP3   OH2 9651   7.373   4.623   1.418
 3237TIP3    H1 9652   7.396   4.534   1.393
 3237TIP3    H2 9653   7.451   4.674   1.399
 3238TIP3   OH2 9654   5.536   3.417   1.356
 3238TIP3    H1 9655   5.529   3.430   1.262
 3238TIP3    H2 9656   5.581   3.333   1.366
 3239TIP3   OH2 9657   7.315   1.202   2.281
 3239TIP3    H1 9658   7.259   1.204   2.359
 3239TIP3    H2 9659   7.325   1.294   2.256
 3240TIP3   OH2 9660   0.410   1.995   5.967
 3240TIP3    H1 9661   0.369   1.944   6.037
 3240TIP3    H2 9662   0.459   1.930   5.915
 3241TIP3   OH2 9663   4.227   4.055   3.779
 3241TIP3    H1 9664   4.156   4.116   3.760
 3241TIP3    H2 9665   4.191   3.997   3.846
 3242TIP3   OH2 9666   0.275   1.975   5.283
 3242TIP3    H1 9667   0.317   1.901   5.328
 3242TIP3    H2 9668   0.182   1.961   5.294
 3243TIP3   OH2 9669   6.009   1.912   5.941
 3243TIP3    H1 9670   6.002   1.852   6.015
 3243TIP3    H2 9671   5.989   1.859   5.864
 3244TIP3   OH2 9672   5.104   3.255   5.794
 3244TIP3    H1 9673   5.073   3.338   5.831
 3244TIP3    H2 9674   5.149   3.279   5.713
 3245TIP3   OH2 9675   2.086   1.676   3.742
 3245TIP3    H1 9676   2.038   1.595   3.732
 3245TIP3    H2 9677   2.158   1.670   3.679
 3246TIP3   OH2 9678   1.339   6.620   3.356
 3246TIP3    H1 9679   1.346   6.561   3.432
 3246TIP3    H2 9680   1.344   6.561   3.280
 3247TIP3   OH2 9681   7.548   2.692   5.707
 3247TIP3    H1 9682   7.468   2.718   5.751
 3247TIP3    H2 9683   7.520   2.659   5.622
 3248TIP3   OH2 9684   6.502   6.490   3.610
 3248TIP3    H1 9685   6.453   6.468   3.689
 3248TIP3    H2 9686   6.436   6.492   3.541
 3249TIP3   OH2 9687   2.160   1.184   5.827
 3249TIP3    H1 9688   2.215   1.234   5.887
 3249TIP3    H2 9689   2.171   1.227   5.742
 3250TIP3   OH2 9690   7.717   3.711   3.135
 3250TIP3    H1 9691   7.724   3.691   3.228
 3250TIP3    H2 9692   7.631   3.677   3.110
 3251TIP3   OH2 9693   2.194   6.097   2.580
 3251TIP3    H1 9694   2.155   6.152   2.647
 3251TIP3    H2 9695   2.228   6.021   2.627
 3252TIP3   OH2 9696   5.474   3.934   5.135
 3252TIP3    H1 9697   5.558   3.937   5.090
 3252TIP3    H2 9698   5.495   3.904   5.223
 3253TIP3   OH2 9699   6.456   7.482   1.440
 3253TIP3    H1 9700   6.539   7.525   1.459
 3253TIP3    H2 9701   6.392   7.527   1.495
 3254TIP3   OH2 9702   2.186   4.787   1.399
 3254TIP3    H1 9703   2.241   4.717   1.362
 3254TIP3    H2 9704   2.097   4.762   1.376
 3255TIP3   OH2 9705   6.078   2.565   0.311
 3255TIP3    H1 9706   6.025   2.575   0.390
 3255TIP3    H2 9707   6.160   2.527   0.342
 3256TIP3   OH2 9708   7.719   7.127   0.862
 3256TIP3    H1 9709   7.738   7.215   0.829
 3256TIP3    H2 9710   7.625   7.118   0.850
 3257TIP3   OH2 9711   8.062   1.882   1.939
 3257TIP3    H1 9712   8.149   1.860   1.906
 3257TIP3    H2 9713   8.031   1.803   1.983
 3258TIP3   OH2 9714   0.054   0.564   1.552
 3258TIP3    H1 9715   0.088   0.563   1.641
 3258TIP3    H2 9716  -0.003   0.641   1.549
 3259TIP3   OH2 9717   3.455   4.954   0.420
 3259TIP3    H1 9718   3.481   4.919   0.505
 3259TIP3    H2 9719   3.368   4.918   0.404
 3260TIP3   OH2 9720   3.115   7.758   3.458
 3260TIP3    H1 9721   3.206   7.751   3.486
 3260TIP3    H2 9722   3.065   7.716   3.528
 3261TIP3   OH2 9723   2.448   0.873   2.826
 3261TIP3    H1 9724   2.410   0.899   2.742
 3261TIP3    H2 9725   2.428   0.945   2.885
 3262TIP3   OH2 9726   1.599   4.227   5.583
 3262TIP3    H1 9727   1.566   4.288   5.517
 3262TIP3    H2 9728   1.550   4.248   5.662
 3263TIP3   OH2 9729   1.974   1.996   4.363
 3263TIP3    H1 9730   2.047   1.935   4.361
 3263TIP3    H2 9731   1.978   2.042   4.279
 3264TIP3   OH2 9732   3.199   4.576   3.040
 3264TIP3    H1 9733   3.150   4.656   3.020
 3264TIP3    H2 9734   3.251   4.560   2.962
 3265TIP3   OH2 9735   1.760   1.859   0.268
 3265TIP3    H1 9736   1.752   1.943   0.222
 3265TIP3    H2 9737   1.689   1.860   0.332
 3266TIP3   OH2 9738   4.044   2.104   4.885
 3266TIP3    H1 9739   3.988   2.049   4.940
 3266TIP3    H2 9740   3.989   2.128   4.811
 3267TIP3   OH2 9741   4.428   7.639   1.096
 3267TIP3    H1 9742   4.481   7.703   1.143
 3267TIP3    H2 9743   4.341   7.645   1.137
 3268TIP3   OH2 9744   7.716   5.028   2.852
 3268TIP3    H1 9745   7.661   4.973   2.797
 3268TIP3    H2 9746   7.654   5.069   2.913
 3269TIP3   OH2 9747   8.305   7.392   1.306
 3269TIP3    H1 9748   8.366   7.328   1.344
 3269TIP3    H2 9749   8.340   7.408   1.218
 3270TIP3   OH2 9750   3.659   6.743   5.750
 3270TIP3    H1 9751   3.628   6.656   5.723
 3270TIP3    H2 9752   3.711   6.726   5.829
 3271TIP3   OH2 9753   1.948   6.926   3.842
 3271TIP3    H1 9754   1.903   6.977   3.908
 3271TIP3    H2 9755   1.891   6.930   3.765
 3272TIP3   OH2 9756   0.194   0.591   1.800
 3272TIP3    H1 9757   0.289   0.593   1.784
 3272TIP3    H2 9758   0.186   0.556   1.889
 3273TIP3   OH2 9759   6.789   0.692   2.294
 3273TIP3    H1 9760   6.779   0.786   2.277
 3273TIP3    H2 9761   6.804   0.687   2.389
 3274TIP3   OH2 9762   5.815   4.245   3.286
 3274TIP3    H1 9763   5.851   4.194   3.359
 3274TIP3    H2 9764   5.747   4.299   3.327
 3275TIP3   OH2 9765   6.473   3.855   1.962
 3275TIP3    H1 9766   6.495   3.779   2.016
 3275TIP3    H2 9767   6.471   3.928   2.023
 3276TIP3   OH2 9768   5.640   2.041   0.363
 3276TIP3    H1 9769   5.566   2.042   0.425
 3276TIP3    H2 9770   5.603   2.075   0.282
 3277TIP3   OH2 9771   6.769   1.108   2.002
 3277TIP3    H1 9772   6.686   1.062   1.989
 3277TIP3    H2 9773   6.749   1.200   1.986
 3278TIP3   OH2 9774   3.198   5.459   1.457
 3278TIP3    H1 9775   3.247   5.516   1.517
 3278TIP3    H2 9776   3.265   5.419   1.401
 3279TIP3   OH2 9777   4.614   2.995   5.367
 3279TIP3    H1 9778   4.538   3.019   5.419
 3279TIP3    H2 9779   4.579   2.945   5.294
 3280TIP3   OH2 9780   4.220   3.770   5.034
 3280TIP3    H1 9781   4.243   3.830   5.105
 3280TIP3    H2 9782   4.246   3.817   4.955
 3281TIP3   OH2 9783   7.010   2.833   2.334
 3281TIP3    H1 9784   7.043   2.753   2.375
 3281TIP3    H2 9785   6.946   2.868   2.397
 3282TIP3   OH2 9786   4.255   6.955   0.338
 3282TIP3    H1 9787   4.205   6.993   0.266
 3282TIP3    H2 9788   4.317   6.896   0.296
 3283TIP3   OH2 9789   7.184   0.014   0.769
 3283TIP3    H1 9790   7.099   0.052   0.791
 3283TIP3    H2 9791   7.232   0.013   0.852
 3284TIP3   OH2 9792   4.746   4.121   5.477
 3284TIP3    H1 9793   4.710   4.032   5.482
 3284TIP3    H2 9794   4.748   4.151   5.568
 3285TIP3   OH2 9795   0.524   3.731   5.587
 3285TIP3    H1 9796   0.569   3.713   5.504
 3285TIP3    H2 9797   0.435   3.756   5.561
 3286TIP3   OH2 9798   3.049   4.820   2.409
 3286TIP3    H1 9799   3.020   4.907   2.380
 3286TIP3    H2 9800   3.045   4.766   2.329
 3287TIP3   OH2 9801   2.607   5.110   1.603
 3287TIP3    H1 9802   2.696   5.140   1.585
 3287TIP3    H2 9803   2.615   5.059   1.684
 3288TIP3   OH2 9804   6.990   6.730   0.598
 3288TIP3    H1 9805   7.055   6.793   0.630
 3288TIP3    H2 9806   6.921   6.732   0.665
 3289TIP3   OH2 9807   4.105   4.658   2.346
 3289TIP3    H1 9808   4.048   4.588   2.311
 3289TIP3    H2 9809   4.052   4.700   2.414
 3290TIP3   OH2 9810   3.656   3.489   5.428
 3290TIP3    H1 9811   3.738   3.455   5.392
 3290TIP3    H2 9812   3.620   3.416   5.479
 3291TIP3   OH2 9813   3.464   0.012   4.881
 3291TIP3    H1 9814   3.519  -0.063   4.860
 3291TIP3    H2 9815   3.515   0.088   4.852
 3292TIP3   OH2 9816   5.862   3.541   5.837
 3292TIP3    H1 9817   5.821   3.621   5.869
 3292TIP3    H2 9818   5.826   3.471   5.892
 3293TIP3   OH2 9819   1.743   6.818   6.128
 3293TIP3    H1 9820   1.742   6.912   6.145
 3293TIP3    H2 9821   1.835   6.794   6.127
 3294TIP3   OH2 9822   2.348   3.317   4.590
 3294TIP3    H1 9823   2.329   3.288   4.679
 3294TIP3    H2 9824   2.443   3.319   4.584
 3295TIP3   OH2 9825   8.124   5.388   3.531
 3295TIP3    H1 9826   8.132   5.377   3.626
 3295TIP3    H2 9827   8.148   5.302   3.495
 3296TIP3   OH2 9828   1.842   6.733   5.321
 3296TIP3    H1 9829   1.754   6.719   5.356
 3296TIP3    H2 9830   1.846   6.827   5.304
 3297TIP3   OH2 9831   2.473   3.869   4.379
 3297TIP3    H1 9832   2.400   3.899   4.434
 3297TIP3    H2 9833   2.431   3.839   4.299
 3298TIP3   OH2 9834   3.000   0.980   5.120
 3298TIP3    H1 9835   2.993   1.060   5.172
 3298TIP3    H2 9836   3.067   0.928   5.165
 3299TIP3   OH2 9837   2.998   1.510   6.578
 3299TIP3    H1 9838   3.073   1.569   6.572
 3299TIP3    H2 9839   2.997   1.482   6.669
 3300TIP3   OH2 9840   6.908   2.777   1.767
 3300TIP3    H1 9841   6.984   2.725   1.795
 3300TIP3    H2 9842   6.832   2.727   1.798
 3301TIP3   OH2 9843   5.980   6.974   3.017
 3301TIP3    H1 9844   5.907   6.998   3.075
 3301TIP3    H2 9845   6.059   6.994   3.068
 3302TIP3   OH2 9846   5.827   3.107   5.619
 3302TIP3    H1 9847   5.901   3.074   5.670
 3302TIP3    H2 9848   5.792   3.029   5.575
 3303TIP3   OH2 9849   0.721   5.685   0.698
 3303TIP3    H1 9850   0.785   5.657   0.633
 3303TIP3    H2 9851   0.636   5.665   0.658
 3304TIP3   OH2 9852   1.030   1.860   5.550
 3304TIP3    H1 9853   1.002   1.812   5.628
 3304TIP3    H2 9854   1.120   1.830   5.535
 3305TIP3   OH2 9855   7.101   6.343   5.065
 3305TIP3    H1 9856   7.178   6.400   5.066
 3305TIP3    H2 9857   7.078   6.336   4.972
 3306TIP3   OH2 9858   3.095   6.253   6.836
 3306TIP3    H1 9859   3.165   6.316   6.815
 3306TIP3    H2 9860   3.055   6.234   6.751
 3307TIP3   OH2 9861   8.096   6.710   4.104
 3307TIP3    H1 9862   8.182   6.681   4.076
 3307TIP3    H2 9863   8.039   6.635   4.089
 3308TIP3   OH2 9864   7.948   1.482   2.681
 3308TIP3    H1 9865   7.860   1.471   2.646
 3308TIP3    H2 9866   7.939   1.468   2.775
 3309TIP3   OH2 9867   2.762   3.188   5.615
 3309TIP3    H1 9868   2.786   3.263   5.560
 3309TIP3    H2 9869   2.834   3.126   5.603
 3310TIP3   OH2 9870   7.548   1.634   2.458
 3310TIP3    H1 9871   7.562   1.676   2.543
 3310TIP3    H2 9872   7.521   1.705   2.400
 3311TIP3   OH2 9873   3.845   6.418   3.811
 3311TIP3    H1 9874   3.818   6.479   3.742
 3311TIP3    H2 9875   3.905   6.357   3.766
 3312TIP3   OH2 9876   0.709   4.036   6.669
 3312TIP3    H1 9877   0.618   4.034   6.641
 3312TIP3    H2 9878   0.723   4.126   6.698
 3313TIP3   OH2 9879   7.785   6.548   1.576
 3313TIP3    H1 9880   7.771   6.459   1.608
 3313TIP3    H2 9881   7.759   6.604   1.649
 3314TIP3   OH2 9882   3.800   2.738   6.067
 3314TIP3    H1 9883   3.764   2.802   6.006
 3314TIP3    H2 9884   3.724   2.706   6.116
 3315TIP3   OH2 9885   6.422   2.284   1.698
 3315TIP3    H1 9886   6.327   2.279   1.688
 3315TIP3    H2 9887   6.444   2.208   1.752
 3316TIP3   OH2 9888   5.668   1.736   1.964
 3316TIP3    H1 9889   5.717   1.738   2.046
 3316TIP3    H2 9890   5.667   1.827   1.934
 3317TIP3   OH2 9891   0.881   7.404   0.610
 3317TIP3    H1 9892   0.812   7.467   0.629
 3317TIP3    H2 9893   0.961   7.444   0.644
 3318TIP3   OH2 9894   2.281   1.764   0.341
 3318TIP3    H1 9895   2.203   1.714   0.315
 3318TIP3    H2 9896   2.353   1.723   0.292
 3319TIP3   OH2 9897   0.797   3.521   1.010
 3319TIP3    H1 9898   0.744   3.540   1.088
 3319TIP3    H2 9899   0.837   3.605   0.987
 3320TIP3   OH2 9900   2.030   5.498   6.632
 3320TIP3    H1 9901   2.071   5.431   6.687
 3320TIP3    H2 9902   2.086   5.502   6.555
 3321TIP3   OH2 9903   0.957   3.093   4.141
 3321TIP3    H1 9904   1.031   3.111   4.082
 3321TIP3    H2 9905   0.901   3.170   4.131
 3322TIP3   OH2 9906   5.059   4.553   1.702
 3322TIP3    H1 9907   5.036   4.575   1.793
 3322TIP3    H2 9908   5.012   4.617   1.649
 3323TIP3   OH2 9909   2.274   7.363   4.618
 3323TIP3    H1 9910   2.290   7.300   4.688
 3323TIP3    H2 9911   2.178   7.374   4.617
 3324TIP3   OH2 9912   0.907   2.270   2.532
 3324TIP3    H1 9913   0.850   2.210   2.485
 3324TIP3    H2 9914   0.995   2.250   2.499
 3325TIP3   OH2 9915   3.315   6.458   3.905
 3325TIP3    H1 9916   3.242   6.417   3.859
 3325TIP3    H2 9917   3.290   6.550   3.912
 3326TIP3   OH2 9918   3.826   1.433   2.622
 3326TIP3    H1 9919   3.803   1.344   2.650
 3326TIP3    H2 9920   3.904   1.455   2.673
 3327TIP3   OH2 9921   7.913   4.431   2.647
 3327TIP3    H1 9922   7.962   4.460   2.724
 3327TIP3    H2 9923   7.827   4.473   2.656
 3328TIP3   OH2 9924   4.404   3.930   3.556
 3328TIP3    H1 9925   4.405   3.843   3.516
 3328TIP3    H2 9926   4.322   3.969   3.526
 3329TIP3   OH2 9927   2.162   1.085   6.103
 3329TIP3    H1 9928   2.256   1.079   6.121
 3329TIP3    H2 9929   2.156   1.101   6.009
 3330TIP3   OH2 9930   6.435   1.957   3.237
 3330TIP3    H1 9931   6.495   1.890   3.270
 3330TIP3    H2 9932   6.394   1.916   3.160
 3331TIP3   OH2 9933   1.870   1.003   1.625
 3331TIP3    H1 9934   1.898   1.088   1.658
 3331TIP3    H2 9935   1.939   0.942   1.653
 3332TIP3   OH2 9936   1.769   2.357   1.234
 3332TIP3    H1 9937   1.679   2.335   1.259
 3332TIP3    H2 9938   1.801   2.279   1.188
 3333TIP3   OH2 9939   7.444   1.175   1.625
 3333TIP3    H1 9940   7.509   1.177   1.695
 3333TIP3    H2 9941   7.365   1.139   1.666
 3334TIP3   OH2 9942   1.627   6.486   5.964
 3334TIP3    H1 9943   1.661   6.397   5.955
 3334TIP3    H2 9944   1.608   6.495   6.057
 3335TIP3   OH2 9945   8.139   6.135   3.375
 3335TIP3    H1 9946   8.085   6.083   3.316
 3335TIP3    H2 9947   8.199   6.071   3.414
 3336TIP3   OH2 9948   3.769   2.890   0.364
 3336TIP3    H1 9949   3.717   2.870   0.442
 3336TIP3    H2 9950   3.839   2.946   0.396
 3337TIP3   OH2 9951   1.037   4.323   2.437
 3337TIP3    H1 9952   1.003   4.234   2.434
 3337TIP3    H2 9953   1.052   4.346   2.345
 3338TIP3   OH2 9954   0.019   2.156   1.642
 3338TIP3    H1 9955   0.005   2.075   1.592
 3338TIP3    H2 9956  -0.010   2.133   1.731
 3339TIP3   OH2 9957   5.736   2.083   3.785
 3339TIP3    H1 9958   5.714   2.157   3.841
 3339TIP3    H2 9959   5.832   2.082   3.782
 3340TIP3   OH2 9960   2.141   6.226   6.659
 3340TIP3    H1 9961   2.073   6.224   6.726
 3340TIP3    H2 9962   2.178   6.314   6.665
 3341TIP3   OH2 9963   4.268   6.652   0.026
 3341TIP3    H1 9964   4.267   6.557   0.008
 3341TIP3    H2 9965   4.186   6.669   0.071
 3342TIP3   OH2 9966   1.435   3.921   1.849
 3342TIP3    H1 9967   1.516   3.897   1.804
 3342TIP3    H2 9968   1.399   3.838   1.879
 3343TIP3   OH2 9969   3.690   3.340   1.091
 3343TIP3    H1 9970   3.673   3.417   1.036
 3343TIP3    H2 9971   3.638   3.271   1.049
 3344TIP3   OH2 9972   2.873   6.605   0.247
 3344TIP3    H1 9973   2.942   6.578   0.187
 3344TIP3    H2 9974   2.794   6.561   0.214
 3345TIP3   OH2 9975   8.179   1.414   1.534
 3345TIP3    H1 9976   8.120   1.366   1.476
 3345TIP3    H2 9977   8.122   1.471   1.585
 3346TIP3   OH2 9978   7.462   1.184   2.052
 3346TIP3    H1 9979   7.433   1.188   2.143
 3346TIP3    H2 9980   7.461   1.091   2.031
 3347TIP3   OH2 9981   2.622   4.272   2.217
 3347TIP3    H1 9982   2.552   4.208   2.205
 3347TIP3    H2 9983   2.609   4.307   2.305
 3348TIP3   OH2 9984   2.659   4.722   5.000
 3348TIP3    H1 9985   2.748   4.690   4.990
 3348TIP3    H2 9986   2.664   4.788   5.068
 3349TIP3   OH2 9987   2.639   6.118   1.595
 3349TIP3    H1 9988   2.667   6.075   1.514
 3349TIP3    H2 9989   2.719   6.158   1.630
 3350TIP3   OH2 9990   4.043   2.968   1.468
 3350TIP3    H1 9991   4.056   3.015   1.550
 3350TIP3    H2 9992   4.028   2.877   1.495
 3351TIP3   OH2 9993   4.998   6.472   5.558
 3351TIP3    H1 9994   5.050   6.547   5.530
 3351TIP3    H2 9995   5.029   6.453   5.647
 3352TIP3   OH2 9996   5.653   5.349   0.674
 3352TIP3    H1 9997   5.707   5.422   0.705
 3352TIP3    H2 9998   5.637   5.297   0.752
 3353TIP3   OH2 9999   1.195   0.788   2.224
 3353TIP3    H110000   1.149   0.870   2.206
 3353TIP3    H210001   1.173   0.731   2.150
 3354TIP3   OH210002   3.395   2.574   2.043
 3354TIP3    H110003   3.331   2.545   2.108
 3354TIP3    H210004   3.353   2.647   1.998
 3355TIP3   OH210005   1.988   0.384   0.140
 3355TIP3    H110006   1.921   0.446   0.168
 3355TIP3    H210007   1.950   0.341   0.063
 3356TIP3   OH210008   2.031   1.403   3.737
 3356TIP3    H110009   1.998   1.321   3.774
 3356TIP3    H210010   2.076   1.377   3.657
 3357TIP3   OH210011   7.314   3.854   5.858
 3357TIP3    H110012   7.318   3.919   5.928
 3357TIP3    H210013   7.236   3.877   5.809
 3358TIP3   OH210014   5.030   1.474   6.377
 3358TIP3    H110015   4.994   1.501   6.462
 3358TIP3    H210016   5.096   1.408   6.399
 3359TIP3   OH210017   2.050   2.569   2.543
 3359TIP3    H110018   2.114   2.593   2.609
 3359TIP3    H210019   2.095   2.505   2.488
 3360TIP3   OH210020   5.337   4.436   2.804
 3360TIP3    H110021   5.300   4.523   2.788
 3360TIP3    H210022   5.404   4.426   2.736
 3361TIP3   OH210023   5.832   5.264   5.490
 3361TIP3    H110024   5.832   5.349   5.535
 3361TIP3    H210025   5.796   5.203   5.554
 3362TIP3   OH210026   6.156   2.293   1.614
 3362TIP3    H110027   6.079   2.305   1.559
 3362TIP3    H210028   6.131   2.332   1.698
 3363TIP3   OH210029   5.475   7.835   3.183
 3363TIP3    H110030   5.435   7.882   3.110
 3363TIP3    H210031   5.402   7.794   3.229
 3364TIP3   OH210032   3.548   7.767   0.747
 3364TIP3    H110033   3.506   7.844   0.784
 3364TIP3    H210034   3.641   7.785   0.752
 3365TIP3   OH210035   4.380   1.371   1.334
 3365TIP3    H110036   4.356   1.416   1.414
 3365TIP3    H210037   4.385   1.440   1.268
 3366TIP3   OH210038   6.180   3.915   3.918
 3366TIP3    H110039   6.108   3.949   3.865
 3366TIP3    H210040   6.255   3.970   3.895
 3367TIP3   OH210041   0.491   3.121   2.677
 3367TIP3    H110042   0.463   3.037   2.712
 3367TIP3    H210043   0.410   3.171   2.666
 3368TIP3   OH210044   1.468   7.542   4.000
 3368TIP3    H110045   1.470   7.551   3.905
 3368TIP3    H210046   1.432   7.455   4.015
 3369TIP3   OH210047   7.679   1.550   4.870
 3369TIP3    H110048   7.683   1.465   4.825
 3369TIP3    H210049   7.740   1.605   4.822
 3370TIP3   OH210050   0.029   6.722   6.556
 3370TIP3    H110051  -0.026   6.645   6.570
 3370TIP3    H210052  -0.034   6.794   6.547
 3371TIP3   OH210053   5.521   0.416   3.277
 3371TIP3    H110054   5.502   0.482   3.344
 3371TIP3    H210055   5.446   0.420   3.218
 3372TIP3   OH210056   2.023   1.950   5.319
 3372TIP3    H110057   2.117   1.937   5.309
 3372TIP3    H210058   1.990   1.867   5.354
 3373TIP3   OH210059   2.840   6.375   0.534
 3373TIP3    H110060   2.931   6.401   0.519
 3373TIP3    H210061   2.821   6.314   0.464
 3374TIP3   OH210062   0.614   7.192   6.086
 3374TIP3    H110063   0.609   7.156   6.174
 3374TIP3    H210064   0.707   7.210   6.073
 3375TIP3   OH210065   3.845   0.384   2.034
 3375TIP3    H110066   3.843   0.413   2.125
 3375TIP3    H210067   3.808   0.296   2.036
 3376TIP3   OH210068   7.483   7.365   1.714
 3376TIP3    H110069   7.488   7.279   1.671
 3376TIP3    H210070   7.410   7.356   1.776
 3377TIP3   OH210071   6.014   4.306   4.282
 3377TIP3    H110072   5.998   4.347   4.367
 3377TIP3    H210073   6.109   4.309   4.271
 3378TIP3   OH210074   3.705   2.664   5.565
 3378TIP3    H110075   3.627   2.702   5.607
 3378TIP3    H210076   3.730   2.592   5.622
 3379TIP3   OH210077   4.428   3.611   0.463
 3379TIP3    H110078   4.474   3.535   0.500
 3379TIP3    H210079   4.498   3.672   0.440
 3380TIP3   OH210080   5.558   4.062   0.122
 3380TIP3    H110081   5.555   4.041   0.029
 3380TIP3    H210082   5.492   4.131   0.133
 3381TIP3   OH210083   2.424   5.419   3.423
 3381TIP3    H110084   2.335   5.386   3.434
 3381TIP3    H210085   2.421   5.471   3.343
 3382TIP3   OH210086   3.671   5.494   2.203
 3382TIP3    H110087   3.597   5.443   2.171
 3382TIP3    H210088   3.743   5.431   2.210
 3383TIP3   OH210089   3.995   3.585   5.058
 3383TIP3    H110090   3.982   3.567   5.152
 3383TIP3    H210091   4.047   3.665   5.056
 3384TIP3   OH210092   3.422   6.090   1.151
 3384TIP3    H110093   3.337   6.117   1.118
 3384TIP3    H210094   3.451   6.020   1.093
 3385TIP3   OH210095   8.136   6.439   1.533
 3385TIP3    H110096   8.153   6.395   1.449
 3385TIP3    H210097   8.151   6.370   1.599
 3386TIP3   OH210098   7.722   7.508   3.007
 3386TIP3    H110099   7.728   7.496   3.102
 3386TIP3    H210100   7.662   7.439   2.978
 3387TIP3   OH210101   7.012   3.400   1.139
 3387TIP3    H110102   7.059   3.473   1.099
 3387TIP3    H210103   7.031   3.407   1.232
 3388TIP3   OH210104   7.363   5.585   0.312
 3388TIP3    H110105   7.298   5.575   0.242
 3388TIP3    H210106   7.416   5.505   0.307
 3389TIP3   OH210107   3.372   2.008   1.843
 3389TIP3    H110108   3.421   1.946   1.789
 3389TIP3    H210109   3.362   1.963   1.928
 3390TIP3   OH210110   4.756   6.101   1.821
 3390TIP3    H110111   4.728   6.014   1.792
 3390TIP3    H210112   4.785   6.088   1.911
 3391TIP3   OH210113   0.577   1.921   3.722
 3391TIP3    H110114   0.543   1.833   3.739
 3391TIP3    H210115   0.639   1.910   3.650
 3392TIP3   OH210116   2.086   0.832   6.216
 3392TIP3    H110117   2.118   0.921   6.202
 3392TIP3    H210118   2.077   0.824   6.311
 3393TIP3   OH210119   2.159   1.657   2.478
 3393TIP3    H110120   2.226   1.669   2.545
 3393TIP3    H210121   2.130   1.566   2.489
 3394TIP3   OH210122   3.964   1.085   1.027
 3394TIP3    H110123   3.894   1.087   0.962
 3394TIP3    H210124   3.976   0.992   1.046
 3395TIP3   OH210125   1.833   2.007   3.144
 3395TIP3    H110126   1.926   2.026   3.140
 3395TIP3    H210127   1.797   2.045   3.063
 3396TIP3   OH210128   5.998   7.707   5.790
 3396TIP3    H110129   6.083   7.667   5.778
 3396TIP3    H210130   5.938   7.653   5.739
 3397TIP3   OH210131   8.148   6.675   6.708
 3397TIP3    H110132   8.181   6.593   6.744
 3397TIP3    H210133   8.075   6.699   6.764
 3398TIP3   OH210134   3.015   0.499   1.444
 3398TIP3    H110135   2.995   0.556   1.369
 3398TIP3    H210136   3.073   0.552   1.499
 3399TIP3   OH210137   2.089   4.693   3.049
 3399TIP3    H110138   2.086   4.598   3.045
 3399TIP3    H210139   2.077   4.714   3.142
 3400TIP3   OH210140   1.934   6.826   0.401
 3400TIP3    H110141   2.009   6.885   0.392
 3400TIP3    H210142   1.912   6.829   0.494
 3401TIP3   OH210143   4.335   4.572   4.452
 3401TIP3    H110144   4.378   4.576   4.537
 3401TIP3    H210145   4.400   4.531   4.394
 3402TIP3   OH210146   0.294   2.998   5.643
 3402TIP3    H110147   0.254   3.085   5.653
 3402TIP3    H210148   0.321   2.996   5.551
 3403TIP3   OH210149   6.101   1.086   3.232
 3403TIP3    H110150   6.144   1.073   3.316
 3403TIP3    H210151   6.149   1.028   3.172
 3404TIP3   OH210152   3.874   3.574   6.412
 3404TIP3    H110153   3.845   3.519   6.338
 3404TIP3    H210154   3.945   3.626   6.376
 3405TIP3   OH210155   5.573   0.474   4.514
 3405TIP3    H110156   5.638   0.544   4.509
 3405TIP3    H210157   5.489   0.519   4.504
 3406TIP3   OH210158   3.947   4.822   5.781
 3406TIP3    H110159   3.930   4.812   5.688
 3406TIP3    H210160   3.916   4.740   5.821
 3407TIP3   OH210161   3.248   6.097   4.098
 3407TIP3    H110162   3.174   6.140   4.141
 3407TIP3    H210163   3.246   6.007   4.129
 3408TIP3   OH210164   6.449   6.649   2.340
 3408TIP3    H110165   6.426   6.741   2.354
 3408TIP3    H210166   6.522   6.633   2.401
 3409TIP3   OH210167   2.891   0.927   6.725
 3409TIP3    H110168   2.913   0.995   6.661
 3409TIP3    H210169   2.850   0.858   6.674
 3410TIP3   OH210170   6.158   1.256   2.006
 3410TIP3    H110171   6.177   1.184   1.946
 3410TIP3    H210172   6.064   1.271   1.997
 3411TIP3   OH210173   8.036   6.926   3.668
 3411TIP3    H110174   7.956   6.899   3.713
 3411TIP3    H210175   8.106   6.916   3.732
 3412TIP3   OH210176   8.379   6.745   0.056
 3412TIP3    H110177   8.406   6.800  -0.017
 3412TIP3    H210178   8.460   6.727   0.104
 3413TIP3   OH210179   4.997   6.818   3.541
 3413TIP3    H110180   4.936   6.827   3.468
 3413TIP3    H210181   5.079   6.854   3.508
 3414TIP3   OH210182   2.036   0.430   4.826
 3414TIP3    H110183   1.948   0.450   4.792
 3414TIP3    H210184   2.021   0.366   4.895
 3415TIP3   OH210185   7.903   2.205   5.481
 3415TIP3    H110186   7.832   2.173   5.425
 3415TIP3    H210187   7.885   2.167   5.567
 3416TIP3   OH210188   2.156   5.781   4.360
 3416TIP3    H110189   2.141   5.828   4.442
 3416TIP3    H210190   2.113   5.696   4.373
 3417TIP3   OH210191   5.828   6.155   2.497
 3417TIP3    H110192   5.791   6.081   2.545
 3417TIP3    H210193   5.914   6.124   2.468
 3418TIP3   OH210194   3.289   7.427   5.358
 3418TIP3    H110195   3.213   7.396   5.407
 3418TIP3    H210196   3.258   7.507   5.315
 3419TIP3   OH210197   7.594   2.582   0.012
 3419TIP3    H110198   7.560   2.640  -0.057
 3419TIP3    H210199   7.531   2.511   0.016
 3420TIP3   OH210200   6.599   2.146   4.446
 3420TIP3    H110201   6.579   2.055   4.423
 3420TIP3    H210202   6.605   2.146   4.542
 3421TIP3   OH210203   2.180   5.208   3.157
 3421TIP3    H110204   2.267   5.172   3.173
 3421TIP3    H210205   2.120   5.135   3.175
 3422TIP3   OH210206   4.952   7.287   1.995
 3422TIP3    H110207   4.935   7.372   2.037
 3422TIP3    H210208   4.930   7.222   2.062
 3423TIP3   OH210209   6.905   4.770   5.573
 3423TIP3    H110210   6.817   4.804   5.586
 3423TIP3    H210211   6.895   4.699   5.510
 3424TIP3   OH210212   3.479   0.615   1.678
 3424TIP3    H110213   3.554   0.586   1.729
 3424TIP3    H210214   3.503   0.703   1.647
 3425TIP3   OH210215   1.312   1.822   2.943
 3425TIP3    H110216   1.263   1.830   2.862
 3425TIP3    H210217   1.369   1.746   2.929
 3426TIP3   OH210218   4.947   3.573   2.258
 3426TIP3    H110219   4.859   3.560   2.293
 3426TIP3    H210220   4.995   3.617   2.329
 3427TIP3   OH210221   3.927   6.993   3.934
 3427TIP3    H110222   3.988   6.953   3.872
 3427TIP3    H210223   3.983   7.023   4.006
 3428TIP3   OH210224   6.954   3.957   3.140
 3428TIP3    H110225   7.034   3.997   3.175
 3428TIP3    H210226   6.947   3.874   3.186
 3429TIP3   OH210227   2.789   3.157   1.111
 3429TIP3    H110228   2.791   3.179   1.204
 3429TIP3    H210229   2.815   3.237   1.067
 3430TIP3   OH210230   5.542   0.406   4.141
 3430TIP3    H110231   5.598   0.396   4.064
 3430TIP3    H210232   5.578   0.344   4.204
 3431TIP3   OH210233   6.454   5.581   3.805
 3431TIP3    H110234   6.434   5.625   3.722
 3431TIP3    H210235   6.482   5.652   3.863
 3432TIP3   OH210236   1.649   5.427   6.231
 3432TIP3    H110237   1.709   5.492   6.195
 3432TIP3    H210238   1.614   5.381   6.155
 3433TIP3   OH210239   6.220   7.606   6.039
 3433TIP3    H110240   6.161   7.678   6.060
 3433TIP3    H210241   6.254   7.627   5.952
 3434TIP3   OH210242   6.389   1.287   2.501
 3434TIP3    H110243   6.397   1.381   2.484
 3434TIP3    H210244   6.462   1.248   2.453
 3435TIP3   OH210245   2.852   3.997   1.223
 3435TIP3    H110246   2.907   3.940   1.168
 3435TIP3    H210247   2.838   4.075   1.169
 3436TIP3   OH210248   1.340   3.803   5.161
 3436TIP3    H110249   1.434   3.813   5.178
 3436TIP3    H210250   1.335   3.760   5.076
 3437TIP3   OH210251   5.588   2.560   1.232
 3437TIP3    H110252   5.551   2.605   1.156
 3437TIP3    H210253   5.536   2.592   1.306
 3438TIP3   OH210254   7.972   7.658   1.336
 3438TIP3    H110255   7.964   7.741   1.289
 3438TIP3    H210256   7.893   7.653   1.390
 3439TIP3   OH210257   1.044   4.498   1.775
 3439TIP3    H110258   1.129   4.542   1.780
 3439TIP3    H210259   1.044   4.437   1.849
 3440TIP3   OH210260   3.272   1.711   6.035
 3440TIP3    H110261   3.271   1.751   5.948
 3440TIP3    H210262   3.180   1.715   6.063
 3441TIP3   OH210263   2.916   0.473   4.592
 3441TIP3    H110264   2.956   0.559   4.579
 3441TIP3    H210265   2.972   0.413   4.543
 3442TIP3   OH210266   6.291   4.249   6.339
 3442TIP3    H110267   6.223   4.301   6.295
 3442TIP3    H210268   6.248   4.215   6.418
 3443TIP3   OH210269   2.050   3.634   4.435
 3443TIP3    H110270   1.960   3.602   4.431
 3443TIP3    H210271   2.083   3.604   4.519
 3444TIP3   OH210272   4.262   7.375   1.892
 3444TIP3    H110273   4.227   7.463   1.880
 3444TIP3    H210274   4.274   7.341   1.803
 3445TIP3   OH210275   4.273   0.424   4.638
 3445TIP3    H110276   4.367   0.407   4.625
 3445TIP3    H210277   4.240   0.344   4.679
 3446TIP3   OH210278   3.090   3.385   6.740
 3446TIP3    H110279   3.001   3.353   6.756
 3446TIP3    H210280   3.078   3.463   6.686
 3447TIP3   OH210281   4.998   5.450   1.986
 3447TIP3    H110282   4.964   5.385   2.047
 3447TIP3    H210283   5.079   5.482   2.026
 3448TIP3   OH210284   0.722   5.223   5.017
 3448TIP3    H110285   0.690   5.225   4.927
 3448TIP3    H210286   0.697   5.137   5.050
 3449TIP3   OH210287   0.323   5.656   3.501
 3449TIP3    H110288   0.276   5.598   3.442
 3449TIP3    H210289   0.256   5.685   3.564
 3450TIP3   OH210290   3.937   7.721   0.095
 3450TIP3    H110291   4.015   7.665   0.100
 3450TIP3    H210292   3.913   7.721   0.003
 3451TIP3   OH210293   6.078   6.705   1.629
 3451TIP3    H110294   6.048   6.795   1.615
 3451TIP3    H210295   5.998   6.656   1.649
 3452TIP3   OH210296   5.418   2.272   2.367
 3452TIP3    H110297   5.479   2.342   2.389
 3452TIP3    H210298   5.357   2.268   2.440
 3453TIP3   OH210299   7.996   5.323   3.082
 3453TIP3    H110300   7.981   5.366   2.998
 3453TIP3    H210301   7.921   5.265   3.093
 3454TIP3   OH210302   5.826   2.835   4.146
 3454TIP3    H110303   5.915   2.812   4.173
 3454TIP3    H210304   5.798   2.761   4.092
 3455TIP3   OH210305   6.657   1.560   6.503
 3455TIP3    H110306   6.725   1.626   6.488
 3455TIP3    H210307   6.603   1.563   6.424
 3456TIP3   OH210308   7.862   0.944   0.993
 3456TIP3    H110309   7.874   1.013   1.058
 3456TIP3    H210310   7.951   0.913   0.975
 3457TIP3   OH210311   2.234   5.646   2.042
 3457TIP3    H110312   2.221   5.669   1.950
 3457TIP3    H210313   2.237   5.730   2.088
 3458TIP3   OH210314   3.329   0.292   2.344
 3458TIP3    H110315   3.239   0.273   2.371
 3458TIP3    H210316   3.328   0.385   2.320
 3459TIP3   OH210317   2.909   2.548   4.083
 3459TIP3    H110318   2.850   2.482   4.119
 3459TIP3    H210319   2.920   2.611   4.153
 3460TIP3   OH210320   6.377   2.620   1.981
 3460TIP3    H110321   6.430   2.697   2.000
 3460TIP3    H210322   6.287   2.647   1.999
 3461TIP3   OH210323   4.577   5.718   3.268
 3461TIP3    H110324   4.669   5.743   3.265
 3461TIP3    H210325   4.577   5.625   3.245
 3462TIP3   OH210326   2.885   5.445   5.523
 3462TIP3    H110327   2.889   5.506   5.449
 3462TIP3    H210328   2.954   5.382   5.506
 3463TIP3   OH210329   1.901   7.069   6.620
 3463TIP3    H110330   1.983   7.046   6.578
 3463TIP3    H210331   1.921   7.068   6.714
 3464TIP3   OH210332   2.667   0.635   5.835
 3464TIP3    H110333   2.721   0.558   5.855
 3464TIP3    H210334   2.709   0.707   5.882
 3465TIP3   OH210335   2.782   5.890   2.864
 3465TIP3    H110336   2.762   5.825   2.931
 3465TIP3    H210337   2.699   5.901   2.816
 3466TIP3   OH210338   5.370   2.213   1.416
 3466TIP3    H110339   5.280   2.244   1.409
 3466TIP3    H210340   5.417   2.285   1.460
 3467TIP3   OH210341   4.391   5.698   0.406
 3467TIP3    H110342   4.447   5.637   0.360
 3467TIP3    H210343   4.429   5.784   0.389
 3468TIP3   OH210344   8.301   4.380   6.220
 3468TIP3    H110345   8.354   4.442   6.270
 3468TIP3    H210346   8.346   4.296   6.229
 3469TIP3   OH210347   8.221   3.172   5.514
 3469TIP3    H110348   8.234   3.234   5.585
 3469TIP3    H210349   8.248   3.087   5.552
 3470TIP3   OH210350   6.077   4.000   5.431
 3470TIP3    H110351   6.172   3.997   5.416
 3470TIP3    H210352   6.064   4.081   5.480
 3471TIP3   OH210353   0.199   6.171   2.386
 3471TIP3    H110354   0.241   6.257   2.379
 3471TIP3    H210355   0.233   6.134   2.468
 3472TIP3   OH210356   0.904   2.990   6.636
 3472TIP3    H110357   0.860   2.924   6.688
 3472TIP3    H210358   0.875   3.073   6.673
 3473TIP3   OH210359   3.891   2.478   6.846
 3473TIP3    H110360   3.924   2.546   6.788
 3473TIP3    H210361   3.855   2.526   6.921
 3474TIP3   OH210362   6.381   4.631   2.513
 3474TIP3    H110363   6.343   4.578   2.583
 3474TIP3    H210364   6.402   4.715   2.554
 3475TIP3   OH210365   7.666   4.839   2.614
 3475TIP3    H110366   7.716   4.837   2.533
 3475TIP3    H210367   7.580   4.874   2.588
 3476TIP3   OH210368   5.957   3.163   5.077
 3476TIP3    H110369   5.948   3.097   5.008
 3476TIP3    H210370   5.937   3.117   5.158
 3477TIP3   OH210371   3.678   6.735   0.635
 3477TIP3    H110372   3.669   6.648   0.673
 3477TIP3    H210373   3.591   6.775   0.648
 3478TIP3   OH210374   6.010   4.190   6.216
 3478TIP3    H110375   6.000   4.283   6.237
 3478TIP3    H210376   6.074   4.188   6.145
 3479TIP3   OH210377   7.389   6.069   6.765
 3479TIP3    H110378   7.429   6.124   6.832
 3479TIP3    H210379   7.357   5.992   6.813
 3480TIP3   OH210380   1.821   6.868   3.372
 3480TIP3    H110381   1.888   6.936   3.378
 3480TIP3    H210382   1.860   6.801   3.316
 3481TIP3   OH210383   3.330   0.113   5.729
 3481TIP3    H110384   3.340   0.162   5.811
 3481TIP3    H210385   3.296   0.028   5.755
 3482TIP3   OH210386   6.292   7.709   2.800
 3482TIP3    H110387   6.280   7.631   2.854
 3482TIP3    H210388   6.210   7.756   2.807
 3483TIP3   OH210389   5.861   5.058   6.242
 3483TIP3    H110390   5.911   5.070   6.322
 3483TIP3    H210391   5.770   5.057   6.271
 3484TIP3   OH210392   4.642   7.114   1.027
 3484TIP3    H110393   4.725   7.076   1.054
 3484TIP3    H210394   4.642   7.201   1.066
 3485TIP3   OH210395   3.306   2.285   2.677
 3485TIP3    H110396   3.270   2.245   2.756
 3485TIP3    H210397   3.401   2.285   2.691
 3486TIP3   OH210398   1.556   6.300   6.160
 3486TIP3    H110399   1.461   6.313   6.160
 3486TIP3    H210400   1.590   6.374   6.211
 3487TIP3   OH210401   8.135   0.054   1.948
 3487TIP3    H110402   8.095   0.030   1.865
 3487TIP3    H210403   8.072   0.112   1.990
 3488TIP3   OH210404   4.353   6.133   2.944
 3488TIP3    H110405   4.259   6.140   2.959
 3488TIP3    H210406   4.386   6.084   3.020
 3489TIP3   OH210407   4.865   5.212   1.009
 3489TIP3    H110408   4.956   5.185   1.004
 3489TIP3    H210409   4.861   5.272   1.083
 3490TIP3   OH210410   6.929   4.029   3.686
 3490TIP3    H110411   6.907   3.938   3.702
 3490TIP3    H210412   6.863   4.059   3.623
 3491TIP3   OH210413   4.870   7.566   0.883
 3491TIP3    H110414   4.805   7.533   0.944
 3491TIP3    H210415   4.854   7.660   0.880
 3492TIP3   OH210416   2.005   0.305   6.405
 3492TIP3    H110417   2.033   0.397   6.404
 3492TIP3    H210418   2.021   0.276   6.495
 3493TIP3   OH210419   7.144   2.472   5.441
 3493TIP3    H110420   7.219   2.460   5.382
 3493TIP3    H210421   7.155   2.403   5.507
 3494TIP3   OH210422   0.178   2.075   1.365
 3494TIP3    H110423   0.264   2.086   1.324
 3494TIP3    H210424   0.143   1.995   1.325
 3495TIP3   OH210425   7.050   0.683   5.755
 3495TIP3    H110426   7.110   0.612   5.733
 3495TIP3    H210427   6.969   0.640   5.782
 3496TIP3   OH210428   1.641   3.967   2.704
 3496TIP3    H110429   1.712   3.941   2.762
 3496TIP3    H210430   1.585   3.890   2.700
 3497TIP3   OH210431   2.672   2.939   0.395
 3497TIP3    H110432   2.638   2.863   0.441
 3497TIP3    H210433   2.677   2.911   0.303
 3498TIP3   OH210434   8.105   4.359   4.789
 3498TIP3    H110435   8.051   4.281   4.804
 3498TIP3    H210436   8.145   4.345   4.704
 3499TIP3   OH210437   8.298   5.493   0.507
 3499TIP3    H110438   8.323   5.408   0.543
 3499TIP3    H210439   8.207   5.505   0.534
 3500TIP3   OH210440   1.737   2.768   4.671
 3500TIP3    H110441   1.734   2.848   4.723
 3500TIP3    H210442   1.802   2.786   4.602
 3501TIP3   OH210443   1.080   0.597   4.154
 3501TIP3    H110444   1.007   0.581   4.095
 3501TIP3    H210445   1.099   0.690   4.144
 3502TIP3   OH210446   7.771   6.570   3.590
 3502TIP3    H110447   7.812   6.498   3.542
 3502TIP3    H210448   7.722   6.527   3.660
 3503TIP3   OH210449   3.900   2.109   6.785
 3503TIP3    H110450   3.939   2.037   6.834
 3503TIP3    H210451   3.819   2.073   6.750
 3504TIP3   OH210452   6.626   5.458   3.436
 3504TIP3    H110453   6.659   5.439   3.524
 3504TIP3    H210454   6.654   5.385   3.382
 3505TIP3   OH210455   4.869   2.500   0.505
 3505TIP3    H110456   4.838   2.547   0.428
 3505TIP3    H210457   4.952   2.462   0.479
 3506TIP3   OH210458   6.775   4.026   0.856
 3506TIP3    H110459   6.802   4.077   0.933
 3506TIP3    H210460   6.823   4.066   0.783
 3507TIP3   OH210461   7.582   7.425   5.241
 3507TIP3    H110462   7.607   7.450   5.152
 3507TIP3    H210463   7.506   7.368   5.229
 3508TIP3   OH210464   5.326   2.028   3.135
 3508TIP3    H110465   5.252   2.027   3.197
 3508TIP3    H210466   5.388   2.091   3.172
 3509TIP3   OH210467   4.384   5.587   2.183
 3509TIP3    H110468   4.376   5.589   2.278
 3509TIP3    H210469   4.375   5.678   2.155
 3510TIP3   OH210470   2.891   4.576   0.187
 3510TIP3    H110471   2.946   4.509   0.228
 3510TIP3    H210472   2.854   4.625   0.261
 3511TIP3   OH210473   0.879   2.007   4.776
 3511TIP3    H110474   0.952   2.056   4.738
 3511TIP3    H210475   0.811   2.072   4.790
 3512TIP3   OH210476   1.728   7.689   2.272
 3512TIP3    H110477   1.695   7.731   2.351
 3512TIP3    H210478   1.650   7.667   2.222
 3513TIP3   OH210479   2.923   4.430   3.918
 3513TIP3    H110480   3.001   4.446   3.971
 3513TIP3    H210481   2.862   4.386   3.978
 3514TIP3   OH210482   1.039   2.852   0.804
 3514TIP3    H110483   1.038   2.918   0.873
 3514TIP3    H210484   1.120   2.870   0.755
 3515TIP3   OH210485   6.357   0.329   0.982
 3515TIP3    H110486   6.399   0.389   1.044
 3515TIP3    H210487   6.344   0.381   0.903
 3516TIP3   OH210488   5.184   0.157   0.464
 3516TIP3    H110489   5.122   0.172   0.392
 3516TIP3    H210490   5.128   0.134   0.538
 3517TIP3   OH210491   6.571   3.830   5.139
 3517TIP3    H110492   6.609   3.911   5.172
 3517TIP3    H210493   6.646   3.771   5.128
 3518TIP3   OH210494   5.187   7.678   4.514
 3518TIP3    H110495   5.165   7.680   4.421
 3518TIP3    H210496   5.162   7.591   4.543
 3519TIP3   OH210497   5.460   6.348   3.179
 3519TIP3    H110498   5.444   6.431   3.134
 3519TIP3    H210499   5.542   6.363   3.228
 3520TIP3   OH210500   1.111   3.129   1.339
 3520TIP3    H110501   1.143   3.211   1.300
 3520TIP3    H210502   1.062   3.087   1.268
 3521TIP3   OH210503   2.579   1.698   2.820
 3521TIP3    H110504   2.513   1.663   2.879
 3521TIP3    H210505   2.613   1.775   2.865
 3522TIP3   OH210506   8.354   0.958   3.414
 3522TIP3    H110507   8.431   0.990   3.368
 3522TIP3    H210508   8.389   0.898   3.480
 3523TIP3   OH210509   0.579   3.422   0.878
 3523TIP3    H110510   0.545   3.373   0.803
 3523TIP3    H210511   0.674   3.412   0.872
 3524TIP3   OH210512   6.378   6.164   2.765
 3524TIP3    H110513   6.323   6.172   2.843
 3524TIP3    H210514   6.318   6.183   2.692
 3525TIP3   OH210515   6.003   6.483   2.620
 3525TIP3    H110516   5.966   6.461   2.535
 3525TIP3    H210517   5.964   6.568   2.642
 3526TIP3   OH210518   1.679   6.564   4.176
 3526TIP3    H110519   1.607   6.506   4.203
 3526TIP3    H210520   1.672   6.639   4.234
 3527TIP3   OH210521   4.601   5.912   5.383
 3527TIP3    H110522   4.569   5.825   5.358
 3527TIP3    H210523   4.688   5.918   5.341
 3528TIP3   OH210524   4.452   2.362   1.903
 3528TIP3    H110525   4.441   2.314   1.821
 3528TIP3    H210526   4.521   2.426   1.884
 3529TIP3   OH210527   7.974   3.673   4.301
 3529TIP3    H110528   7.891   3.662   4.347
 3529TIP3    H210529   8.040   3.682   4.370
 3530TIP3   OH210530   0.930   1.781   1.757
 3530TIP3    H110531   0.885   1.704   1.723
 3530TIP3    H210532   1.021   1.752   1.770
 3531TIP3   OH210533   3.581   6.904   0.060
 3531TIP3    H110534   3.523   6.911   0.136
 3531TIP3    H210535   3.540   6.837   0.005
 3532TIP3   OH210536   8.137   2.519   0.290
 3532TIP3    H110537   8.184   2.453   0.340
 3532TIP3    H210538   8.086   2.567   0.356
 3533TIP3   OH210539   7.824   4.788   5.099
 3533TIP3    H110540   7.742   4.789   5.148
 3533TIP3    H210541   7.880   4.727   5.148
 3534TIP3   OH210542   3.599   5.075   6.287
 3534TIP3    H110543   3.656   5.106   6.357
 3534TIP3    H210544   3.539   5.013   6.330
 3535TIP3   OH210545   0.677   3.465   2.557
 3535TIP3    H110546   0.718   3.403   2.497
 3535TIP3    H210547   0.679   3.422   2.642
 3536TIP3   OH210548   6.802   0.658   0.330
 3536TIP3    H110549   6.843   0.624   0.250
 3536TIP3    H210550   6.870   0.650   0.396
 3537TIP3   OH210551   0.212   2.334   3.391
 3537TIP3    H110552   0.166   2.354   3.310
 3537TIP3    H210553   0.157   2.270   3.435
 3538TIP3   OH210554   0.600   4.476   5.724
 3538TIP3    H110555   0.553   4.493   5.643
 3538TIP3    H210556   0.692   4.469   5.698
 3539TIP3   OH210557   5.541   3.758   5.853
 3539TIP3    H110558   5.453   3.764   5.816
 3539TIP3    H210559   5.564   3.848   5.877
 3540TIP3   OH210560   1.180   5.303   2.719
 3540TIP3    H110561   1.087   5.286   2.735
 3540TIP3    H210562   1.223   5.221   2.742
 3541TIP3   OH210563   6.517   0.658   3.073
 3541TIP3    H110564   6.604   0.646   3.111
 3541TIP3    H210565   6.472   0.717   3.133
 3542TIP3   OH210566   0.225   0.879   3.709
 3542TIP3    H110567   0.196   0.815   3.644
 3542TIP3    H210568   0.315   0.855   3.727
 3543TIP3   OH210569   3.881   4.936   2.011
 3543TIP3    H110570   3.827   5.014   2.001
 3543TIP3    H210571   3.819   4.863   2.001
 3544TIP3   OH210572   1.759   2.731   6.653
 3544TIP3    H110573   1.823   2.750   6.722
 3544TIP3    H210574   1.810   2.689   6.584
 3545TIP3   OH210575   6.462   0.497   1.155
 3545TIP3    H110576   6.508   0.513   1.237
 3545TIP3    H210577   6.376   0.539   1.167
 3546TIP3   OH210578   5.867   1.658   3.050
 3546TIP3    H110579   5.945   1.615   3.085
 3546TIP3    H210580   5.884   1.752   3.060
 3547TIP3   OH210581   7.650   1.291   5.712
 3547TIP3    H110582   7.566   1.313   5.753
 3547TIP3    H210583   7.658   1.196   5.723
 3548TIP3   OH210584   2.983   6.075   2.878
 3548TIP3    H110585   2.900   6.028   2.869
 3548TIP3    H210586   2.981   6.112   2.966
 3549TIP3   OH210587   8.258   0.787   0.112
 3549TIP3    H110588   8.226   0.831   0.191
 3549TIP3    H210589   8.346   0.823   0.098
 3550TIP3   OH210590   1.592   6.287   6.508
 3550TIP3    H110591   1.546   6.207   6.485
 3550TIP3    H210592   1.679   6.277   6.470
 3551TIP3   OH210593   6.534   2.226   2.249
 3551TIP3    H110594   6.484   2.210   2.329
 3551TIP3    H210595   6.601   2.157   2.248
 3552TIP3   OH210596   0.499   0.894   4.858
 3552TIP3    H110597   0.586   0.931   4.841
 3552TIP3    H210598   0.498   0.812   4.809
 3553TIP3   OH210599   7.829   5.973   0.217
 3553TIP3    H110600   7.851   6.043   0.279
 3553TIP3    H210601   7.742   5.943   0.244
 3554TIP3   OH210602   8.344   7.018   0.680
 3554TIP3    H110603   8.353   7.113   0.676
 3554TIP3    H210604   8.388   6.993   0.762
 3555TIP3   OH210605   1.730   7.044   3.703
 3555TIP3    H110606   1.693   7.033   3.615
 3555TIP3    H210607   1.678   6.985   3.758
 3556TIP3   OH210608   1.948   3.265   1.914
 3556TIP3    H110609   1.864   3.302   1.943
 3556TIP3    H210610   1.935   3.246   1.821
 3557TIP3   OH210611   1.959   4.062   0.205
 3557TIP3    H110612   1.951   4.002   0.280
 3557TIP3    H210613   1.876   4.109   0.203
 3558TIP3   OH210614   8.074   3.278   2.800
 3558TIP3    H110615   8.073   3.280   2.705
 3558TIP3    H210616   8.026   3.199   2.823
 3559TIP3   OH210617   6.036   5.545   4.932
 3559TIP3    H110618   6.061   5.540   5.024
 3559TIP3    H210619   6.117   5.570   4.886
 3560TIP3   OH210620   3.285   1.953   4.382
 3560TIP3    H110621   3.283   2.044   4.411
 3560TIP3    H210622   3.326   1.905   4.455
 3561TIP3   OH210623   7.640   0.381   6.810
 3561TIP3    H110624   7.558   0.406   6.852
 3561TIP3    H210625   7.701   0.368   6.882
 3562TIP3   OH210626   2.152   5.240   4.432
 3562TIP3    H110627   2.071   5.230   4.383
 3562TIP3    H210628   2.221   5.211   4.372
 3563TIP3   OH210629   7.733   3.256   3.374
 3563TIP3    H110630   7.796   3.326   3.359
 3563TIP3    H210631   7.700   3.235   3.286
 3564TIP3   OH210632   0.713   7.485   3.058
 3564TIP3    H110633   0.801   7.482   3.020
 3564TIP3    H210634   0.655   7.461   2.986
 3565TIP3   OH210635   7.447   4.336   5.072
 3565TIP3    H110636   7.511   4.406   5.060
 3565TIP3    H210637   7.433   4.331   5.166
 3566TIP3   OH210638   4.802   5.598   5.724
 3566TIP3    H110639   4.824   5.519   5.675
 3566TIP3    H210640   4.848   5.669   5.679
 3567TIP3   OH210641   3.105   6.793   4.835
 3567TIP3    H110642   3.032   6.855   4.840
 3567TIP3    H210643   3.182   6.845   4.857
 3568TIP3   OH210644   4.454   1.984   1.508
 3568TIP3    H110645   4.361   1.980   1.486
 3568TIP3    H210646   4.498   1.955   1.428
 3569TIP3   OH210647   2.138   1.574   0.064
 3569TIP3    H110648   2.101   1.641   0.006
 3569TIP3    H210649   2.118   1.606   0.153
 3570TIP3   OH210650   5.989   5.856   4.730
 3570TIP3    H110651   6.028   5.827   4.812
 3570TIP3    H210652   5.896   5.867   4.750
 3571TIP3   OH210653   1.078   4.558   4.704
 3571TIP3    H110654   0.990   4.556   4.741
 3571TIP3    H210655   1.133   4.593   4.774
 3572TIP3   OH210656   5.501   3.578   3.916
 3572TIP3    H110657   5.410   3.555   3.936
 3572TIP3    H210658   5.552   3.533   3.983
 3573TIP3   OH210659   1.136   0.633   5.897
 3573TIP3    H110660   1.088   0.637   5.814
 3573TIP3    H210661   1.096   0.700   5.952
 3574TIP3   OH210662   3.376   5.177   3.050
 3574TIP3    H110663   3.300   5.180   3.108
 3574TIP3    H210664   3.340   5.186   2.962
 3575TIP3   OH210665   7.641   3.678   6.216
 3575TIP3    H110666   7.655   3.614   6.285
 3575TIP3    H210667   7.618   3.759   6.262
 3576TIP3   OH210668   2.371   0.365   1.143
 3576TIP3    H110669   2.323   0.421   1.203
 3576TIP3    H210670   2.312   0.355   1.068
 3577TIP3   OH210671   5.818   6.983   3.784
 3577TIP3    H110672   5.741   6.925   3.788
 3577TIP3    H210673   5.785   7.067   3.816
 3578TIP3   OH210674   7.486   2.196   4.678
 3578TIP3    H110675   7.521   2.109   4.699
 3578TIP3    H210676   7.438   2.183   4.596
 3579TIP3   OH210677   5.391   5.313   4.845
 3579TIP3    H110678   5.341   5.266   4.779
 3579TIP3    H210679   5.479   5.277   4.840
 3580TIP3   OH210680   2.947   3.839   4.085
 3580TIP3    H110681   2.855   3.831   4.110
 3580TIP3    H210682   2.954   3.925   4.044
 3581TIP3   OH210683   6.407   5.362   0.560
 3581TIP3    H110684   6.425   5.298   0.491
 3581TIP3    H210685   6.491   5.373   0.605
 3582TIP3   OH210686   2.388   7.037   6.662
 3582TIP3    H110687   2.455   6.991   6.612
 3582TIP3    H210688   2.339   7.087   6.596
 3583TIP3   OH210689   0.422   0.118   2.037
 3583TIP3    H110690   0.364   0.186   2.071
 3583TIP3    H210691   0.453   0.153   1.953
 3584TIP3   OH210692   0.321   4.887   1.625
 3584TIP3    H110693   0.239   4.847   1.653
 3584TIP3    H210694   0.298   4.937   1.547
 3585TIP3   OH210695   7.509   5.308   2.173
 3585TIP3    H110696   7.571   5.327   2.244
 3585TIP3    H210697   7.423   5.313   2.214
 3586TIP3   OH210698   0.569   2.973   2.458
 3586TIP3    H110699   0.585   3.029   2.381
 3586TIP3    H210700   0.554   3.035   2.529
 3587TIP3   OH210701   2.923   6.089   5.538
 3587TIP3    H110702   2.979   6.097   5.462
 3587TIP3    H210703   2.965   6.144   5.605
 3588TIP3   OH210704   7.056   2.465   1.120
 3588TIP3    H110705   7.048   2.508   1.035
 3588TIP3    H210706   6.991   2.509   1.175
 3589TIP3   OH210707   4.654   6.803   1.454
 3589TIP3    H110708   4.700   6.767   1.378
 3589TIP3    H210709   4.667   6.898   1.446
 3590TIP3   OH210710   4.836   2.835   5.349
 3590TIP3    H110711   4.759   2.889   5.368
 3590TIP3    H210712   4.801   2.749   5.327
 3591TIP3   OH210713   7.277   7.834   0.560
 3591TIP3    H110714   7.243   7.900   0.620
 3591TIP3    H210715   7.214   7.762   0.565
 3592TIP3   OH210716   1.380   6.366   3.540
 3592TIP3    H110717   1.402   6.297   3.478
 3592TIP3    H210718   1.306   6.332   3.590
 3593TIP3   OH210719   7.668   4.875   6.552
 3593TIP3    H110720   7.748   4.854   6.503
 3593TIP3    H210721   7.673   4.970   6.565
 3594TIP3   OH210722   3.027   6.600   6.695
 3594TIP3    H110723   2.984   6.602   6.781
 3594TIP3    H210724   2.974   6.657   6.640
 3595TIP3   OH210725   6.465   4.505   6.378
 3595TIP3    H110726   6.394   4.448   6.347
 3595TIP3    H210727   6.427   4.593   6.378
 3596TIP3   OH210728   2.645   3.273   4.993
 3596TIP3    H110729   2.640   3.207   5.062
 3596TIP3    H210730   2.686   3.349   5.035
 3597TIP3   OH210731   4.691   5.068   3.723
 3597TIP3    H110732   4.668   5.072   3.631
 3597TIP3    H210733   4.755   5.139   3.735
 3598TIP3   OH210734   1.687   0.735   3.422
 3598TIP3    H110735   1.759   0.708   3.364
 3598TIP3    H210736   1.707   0.693   3.506
 3599TIP3   OH210737   0.885   6.963   3.928
 3599TIP3    H110738   0.905   6.885   3.877
 3599TIP3    H210739   0.927   7.035   3.879
 3600TIP3   OH210740   0.435   3.577   4.958
 3600TIP3    H110741   0.459   3.533   4.876
 3600TIP3    H210742   0.514   3.571   5.013
 3601TIP3   OH210743   2.242   2.282   1.707
 3601TIP3    H110744   2.197   2.216   1.761
 3601TIP3    H210745   2.294   2.230   1.645
 3602TIP3   OH210746   3.726   4.965   5.676
 3602TIP3    H110747   3.819   4.982   5.690
 3602TIP3    H210748   3.707   5.009   5.593
 3603TIP3   OH210749   2.080   6.378   6.093
 3603TIP3    H110750   2.077   6.392   6.187
 3603TIP3    H210751   1.994   6.406   6.061
 3604TIP3   OH210752   6.238   3.411   0.298
 3604TIP3    H110753   6.225   3.357   0.220
 3604TIP3    H210754   6.247   3.500   0.265
 3605TIP3   OH210755   1.416   0.903   1.123
 3605TIP3    H110756   1.495   0.859   1.154
 3605TIP3    H210757   1.429   0.995   1.148
 3606TIP3   OH210758   7.348   3.675   4.291
 3606TIP3    H110759   7.322   3.763   4.262
 3606TIP3    H210760   7.443   3.676   4.285
 3607TIP3   OH210761   6.470   5.405   0.139
 3607TIP3    H110762   6.453   5.463   0.065
 3607TIP3    H210763   6.498   5.464   0.209
 3608TIP3   OH210764   2.463   1.701   2.082
 3608TIP3    H110765   2.534   1.709   2.145
 3608TIP3    H210766   2.506   1.697   1.997
 3609TIP3   OH210767   4.808   6.526   1.931
 3609TIP3    H110768   4.799   6.586   1.856
 3609TIP3    H210769   4.736   6.464   1.921
 3610TIP3   OH210770   2.395   2.174   4.823
 3610TIP3    H110771   2.308   2.194   4.788
 3610TIP3    H210772   2.454   2.232   4.774
 3611TIP3   OH210773   3.904   0.297   6.319
 3611TIP3    H110774   3.973   0.272   6.381
 3611TIP3    H210775   3.822   0.281   6.367
 3612TIP3   OH210776   2.859   6.656   4.953
 3612TIP3    H110777   2.907   6.709   4.888
 3612TIP3    H210778   2.795   6.716   4.991
 3613TIP3   OH210779   0.607   7.596   0.182
 3613TIP3    H110780   0.632   7.686   0.161
 3613TIP3    H210781   0.634   7.545   0.105
 3614TIP3   OH210782   2.184   7.040   3.872
 3614TIP3    H110783   2.117   6.974   3.856
 3614TIP3    H210784   2.143   7.122   3.848
 3615TIP3   OH210785   8.239   5.698   2.023
 3615TIP3    H110786   8.317   5.754   2.026
 3615TIP3    H210787   8.203   5.711   1.935
 3616TIP3   OH210788   2.106   7.526   4.406
 3616TIP3    H110789   2.026   7.507   4.455
 3616TIP3    H210790   2.127   7.444   4.362
 3617TIP3   OH210791   5.577   7.624   4.238
 3617TIP3    H110792   5.651   7.645   4.295
 3617TIP3    H210793   5.520   7.569   4.292
 3618TIP3   OH210794   5.425   4.268   6.155
 3618TIP3    H110795   5.383   4.354   6.155
 3618TIP3    H210796   5.360   4.209   6.192
 3619TIP3   OH210797   7.224   3.933   0.150
 3619TIP3    H110798   7.158   4.002   0.152
 3619TIP3    H210799   7.174   3.852   0.140
 3620TIP3   OH210800   6.986   3.714   4.771
 3620TIP3    H110801   6.977   3.630   4.726
 3620TIP3    H210802   7.080   3.723   4.786
 3621TIP3   OH210803   1.298   7.752   4.727
 3621TIP3    H110804   1.267   7.777   4.641
 3621TIP3    H210805   1.315   7.658   4.721
 3622TIP3   OH210806   0.692   5.689   2.000
 3622TIP3    H110807   0.765   5.636   2.032
 3622TIP3    H210808   0.706   5.775   2.040
 3623TIP3   OH210809   3.604   6.487   4.359
 3623TIP3    H110810   3.640   6.408   4.319
 3623TIP3    H210811   3.529   6.455   4.410
 3624TIP3   OH210812   0.888   1.045   0.293
 3624TIP3    H110813   0.972   1.068   0.333
 3624TIP3    H210814   0.844   1.129   0.279
 3625TIP3   OH210815   4.494   4.286   3.870
 3625TIP3    H110816   4.520   4.263   3.959
 3625TIP3    H210817   4.531   4.373   3.856
 3626TIP3   OH210818   1.005   7.379   4.567
 3626TIP3    H110819   1.048   7.295   4.552
 3626TIP3    H210820   0.948   7.364   4.642
 3627TIP3   OH210821   6.427   7.380   5.696
 3627TIP3    H110822   6.508   7.330   5.688
 3627TIP3    H210823   6.360   7.315   5.720
 3628TIP3   OH210824   2.365   6.816   5.174
 3628TIP3    H110825   2.286   6.765   5.195
 3628TIP3    H210826   2.392   6.785   5.088
 3629TIP3   OH210827   2.844   7.603   3.967
 3629TIP3    H110828   2.794   7.625   3.888
 3629TIP3    H210829   2.874   7.514   3.952
 3630TIP3   OH210830   0.741   2.484   3.264
 3630TIP3    H110831   0.658   2.525   3.241
 3630TIP3    H210832   0.781   2.462   3.180
 3631TIP3   OH210833   1.759   0.199   1.231
 3631TIP3    H110834   1.706   0.173   1.307
 3631TIP3    H210835   1.707   0.173   1.155
 3632TIP3   OH210836   0.691   1.364   6.853
 3632TIP3    H110837   0.773   1.407   6.827
 3632TIP3    H210838   0.641   1.356   6.772
 3633TIP3   OH210839   0.822   3.915   5.373
 3633TIP3    H110840   0.795   3.943   5.460
 3633TIP3    H210841   0.760   3.957   5.313
 3634TIP3   OH210842   5.173   0.070   6.464
 3634TIP3    H110843   5.186   0.134   6.533
 3634TIP3    H210844   5.161   0.122   6.384
 3635TIP3   OH210845   0.064   1.880   1.614
 3635TIP3    H110846   0.083   1.871   1.521
 3635TIP3    H210847   0.136   1.835   1.658
 3636TIP3   OH210848   0.090   1.045   2.383
 3636TIP3    H110849   0.065   1.008   2.298
 3636TIP3    H210850   0.091   1.140   2.368
 3637TIP3   OH210851   0.518   3.969   1.349
 3637TIP3    H110852   0.457   3.992   1.279
 3637TIP3    H210853   0.551   3.882   1.324
 3638TIP3   OH210854   8.352   4.641   3.604
 3638TIP3    H110855   8.399   4.570   3.648
 3638TIP3    H210856   8.310   4.689   3.675
 3639TIP3   OH210857   2.538   1.931   2.957
 3639TIP3    H110858   2.503   1.968   2.876
 3639TIP3    H210859   2.468   1.943   3.021
 3640TIP3   OH210860   0.444   4.222   4.940
 3640TIP3    H110861   0.418   4.141   4.895
 3640TIP3    H210862   0.540   4.219   4.940
 3641TIP3   OH210863   2.566   7.458   4.249
 3641TIP3    H110864   2.643   7.503   4.284
 3641TIP3    H210865   2.532   7.409   4.323
 3642TIP3   OH210866   3.581   6.427   3.059
 3642TIP3    H110867   3.553   6.516   3.038
 3642TIP3    H210868   3.669   6.437   3.096
 3643TIP3   OH210869   3.261   1.188   4.381
 3643TIP3    H110870   3.198   1.213   4.313
 3643TIP3    H210871   3.206   1.161   4.455
 3644TIP3   OH210872   8.180   3.391   0.393
 3644TIP3    H110873   8.143   3.470   0.355
 3644TIP3    H210874   8.162   3.322   0.329
 3645TIP3   OH210875   0.497   0.013   4.281
 3645TIP3    H110876   0.524  -0.077   4.301
 3645TIP3    H210877   0.410   0.004   4.243
 3646TIP3   OH210878   6.579   3.042   2.002
 3646TIP3    H110879   6.557   2.951   1.981
 3646TIP3    H210880   6.669   3.052   1.972
 3647TIP3   OH210881   4.848   1.970   5.681
 3647TIP3    H110882   4.936   1.934   5.673
 3647TIP3    H210883   4.861   2.060   5.711
 3648TIP3   OH210884   2.492   1.207   3.036
 3648TIP3    H110885   2.567   1.209   2.976
 3648TIP3    H210886   2.421   1.248   2.988
 3649TIP3   OH210887   4.360   1.113   5.061
 3649TIP3    H110888   4.395   1.088   5.147
 3649TIP3    H210889   4.433   1.154   5.016
 3650TIP3   OH210890   6.892   5.308   0.300
 3650TIP3    H110891   6.822   5.284   0.238
 3650TIP3    H210892   6.852   5.372   0.358
 3651TIP3   OH210893   4.295   4.429   2.234
 3651TIP3    H110894   4.247   4.509   2.255
 3651TIP3    H210895   4.329   4.399   2.319
 3652TIP3   OH210896   7.339   2.551   4.665
 3652TIP3    H110897   7.262   2.580   4.714
 3652TIP3    H210898   7.397   2.515   4.732
 3653TIP3   OH210899   1.650   5.518   5.570
 3653TIP3    H110900   1.631   5.498   5.478
 3653TIP3    H210901   1.743   5.543   5.570
 3654TIP3   OH210902   5.935   3.868   6.492
 3654TIP3    H110903   5.961   3.850   6.401
 3654TIP3    H210904   5.889   3.790   6.521
 3655TIP3   OH210905   3.230   0.999   2.042
 3655TIP3    H110906   3.174   1.076   2.027
 3655TIP3    H210907   3.187   0.951   2.112
 3656TIP3   OH210908   1.187   2.257   2.821
 3656TIP3    H110909   1.267   2.216   2.855
 3656TIP3    H210910   1.120   2.238   2.887
 3657TIP3   OH210911   3.726   2.907   5.834
 3657TIP3    H110912   3.819   2.909   5.855
 3657TIP3    H210913   3.691   2.988   5.870
 3658TIP3   OH210914   3.063   3.898   2.383
 3658TIP3    H110915   3.025   3.824   2.430
 3658TIP3    H210916   2.987   3.946   2.350
 3659TIP3   OH210917   1.278   0.332   0.219
 3659TIP3    H110918   1.200   0.375   0.254
 3659TIP3    H210919   1.348   0.397   0.227
 3660TIP3   OH210920   4.692   4.675   2.112
 3660TIP3    H110921   4.740   4.653   2.192
 3660TIP3    H210922   4.606   4.635   2.125
 3661TIP3   OH210923   1.198   2.049   5.280
 3661TIP3    H110924   1.278   2.029   5.330
 3661TIP3    H210925   1.181   1.970   5.229
 3662TIP3   OH210926   2.081   5.364   0.199
 3662TIP3    H110927   2.144   5.328   0.261
 3662TIP3    H210928   2.019   5.292   0.184
 3663TIP3   OH210929   8.316   6.296   1.681
 3663TIP3    H110930   8.384   6.317   1.617
 3663TIP3    H210931   8.295   6.204   1.664
 3664TIP3   OH210932   3.140   7.727   0.242
 3664TIP3    H110933   3.081   7.654   0.221
 3664TIP3    H210934   3.227   7.693   0.220
 3665TIP3   OH210935   2.087   4.102   5.308
 3665TIP3    H110936   2.182   4.096   5.317
 3665TIP3    H210937   2.072   4.173   5.246
 3666TIP3   OH210938   8.147   0.972   5.205
 3666TIP3    H110939   8.170   0.970   5.298
 3666TIP3    H210940   8.135   0.880   5.181
 3667TIP3   OH210941   5.015   1.491   4.693
 3667TIP3    H110942   5.023   1.580   4.726
 3667TIP3    H210943   5.102   1.472   4.656
 3668TIP3   OH210944   2.320   7.731   6.757
 3668TIP3    H110945   2.328   7.763   6.847
 3668TIP3    H210946   2.394   7.771   6.711
 3669TIP3   OH210947   6.771   5.910   1.758
 3669TIP3    H110948   6.771   5.856   1.679
 3669TIP3    H210949   6.678   5.921   1.780
 3670TIP3   OH210950   2.594   0.249   3.143
 3670TIP3    H110951   2.568   0.336   3.113
 3670TIP3    H210952   2.586   0.253   3.238
 3671TIP3   OH210953   3.598   6.158   0.304
 3671TIP3    H110954   3.593   6.082   0.246
 3671TIP3    H210955   3.515   6.205   0.289
 3672TIP3   OH210956   4.893   1.897   1.658
 3672TIP3    H110957   4.887   1.823   1.597
 3672TIP3    H210958   4.803   1.916   1.682
 3673TIP3   OH210959   7.677   7.595   2.409
 3673TIP3    H110960   7.673   7.560   2.320
 3673TIP3    H210961   7.771   7.606   2.426
 3674TIP3   OH210962   8.307   0.319   4.748
 3674TIP3    H110963   8.396   0.294   4.721
 3674TIP3    H210964   8.266   0.351   4.668
 3675TIP3   OH210965   6.057   2.151   6.141
 3675TIP3    H110966   6.077   2.077   6.083
 3675TIP3    H210967   6.064   2.228   6.084
 3676TIP3   OH210968   7.929   6.120   6.649
 3676TIP3    H110969   7.928   6.204   6.603
 3676TIP3    H210970   8.012   6.119   6.696
 3677TIP3   OH210971   6.871   1.525   3.818
 3677TIP3    H110972   6.834   1.611   3.799
 3677TIP3    H210973   6.812   1.488   3.884
 3678TIP3   OH210974   0.886   3.043   2.542
 3678TIP3    H110975   0.860   3.083   2.459
 3678TIP3    H210976   0.981   3.030   2.533
 3679TIP3   OH210977   1.444   1.685   5.161
 3679TIP3    H110978   1.389   1.713   5.088
 3679TIP3    H210979   1.440   1.757   5.223
 3680TIP3   OH210980   4.424   1.102   6.455
 3680TIP3    H110981   4.331   1.089   6.439
 3680TIP3    H210982   4.462   1.115   6.368
 3681TIP3   OH210983   3.279   1.801   6.389
 3681TIP3    H110984   3.209   1.867   6.397
 3681TIP3    H210985   3.238   1.719   6.417
 3682TIP3   OH210986   3.718   5.195   2.986
 3682TIP3    H110987   3.764   5.139   2.924
 3682TIP3    H210988   3.626   5.170   2.977
 3683TIP3   OH210989   2.957   3.996   0.352
 3683TIP3    H110990   2.949   3.950   0.435
 3683TIP3    H210991   2.868   4.025   0.332
 3684TIP3   OH210992   6.028   5.922   5.810
 3684TIP3    H110993   6.059   5.986   5.875
 3684TIP3    H210994   6.106   5.872   5.787
 3685TIP3   OH210995   5.686   3.956   3.829
 3685TIP3    H110996   5.654   3.873   3.791
 3685TIP3    H210997   5.781   3.948   3.827
 3686TIP3   OH210998   1.322   7.550   0.173
 3686TIP3    H110999   1.352   7.638   0.152
 3686TIP3    H211000   1.396   7.493   0.151
 3687TIP3   OH211001   7.784   7.030   5.909
 3687TIP3    H111002   7.707   7.086   5.905
 3687TIP3    H211003   7.850   7.074   5.855
 3688TIP3   OH211004   2.480   1.921   2.241
 3688TIP3    H111005   2.400   1.942   2.290
 3688TIP3    H211006   2.457   1.935   2.149
 3689TIP3   OH211007   1.245   3.016   2.083
 3689TIP3    H111008   1.232   3.081   2.151
 3689TIP3    H211009   1.201   2.937   2.116
 3690TIP3   OH211010   7.646   3.816   4.857
 3690TIP3    H111011   7.640   3.827   4.762
 3690TIP3    H211012   7.681   3.900   4.888
 3691TIP3   OH211013   5.385   4.715   1.051
 3691TIP3    H111014   5.390   4.666   0.969
 3691TIP3    H211015   5.298   4.694   1.086
 3692TIP3   OH211016   2.629   2.327   2.371
 3692TIP3    H111017   2.567   2.293   2.436
 3692TIP3    H211018   2.643   2.418   2.396
 3693TIP3   OH211019   2.314   2.406   6.395
 3693TIP3    H111020   2.394   2.459   6.398
 3693TIP3    H211021   2.244   2.467   6.415
 3694TIP3   OH211022   0.598   3.877   5.986
 3694TIP3    H111023   0.539   3.803   5.968
 3694TIP3    H211024   0.544   3.954   5.971
 3695TIP3   OH211025   0.061   5.645   1.507
 3695TIP3    H111026   0.101   5.731   1.522
 3695TIP3    H211027   0.019   5.624   1.590
 3696TIP3   OH211028   7.535   5.291   4.115
 3696TIP3    H111029   7.446   5.297   4.151
 3696TIP3    H211030   7.527   5.236   4.038
 3697TIP3   OH211031   7.452   6.282   5.264
 3697TIP3    H111032   7.446   6.377   5.254
 3697TIP3    H211033   7.546   6.263   5.252
 3698TIP3   OH211034   4.221   4.530   5.076
 3698TIP3    H111035   4.293   4.508   5.017
 3698TIP3    H211036   4.261   4.538   5.162
 3699TIP3   OH211037   7.807   0.413   3.069
 3699TIP3    H111038   7.830   0.340   3.012
 3699TIP3    H211039   7.714   0.428   3.053
 3700TIP3   OH211040   1.855   4.777   5.844
 3700TIP3    H111041   1.779   4.796   5.900
 3700TIP3    H211042   1.897   4.702   5.885
 3701TIP3   OH211043   5.540   3.767   0.555
 3701TIP3    H111044   5.462   3.773   0.499
 3701TIP3    H211045   5.517   3.817   0.633
 3702TIP3   OH211046   6.812   5.019   0.825
 3702TIP3    H111047   6.907   5.014   0.818
 3702TIP3    H211048   6.783   5.047   0.738
 3703TIP3   OH211049   6.818   2.149   3.571
 3703TIP3    H111050   6.867   2.227   3.544
 3703TIP3    H211051   6.740   2.149   3.516
 3704TIP3   OH211052   5.034   5.077   0.101
 3704TIP3    H111053   5.093   5.117   0.036
 3704TIP3    H211054   4.963   5.039   0.049
 3705TIP3   OH211055   2.274   7.313   2.289
 3705TIP3    H111056   2.232   7.282   2.370
 3705TIP3    H211057   2.338   7.245   2.268
 3706TIP3   OH211058   0.557   2.484   5.378
 3706TIP3    H111059   0.529   2.520   5.295
 3706TIP3    H211060   0.476   2.463   5.424
 3707TIP3   OH211061   7.755   3.609   1.503
 3707TIP3    H111062   7.666   3.642   1.485
 3707TIP3    H211063   7.813   3.680   1.475
 3708TIP3   OH211064   6.940   3.321   3.975
 3708TIP3    H111065   6.887   3.311   4.054
 3708TIP3    H211066   7.030   3.316   4.005
 3709TIP3   OH211067   3.315   6.058   4.707
 3709TIP3    H111068   3.242   5.996   4.702
 3709TIP3    H211069   3.392   6.005   4.685
 3710TIP3   OH211070   8.141   0.161   5.359
 3710TIP3    H111071   8.178   0.073   5.356
 3710TIP3    H211072   8.216   0.220   5.351
 3711TIP3   OH211073   0.771   5.585   5.575
 3711TIP3    H111074   0.695   5.538   5.610
 3711TIP3    H211075   0.744   5.676   5.574
 3712TIP3   OH211076   2.020   6.071   1.061
 3712TIP3    H111077   1.984   6.053   0.974
 3712TIP3    H211078   2.027   6.166   1.065
 3713TIP3   OH211079   6.636   4.610   2.111
 3713TIP3    H111080   6.645   4.615   2.015
 3713TIP3    H211081   6.542   4.601   2.126
 3714TIP3   OH211082   0.108   4.780   2.874
 3714TIP3    H111083   0.074   4.844   2.812
 3714TIP3    H211084   0.034   4.763   2.933
 3715TIP3   OH211085   2.708   1.855   0.799
 3715TIP3    H111086   2.681   1.770   0.833
 3715TIP3    H211087   2.800   1.844   0.776
 3716TIP3   OH211088   7.684   3.317   2.798
 3716TIP3    H111089   7.730   3.382   2.744
 3716TIP3    H211090   7.612   3.366   2.838
 3717TIP3   OH211091   4.528   4.070   6.608
 3717TIP3    H111092   4.596   4.005   6.592
 3717TIP3    H211093   4.463   4.025   6.663
 3718TIP3   OH211094   6.810   1.085   4.915
 3718TIP3    H111095   6.827   0.993   4.937
 3718TIP3    H211096   6.887   1.132   4.946
 3719TIP3   OH211097   6.042   7.767   6.413
 3719TIP3    H111098   5.983   7.692   6.426
 3719TIP3    H211099   6.119   7.747   6.466
 3720TIP3   OH211100   7.108   0.274   4.482
 3720TIP3    H111101   7.178   0.253   4.419
 3720TIP3    H211102   7.100   0.369   4.477
 3721TIP3   OH211103   8.352   1.446   2.157
 3721TIP3    H111104   8.388   1.415   2.074
 3721TIP3    H211105   8.308   1.369   2.194
 3722TIP3   OH211106   3.852   4.331   6.787
 3722TIP3    H111107   3.860   4.373   6.872
 3722TIP3    H211108   3.934   4.352   6.742
 3723TIP3   OH211109   8.161   7.105   6.106
 3723TIP3    H111110   8.133   7.039   6.043
 3723TIP3    H211111   8.113   7.184   6.081
 3724TIP3   OH211112   3.609   2.712   6.801
 3724TIP3    H111113   3.677   2.762   6.845
 3724TIP3    H211114   3.549   2.778   6.767
 3725TIP3   OH211115   0.539   5.407   1.967
 3725TIP3    H111116   0.483   5.483   1.948
 3725TIP3    H211117   0.622   5.427   1.923
 3726TIP3   OH211118   1.097   3.833   1.867
 3726TIP3    H111119   1.148   3.830   1.786
 3726TIP3    H211120   1.006   3.822   1.840
 3727TIP3   OH211121   3.649   0.449   0.742
 3727TIP3    H111122   3.598   0.504   0.682
 3727TIP3    H211123   3.704   0.396   0.685
 3728TIP3   OH211124   1.334   3.363   2.581
 3728TIP3    H111125   1.267   3.351   2.648
 3728TIP3    H211126   1.324   3.453   2.551
 3729TIP3   OH211127   1.419   5.283   1.756
 3729TIP3    H111128   1.399   5.359   1.701
 3729TIP3    H211129   1.426   5.320   1.845
 3730TIP3   OH211130   6.558   7.287   0.617
 3730TIP3    H111131   6.581   7.229   0.689
 3730TIP3    H211132   6.467   7.312   0.634
 3731TIP3   OH211133   1.405   0.370   3.309
 3731TIP3    H111134   1.322   0.395   3.268
 3731TIP3    H211135   1.397   0.275   3.321
 3732TIP3   OH211136   2.221   0.579   5.815
 3732TIP3    H111137   2.258   0.491   5.812
 3732TIP3    H211138   2.141   0.570   5.865
 3733TIP3   OH211139   3.912   0.786   5.064
 3733TIP3    H111140   3.973   0.752   4.999
 3733TIP3    H211141   3.899   0.713   5.125
 3734TIP3   OH211142   7.823   6.667   2.621
 3734TIP3    H111143   7.872   6.738   2.579
 3734TIP3    H211144   7.738   6.669   2.578
 3735TIP3   OH211145   3.463   3.039   1.811
 3735TIP3    H111146   3.533   3.101   1.789
 3735TIP3    H211147   3.465   2.974   1.741
 3736TIP3   OH211148   2.845   2.733   0.669
 3736TIP3    H111149   2.805   2.819   0.679
 3736TIP3    H211150   2.867   2.728   0.576
 3737TIP3   OH211151   8.110   0.577   3.448
 3737TIP3    H111152   8.116   0.672   3.444
 3737TIP3    H211153   8.154   0.546   3.368
 3738TIP3   OH211154   4.411   3.547   4.708
 3738TIP3    H111155   4.422   3.551   4.613
 3738TIP3    H211156   4.360   3.467   4.723
 3739TIP3   OH211157   7.931   1.163   4.815
 3739TIP3    H111158   7.983   1.088   4.786
 3739TIP3    H211159   7.886   1.133   4.893
 3740TIP3   OH211160   1.619   5.717   4.978
 3740TIP3    H111161   1.615   5.760   5.063
 3740TIP3    H211162   1.713   5.706   4.961
 3741TIP3   OH211163   3.682   5.717   6.496
 3741TIP3    H111164   3.620   5.692   6.565
 3741TIP3    H211165   3.710   5.805   6.520
 3742TIP3   OH211166   2.430   7.266   4.411
 3742TIP3    H111167   2.394   7.306   4.490
 3742TIP3    H211168   2.353   7.239   4.360
 3743TIP3   OH211169   7.880   3.435   4.959
 3743TIP3    H111170   7.867   3.526   4.985
 3743TIP3    H211171   7.838   3.384   5.029
 3744TIP3   OH211172   5.602   3.671   1.471
 3744TIP3    H111173   5.629   3.695   1.382
 3744TIP3    H211174   5.598   3.575   1.469
 3745TIP3   OH211175   2.097   2.813   4.320
 3745TIP3    H111176   2.074   2.853   4.236
 3745TIP3    H211177   2.191   2.828   4.329
 3746TIP3   OH211178   0.497   5.996   0.695
 3746TIP3    H111179   0.512   6.007   0.601
 3746TIP3    H211180   0.446   6.074   0.720
 3747TIP3   OH211181   2.797   3.126   4.797
 3747TIP3    H111182   2.757   3.102   4.713
 3747TIP3    H211183   2.727   3.171   4.845
 3748TIP3   OH211184   6.510   6.549   2.905
 3748TIP3    H111185   6.420   6.545   2.873
 3748TIP3    H211186   6.500   6.563   3.000
 3749TIP3   OH211187   2.195   0.688   6.678
 3749TIP3    H111188   2.235   0.727   6.756
 3749TIP3    H211189   2.164   0.602   6.708
 3750TIP3   OH211190   4.029   2.972   6.686
 3750TIP3    H111191   3.977   2.937   6.614
 3750TIP3    H211192   3.973   3.038   6.727
 3751TIP3   OH211193   6.361   7.641   1.960
 3751TIP3    H111194   6.390   7.724   1.999
 3751TIP3    H211195   6.266   7.645   1.963
 3752TIP3   OH211196   6.906   4.377   3.140
 3752TIP3    H111197   6.929   4.463   3.107
 3752TIP3    H211198   6.844   4.341   3.076
 3753TIP3   OH211199   8.130   1.045   6.505
 3753TIP3    H111200   8.121   1.140   6.509
 3753TIP3    H211201   8.224   1.029   6.511
 3754TIP3   OH211202   5.350   5.902   1.695
 3754TIP3    H111203   5.317   5.820   1.660
 3754TIP3    H211204   5.416   5.930   1.633
 3755TIP3   OH211205   6.503   5.987   3.189
 3755TIP3    H111206   6.446   5.960   3.261
 3755TIP3    H211207   6.582   6.019   3.233
 3756TIP3   OH211208   7.442   1.857   2.330
 3756TIP3    H111209   7.490   1.938   2.310
 3756TIP3    H211210   7.432   1.814   2.245
 3757TIP3   OH211211   6.564   6.897   0.054
 3757TIP3    H111212   6.551   6.954   0.130
 3757TIP3    H211213   6.607   6.953  -0.011
 3758TIP3   OH211214   1.890   4.470   3.999
 3758TIP3    H111215   1.946   4.546   3.981
 3758TIP3    H211216   1.801   4.506   4.000
 3759TIP3   OH211217   3.627   2.173   0.825
 3759TIP3    H111218   3.618   2.264   0.852
 3759TIP3    H211219   3.709   2.144   0.865
 3760TIP3   OH211220   0.599   3.133   5.992
 3760TIP3    H111221   0.627   3.206   6.047
 3760TIP3    H211222   0.654   3.139   5.914
 3761TIP3   OH211223   0.882   6.473   2.904
 3761TIP3    H111224   0.858   6.457   2.813
 3761TIP3    H211225   0.977   6.486   2.901
 3762TIP3   OH211226   5.024   5.834   3.077
 3762TIP3    H111227   4.986   5.754   3.113
 3762TIP3    H211228   4.980   5.846   2.993
 3763TIP3   OH211229   5.861   4.096   1.513
 3763TIP3    H111230   5.928   4.133   1.571
 3763TIP3    H211231   5.831   4.017   1.557
 3764TIP3   OH211232   3.262   4.006   1.058
 3764TIP3    H111233   3.290   4.018   1.149
 3764TIP3    H211234   3.215   3.923   1.058
 3765TIP3   OH211235   3.047   2.440   6.045
 3765TIP3    H111236   2.981   2.439   6.114
 3765TIP3    H211237   3.129   2.461   6.090
 3766TIP3   OH211238   3.905   6.256   3.417
 3766TIP3    H111239   3.815   6.261   3.452
 3766TIP3    H211240   3.901   6.187   3.352
 3767TIP3   OH211241   2.474   7.368   5.911
 3767TIP3    H111242   2.564   7.393   5.934
 3767TIP3    H211243   2.478   7.348   5.818
 3768TIP3   OH211244   7.203   6.994   2.552
 3768TIP3    H111245   7.129   7.049   2.578
 3768TIP3    H211246   7.183   6.967   2.463
 3769TIP3   OH211247   7.468   5.271   6.521
 3769TIP3    H111248   7.451   5.225   6.603
 3769TIP3    H211249   7.432   5.359   6.534
 3770TIP3   OH211250   3.718   6.877   0.907
 3770TIP3    H111251   3.751   6.833   0.828
 3770TIP3    H211252   3.789   6.935   0.933
 3771TIP3   OH211253   6.130   3.406   4.724
 3771TIP3    H111254   6.056   3.371   4.673
 3771TIP3    H211255   6.207   3.364   4.687
 3772TIP3   OH211256   0.611   1.710   1.847
 3772TIP3    H111257   0.672   1.650   1.804
 3772TIP3    H211258   0.663   1.753   1.915
 3773TIP3   OH211259   1.773   4.824   5.048
 3773TIP3    H111260   1.775   4.811   5.143
 3773TIP3    H211261   1.853   4.872   5.028
 3774TIP3   OH211262   7.367   6.305   1.961
 3774TIP3    H111263   7.374   6.345   2.048
 3774TIP3    H211264   7.309   6.229   1.974
 3775TIP3   OH211265   6.807   7.225   6.088
 3775TIP3    H111266   6.853   7.218   6.172
 3775TIP3    H211267   6.873   7.201   6.023
 3776TIP3   OH211268   6.867   2.398   3.519
 3776TIP3    H111269   6.903   2.412   3.606
 3776TIP3    H211270   6.890   2.477   3.470
 3777TIP3   OH211271   1.635   2.126   2.941
 3777TIP3    H111272   1.619   2.108   2.848
 3777TIP3    H211273   1.696   2.199   2.942
 3778TIP3   OH211274   5.775   6.999   6.376
 3778TIP3    H111275   5.852   7.043   6.412
 3778TIP3    H211276   5.769   7.030   6.286
 3779TIP3   OH211277   6.471   3.803   6.324
 3779TIP3    H111278   6.528   3.812   6.400
 3779TIP3    H211279   6.391   3.764   6.359
 3780TIP3   OH211280   2.337   0.474   4.246
 3780TIP3    H111281   2.424   0.510   4.229
 3780TIP3    H211282   2.325   0.483   4.340
 3781TIP3   OH211283   3.053   6.654   3.031
 3781TIP3    H111284   3.057   6.689   3.120
 3781TIP3    H211285   3.007   6.570   3.040
 3782TIP3   OH211286   5.769   4.958   1.011
 3782TIP3    H111287   5.816   4.912   0.942
 3782TIP3    H211288   5.716   4.890   1.053
 3783TIP3   OH211289   6.095   7.044   5.321
 3783TIP3    H111290   6.031   7.006   5.381
 3783TIP3    H211291   6.157   7.089   5.379
 3784TIP3   OH211292   6.697   6.228   6.175
 3784TIP3    H111293   6.647   6.269   6.245
 3784TIP3    H211294   6.658   6.260   6.094
 3785TIP3   OH211295   7.454   0.821   3.474
 3785TIP3    H111296   7.475   0.893   3.414
 3785TIP3    H211297   7.457   0.860   3.561
 3786TIP3   OH211298   2.552   4.780   1.401
 3786TIP3    H111299   2.475   4.779   1.345
 3786TIP3    H211300   2.622   4.744   1.347
 3787TIP3   OH211301   7.660   2.182   3.485
 3787TIP3    H111302   7.750   2.149   3.489
 3787TIP3    H211303   7.610   2.112   3.444
 3788TIP3   OH211304   0.036   0.680   5.131
 3788TIP3    H111305  -0.014   0.646   5.057
 3788TIP3    H211306   0.051   0.603   5.187
 3789TIP3   OH211307   2.476   0.924   1.451
 3789TIP3    H111308   2.520   0.869   1.515
 3789TIP3    H211309   2.545   0.954   1.392
 3790TIP3   OH211310   5.729   0.565   5.452
 3790TIP3    H111311   5.650   0.557   5.504
 3790TIP3    H211312   5.721   0.650   5.409
 3791TIP3   OH211313   0.172   7.653   4.474
 3791TIP3    H111314   0.103   7.621   4.532
 3791TIP3    H211315   0.141   7.739   4.445
 3792TIP3   OH211316   5.105   3.712   0.505
 3792TIP3    H111317   5.178   3.654   0.529
 3792TIP3    H211318   5.132   3.798   0.539
 3793TIP3   OH211319   1.945   4.312   0.822
 3793TIP3    H111320   1.893   4.387   0.793
 3793TIP3    H211321   1.956   4.326   0.916
 3794TIP3   OH211322   7.326   2.554   2.791
 3794TIP3    H111323   7.383   2.548   2.714
 3794TIP3    H211324   7.366   2.497   2.856
 3795TIP3   OH211325   4.727   3.526   5.111
 3795TIP3    H111326   4.814   3.526   5.071
 3795TIP3    H211327   4.695   3.436   5.100
 3796TIP3   OH211328   5.211   2.622   6.771
 3796TIP3    H111329   5.138   2.622   6.710
 3796TIP3    H211330   5.170   2.618   6.858
 3797TIP3   OH211331   3.237   6.190   0.442
 3797TIP3    H111332   3.195   6.147   0.367
 3797TIP3    H211333   3.309   6.133   0.466
 3798TIP3   OH211334   8.101   6.221   0.532
 3798TIP3    H111335   8.078   6.314   0.522
 3798TIP3    H211336   8.178   6.222   0.589
 3799TIP3   OH211337   3.523   6.071   3.983
 3799TIP3    H111338   3.533   6.135   3.913
 3799TIP3    H211339   3.428   6.059   3.992
 3800TIP3   OH211340   3.520   4.840   0.662
 3800TIP3    H111341   3.455   4.770   0.653
 3800TIP3    H211342   3.543   4.840   0.755
 3801TIP3   OH211343   5.408   6.564   1.188
 3801TIP3    H111344   5.501   6.539   1.189
 3801TIP3    H211345   5.397   6.617   1.267
 3802TIP3   OH211346   4.449   3.341   3.982
 3802TIP3    H111347   4.442   3.431   3.952
 3802TIP3    H211348   4.380   3.295   3.935
 3803TIP3   OH211349   5.944   3.103   1.514
 3803TIP3    H111350   6.028   3.104   1.469
 3803TIP3    H211351   5.906   3.018   1.492
 3804TIP3   OH211352   3.127   6.225   5.650
 3804TIP3    H111353   3.143   6.316   5.674
 3804TIP3    H211354   3.190   6.175   5.702
 3805TIP3   OH211355   4.729   1.543   2.562
 3805TIP3    H111356   4.824   1.542   2.548
 3805TIP3    H211357   4.691   1.541   2.474
 3806TIP3   OH211358   5.388   0.810   3.616
 3806TIP3    H111359   5.434   0.878   3.567
 3806TIP3    H211360   5.310   0.853   3.650
 3807TIP3   OH211361   7.601   3.718   2.475
 3807TIP3    H111362   7.558   3.781   2.416
 3807TIP3    H211363   7.544   3.714   2.551
 3808TIP3   OH211364   0.877   1.954   2.836
 3808TIP3    H111365   0.813   1.897   2.878
 3808TIP3    H211366   0.824   2.021   2.792
 3809TIP3   OH211367   1.146   2.573   3.715
 3809TIP3    H111368   1.135   2.503   3.779
 3809TIP3    H211369   1.151   2.529   3.631
 3810TIP3   OH211370   0.675   6.451   3.073
 3810TIP3    H111371   0.694   6.361   3.101
 3810TIP3    H211372   0.745   6.473   3.013
 3811TIP3   OH211373   2.809   5.315   0.179
 3811TIP3    H111374   2.798   5.392   0.235
 3811TIP3    H211375   2.823   5.243   0.240
 3812TIP3   OH211376   7.879   7.240   5.203
 3812TIP3    H111377   7.974   7.241   5.214
 3812TIP3    H211378   7.865   7.269   5.112
 3813TIP3   OH211379   5.164   3.575   0.211
 3813TIP3    H111380   5.192   3.568   0.302
 3813TIP3    H211381   5.240   3.609   0.165
 3814TIP3   OH211382   2.987   2.993   0.186
 3814TIP3    H111383   3.042   3.000   0.264
 3814TIP3    H211384   3.045   2.956   0.119
 3815TIP3   OH211385   7.052   3.065   4.285
 3815TIP3    H111386   7.105   3.140   4.313
 3815TIP3    H211387   7.111   3.013   4.230
 3816TIP3   OH211388   7.979   5.615   4.958
 3816TIP3    H111389   8.003   5.522   4.967
 3816TIP3    H211390   7.895   5.614   4.911
 3817TIP3   OH211391   2.416   4.240   1.770
 3817TIP3    H111392   2.461   4.240   1.685
 3817TIP3    H211393   2.477   4.282   1.830
 3818TIP3   OH211394   5.052   5.822   6.418
 3818TIP3    H111395   5.058   5.770   6.499
 3818TIP3    H211396   5.143   5.840   6.395
 3819TIP3   OH211397   3.655   7.536   2.642
 3819TIP3    H111398   3.593   7.466   2.666
 3819TIP3    H211399   3.726   7.527   2.705
 3820TIP3   OH211400   0.128   6.113   3.944
 3820TIP3    H111401   0.133   6.018   3.953
 3820TIP3    H211402   0.036   6.132   3.925
 3821TIP3   OH211403   4.457   2.517   0.314
 3821TIP3    H111404   4.429   2.608   0.319
 3821TIP3    H211405   4.552   2.521   0.318
 3822TIP3   OH211406   5.727   6.698   3.060
 3822TIP3    H111407   5.818   6.684   3.034
 3822TIP3    H211408   5.676   6.641   3.002
 3823TIP3   OH211409   6.461   1.884   4.128
 3823TIP3    H111410   6.374   1.913   4.103
 3823TIP3    H211411   6.513   1.964   4.131
 3824TIP3   OH211412   7.252   2.371   1.343
 3824TIP3    H111413   7.308   2.293   1.341
 3824TIP3    H211414   7.209   2.371   1.258
 3825TIP3   OH211415   6.742   4.089   5.135
 3825TIP3    H111416   6.826   4.098   5.178
 3825TIP3    H211417   6.681   4.138   5.190
 3826TIP3   OH211418   2.110   4.271   6.827
 3826TIP3    H111419   2.155   4.226   6.898
 3826TIP3    H211420   2.081   4.200   6.768
 3827TIP3   OH211421   8.357   6.547   1.828
 3827TIP3    H111422   8.330   6.469   1.780
 3827TIP3    H211423   8.395   6.604   1.761
 3828TIP3   OH211424   6.668   1.084   2.451
 3828TIP3    H111425   6.586   1.035   2.447
 3828TIP3    H211426   6.726   1.041   2.389
 3829TIP3   OH211427   8.105   6.632   5.234
 3829TIP3    H111428   8.123   6.675   5.151
 3829TIP3    H211429   8.191   6.601   5.264
 3830TIP3   OH211430   3.864   1.823   0.252
 3830TIP3    H111431   3.809   1.847   0.177
 3830TIP3    H211432   3.952   1.812   0.215
 3831TIP3   OH211433   0.607   3.960   2.353
 3831TIP3    H111434   0.618   3.866   2.370
 3831TIP3    H211435   0.599   4.000   2.440
 3832TIP3   OH211436   6.073   7.381   6.099
 3832TIP3    H111437   6.012   7.354   6.030
 3832TIP3    H211438   6.118   7.457   6.061
 3833TIP3   OH211439   0.814   6.614   4.103
 3833TIP3    H111440   0.819   6.525   4.067
 3833TIP3    H211441   0.872   6.612   4.179
 3834TIP3   OH211442   7.038   6.366   4.151
 3834TIP3    H111443   7.066   6.380   4.242
 3834TIP3    H211444   6.949   6.331   4.159
 3835TIP3   OH211445   3.472   4.297   0.345
 3835TIP3    H111446   3.454   4.252   0.428
 3835TIP3    H211447   3.479   4.389   0.370
 3836TIP3   OH211448   0.554   4.961   5.711
 3836TIP3    H111449   0.623   4.895   5.708
 3836TIP3    H211450   0.570   5.017   5.635
 3837TIP3   OH211451   1.654   7.729   1.868
 3837TIP3    H111452   1.728   7.673   1.893
 3837TIP3    H211453   1.628   7.699   1.781
 3838TIP3   OH211454   4.486   1.764   6.729
 3838TIP3    H111455   4.464   1.840   6.783
 3838TIP3    H211456   4.402   1.733   6.696
 3839TIP3   OH211457   7.740   1.131   4.490
 3839TIP3    H111458   7.685   1.198   4.448
 3839TIP3    H211459   7.829   1.167   4.485
 3840TIP3   OH211460   5.697   1.473   4.587
 3840TIP3    H111461   5.684   1.564   4.562
 3840TIP3    H211462   5.757   1.477   4.661
 3841TIP3   OH211463   7.610   4.025   2.607
 3841TIP3    H111464   7.690   4.059   2.648
 3841TIP3    H211465   7.552   4.005   2.680
 3842TIP3   OH211466   8.146   4.274   2.621
 3842TIP3    H111467   8.208   4.342   2.596
 3842TIP3    H211468   8.068   4.322   2.650
 3843TIP3   OH211469   7.926   1.453   0.418
 3843TIP3    H111470   7.872   1.434   0.494
 3843TIP3    H211471   7.870   1.434   0.343
 3844TIP3   OH211472   0.322   7.645   2.751
 3844TIP3    H111473   0.233   7.622   2.777
 3844TIP3    H211474   0.376   7.620   2.826
 3845TIP3   OH211475   7.239   1.901   3.153
 3845TIP3    H111476   7.201   1.814   3.168
 3845TIP3    H211477   7.232   1.945   3.237
 3846TIP3   OH211478   3.898   1.301   6.381
 3846TIP3    H111479   3.861   1.229   6.330
 3846TIP3    H211480   3.988   1.274   6.399
 3847TIP3   OH211481   6.927   5.584   2.987
 3847TIP3    H111482   6.856   5.540   3.034
 3847TIP3    H211483   6.892   5.670   2.964
 3848TIP3   OH211484   5.355   0.691   3.897
 3848TIP3    H111485   5.337   0.730   3.812
 3848TIP3    H211486   5.294   0.618   3.905
 3849TIP3   OH211487   0.177   0.166   2.603
 3849TIP3    H111488   0.210   0.185   2.690
 3849TIP3    H211489   0.171   0.070   2.600
 3850TIP3   OH211490   4.127   4.195   4.831
 3850TIP3    H111491   4.139   4.109   4.792
 3850TIP3    H211492   4.153   4.256   4.762
 3851TIP3   OH211493   6.498   2.052   1.834
 3851TIP3    H111494   6.587   2.030   1.806
 3851TIP3    H211495   6.475   1.982   1.895
 3852TIP3   OH211496   3.125   4.458   6.019
 3852TIP3    H111497   3.126   4.485   5.927
 3852TIP3    H211498   3.041   4.413   6.030
 3853TIP3   OH211499   8.065   1.980   6.024
 3853TIP3    H111500   8.060   1.887   6.003
 3853TIP3    H211501   8.023   2.024   5.951
 3854TIP3   OH211502   6.448   7.860   1.209
 3854TIP3    H111503   6.423   7.773   1.178
 3854TIP3    H211504   6.386   7.919   1.167
 3855TIP3   OH211505   4.447   4.283   1.253
 3855TIP3    H111506   4.364   4.269   1.299
 3855TIP3    H211507   4.514   4.267   1.319
 3856TIP3   OH211508   5.945   3.870   3.737
 3856TIP3    H111509   5.920   3.911   3.655
 3856TIP3    H211510   5.945   3.776   3.718
 3857TIP3   OH211511   0.332   7.524   3.112
 3857TIP3    H111512   0.392   7.590   3.078
 3857TIP3    H211513   0.247   7.546   3.073
 3858TIP3   OH211514   7.504   4.698   4.531
 3858TIP3    H111515   7.555   4.686   4.451
 3858TIP3    H211516   7.512   4.791   4.551
 3859TIP3   OH211517   8.151   3.741   5.839
 3859TIP3    H111518   8.086   3.676   5.864
 3859TIP3    H211519   8.227   3.690   5.813
 3860TIP3   OH211520   2.972   7.865   3.890
 3860TIP3    H111521   2.902   7.859   3.825
 3860TIP3    H211522   2.943   7.807   3.961
 3861TIP3   OH211523   0.372   6.255   3.399
 3861TIP3    H111524   0.370   6.297   3.313
 3861TIP3    H211525   0.282   6.262   3.430
 3862TIP3   OH211526   7.859   4.594   0.400
 3862TIP3    H111527   7.827   4.650   0.329
 3862TIP3    H211528   7.951   4.619   0.412
 3863TIP3   OH211529   1.648   5.482   2.653
 3863TIP3    H111530   1.619   5.398   2.618
 3863TIP3    H211531   1.709   5.459   2.723
 3864TIP3   OH211532   4.827   3.741   1.147
 3864TIP3    H111533   4.849   3.823   1.102
 3864TIP3    H211534   4.910   3.710   1.182
 3865TIP3   OH211535   7.032   5.986   1.626
 3865TIP3    H111536   6.952   5.940   1.651
 3865TIP3    H211537   7.016   6.077   1.653
 3866TIP3   OH211538   3.451   1.356   5.003
 3866TIP3    H111539   3.392   1.329   4.933
 3866TIP3    H211540   3.533   1.311   4.984
 3867TIP3   OH211541   7.116   5.032   0.656
 3867TIP3    H111542   7.128   5.059   0.565
 3867TIP3    H211543   7.106   4.936   0.652
 3868TIP3   OH211544   5.651   3.046   6.156
 3868TIP3    H111545   5.592   3.121   6.143
 3868TIP3    H211546   5.704   3.044   6.076
 3869TIP3   OH211547   7.214   5.856   4.157
 3869TIP3    H111548   7.152   5.785   4.175
 3869TIP3    H211549   7.204   5.874   4.063
 3870TIP3   OH211550   6.003   4.097   5.819
 3870TIP3    H111551   6.064   4.170   5.803
 3870TIP3    H211552   5.933   4.135   5.872
 3871TIP3   OH211553   0.042   4.169   6.777
 3871TIP3    H111554  -0.046   4.132   6.773
 3871TIP3    H211555   0.045   4.231   6.704
 3872TIP3   OH211556   8.140   4.687   5.580
 3872TIP3    H111557   8.092   4.703   5.661
 3872TIP3    H211558   8.072   4.660   5.518
 3873TIP3   OH211559   1.528   1.292   5.734
 3873TIP3    H111560   1.576   1.234   5.793
 3873TIP3    H211561   1.595   1.332   5.680
 3874TIP3   OH211562   0.720   4.634   3.079
 3874TIP3    H111563   0.719   4.716   3.030
 3874TIP3    H211564   0.742   4.659   3.169
 3875TIP3   OH211565   3.746   5.921   1.687
 3875TIP3    H111566   3.720   6.002   1.643
 3875TIP3    H211567   3.822   5.890   1.637
 3876TIP3   OH211568   1.236   6.872   5.622
 3876TIP3    H111569   1.303   6.939   5.638
 3876TIP3    H211570   1.183   6.872   5.702
 3877TIP3   OH211571   7.092   3.209   2.403
 3877TIP3    H111572   7.175   3.228   2.360
 3877TIP3    H211573   7.110   3.215   2.497
 3878TIP3   OH211574   6.255   5.947   6.396
 3878TIP3    H111575   6.228   5.999   6.472
 3878TIP3    H211576   6.332   5.992   6.362
 3879TIP3   OH211577   2.962   2.133   1.271
 3879TIP3    H111578   2.934   2.200   1.209
 3879TIP3    H211579   3.021   2.077   1.220
 3880TIP3   OH211580   5.531   7.569   0.766
 3880TIP3    H111581   5.481   7.539   0.689
 3880TIP3    H211582   5.589   7.637   0.731
 3881TIP3   OH211583   1.943   4.023   5.903
 3881TIP3    H111584   1.967   4.088   5.969
 3881TIP3    H211585   1.999   4.043   5.828
 3882TIP3   OH211586   3.452   3.561   2.761
 3882TIP3    H111587   3.480   3.625   2.696
 3882TIP3    H211588   3.442   3.480   2.711
 3883TIP3   OH211589   0.682   1.759   4.754
 3883TIP3    H111590   0.761   1.805   4.780
 3883TIP3    H211591   0.713   1.675   4.719
 3884TIP3   OH211592   8.281   7.369   0.446
 3884TIP3    H111593   8.245   7.457   0.444
 3884TIP3    H211594   8.266   7.339   0.536
 3885TIP3   OH211595   4.917   3.796   4.862
 3885TIP3    H111596   4.994   3.849   4.883
 3885TIP3    H211597   4.858   3.809   4.936
 3886TIP3   OH211598   0.010   7.424   1.051
 3886TIP3    H111599  -0.042   7.354   1.013
 3886TIP3    H211600   0.011   7.493   0.984
 3887TIP3   OH211601   6.869   4.889   1.972
 3887TIP3    H111602   6.807   4.841   1.918
 3887TIP3    H211603   6.818   4.922   2.046
 3888TIP3   OH211604   3.388   5.616   4.792
 3888TIP3    H111605   3.327   5.581   4.728
 3888TIP3    H211606   3.338   5.622   4.873
 3889TIP3   OH211607   2.429   4.614   5.148
 3889TIP3    H111608   2.484   4.623   5.070
 3889TIP3    H211609   2.415   4.519   5.156
 3890TIP3   OH211610   6.201   1.997   5.719
 3890TIP3    H111611   6.285   2.042   5.706
 3890TIP3    H211612   6.195   1.985   5.814
 3891TIP3   OH211613   1.611   7.164   3.211
 3891TIP3    H111614   1.548   7.106   3.169
 3891TIP3    H211615   1.637   7.117   3.291
 3892TIP3   OH211616   5.798   2.430   6.408
 3892TIP3    H111617   5.730   2.465   6.350
 3892TIP3    H211618   5.752   2.410   6.489
 3893TIP3   OH211619   4.701   0.040   1.290
 3893TIP3    H111620   4.729   0.069   1.204
 3893TIP3    H211621   4.634  -0.026   1.272
 3894TIP3   OH211622   8.371   6.647   5.629
 3894TIP3    H111623   8.396   6.642   5.721
 3894TIP3    H211624   8.318   6.568   5.614
 3895TIP3   OH211625   1.532   2.623   3.697
 3895TIP3    H111626   1.489   2.557   3.752
 3895TIP3    H211627   1.614   2.641   3.742
 3896TIP3   OH211628   2.936   1.095   1.353
 3896TIP3    H111629   2.916   1.002   1.350
 3896TIP3    H211630   2.921   1.120   1.444
 3897TIP3   OH211631   6.381   0.010   4.103
 3897TIP3    H111632   6.377  -0.039   4.185
 3897TIP3    H211633   6.420   0.094   4.127
 3898TIP3   OH211634   6.867   1.246   6.103
 3898TIP3    H111635   6.933   1.177   6.093
 3898TIP3    H211636   6.785   1.198   6.118
 3899TIP3   OH211637   2.854   1.379   0.729
 3899TIP3    H111638   2.843   1.449   0.793
 3899TIP3    H211639   2.836   1.421   0.645
 3900TIP3   OH211640   3.309   0.391   3.324
 3900TIP3    H111641   3.349   0.306   3.303
 3900TIP3    H211642   3.312   0.440   3.242
 3901TIP3   OH211643   5.585   1.650   2.984
 3901TIP3    H111644   5.674   1.656   3.018
 3901TIP3    H211645   5.531   1.639   3.062
 3902TIP3   OH211646   6.263   1.476   4.273
 3902TIP3    H111647   6.264   1.501   4.181
 3902TIP3    H211648   6.351   1.443   4.291
 3903TIP3   OH211649   6.817   1.827   5.333
 3903TIP3    H111650   6.793   1.796   5.420
 3903TIP3    H211651   6.828   1.747   5.281
 3904TIP3   OH211652   1.527   7.502   6.137
 3904TIP3    H111653   1.517   7.415   6.097
 3904TIP3    H211654   1.543   7.484   6.229
 3905TIP3   OH211655   0.907   0.385   4.677
 3905TIP3    H111656   0.947   0.369   4.591
 3905TIP3    H211657   0.899   0.299   4.717
 3906TIP3   OH211658   6.723   7.619   6.472
 3906TIP3    H111659   6.772   7.670   6.408
 3906TIP3    H211660   6.693   7.542   6.424
 3907TIP3   OH211661   8.117   5.824   3.041
 3907TIP3    H111662   8.177   5.853   3.109
 3907TIP3    H211663   8.091   5.905   2.996
 3908TIP3   OH211664   6.374   2.545   1.719
 3908TIP3    H111665   6.370   2.559   1.814
 3908TIP3    H211666   6.387   2.450   1.709
 3909TIP3   OH211667   0.571   0.808   5.262
 3909TIP3    H111668   0.639   0.849   5.315
 3909TIP3    H211669   0.490   0.820   5.312
 3910TIP3   OH211670   3.556   7.118   0.843
 3910TIP3    H111671   3.469   7.105   0.807
 3910TIP3    H211672   3.591   7.029   0.852
 3911TIP3   OH211673   0.983   2.890   1.901
 3911TIP3    H111674   0.950   2.813   1.947
 3911TIP3    H211675   0.907   2.921   1.851
 3912TIP3   OH211676   3.549   7.671   3.918
 3912TIP3    H111677   3.527   7.733   3.988
 3912TIP3    H211678   3.488   7.598   3.931
 3913TIP3   OH211679   2.763   4.245   1.714
 3913TIP3    H111680   2.716   4.250   1.631
 3913TIP3    H211681   2.705   4.289   1.777
 3914TIP3   OH211682   3.536   4.506   4.221
 3914TIP3    H111683   3.566   4.429   4.173
 3914TIP3    H211684   3.598   4.513   4.295
 3915TIP3   OH211685   0.608   3.150   3.025
 3915TIP3    H111686   0.524   3.146   3.069
 3915TIP3    H211687   0.611   3.238   2.987
 3916TIP3   OH211688   6.513   7.905   5.338
 3916TIP3    H111689   6.509   7.899   5.243
 3916TIP3    H211690   6.431   7.948   5.363
 3917TIP3   OH211691   4.851   5.547   0.129
 3917TIP3    H111692   4.928   5.521   0.079
 3917TIP3    H211693   4.781   5.554   0.064
 3918TIP3   OH211694   4.571   7.770   3.629
 3918TIP3    H111695   4.619   7.761   3.712
 3918TIP3    H211696   4.634   7.742   3.562
 3919TIP3   OH211697   7.619   1.456   3.050
 3919TIP3    H111698   7.640   1.474   3.141
 3919TIP3    H211699   7.548   1.392   3.053
 3920TIP3   OH211700   0.307   0.833   0.144
 3920TIP3    H111701   0.294   0.738   0.151
 3920TIP3    H211702   0.399   0.846   0.168
 3921TIP3   OH211703   2.866   6.888   3.615
 3921TIP3    H111704   2.829   6.902   3.701
 3921TIP3    H211705   2.799   6.917   3.554
 3922TIP3   OH211706   4.359   0.204   2.972
 3922TIP3    H111707   4.346   0.298   2.982
 3922TIP3    H211708   4.430   0.183   3.033
 3923TIP3   OH211709   6.182   6.040   5.566
 3923TIP3    H111710   6.099   5.996   5.547
 3923TIP3    H211711   6.245   5.996   5.509
 3924TIP3   OH211712   0.426   0.800   4.558
 3924TIP3    H111713   0.451   0.890   4.579
 3924TIP3    H211714   0.495   0.746   4.599
 3925TIP3   OH211715   2.066   3.629   3.897
 3925TIP3    H111716   2.135   3.564   3.893
 3925TIP3    H211717   2.058   3.651   3.990
 3926TIP3   OH211718   4.779   1.473   4.431
 3926TIP3    H111719   4.786   1.379   4.445
 3926TIP3    H211720   4.774   1.483   4.336
 3927TIP3   OH211721   6.677   2.702   1.398
 3927TIP3    H111722   6.768   2.676   1.412
 3927TIP3    H211723   6.680   2.762   1.323
 3928TIP3   OH211724   3.960   4.490   4.613
 3928TIP3    H111725   3.980   4.408   4.567
 3928TIP3    H211726   3.964   4.467   4.706
 3929TIP3   OH211727   4.805   4.916   4.597
 3929TIP3    H111728   4.886   4.867   4.580
 3929TIP3    H211729   4.777   4.887   4.684
 3930TIP3   OH211730   0.645   4.743   6.053
 3930TIP3    H111731   0.677   4.658   6.025
 3930TIP3    H211732   0.558   4.750   6.014
 3931TIP3   OH211733   2.224   2.243   5.500
 3931TIP3    H111734   2.284   2.178   5.536
 3931TIP3    H211735   2.166   2.265   5.573
 3932TIP3   OH211736   4.982   1.079   2.661
 3932TIP3    H111737   4.901   1.032   2.680
 3932TIP3    H211738   4.981   1.153   2.722
 3933TIP3   OH211739   6.724   6.132   5.414
 3933TIP3    H111740   6.661   6.187   5.367
 3933TIP3    H211741   6.706   6.043   5.384
 3934TIP3   OH211742   6.280   0.415   6.382
 3934TIP3    H111743   6.259   0.430   6.290
 3934TIP3    H211744   6.195   0.402   6.425
 3935TIP3   OH211745   2.372   5.117   5.723
 3935TIP3    H111746   2.302   5.175   5.693
 3935TIP3    H211747   2.431   5.174   5.774
 3936TIP3   OH211748   8.111   7.881   5.781
 3936TIP3    H111749   8.017   7.886   5.764
 3936TIP3    H211750   8.150   7.933   5.711
 3937TIP3   OH211751   2.000   1.817   2.325
 3937TIP3    H111752   2.073   1.782   2.376
 3937TIP3    H211753   1.964   1.887   2.379
 3938TIP3   OH211754   4.682   0.628   0.270
 3938TIP3    H111755   4.602   0.641   0.219
 3938TIP3    H211756   4.653   0.629   0.361
 3939TIP3   OH211757   5.659   1.884   0.029
 3939TIP3    H111758   5.642   1.957   0.088
 3939TIP3    H211759   5.572   1.858  -0.003
 3940TIP3   OH211760   7.104   0.974   3.372
 3940TIP3    H111761   7.153   1.018   3.441
 3940TIP3    H211762   7.047   0.913   3.419
 3941TIP3   OH211763   6.995   1.326   6.552
 3941TIP3    H111764   7.008   1.288   6.639
 3941TIP3    H211765   6.902   1.312   6.533
 3942TIP3   OH211766   3.561   7.323   2.398
 3942TIP3    H111767   3.558   7.388   2.469
 3942TIP3    H211768   3.469   7.302   2.381
 3943TIP3   OH211769   1.090   3.561   1.906
 3943TIP3    H111770   1.068   3.654   1.899
 3943TIP3    H211771   1.126   3.538   1.820
 3944TIP3   OH211772   7.954   0.898   3.126
 3944TIP3    H111773   7.981   0.969   3.069
 3944TIP3    H211774   7.934   0.825   3.067
 3945TIP3   OH211775   6.780   7.686   2.578
 3945TIP3    H111776   6.743   7.773   2.563
 3945TIP3    H211777   6.707   7.626   2.561
 3946TIP3   OH211778   2.502   3.615   6.729
 3946TIP3    H111779   2.568   3.641   6.794
 3946TIP3    H211780   2.465   3.535   6.764
 3947TIP3   OH211781   5.015   4.141   2.144
 3947TIP3    H111782   4.944   4.089   2.183
 3947TIP3    H211783   5.068   4.076   2.097
 3948TIP3   OH211784   2.381   2.996   0.499
 3948TIP3    H111785   2.306   2.942   0.524
 3948TIP3    H211786   2.454   2.934   0.490
 3949TIP3   OH211787   7.833   0.766   1.735
 3949TIP3    H111788   7.810   0.680   1.701
 3949TIP3    H211789   7.786   0.827   1.680
 3950TIP3   OH211790   6.416   2.015   1.325
 3950TIP3    H111791   6.372   2.005   1.241
 3950TIP3    H211792   6.345   2.015   1.390
 3951TIP3   OH211793   5.576   3.839   2.458
 3951TIP3    H111794   5.655   3.863   2.410
 3951TIP3    H211795   5.552   3.753   2.423
 3952TIP3   OH211796   3.775   7.227   6.393
 3952TIP3    H111797   3.791   7.277   6.313
 3952TIP3    H211798   3.692   7.182   6.376
 3953TIP3   OH211799   3.699   2.380   4.467
 3953TIP3    H111800   3.648   2.306   4.501
 3953TIP3    H211801   3.785   2.343   4.447
 3954TIP3   OH211802   1.225   3.943   5.786
 3954TIP3    H111803   1.207   4.005   5.715
 3954TIP3    H211804   1.300   3.980   5.831
 3955TIP3   OH211805   3.154   6.463   5.226
 3955TIP3    H111806   3.169   6.466   5.132
 3955TIP3    H211807   3.151   6.370   5.247
 3956TIP3   OH211808   6.773   6.706   0.781
 3956TIP3    H111809   6.764   6.649   0.858
 3956TIP3    H211810   6.715   6.780   0.799
 3957TIP3   OH211811   0.900   5.152   4.441
 3957TIP3    H111812   0.896   5.246   4.455
 3957TIP3    H211813   0.993   5.130   4.449
 3958TIP3   OH211814   0.590   0.075   5.959
 3958TIP3    H111815   0.664   0.017   5.941
 3958TIP3    H211816   0.517   0.015   5.976
 3959TIP3   OH211817   1.396   7.152   1.755
 3959TIP3    H111818   1.321   7.207   1.731
 3959TIP3    H211819   1.357   7.074   1.792
 3960TIP3   OH211820   7.358   1.744   0.003
 3960TIP3    H111821   7.263   1.753   0.005
 3960TIP3    H211822   7.388   1.818  -0.051
 3961TIP3   OH211823   0.881   6.272   6.240
 3961TIP3    H111824   0.800   6.303   6.199
 3961TIP3    H211825   0.888   6.323   6.321
 3962TIP3   OH211826   4.725   6.850   0.962
 3962TIP3    H111827   4.661   6.917   0.935
 3962TIP3    H211828   4.805   6.872   0.914
 3963TIP3   OH211829   0.390   5.047   4.642
 3963TIP3    H111830   0.330   5.121   4.646
 3963TIP3    H211831   0.350   4.980   4.697
 3964TIP3   OH211832   8.066   7.219   0.059
 3964TIP3    H111833   8.143   7.215   0.116
 3964TIP3    H211834   7.997   7.176   0.110
 3965TIP3   OH211835   6.208   0.088   4.740
 3965TIP3    H111836   6.184   0.112   4.651
 3965TIP3    H211837   6.255   0.165   4.773
 3966TIP3   OH211838   8.366   3.290   2.666
 3966TIP3    H111839   8.344   3.203   2.631
 3966TIP3    H211840   8.353   3.280   2.761
 3967TIP3   OH211841   1.095   7.144   4.788
 3967TIP3    H111842   1.059   7.113   4.872
 3967TIP3    H211843   1.188   7.119   4.792
 3968TIP3   OH211844   2.710   7.153   0.317
 3968TIP3    H111845   2.700   7.063   0.284
 3968TIP3    H211846   2.755   7.142   0.401
 3969TIP3   OH211847   8.349   5.953   3.454
 3969TIP3    H111848   8.427   5.994   3.491
 3969TIP3    H211849   8.383   5.880   3.402
 3970TIP3   OH211850   3.288   6.728   3.984
 3970TIP3    H111851   3.342   6.697   4.056
 3970TIP3    H211852   3.301   6.823   3.983
 3971TIP3   OH211853   7.270   5.441   4.765
 3971TIP3    H111854   7.229   5.396   4.838
 3971TIP3    H211855   7.363   5.421   4.772
 3972TIP3   OH211856   4.035   2.678   1.559
 3972TIP3    H111857   4.061   2.589   1.583
 3972TIP3    H211858   4.047   2.728   1.639
 3973TIP3   OH211859   3.583   5.146   4.641
 3973TIP3    H111860   3.516   5.135   4.708
 3973TIP3    H211861   3.599   5.240   4.639
 3974TIP3   OH211862   2.990   6.760   3.392
 3974TIP3    H111863   2.930   6.758   3.466
 3974TIP3    H211864   2.939   6.794   3.320
 3975TIP3   OH211865   4.777   3.345   3.837
 3975TIP3    H111866   4.811   3.324   3.924
 3975TIP3    H211867   4.804   3.271   3.782
 3976TIP3   OH211868   5.233   4.178   5.909
 3976TIP3    H111869   5.176   4.254   5.900
 3976TIP3    H211870   5.265   4.182   5.999
 3977TIP3   OH211871   5.897   3.363   2.447
 3977TIP3    H111872   5.984   3.342   2.480
 3977TIP3    H211873   5.837   3.323   2.510
 3978TIP3   OH211874   2.371   0.559   5.390
 3978TIP3    H111875   2.411   0.525   5.311
 3978TIP3    H211876   2.440   0.614   5.429
 3979TIP3   OH211877   4.361   1.315   5.901
 3979TIP3    H111878   4.348   1.355   5.815
 3979TIP3    H211879   4.455   1.326   5.918
 3980TIP3   OH211880   1.144   3.688   5.827
 3980TIP3    H111881   1.183   3.775   5.819
 3980TIP3    H211882   1.084   3.696   5.901
 3981TIP3   OH211883   5.786   7.554   2.313
 3981TIP3    H111884   5.712   7.551   2.374
 3981TIP3    H211885   5.747   7.541   2.227
 3982TIP3   OH211886   2.713   0.826   1.642
 3982TIP3    H111887   2.774   0.863   1.706
 3982TIP3    H211888   2.733   0.732   1.642
 3983TIP3   OH211889   3.762   2.389   1.225
 3983TIP3    H111890   3.682   2.415   1.178
 3983TIP3    H211891   3.736   2.385   1.317
 3984TIP3   OH211892   7.806   7.618   2.029
 3984TIP3    H111893   7.744   7.690   2.016
 3984TIP3    H211894   7.869   7.628   1.958
 3985TIP3   OH211895   0.007   7.853   3.736
 3985TIP3    H111896  -0.073   7.809   3.763
 3985TIP3    H211897   0.010   7.933   3.790
 3986TIP3   OH211898   8.216   6.960   3.094
 3986TIP3    H111899   8.185   7.041   3.134
 3986TIP3    H211900   8.176   6.890   3.147
 3987TIP3   OH211901   7.826   5.581   6.040
 3987TIP3    H111902   7.905   5.575   5.986
 3987TIP3    H211903   7.754   5.580   5.977
 3988TIP3   OH211904   5.008   6.284   3.564
 3988TIP3    H111905   5.012   6.373   3.600
 3988TIP3    H211906   5.097   6.250   3.572
 3989TIP3   OH211907   2.473   6.906   2.713
 3989TIP3    H111908   2.419   6.832   2.742
 3989TIP3    H211909   2.510   6.878   2.629
 3990TIP3   OH211910   3.056   2.120   3.923
 3990TIP3    H111911   3.098   2.034   3.914
 3990TIP3    H211912   2.965   2.100   3.944
 3991TIP3   OH211913   3.342   4.079   2.776
 3991TIP3    H111914   3.329   4.034   2.860
 3991TIP3    H211915   3.437   4.084   2.765
 3992TIP3   OH211916   6.596   7.744   1.430
 3992TIP3    H111917   6.572   7.810   1.496
 3992TIP3    H211918   6.554   7.774   1.350
 3993TIP3   OH211919   5.404   7.254   3.160
 3993TIP3    H111920   5.452   7.171   3.167
 3993TIP3    H211921   5.326   7.241   3.213
 3994TIP3   OH211922   3.387   7.290   3.243
 3994TIP3    H111923   3.458   7.339   3.285
 3994TIP3    H211924   3.431   7.224   3.190
 3995TIP3   OH211925   1.740   0.519   1.270
 3995TIP3    H111926   1.694   0.485   1.194
 3995TIP3    H211927   1.800   0.449   1.296
 3996TIP3   OH211928   7.422   3.484   2.078
 3996TIP3    H111929   7.372   3.549   2.128
 3996TIP3    H211930   7.513   3.513   2.084
 3997TIP3   OH211931   1.842   3.185   5.339
 3997TIP3    H111932   1.928   3.215   5.310
 3997TIP3    H211933   1.824   3.107   5.288
 3998TIP3   OH211934   3.943   4.753   0.207
 3998TIP3    H111935   4.001   4.829   0.209
 3998TIP3    H211936   3.869   4.778   0.262
 3999TIP3   OH211937   6.646   2.129   4.124
 3999TIP3    H111938   6.736   2.103   4.104
 3999TIP3    H211939   6.653   2.183   4.203
 4000TIP3   OH211940   7.337   3.703   3.766
 4000TIP3    H111941   7.366   3.612   3.780
 4000TIP3    H211942   7.265   3.695   3.703
 4001TIP3   OH211943   1.474   1.912   4.798
 4001TIP3    H111944   1.517   1.925   4.882
 4001TIP3    H211945   1.395   1.863   4.819
 4002TIP3   OH211946   4.457   1.081   6.727
 4002TIP3    H111947   4.383   1.038   6.769
 4002TIP3    H211948   4.442   1.069   6.633
 4003TIP3   OH211949   2.127   3.502   4.671
 4003TIP3    H111950   2.062   3.435   4.689
 4003TIP3    H211951   2.202   3.455   4.636
 4004TIP3   OH211952   0.050   7.202   5.405
 4004TIP3    H111953   0.039   7.123   5.456
 4004TIP3    H211954  -0.037   7.241   5.400
 4005TIP3   OH211955   3.470   2.795   5.661
 4005TIP3    H111956   3.456   2.871   5.717
 4005TIP3    H211957   3.400   2.800   5.595
 4006TIP3   OH211958   2.163   5.953   0.168
 4006TIP3    H111959   2.077   5.989   0.188
 4006TIP3    H211960   2.145   5.868   0.127
 4007TIP3   OH211961   0.598   0.723   0.251
 4007TIP3    H111962   0.691   0.709   0.237
 4007TIP3    H211963   0.594   0.805   0.301
 4008TIP3   OH211964   0.866   1.252   3.855
 4008TIP3    H111965   0.772   1.239   3.865
 4008TIP3    H211966   0.906   1.177   3.901
 4009TIP3   OH211967   2.241   3.454   6.233
 4009TIP3    H111968   2.165   3.399   6.217
 4009TIP3    H211969   2.260   3.443   6.326
 4010TIP3   OH211970   4.018   3.394   2.660
 4010TIP3    H111971   3.931   3.354   2.670
 4010TIP3    H211972   4.008   3.453   2.585
 4011TIP3   OH211973   1.263   0.398   4.141
 4011TIP3    H111974   1.189   0.458   4.134
 4011TIP3    H211975   1.326   0.444   4.197
 4012TIP3   OH211976   6.040   1.144   4.887
 4012TIP3    H111977   6.003   1.099   4.811
 4012TIP3    H211978   6.029   1.082   4.959
 4013TIP3   OH211979   2.539   3.261   1.466
 4013TIP3    H111980   2.519   3.172   1.437
 4013TIP3    H211981   2.483   3.318   1.412
 4014TIP3   OH211982   6.943   4.701   5.876
 4014TIP3    H111983   6.861   4.713   5.924
 4014TIP3    H211984   6.917   4.698   5.784
 4015TIP3   OH211985   2.754   1.661   4.758
 4015TIP3    H111986   2.697   1.664   4.682
 4015TIP3    H211987   2.720   1.588   4.810
 4016TIP3   OH211988   6.885   7.863   2.070
 4016TIP3    H111989   6.856   7.884   2.159
 4016TIP3    H211990   6.837   7.782   2.048
 4017TIP3   OH211991   5.098   0.053   5.800
 4017TIP3    H111992   5.007   0.030   5.816
 4017TIP3    H211993   5.098   0.148   5.790
 4018TIP3   OH211994   1.122   3.464   1.387
 4018TIP3    H111995   1.084   3.410   1.318
 4018TIP3    H211996   1.216   3.448   1.382
 4019TIP3   OH211997   0.480   5.701   4.098
 4019TIP3    H111998   0.511   5.653   4.175
 4019TIP3    H211999   0.534   5.668   4.026
 4020TIP3   OH212000   3.792   3.990   2.444
 4020TIP3    H112001   3.707   4.020   2.475
 4020TIP3    H212002   3.823   4.058   2.385
 4021TIP3   OH212003   4.330   0.410   6.799
 4021TIP3    H112004   4.343   0.326   6.756
 4021TIP3    H212005   4.370   0.474   6.740
 4022TIP3   OH212006   0.466   4.476   4.001
 4022TIP3    H112007   0.425   4.393   3.980
 4022TIP3    H212008   0.546   4.477   3.948
 4023TIP3   OH212009   0.241   0.819   3.267
 4023TIP3    H112010   0.201   0.772   3.339
 4023TIP3    H212011   0.331   0.837   3.297
 4024TIP3   OH212012   2.812   2.201   5.160
 4024TIP3    H112013   2.760   2.243   5.091
 4024TIP3    H212014   2.828   2.113   5.128
 4025TIP3   OH212015   5.609   2.829   0.443
 4025TIP3    H112016   5.603   2.791   0.355
 4025TIP3    H212017   5.577   2.759   0.501
 4026TIP3   OH212018   5.384   1.956   3.886
 4026TIP3    H112019   5.298   1.923   3.860
 4026TIP3    H212020   5.435   1.958   3.805
 4027TIP3   OH212021   4.781   1.648   1.749
 4027TIP3    H112022   4.692   1.635   1.715
 4027TIP3    H212023   4.777   1.617   1.839
 4028TIP3   OH212024   1.141   6.223   5.103
 4028TIP3    H112025   1.213   6.174   5.143
 4028TIP3    H212026   1.150   6.312   5.139
 4029TIP3   OH212027   1.847   5.813   1.718
 4029TIP3    H112028   1.911   5.844   1.782
 4029TIP3    H212029   1.877   5.850   1.635
 4030TIP3   OH212030   3.590   0.848   2.776
 4030TIP3    H112031   3.680   0.871   2.753
 4030TIP3    H212032   3.542   0.931   2.771
 4031TIP3   OH212033   2.521   0.004   4.997
 4031TIP3    H112034   2.508   0.076   5.059
 4031TIP3    H212035   2.434  -0.011   4.960
 4032TIP3   OH212036   4.958   7.513   1.688
 4032TIP3    H112037   4.896   7.443   1.712
 4032TIP3    H212038   4.907   7.573   1.633
 4033TIP3   OH212039   7.981   3.682   3.902
 4033TIP3    H112040   8.033   3.739   3.959
 4033TIP3    H212041   7.892   3.717   3.909
 4034TIP3   OH212042   7.146   5.079   1.495
 4034TIP3    H112043   7.075   5.019   1.520
 4034TIP3    H212044   7.198   5.088   1.574
 4035TIP3   OH212045   8.074   5.362   1.946
 4035TIP3    H112046   8.153   5.403   1.979
 4035TIP3    H212047   8.104   5.280   1.907
 4036TIP3   OH212048   5.116   4.458   5.849
 4036TIP3    H112049   5.179   4.510   5.800
 4036TIP3    H212050   5.131   4.480   5.941
 4037TIP3   OH212051   4.192   0.948   3.514
 4037TIP3    H112052   4.193   0.864   3.467
 4037TIP3    H212053   4.170   0.924   3.604
 4038TIP3   OH212054   2.768   4.093   5.888
 4038TIP3    H112055   2.844   4.038   5.907
 4038TIP3    H212056   2.740   4.067   5.800
 4039TIP3   OH212057   6.438   0.318   4.118
 4039TIP3    H112058   6.526   0.354   4.101
 4039TIP3    H212059   6.396   0.317   4.032
 4040TIP3   OH212060   7.980   1.316   4.388
 4040TIP3    H112061   7.930   1.285   4.313
 4040TIP3    H212062   7.988   1.410   4.376
 4041TIP3   OH212063   1.799   6.966   3.068
 4041TIP3    H112064   1.731   6.960   3.000
 4041TIP3    H212065   1.751   6.961   3.150
 4042TIP3   OH212066   5.706   2.145   3.451
 4042TIP3    H112067   5.695   2.161   3.357
 4042TIP3    H212068   5.725   2.051   3.457
 4043TIP3   OH212069   3.762   6.792   4.980
 4043TIP3    H112070   3.764   6.846   4.901
 4043TIP3    H212071   3.761   6.855   5.052
 4044TIP3   OH212072   6.410   5.642   0.039
 4044TIP3    H112073   6.468   5.659  -0.035
 4044TIP3    H212074   6.422   5.717   0.097
 4045TIP3   OH212075   6.932   1.480   4.162
 4045TIP3    H112076   6.962   1.392   4.187
 4045TIP3    H212077   7.013   1.529   4.144
 4046TIP3   OH212078   2.478   2.663   0.840
 4046TIP3    H112079   2.478   2.596   0.772
 4046TIP3    H212080   2.410   2.634   0.901
 4047TIP3   OH212081   6.035   3.395   0.709
 4047TIP3    H112082   6.042   3.486   0.679
 4047TIP3    H212083   5.941   3.380   0.718
 4048TIP3   OH212084   3.085   0.415   0.449
 4048TIP3    H112085   3.128   0.333   0.425
 4048TIP3    H212086   2.991   0.395   0.446
 4049TIP3   OH212087   4.170   0.657   3.520
 4049TIP3    H112088   4.194   0.635   3.430
 4049TIP3    H212089   4.083   0.619   3.532
 4050TIP3   OH212090   6.545   1.695   5.622
 4050TIP3    H112091   6.569   1.787   5.635
 4050TIP3    H212092   6.629   1.650   5.612
 4051TIP3   OH212093   2.937   2.244   4.798
 4051TIP3    H112094   2.854   2.228   4.843
 4051TIP3    H212095   3.004   2.233   4.866
 4052TIP3   OH212096   4.020   7.660   6.134
 4052TIP3    H112097   4.041   7.656   6.040
 4052TIP3    H212098   4.011   7.568   6.160
 4053TIP3   OH212099   2.951   3.827   0.566
 4053TIP3    H112100   2.914   3.746   0.602
 4053TIP3    H212101   3.005   3.863   0.637
 4054TIP3   OH212102   8.106   6.632   6.011
 4054TIP3    H112103   8.198   6.616   5.992
 4054TIP3    H212104   8.097   6.727   6.010
 4055TIP3   OH212105   7.018   1.255   1.607
 4055TIP3    H112106   7.017   1.339   1.654
 4055TIP3    H212107   7.059   1.275   1.523
 4056TIP3   OH212108   6.831   2.078   2.446
 4056TIP3    H112109   6.806   1.988   2.465
 4056TIP3    H212110   6.801   2.093   2.356
 4057TIP3   OH212111   1.413   0.668   2.307
 4057TIP3    H112112   1.330   0.713   2.294
 4057TIP3    H212113   1.461   0.724   2.368
 4058TIP3   OH212114   6.298   2.059   4.543
 4058TIP3    H112115   6.266   2.113   4.616
 4058TIP3    H212116   6.388   2.089   4.529
 4059TIP3   OH212117   5.823   6.212   5.128
 4059TIP3    H112118   5.864   6.238   5.210
 4059TIP3    H212119   5.743   6.264   5.123
 4060TIP3   OH212120   4.360   3.513   5.073
 4060TIP3    H112121   4.438   3.514   5.018
 4060TIP3    H212122   4.315   3.595   5.053
 4061TIP3   OH212123   3.513   1.882   6.529
 4061TIP3    H112124   3.551   1.894   6.442
 4061TIP3    H212125   3.437   1.826   6.515
 4062TIP3   OH212126   3.625   3.506   3.502
 4062TIP3    H112127   3.562   3.575   3.480
 4062TIP3    H212128   3.687   3.506   3.429
 4063TIP3   OH212129   6.723   0.728   2.560
 4063TIP3    H112130   6.653   0.785   2.529
 4063TIP3    H212131   6.682   0.675   2.628
 4064TIP3   OH212132   1.734   0.251   3.959
 4064TIP3    H112133   1.727   0.158   3.938
 4064TIP3    H212134   1.649   0.274   3.996
 4065TIP3   OH212135   4.122   4.901   3.992
 4065TIP3    H112136   4.032   4.932   4.007
 4065TIP3    H212137   4.112   4.815   3.951
 4066TIP3   OH212138   1.368   6.032   4.407
 4066TIP3    H112139   1.298   6.009   4.468
 4066TIP3    H212140   1.433   6.077   4.460
 4067TIP3   OH212141   2.860   4.258   1.133
 4067TIP3    H112142   2.865   4.267   1.038
 4067TIP3    H212143   2.935   4.309   1.166
 4068TIP3   OH212144   8.075   5.569   5.936
 4068TIP3    H112145   8.156   5.609   5.967
 4068TIP3    H212146   8.102   5.485   5.898
 4069TIP3   OH212147   7.113   5.106   0.383
 4069TIP3    H112148   7.158   5.191   0.375
 4069TIP3    H212149   7.038   5.114   0.323
 4070TIP3   OH212150   0.274   1.596   5.080
 4070TIP3    H112151   0.244   1.647   5.156
 4070TIP3    H212152   0.356   1.639   5.054
 4071TIP3   OH212153   3.170   0.567   1.685
 4071TIP3    H112154   3.182   0.572   1.780
 4071TIP3    H212155   3.252   0.532   1.652
 4072TIP3   OH212156   5.760   1.883   3.359
 4072TIP3    H112157   5.718   1.800   3.338
 4072TIP3    H212158   5.811   1.865   3.438
 4073TIP3   OH212159   7.620   4.572   2.213
 4073TIP3    H112160   7.677   4.575   2.137
 4073TIP3    H212161   7.665   4.625   2.279
 4074TIP3   OH212162   5.263   0.750   3.025
 4074TIP3    H112163   5.218   0.807   2.962
 4074TIP3    H212164   5.340   0.718   2.979
 4075TIP3   OH212165   7.096   3.880   5.194
 4075TIP3    H112166   7.156   3.811   5.168
 4075TIP3    H212167   7.079   3.929   5.114
 4076TIP3   OH212168   0.453   0.566   1.564
 4076TIP3    H112169   0.522   0.512   1.526
 4076TIP3    H212170   0.393   0.584   1.491
 4077TIP3   OH212171   5.503   6.707   0.124
 4077TIP3    H112172   5.592   6.672   0.125
 4077TIP3    H212173   5.491   6.738   0.034
 4078TIP3   OH212174   4.310   1.895   3.990
 4078TIP3    H112175   4.238   1.866   4.046
 4078TIP3    H212176   4.286   1.984   3.964
 4079TIP3   OH212177   4.613   5.584   5.074
 4079TIP3    H112178   4.537   5.562   5.021
 4079TIP3    H212179   4.688   5.552   5.023
 4080TIP3   OH212180   3.025   1.490   0.317
 4080TIP3    H112181   2.960   1.485   0.247
 4080TIP3    H212182   2.988   1.550   0.381
 4081TIP3   OH212183   8.241   4.630   6.004
 4081TIP3    H112184   8.262   4.540   6.029
 4081TIP3    H212185   8.320   4.663   5.961
 4082TIP3   OH212186   0.609   2.865   1.036
 4082TIP3    H112187   0.574   2.928   0.974
 4082TIP3    H212188   0.651   2.798   0.981
 4083TIP3   OH212189   2.068   2.862   5.364
 4083TIP3    H112190   2.111   2.796   5.309
 4083TIP3    H212191   2.010   2.811   5.421
 4084TIP3   OH212192   6.164   2.614   0.071
 4084TIP3    H112193   6.121   2.600   0.155
 4084TIP3    H212194   6.193   2.527   0.043
 4085TIP3   OH212195   0.117   6.438   0.266
 4085TIP3    H112196   0.067   6.445   0.184
 4085TIP3    H212197   0.058   6.473   0.333
 4086TIP3   OH212198   3.628   6.541   2.293
 4086TIP3    H112199   3.612   6.612   2.230
 4086TIP3    H212200   3.638   6.587   2.377
 4087TIP3   OH212201   7.803   0.822   2.715
 4087TIP3    H112202   7.827   0.822   2.623
 4087TIP3    H212203   7.724   0.877   2.720
 4088TIP3   OH212204   4.220   4.803   2.039
 4088TIP3    H112205   4.268   4.858   1.976
 4088TIP3    H212206   4.276   4.803   2.117
 4089TIP3   OH212207   4.211   5.353   4.593
 4089TIP3    H112208   4.288   5.301   4.572
 4089TIP3    H212209   4.226   5.384   4.682
 4090TIP3   OH212210   6.844   0.638   1.756
 4090TIP3    H112211   6.923   0.602   1.716
 4090TIP3    H212212   6.851   0.733   1.742
 4091TIP3   OH212213   4.372   2.246   2.368
 4091TIP3    H112214   4.461   2.217   2.350
 4091TIP3    H212215   4.331   2.173   2.414
 4092TIP3   OH212216   1.066   3.747   2.193
 4092TIP3    H112217   1.092   3.670   2.244
 4092TIP3    H212218   1.148   3.792   2.175
 4093TIP3   OH212219   5.943   3.418   5.351
 4093TIP3    H112220   5.903   3.456   5.429
 4093TIP3    H212221   5.889   3.450   5.279
 4094TIP3   OH212222   4.199   6.208   5.531
 4094TIP3    H112223   4.292   6.186   5.538
 4094TIP3    H212224   4.164   6.144   5.468
 4095TIP3   OH212225   2.009   3.279   6.150
 4095TIP3    H112226   1.930   3.225   6.147
 4095TIP3    H212227   1.986   3.359   6.103
 4096TIP3   OH212228   8.387   5.112   1.585
 4096TIP3    H112229   8.388   5.161   1.503
 4096TIP3    H212230   8.428   5.028   1.564
 4097TIP3   OH212231   1.526   4.004   5.424
 4097TIP3    H112232   1.549   4.063   5.496
 4097TIP3    H212233   1.476   3.934   5.465
 4098TIP3   OH212234   4.889   6.039   3.499
 4098TIP3    H112235   4.923   6.128   3.498
 4098TIP3    H212236   4.856   6.025   3.587
 4099TIP3   OH212237   2.891   1.993   2.004
 4099TIP3    H112238   2.962   2.023   2.060
 4099TIP3    H212239   2.879   1.901   2.027
 4100TIP3   OH212240   1.688   6.342   0.237
 4100TIP3    H112241   1.725   6.277   0.296
 4100TIP3    H212242   1.740   6.334   0.157
 4101TIP3   OH212243   1.559   3.281   5.148
 4101TIP3    H112244   1.539   3.325   5.231
 4101TIP3    H212245   1.642   3.235   5.165
 4102TIP3   OH212246   6.747   3.404   1.931
 4102TIP3    H112247   6.692   3.390   2.009
 4102TIP3    H212248   6.834   3.374   1.958
 4103TIP3   OH212249   8.375   3.144   4.684
 4103TIP3    H112250   8.280   3.148   4.681
 4103TIP3    H212251   8.396   3.055   4.654
 4104TIP3   OH212252   7.334   6.452   2.292
 4104TIP3    H112253   7.248   6.494   2.293
 4104TIP3    H212254   7.338   6.403   2.374
 4105TIP3   OH212255   8.272   2.852   3.387
 4105TIP3    H112256   8.193   2.809   3.354
 4105TIP3    H212257   8.317   2.785   3.438
 4106TIP3   OH212258   0.688   2.194   3.878
 4106TIP3    H112259   0.733   2.124   3.830
 4106TIP3    H212260   0.703   2.273   3.826
 4107TIP3   OH212261   6.253   5.832   3.735
 4107TIP3    H112262   6.204   5.751   3.724
 4107TIP3    H212263   6.197   5.900   3.699
 4108TIP3   OH212264   1.251   3.260   0.324
 4108TIP3    H112265   1.191   3.299   0.388
 4108TIP3    H212266   1.333   3.251   0.371
 4109TIP3   OH212267   5.091   6.071   0.078
 4109TIP3    H112268   5.033   6.030   0.013
 4109TIP3    H212269   5.082   6.015   0.155
 4110TIP3   OH212270   2.018   4.908   4.929
 4110TIP3    H112271   2.074   4.830   4.921
 4110TIP3    H212272   1.970   4.911   4.846
 4111TIP3   OH212273   0.789   2.488   4.385
 4111TIP3    H112274   0.859   2.551   4.367
 4111TIP3    H212275   0.739   2.528   4.455
 4112TIP3   OH212276   1.209   0.541   0.408
 4112TIP3    H112277   1.302   0.548   0.384
 4112TIP3    H212278   1.170   0.622   0.376
 4113TIP3   OH212279   1.657   2.550   2.919
 4113TIP3    H112280   1.639   2.607   2.994
 4113TIP3    H212281   1.720   2.486   2.952
 4114TIP3   OH212282   3.428   2.292   4.904
 4114TIP3    H112283   3.430   2.271   4.998
 4114TIP3    H212284   3.379   2.374   4.899
 4115TIP3   OH212285   5.711   0.272   5.846
 4115TIP3    H112286   5.753   0.227   5.773
 4115TIP3    H212287   5.681   0.201   5.904
 4116TIP3   OH212288   5.951   4.554   0.383
 4116TIP3    H112289   5.908   4.499   0.317
 4116TIP3    H212290   6.043   4.529   0.379
 4117TIP3   OH212291   4.731   2.475   1.956
 4117TIP3    H112292   4.791   2.403   1.975
 4117TIP3    H212293   4.757   2.507   1.870
 4118TIP3   OH212294   6.838   0.944   2.237
 4118TIP3    H112295   6.930   0.921   2.252
 4118TIP3    H212296   6.839   1.000   2.160
 4119TIP3   OH212297   4.636   3.226   2.836
 4119TIP3    H112298   4.566   3.274   2.879
 4119TIP3    H212299   4.713   3.242   2.890
 4120TIP3   OH212300   2.153   0.254   3.022
 4120TIP3    H112301   2.198   0.169   3.019
 4120TIP3    H212302   2.222   0.317   3.043
 4121TIP3   OH212303   1.616   2.461   6.850
 4121TIP3    H112304   1.631   2.533   6.911
 4121TIP3    H212305   1.684   2.472   6.783
 4122TIP3   OH212306   5.979   6.716   2.958
 4122TIP3    H112307   5.927   6.715   2.877
 4122TIP3    H212308   5.991   6.809   2.977
 4123TIP3   OH212309   2.936   0.207   1.898
 4123TIP3    H112310   2.943   0.157   1.817
 4123TIP3    H212311   2.852   0.180   1.936
 4124TIP3   OH212312   0.796   6.776   2.194
 4124TIP3    H112313   0.741   6.826   2.254
 4124TIP3    H212314   0.867   6.742   2.248
 4125TIP3   OH212315   1.177   4.006   1.416
 4125TIP3    H112316   1.167   3.937   1.481
 4125TIP3    H212317   1.149   4.086   1.460
 4126TIP3   OH212318   0.506   0.559   5.938
 4126TIP3    H112319   0.533   0.572   6.029
 4126TIP3    H212320   0.450   0.481   5.941
 4127TIP3   OH212321   1.172   6.555   2.911
 4127TIP3    H112322   1.228   6.531   2.985
 4127TIP3    H212323   1.173   6.651   2.909
 4128TIP3   OH212324   5.721   4.512   2.691
 4128TIP3    H112325   5.685   4.430   2.657
 4128TIP3    H212326   5.811   4.515   2.659
 4129TIP3   OH212327   5.903   1.894   4.697
 4129TIP3    H112328   5.807   1.897   4.698
 4129TIP3    H212329   5.929   1.934   4.780
 4130TIP3   OH212330   6.751   7.742   4.494
 4130TIP3    H112331   6.813   7.712   4.561
 4130TIP3    H212332   6.797   7.812   4.448
 4131TIP3   OH212333   2.754   0.842   3.833
 4131TIP3    H112334   2.845   0.851   3.862
 4131TIP3    H212335   2.702   0.885   3.901
 4132TIP3   OH212336   3.634   0.776   2.245
 4132TIP3    H112337   3.569   0.736   2.187
 4132TIP3    H212338   3.717   0.768   2.197
 4133TIP3   OH212339   4.191   0.583   0.628
 4133TIP3    H112340   4.114   0.534   0.598
 4133TIP3    H212341   4.161   0.674   0.634
 4134TIP3   OH212342   7.737   4.859   5.937
 4134TIP3    H112343   7.779   4.797   5.997
 4134TIP3    H212344   7.810   4.906   5.897
 4135TIP3   OH212345   2.184   2.407   2.321
 4135TIP3    H112346   2.129   2.480   2.294
 4135TIP3    H212347   2.270   2.427   2.285
 4136TIP3   OH212348   5.739   1.815   0.662
 4136TIP3    H112349   5.725   1.903   0.626
 4136TIP3    H212350   5.686   1.813   0.741
 4137TIP3   OH212351   4.530   1.342   6.581
 4137TIP3    H112352   4.517   1.269   6.521
 4137TIP3    H212353   4.514   1.420   6.527
 4138TIP3   OH212354   0.018   4.521   2.190
 4138TIP3    H112355   0.085   4.552   2.129
 4138TIP3    H212356   0.046   4.432   2.213
 4139TIP3   OH212357   6.925   0.313   1.441
 4139TIP3    H112358   7.016   0.334   1.463
 4139TIP3    H212359   6.913   0.348   1.353
 4140TIP3   OH212360   1.496   7.115   2.048
 4140TIP3    H112361   1.492   7.180   1.977
 4140TIP3    H212362   1.570   7.144   2.101
 4141TIP3   OH212363   2.562   1.258   0.157
 4141TIP3    H112364   2.523   1.327   0.103
 4141TIP3    H212365   2.616   1.207   0.096
 4142TIP3   OH212366   8.105   6.124   5.839
 4142TIP3    H112367   8.064   6.192   5.893
 4142TIP3    H212368   8.061   6.131   5.754
 4143TIP3   OH212369   7.874   5.957   2.321
 4143TIP3    H112370   7.868   6.035   2.267
 4143TIP3    H212371   7.784   5.942   2.351
 4144TIP3   OH212372   0.258   0.738   1.013
 4144TIP3    H112373   0.300   0.821   1.034
 4144TIP3    H212374   0.278   0.682   1.088
 4145TIP3   OH212375   7.647   5.115   4.425
 4145TIP3    H112376   7.558   5.149   4.409
 4145TIP3    H212377   7.634   5.040   4.483
 4146TIP3   OH212378   3.296   1.598   3.123
 4146TIP3    H112379   3.322   1.518   3.169
 4146TIP3    H212380   3.287   1.571   3.031
 4147TIP3   OH212381   8.139   5.825   0.570
 4147TIP3    H112382   8.107   5.811   0.659
 4147TIP3    H212383   8.216   5.882   0.581
 4148TIP3   OH212384   0.741   7.785   0.489
 4148TIP3    H112385   0.736   7.746   0.576
 4148TIP3    H212386   0.650   7.803   0.465
 4149TIP3   OH212387   3.905   7.596   0.608
 4149TIP3    H112388   3.826   7.546   0.586
 4149TIP3    H212389   3.966   7.531   0.643
 4150TIP3   OH212390   3.402   2.065   0.377
 4150TIP3    H112391   3.467   1.996   0.390
 4150TIP3    H212392   3.405   2.084   0.283
 4151TIP3   OH212393   0.546   3.769   4.584
 4151TIP3    H112394   0.511   3.696   4.533
 4151TIP3    H212395   0.490   3.843   4.562
 4152TIP3   OH212396   4.596   5.877   2.366
 4152TIP3    H112397   4.648   5.941   2.416
 4152TIP3    H212398   4.661   5.821   2.324
 4153TIP3   OH212399   0.442   5.380   6.479
 4153TIP3    H112400   0.537   5.388   6.478
 4153TIP3    H212401   0.411   5.468   6.498
 4154TIP3   OH212402   8.024   0.393   3.938
 4154TIP3    H112403   8.099   0.376   3.882
 4154TIP3    H212404   7.990   0.478   3.908
 4155TIP3   OH212405   2.471   6.681   0.170
 4155TIP3    H112406   2.491   6.664   0.262
 4155TIP3    H212407   2.540   6.635   0.122
 4156TIP3   OH212408   4.738   6.182   5.326
 4156TIP3    H112409   4.659   6.236   5.317
 4156TIP3    H212410   4.751   6.175   5.421
 4157TIP3   OH212411   5.922   1.281   0.652
 4157TIP3    H112412   5.920   1.374   0.632
 4157TIP3    H212413   5.830   1.256   0.662
 4158TIP3   OH212414   4.291   2.865   6.767
 4158TIP3    H112415   4.226   2.903   6.707
 4158TIP3    H212416   4.239   2.809   6.825
 4159TIP3   OH212417   0.078   7.319   3.243
 4159TIP3    H112418   0.131   7.372   3.303
 4159TIP3    H212419   0.069   7.235   3.288
 4160TIP3   OH212420   0.070   3.410   3.716
 4160TIP3    H112421   0.055   3.348   3.645
 4160TIP3    H212422   0.108   3.356   3.786
 4161TIP3   OH212423   2.706   0.033   5.564
 4161TIP3    H112424   2.720  -0.019   5.485
 4161TIP3    H212425   2.665   0.113   5.533
 4162TIP3   OH212426   7.306   7.790   2.129
 4162TIP3    H112427   7.329   7.726   2.061
 4162TIP3    H212428   7.232   7.838   2.092
 4163TIP3   OH212429   5.855   6.604   2.124
 4163TIP3    H112430   5.792   6.676   2.130
 4163TIP3    H212431   5.851   6.575   2.033
 4164TIP3   OH212432   2.181   6.035   4.815
 4164TIP3    H112433   2.183   6.126   4.845
 4164TIP3    H212434   2.176   6.042   4.719
 4165TIP3   OH212435   5.425   5.622   2.767
 4165TIP3    H112436   5.389   5.533   2.765
 4165TIP3    H212437   5.364   5.671   2.822
 4166TIP3   OH212438   6.370   3.323   1.304
 4166TIP3    H112439   6.367   3.358   1.393
 4166TIP3    H212440   6.291   3.269   1.297
 4167TIP3   OH212441   0.655   6.020   4.731
 4167TIP3    H112442   0.580   6.077   4.713
 4167TIP3    H212443   0.649   6.001   4.825
 4168TIP3   OH212444   7.125   2.232   5.884
 4168TIP3    H112445   7.131   2.267   5.796
 4168TIP3    H212446   7.161   2.300   5.941
 4169TIP3   OH212447   0.499   6.850   4.541
 4169TIP3    H112448   0.405   6.842   4.524
 4169TIP3    H212449   0.515   6.790   4.614
 4170TIP3   OH212450   2.755   7.852   2.513
 4170TIP3    H112451   2.797   7.798   2.446
 4170TIP3    H212452   2.823   7.868   2.578
 4171TIP3   OH212453   0.090   3.278   4.024
 4171TIP3    H112454   0.070   3.230   3.943
 4171TIP3    H212455   0.021   3.253   4.085
 4172TIP3   OH212456   6.577   0.768   1.848
 4172TIP3    H112457   6.668   0.794   1.863
 4172TIP3    H212458   6.560   0.700   1.913
 4173TIP3   OH212459   2.741   3.192   6.477
 4173TIP3    H112460   2.657   3.222   6.443
 4173TIP3    H212461   2.805   3.222   6.413
 4174TIP3   OH212462   2.188   4.311   1.876
 4174TIP3    H112463   2.271   4.300   1.829
 4174TIP3    H212464   2.174   4.406   1.877
 4175TIP3   OH212465   1.545   7.433   0.058
 4175TIP3    H112466   1.614   7.490   0.092
 4175TIP3    H212467   1.568   7.346   0.090
 4176TIP3   OH212468   6.110   5.741   4.492
 4176TIP3    H112469   6.061   5.790   4.558
 4176TIP3    H212470   6.044   5.712   4.429
 4177TIP3   OH212471   5.910   7.857   0.349
 4177TIP3    H112472   5.820   7.890   0.344
 4177TIP3    H212473   5.948   7.878   0.263
 4178TIP3   OH212474   6.473   2.016   0.783
 4178TIP3    H112475   6.486   1.921   0.787
 4178TIP3    H212476   6.448   2.032   0.692
 4179TIP3   OH212477   4.182   4.588   5.576
 4179TIP3    H112478   4.161   4.523   5.644
 4179TIP3    H212479   4.099   4.629   5.555
 4180TIP3   OH212480   4.333   4.264   4.274
 4180TIP3    H112481   4.289   4.276   4.190
 4180TIP3    H212482   4.373   4.177   4.268
 4181TIP3   OH212483   6.700   6.947   2.105
 4181TIP3    H112484   6.764   7.015   2.088
 4181TIP3    H212485   6.752   6.867   2.114
 4182TIP3   OH212486   3.845   5.025   3.245
 4182TIP3    H112487   3.818   5.100   3.193
 4182TIP3    H212488   3.797   5.033   3.327
 4183TIP3   OH212489   8.379   1.691   1.103
 4183TIP3    H112490   8.392   1.776   1.061
 4183TIP3    H212491   8.289   1.694   1.134
 4184TIP3   OH212492   7.760   0.670   6.581
 4184TIP3    H112493   7.771   0.620   6.500
 4184TIP3    H212494   7.802   0.754   6.563
 4185TIP3   OH212495   1.466   7.408   0.587
 4185TIP3    H112496   1.471   7.324   0.542
 4185TIP3    H212497   1.403   7.459   0.536
 4186TIP3   OH212498   7.825   1.447   6.629
 4186TIP3    H112499   7.748   1.466   6.682
 4186TIP3    H212500   7.889   1.413   6.692
 4187TIP3   OH212501   7.457   1.872   1.217
 4187TIP3    H112502   7.419   1.954   1.183
 4187TIP3    H212503   7.550   1.880   1.197
 4188TIP3   OH212504   8.197   4.070   1.811
 4188TIP3    H112505   8.198   4.133   1.740
 4188TIP3    H212506   8.104   4.054   1.828
 4189TIP3   OH212507   4.378   4.437   5.803
 4189TIP3    H112508   4.285   4.423   5.787
 4189TIP3    H212509   4.382   4.483   5.887
 4190TIP3   OH212510   5.071   1.603   1.217
 4190TIP3    H112511   5.076   1.562   1.131
 4190TIP3    H212512   4.977   1.609   1.234
 4191TIP3   OH212513   0.669   3.483   6.661
 4191TIP3    H112514   0.616   3.431   6.721
 4191TIP3    H212515   0.616   3.560   6.642
 4192TIP3   OH212516   0.063   5.786   4.069
 4192TIP3    H112517   0.032   5.738   4.146
 4192TIP3    H212518   0.057   5.722   3.998
 4193TIP3   OH212519   2.213   0.714   1.533
 4193TIP3    H112520   2.228   0.774   1.460
 4193TIP3    H212521   2.284   0.650   1.526
 4194TIP3   OH212522   7.914   2.758   5.378
 4194TIP3    H112523   7.982   2.817   5.411
 4194TIP3    H212524   7.927   2.677   5.428
 4195TIP3   OH212525   8.345   0.237   0.589
 4195TIP3    H112526   8.418   0.252   0.649
 4195TIP3    H212527   8.274   0.207   0.646
 4196TIP3   OH212528   1.152   7.098   4.114
 4196TIP3    H112529   1.211   7.025   4.095
 4196TIP3    H212530   1.075   7.057   4.152
 4197TIP3   OH212531   2.756   1.470   6.491
 4197TIP3    H112532   2.845   1.490   6.518
 4197TIP3    H212533   2.704   1.477   6.572
 4198TIP3   OH212534   0.826   5.321   0.290
 4198TIP3    H112535   0.897   5.342   0.230
 4198TIP3    H212536   0.865   5.258   0.351
 4199TIP3   OH212537   8.291   0.599   4.923
 4199TIP3    H112538   8.217   0.660   4.917
 4199TIP3    H212539   8.284   0.547   4.843
 4200TIP3   OH212540   6.889   5.238   5.482
 4200TIP3    H112541   6.919   5.151   5.509
 4200TIP3    H212542   6.942   5.299   5.533
 4201TIP3   OH212543   7.096   2.137   1.468
 4201TIP3    H112544   7.144   2.161   1.548
 4201TIP3    H212545   7.072   2.046   1.481
 4202TIP3   OH212546   6.831   5.668   6.639
 4202TIP3    H112547   6.786   5.725   6.577
 4202TIP3    H212548   6.911   5.715   6.661
 4203TIP3   OH212549   6.647   0.137   0.388
 4203TIP3    H112550   6.742   0.145   0.398
 4203TIP3    H212551   6.631   0.043   0.382
 4204TIP3   OH212552   0.958   0.624   4.788
 4204TIP3    H112553   0.934   0.538   4.752
 4204TIP3    H212554   1.021   0.660   4.725
 4205TIP3   OH212555   3.390   1.221   3.668
 4205TIP3    H112556   3.470   1.170   3.659
 4205TIP3    H212557   3.413   1.291   3.730
 4206TIP3   OH212558   5.593   7.829   4.791
 4206TIP3    H112559   5.684   7.835   4.818
 4206TIP3    H212560   5.586   7.888   4.716
 4207TIP3   OH212561   4.557   4.969   1.543
 4207TIP3    H112562   4.602   5.007   1.619
 4207TIP3    H212563   4.487   5.032   1.523
 4208TIP3   OH212564   7.968   0.206   3.708
 4208TIP3    H112565   8.047   0.247   3.672
 4208TIP3    H212566   7.910   0.280   3.728
 4209TIP3   OH212567   4.454   3.850   1.112
 4209TIP3    H112568   4.506   3.789   1.059
 4209TIP3    H212569   4.452   3.930   1.060
 4210TIP3   OH212570   1.046   3.575   4.402
 4210TIP3    H112571   1.109   3.556   4.472
 4210TIP3    H212572   0.974   3.620   4.446
 4211TIP3   OH212573   2.613   1.249   2.204
 4211TIP3    H112574   2.616   1.339   2.174
 4211TIP3    H212575   2.678   1.244   2.274
 4212TIP3   OH212576   7.234   5.651   2.716
 4212TIP3    H112577   7.241   5.731   2.664
 4212TIP3    H212578   7.320   5.640   2.756
 4213TIP3   OH212579   7.444   3.398   4.160
 4213TIP3    H112580   7.471   3.489   4.157
 4213TIP3    H212581   7.497   3.355   4.093
 4214TIP3   OH212582   7.251   0.318   3.120
 4214TIP3    H112583   7.327   0.265   3.147
 4214TIP3    H212584   7.176   0.273   3.157
 4215TIP3   OH212585   5.157   0.397   4.828
 4215TIP3    H112586   5.083   0.419   4.772
 4215TIP3    H212587   5.200   0.480   4.847
 4216TIP3   OH212588   3.174   3.921   2.941
 4216TIP3    H112589   3.104   3.986   2.947
 4216TIP3    H212590   3.135   3.847   2.895
 4217TIP3   OH212591   1.854   3.183   1.662
 4217TIP3    H112592   1.820   3.267   1.630
 4217TIP3    H212593   1.780   3.123   1.652
 4218TIP3   OH212594   7.026   6.893   3.610
 4218TIP3    H112595   7.116   6.901   3.580
 4218TIP3    H212596   6.976   6.871   3.531
 4219TIP3   OH212597   4.638   0.432   6.106
 4219TIP3    H112598   4.574   0.496   6.076
 4219TIP3    H212599   4.601   0.347   6.082
 4220TIP3   OH212600   4.769   6.064   5.582
 4220TIP3    H112601   4.710   5.996   5.550
 4220TIP3    H212602   4.856   6.036   5.554
 4221TIP3   OH212603   5.976   6.929   1.562
 4221TIP3    H112604   6.025   7.010   1.545
 4221TIP3    H212605   5.921   6.917   1.484
 4222TIP3   OH212606   4.208   6.453   0.742
 4222TIP3    H112607   4.245   6.439   0.654
 4222TIP3    H212608   4.126   6.404   0.741
 4223TIP3   OH212609   0.614   1.382   6.581
 4223TIP3    H112610   0.700   1.340   6.584
 4223TIP3    H212611   0.611   1.423   6.494
 4224TIP3   OH212612   7.860   1.771   2.954
 4224TIP3    H112613   7.929   1.788   3.018
 4224TIP3    H212614   7.877   1.834   2.883
 4225TIP3   OH212615   3.099   6.721   3.690
 4225TIP3    H112616   3.116   6.679   3.606
 4225TIP3    H212617   3.017   6.770   3.677
 4226TIP3   OH212618   3.072   5.668   6.402
 4226TIP3    H112619   3.034   5.753   6.423
 4226TIP3    H212620   3.093   5.672   6.309
 4227TIP3   OH212621   5.246   0.100   4.088
 4227TIP3    H112622   5.306   0.035   4.050
 4227TIP3    H212623   5.161   0.078   4.051
 4228TIP3   OH212624   5.038   2.081   5.285
 4228TIP3    H112625   4.963   2.029   5.255
 4228TIP3    H212626   4.999   2.159   5.324
 4229TIP3   OH212627   0.275   0.507   1.174
 4229TIP3    H112628   0.276   0.567   1.248
 4229TIP3    H212629   0.298   0.422   1.211
 4230TIP3   OH212630   1.987   1.212   0.216
 4230TIP3    H112631   2.022   1.256   0.138
 4230TIP3    H212632   1.892   1.214   0.204
 4231TIP3   OH212633   2.358   5.744   6.298
 4231TIP3    H112634   2.310   5.670   6.333
 4231TIP3    H212635   2.327   5.753   6.208
 4232TIP3   OH212636   5.653   1.210   0.657
 4232TIP3    H112637   5.610   1.125   0.655
 4232TIP3    H212638   5.621   1.254   0.578
 4233TIP3   OH212639   6.526   1.197   2.191
 4233TIP3    H112640   6.529   1.182   2.097
 4233TIP3    H212641   6.605   1.246   2.211
 4234TIP3   OH212642   3.883   2.689   0.187
 4234TIP3    H112643   3.899   2.753   0.118
 4234TIP3    H212644   3.848   2.740   0.260
 4235TIP3   OH212645   6.221   5.172   2.120
 4235TIP3    H112646   6.170   5.116   2.061
 4235TIP3    H212647   6.174   5.169   2.203
 4236TIP3   OH212648   6.118   6.718   3.949
 4236TIP3    H112649   6.201   6.724   3.995
 4236TIP3    H212650   6.071   6.647   3.994
 4237TIP3   OH212651   4.687   0.520   5.108
 4237TIP3    H112652   4.633   0.530   5.030
 4237TIP3    H212653   4.628   0.485   5.175
 4238TIP3   OH212654   6.144   2.258   3.413
 4238TIP3    H112655   6.197   2.310   3.473
 4238TIP3    H212656   6.058   2.253   3.455
 4239TIP3   OH212657   4.451   0.217   1.296
 4239TIP3    H112658   4.432   0.278   1.225
 4239TIP3    H212659   4.541   0.236   1.321
 4240TIP3   OH212660   2.227   2.535   6.029
 4240TIP3    H112661   2.146   2.583   6.046
 4240TIP3    H212662   2.231   2.469   6.098
 4241TIP3   OH212663   7.892   3.448   4.134
 4241TIP3    H112664   7.878   3.509   4.207
 4241TIP3    H212665   7.986   3.451   4.118
 4242TIP3   OH212666   3.481   0.968   1.872
 4242TIP3    H112667   3.575   0.972   1.889
 4242TIP3    H212668   3.448   0.900   1.931
 4243TIP3   OH212669   7.806   4.293   6.614
 4243TIP3    H112670   7.835   4.270   6.702
 4243TIP3    H212671   7.724   4.339   6.627
 4244TIP3   OH212672   1.093   5.254   5.377
 4244TIP3    H112673   0.999   5.250   5.397
 4244TIP3    H212674   1.124   5.333   5.422
 4245TIP3   OH212675   6.565   0.933   0.981
 4245TIP3    H112676   6.579   0.885   0.899
 4245TIP3    H212677   6.554   0.866   1.047
 4246TIP3   OH212678   8.205   7.807   1.964
 4246TIP3    H112679   8.225   7.852   1.882
 4246TIP3    H212680   8.274   7.834   2.024
 4247TIP3   OH212681   6.144   0.354   5.696
 4247TIP3    H112682   6.138   0.282   5.758
 4247TIP3    H212683   6.222   0.403   5.722
 4248TIP3   OH212684   3.465   2.870   3.568
 4248TIP3    H112685   3.485   2.866   3.661
 4248TIP3    H212686   3.537   2.822   3.526
 4249TIP3   OH212687   5.984   0.761   4.528
 4249TIP3    H112688   6.014   0.850   4.546
 4249TIP3    H212689   5.891   0.771   4.507
 4250TIP3   OH212690   8.282   6.291   4.936
 4250TIP3    H112691   8.202   6.289   4.990
 4250TIP3    H212692   8.347   6.244   4.989
 4251TIP3   OH212693   7.504   1.794   4.060
 4251TIP3    H112694   7.458   1.746   3.992
 4251TIP3    H212695   7.466   1.882   4.058
 4252TIP3   OH212696   5.137   0.324   3.660
 4252TIP3    H112697   5.090   0.331   3.743
 4252TIP3    H212698   5.168   0.233   3.657
 4253TIP3   OH212699   6.685   7.417   2.751
 4253TIP3    H112700   6.691   7.372   2.836
 4253TIP3    H212701   6.591   7.420   2.732
 4254TIP3   OH212702   0.778   2.397   2.767
 4254TIP3    H112703   0.837   2.342   2.714
 4254TIP3    H212704   0.831   2.473   2.790
 4255TIP3   OH212705   3.810   7.578   3.964
 4255TIP3    H112706   3.722   7.614   3.950
 4255TIP3    H212707   3.803   7.530   4.047
 4256TIP3   OH212708   2.090   4.913   6.035
 4256TIP3    H112709   2.005   4.876   6.011
 4256TIP3    H212710   2.153   4.867   5.980
 4257TIP3   OH212711   6.174   0.596   1.165
 4257TIP3    H112712   6.103   0.657   1.144
 4257TIP3    H212713   6.139   0.543   1.237
 4258TIP3   OH212714   5.820   5.527   1.477
 4258TIP3    H112715   5.860   5.440   1.470
 4258TIP3    H212716   5.731   5.510   1.507
 4259TIP3   OH212717   7.595   7.486   0.731
 4259TIP3    H112718   7.690   7.476   0.741
 4259TIP3    H212719   7.573   7.561   0.787
 4260TIP3   OH212720   1.804   6.385   4.591
 4260TIP3    H112721   1.847   6.416   4.671
 4260TIP3    H212722   1.767   6.464   4.552
 4261TIP3   OH212723   5.741   3.920   6.014
 4261TIP3    H112724   5.739   3.954   6.104
 4261TIP3    H212725   5.755   3.826   6.024
 4262TIP3   OH212726   5.610   1.034   5.051
 4262TIP3    H112727   5.614   1.072   5.139
 4262TIP3    H212728   5.666   1.091   4.998
 4263TIP3   OH212729   1.234   6.062   3.685
 4263TIP3    H112730   1.305   6.111   3.726
 4263TIP3    H212731   1.278   5.992   3.636
 4264TIP3   OH212732   0.286   5.625   6.502
 4264TIP3    H112733   0.355   5.691   6.501
 4264TIP3    H212734   0.261   5.618   6.595
 4265TIP3   OH212735   6.136   4.576   4.771
 4265TIP3    H112736   6.079   4.604   4.844
 4265TIP3    H212737   6.153   4.484   4.788
 4266TIP3   OH212738   7.604   2.598   1.091
 4266TIP3    H112739   7.594   2.504   1.075
 4266TIP3    H212740   7.670   2.626   1.028
 4267TIP3   OH212741   4.445   6.165   3.579
 4267TIP3    H112742   4.532   6.185   3.545
 4267TIP3    H212743   4.385   6.196   3.511
 4268TIP3   OH212744   0.007   0.024   2.236
 4268TIP3    H112745   0.080  -0.020   2.280
 4268TIP3    H212746  -0.068  -0.035   2.249
 4269TIP3   OH212747   5.224   5.982   4.813
 4269TIP3    H112748   5.157   5.975   4.744
 4269TIP3    H212749   5.179   5.953   4.892
 4270TIP3   OH212750   4.939   0.347   0.559
 4270TIP3    H112751   5.003   0.416   0.539
 4270TIP3    H212752   4.975   0.302   0.635
 4271TIP3   OH212753   2.632   6.042   5.629
 4271TIP3    H112754   2.665   5.954   5.610
 4271TIP3    H212755   2.538   6.030   5.643
 4272TIP3   OH212756   1.412   4.576   6.733
 4272TIP3    H112757   1.438   4.549   6.821
 4272TIP3    H212758   1.374   4.498   6.694
 4273TIP3   OH212759   6.618   4.483   4.878
 4273TIP3    H112760   6.679   4.531   4.822
 4273TIP3    H212761   6.659   4.397   4.889
 4274TIP3   OH212762   8.157   6.314   4.692
 4274TIP3    H112763   8.199   6.329   4.777
 4274TIP3    H212764   8.066   6.340   4.705
 4275TIP3   OH212765   2.604   5.213   6.726
 4275TIP3    H112766   2.545   5.150   6.769
 4275TIP3    H212767   2.546   5.267   6.673
 4276TIP3   OH212768   6.072   6.843   3.735
 4276TIP3    H112769   5.981   6.874   3.738
 4276TIP3    H212770   6.083   6.794   3.816
 4277TIP3   OH212771   5.979   3.981   2.717
 4277TIP3    H112772   5.920   4.040   2.670
 4277TIP3    H212773   5.971   4.008   2.808
 4278TIP3   OH212774   3.757   5.201   4.977
 4278TIP3    H112775   3.754   5.212   4.882
 4278TIP3    H212776   3.840   5.242   5.003
 4279TIP3   OH212777   4.997   0.646   5.361
 4279TIP3    H112778   5.085   0.615   5.343
 4279TIP3    H212779   4.962   0.671   5.276
 4280TIP3   OH212780   4.370   5.673   6.745
 4280TIP3    H112781   4.294   5.709   6.700
 4280TIP3    H212782   4.335   5.604   6.801
 4281TIP3   OH212783   0.080   3.319   4.354
 4281TIP3    H112784   0.137   3.354   4.423
 4281TIP3    H212785   0.001   3.374   4.359
 4282TIP3   OH212786   4.394   6.773   3.342
 4282TIP3    H112787   4.340   6.723   3.280
 4282TIP3    H212788   4.404   6.715   3.417
 4283TIP3   OH212789   1.729   2.502   0.245
 4283TIP3    H112790   1.773   2.568   0.299
 4283TIP3    H212791   1.726   2.542   0.157
 4284TIP3   OH212792   3.182   4.739   0.095
 4284TIP3    H112793   3.158   4.661   0.147
 4284TIP3    H212794   3.195   4.808   0.161
 4285TIP3   OH212795   6.257   3.626   0.884
 4285TIP3    H112796   6.189   3.558   0.877
 4285TIP3    H212797   6.295   3.612   0.971
 4286TIP3   OH212798   3.584   1.479   4.609
 4286TIP3    H112799   3.496   1.502   4.577
 4286TIP3    H212800   3.611   1.555   4.660
 4287TIP3   OH212801   4.729   1.329   2.749
 4287TIP3    H112802   4.747   1.367   2.835
 4287TIP3    H212803   4.718   1.404   2.690
 4288TIP3   OH212804   5.611   1.273   5.476
 4288TIP3    H112805   5.620   1.180   5.497
 4288TIP3    H212806   5.520   1.281   5.446
 4289TIP3   OH212807   4.850   6.616   4.274
 4289TIP3    H112808   4.795   6.691   4.297
 4289TIP3    H212809   4.822   6.592   4.186
 4290TIP3   OH212810   0.465   5.819   6.779
 4290TIP3    H112811   0.502   5.846   6.863
 4290TIP3    H212812   0.392   5.762   6.802
 4291TIP3   OH212813   2.580   4.793   4.749
 4291TIP3    H112814   2.611   4.774   4.838
 4291TIP3    H212815   2.497   4.840   4.763
 4292TIP3   OH212816   3.025   6.159   5.245
 4292TIP3    H112817   2.952   6.220   5.237
 4292TIP3    H212818   2.990   6.074   5.220
 4293TIP3   OH212819   4.633   2.546   3.059
 4293TIP3    H112820   4.543   2.546   3.093
 4293TIP3    H212821   4.625   2.584   2.972
 4294TIP3   OH212822   4.511   7.061   2.361
 4294TIP3    H112823   4.446   7.019   2.304
 4294TIP3    H212824   4.548   6.990   2.412
 4295TIP3   OH212825   2.414   6.716   0.671
 4295TIP3    H112826   2.498   6.711   0.716
 4295TIP3    H212827   2.349   6.716   0.741
 4296TIP3   OH212828   6.046   7.059   4.401
 4296TIP3    H112829   6.088   7.001   4.337
 4296TIP3    H212830   6.115   7.121   4.426
 4297TIP3   OH212831   7.857   6.975   0.590
 4297TIP3    H112832   7.820   7.060   0.567
 4297TIP3    H212833   7.888   6.985   0.680
 4298TIP3   OH212834   1.346   5.848   0.121
 4298TIP3    H112835   1.383   5.885   0.202
 4298TIP3    H212836   1.365   5.913   0.054
 4299TIP3   OH212837   1.821   6.198   6.785
 4299TIP3    H112838   1.856   6.127   6.731
 4299TIP3    H212839   1.730   6.208   6.756
 4300TIP3   OH212840   2.961   0.411   3.700
 4300TIP3    H112841   2.961   0.493   3.749
 4300TIP3    H212842   2.943   0.437   3.609
 4301TIP3   OH212843   2.752   6.009   4.472
 4301TIP3    H112844   2.704   5.997   4.554
 4301TIP3    H212845   2.750   5.923   4.430
 4302TIP3   OH212846   7.674   5.086   1.272
 4302TIP3    H112847   7.698   5.120   1.186
 4302TIP3    H212848   7.718   5.145   1.334
 4303TIP3   OH212849   2.910   3.027   6.738
 4303TIP3    H112850   2.869   3.065   6.815
 4303TIP3    H212851   2.964   2.955   6.772
 4304TIP3   OH212852   1.329   6.564   2.620
 4304TIP3    H112853   1.317   6.479   2.577
 4304TIP3    H212854   1.336   6.626   2.547
 4305TIP3   OH212855   3.594   0.119   2.425
 4305TIP3    H112856   3.544   0.182   2.477
 4305TIP3    H212857   3.590   0.153   2.335
 4306TIP3   OH212858   3.028   2.598   0.865
 4306TIP3    H112859   2.990   2.685   0.852
 4306TIP3    H212860   3.054   2.570   0.777
 4307TIP3   OH212861   2.843   1.187   4.150
 4307TIP3    H112862   2.790   1.116   4.113
 4307TIP3    H212863   2.932   1.153   4.150
 4308TIP3   OH212864   6.624   4.484   4.454
 4308TIP3    H112865   6.709   4.440   4.447
 4308TIP3    H212866   6.610   4.522   4.368
 4309TIP3   OH212867   0.442   7.087   5.226
 4309TIP3    H112868   0.392   7.166   5.205
 4309TIP3    H212869   0.440   7.035   5.145
 4310TIP3   OH212870   2.712   5.963   6.546
 4310TIP3    H112871   2.632   6.013   6.558
 4310TIP3    H212872   2.760   6.009   6.478
 4311TIP3   OH212873   7.281   4.485   2.859
 4311TIP3    H112874   7.253   4.506   2.770
 4311TIP3    H212875   7.282   4.389   2.862
 4312TIP3   OH212876   2.675   7.730   1.550
 4312TIP3    H112877   2.612   7.674   1.504
 4312TIP3    H212878   2.682   7.808   1.496
 4313TIP3   OH212879   4.740   5.623   2.351
 4313TIP3    H112880   4.725   5.631   2.445
 4313TIP3    H212881   4.709   5.536   2.329
 4314TIP3   OH212882   6.086   6.806   0.879
 4314TIP3    H112883   6.117   6.732   0.828
 4314TIP3    H212884   6.027   6.768   0.944
 4315TIP3   OH212885   3.696   3.271   0.390
 4315TIP3    H112886   3.711   3.313   0.474
 4315TIP3    H212887   3.755   3.195   0.390
 4316TIP3   OH212888   6.353   3.614   3.291
 4316TIP3    H112889   6.270   3.647   3.255
 4316TIP3    H212890   6.331   3.588   3.381
 4317TIP3   OH212891   2.591   0.307   1.810
 4317TIP3    H112892   2.507   0.295   1.855
 4317TIP3    H212893   2.645   0.355   1.873
 4318TIP3   OH212894   1.309   0.479   2.805
 4318TIP3    H112895   1.270   0.512   2.886
 4318TIP3    H212896   1.313   0.555   2.747
 4319TIP3   OH212897   4.500   2.029   5.994
 4319TIP3    H112898   4.503   2.125   6.000
 4319TIP3    H212899   4.592   2.003   5.990
 4320TIP3   OH212900   2.267   3.382   6.497
 4320TIP3    H112901   2.206   3.309   6.483
 4320TIP3    H212902   2.310   3.361   6.580
 4321TIP3   OH212903   4.896   0.047   1.502
 4321TIP3    H112904   4.863   0.085   1.421
 4321TIP3    H212905   4.861  -0.042   1.503
 4322TIP3   OH212906   0.497   4.651   0.107
 4322TIP3    H112907   0.468   4.741   0.120
 4322TIP3    H212908   0.435   4.598   0.158
 4323TIP3   OH212909   1.399   5.935   4.973
 4323TIP3    H112910   1.487   5.969   4.987
 4323TIP3    H212911   1.408   5.876   4.898
 4324TIP3   OH212912   8.260   1.005   3.848
 4324TIP3    H112913   8.301   1.067   3.788
 4324TIP3    H212914   8.182   1.050   3.880
 4325TIP3   OH212915   5.313   5.047   4.945
 4325TIP3    H112916   5.334   5.140   4.941
 4325TIP3    H212917   5.282   5.026   4.857
 4326TIP3   OH212918   7.051   5.257   0.794
 4326TIP3    H112919   7.083   5.307   0.719
 4326TIP3    H212920   7.042   5.167   0.761
 4327TIP3   OH212921   0.723   3.748   3.367
 4327TIP3    H112922   0.805   3.699   3.358
 4327TIP3    H212923   0.739   3.831   3.321
 4328TIP3   OH212924   3.724   1.362   3.574
 4328TIP3    H112925   3.775   1.387   3.496
 4328TIP3    H212926   3.688   1.444   3.607
 4329TIP3   OH212927   7.643   4.230   4.291
 4329TIP3    H112928   7.628   4.266   4.203
 4329TIP3    H212929   7.653   4.136   4.277
 4330TIP3   OH212930   4.893   5.233   3.587
 4330TIP3    H112931   4.871   5.319   3.551
 4330TIP3    H212932   4.933   5.252   3.672
 4331TIP3   OH212933   2.599   0.900   4.055
 4331TIP3    H112934   2.507   0.922   4.044
 4331TIP3    H212935   2.615   0.904   4.149
 4332TIP3   OH212936   3.952   5.323   2.891
 4332TIP3    H112937   3.951   5.418   2.885
 4332TIP3    H212938   3.982   5.305   2.980
 4333TIP3   OH212939   6.795   1.609   5.196
 4333TIP3    H112940   6.713   1.559   5.187
 4333TIP3    H212941   6.858   1.562   5.142
 4334TIP3   OH212942   4.815   5.500   5.970
 4334TIP3    H112943   4.743   5.438   5.956
 4334TIP3    H212944   4.826   5.544   5.885
 4335TIP3   OH212945   2.044   5.188   6.776
 4335TIP3    H112946   2.124   5.153   6.736
 4335TIP3    H212947   1.974   5.159   6.718
 4336TIP3   OH212948   5.288   0.545   0.373
 4336TIP3    H112949   5.377   0.575   0.394
 4336TIP3    H212950   5.301   0.464   0.323
 4337TIP3   OH212951   2.430   3.068   6.674
 4337TIP3    H112952   2.377   3.067   6.594
 4337TIP3    H212953   2.498   3.003   6.658
 4338TIP3   OH212954   3.757   1.522   6.511
 4338TIP3    H112955   3.662   1.531   6.501
 4338TIP3    H212956   3.775   1.432   6.483
 4339TIP3   OH212957   0.346   3.246   2.113
 4339TIP3    H112958   0.373   3.338   2.114
 4339TIP3    H212959   0.260   3.246   2.156
 4340TIP3   OH212960   0.928   1.597   2.835
 4340TIP3    H112961   0.946   1.504   2.852
 4340TIP3    H212962   0.979   1.644   2.901
 4341TIP3   OH212963   4.437   1.349   4.689
 4341TIP3    H112964   4.404   1.438   4.677
 4341TIP3    H212965   4.445   1.314   4.601
 4342TIP3   OH212966   3.121   3.545   0.137
 4342TIP3    H112967   3.195   3.606   0.134
 4342TIP3    H212968   3.069   3.574   0.212
 4343TIP3   OH212969   3.328   1.931   3.431
 4343TIP3    H112970   3.272   2.006   3.413
 4343TIP3    H212971   3.339   1.888   3.347
 4344TIP3   OH212972   4.278   4.135   1.671
 4344TIP3    H112973   4.217   4.121   1.744
 4344TIP3    H212974   4.313   4.223   1.687
 4345TIP3   OH212975   4.575   3.942   0.606
 4345TIP3    H112976   4.494   3.994   0.604
 4345TIP3    H212977   4.607   3.943   0.515
 4346TIP3   OH212978   1.543   5.443   1.382
 4346TIP3    H112979   1.531   5.349   1.393
 4346TIP3    H212980   1.457   5.475   1.352
 4347TIP3   OH212981   0.553   5.245   4.508
 4347TIP3    H112982   0.534   5.153   4.530
 4347TIP3    H212983   0.586   5.241   4.418
 4348TIP3   OH212984   1.839   7.348   6.250
 4348TIP3    H112985   1.923   7.308   6.274
 4348TIP3    H212986   1.859   7.442   6.245
 4349TIP3   OH212987   1.410   5.416   3.730
 4349TIP3    H112988   1.444   5.492   3.683
 4349TIP3    H212989   1.384   5.450   3.815
 4350TIP3   OH212990   1.659   6.861   2.540
 4350TIP3    H112991   1.742   6.908   2.545
 4350TIP3    H212992   1.601   6.919   2.491
 4351TIP3   OH212993   2.194   6.946   0.669
 4351TIP3    H112994   2.164   7.037   0.676
 4351TIP3    H212995   2.278   6.945   0.716
 4352TIP3   OH212996   7.647   6.179   0.363
 4352TIP3    H112997   7.676   6.093   0.395
 4352TIP3    H212998   7.663   6.239   0.437
 4353TIP3   OH212999   3.100   6.140   1.798
 4353TIP3    H113000   3.082   6.117   1.889
 4353TIP3    H213001   3.073   6.063   1.748
 4354TIP3   OH213002   7.420   1.117   5.744
 4354TIP3    H113003   7.339   1.070   5.765
 4354TIP3    H213004   7.423   1.118   5.648
 4355TIP3   OH213005   6.271   0.380   5.430
 4355TIP3    H113006   6.351   0.328   5.439
 4355TIP3    H213007   6.245   0.399   5.520
 4356TIP3   OH213008   5.482   2.132   5.490
 4356TIP3    H113009   5.403   2.082   5.508
 4356TIP3    H213010   5.456   2.195   5.422
 4357TIP3   OH213011   5.119   5.920   0.363
 4357TIP3    H113012   5.163   5.864   0.428
 4357TIP3    H213013   5.138   6.009   0.391
 4358TIP3   OH213014   2.492   1.493   0.620
 4358TIP3    H113015   2.574   1.517   0.577
 4358TIP3    H213016   2.458   1.421   0.567
 4359TIP3   OH213017   1.809   1.161   4.155
 4359TIP3    H113018   1.784   1.139   4.244
 4359TIP3    H213019   1.758   1.240   4.135
 4360TIP3   OH213020   0.973   1.712   0.910
 4360TIP3    H113021   1.054   1.721   0.959
 4360TIP3    H213022   0.951   1.801   0.882
 4361TIP3   OH213023   4.131   2.175   1.635
 4361TIP3    H113024   4.214   2.221   1.645
 4361TIP3    H213025   4.153   2.083   1.644
 4362TIP3   OH213026   0.936   6.132   4.881
 4362TIP3    H113027   0.998   6.166   4.945
 4362TIP3    H213028   0.963   6.171   4.798
 4363TIP3   OH213029   2.988   4.498   1.828
 4363TIP3    H113030   3.022   4.575   1.782
 4363TIP3    H213031   3.031   4.424   1.786
 4364TIP3   OH213032   2.709   0.707   2.475
 4364TIP3    H113033   2.638   0.739   2.420
 4364TIP3    H213034   2.695   0.748   2.560
 4365TIP3   OH213035   0.082   0.204   0.826
 4365TIP3    H113036   0.168   0.165   0.841
 4365TIP3    H213037   0.047   0.222   0.913
 4366TIP3   OH213038   1.473   5.230   4.254
 4366TIP3    H113039   1.442   5.321   4.248
 4366TIP3    H213040   1.395   5.177   4.237
 4367TIP3   OH213041   5.731   4.028   5.094
 4367TIP3    H113042   5.822   4.006   5.114
 4367TIP3    H213043   5.724   4.018   5.000
 4368TIP3   OH213044   8.178   2.573   0.778
 4368TIP3    H113045   8.262   2.556   0.820
 4368TIP3    H213046   8.119   2.594   0.850
 4369TIP3   OH213047   2.449   5.762   4.481
 4369TIP3    H113048   2.468   5.669   4.473
 4369TIP3    H213049   2.360   5.772   4.447
 4370TIP3   OH213050   8.353   3.767   5.479
 4370TIP3    H113051   8.273   3.800   5.438
 4370TIP3    H213052   8.392   3.709   5.413
 4371TIP3   OH213053   0.178   4.679   3.240
 4371TIP3    H113054   0.100   4.660   3.190
 4371TIP3    H213055   0.193   4.773   3.227
 4372TIP3   OH213056   7.718   7.155   1.327
 4372TIP3    H113057   7.638   7.121   1.286
 4372TIP3    H213058   7.788   7.128   1.268
 4373TIP3   OH213059   2.642   0.954   3.610
 4373TIP3    H113060   2.667   0.896   3.682
 4373TIP3    H213061   2.715   1.016   3.603
 4374TIP3   OH213062   6.195   5.855   2.252
 4374TIP3    H113063   6.291   5.856   2.254
 4374TIP3    H213064   6.174   5.821   2.165
 4375TIP3   OH213065   0.197   6.493   3.966
 4375TIP3    H113066   0.126   6.463   4.023
 4375TIP3    H213067   0.268   6.516   4.027
 4376TIP3   OH213068   1.222   0.435   3.868
 4376TIP3    H113069   1.143   0.387   3.842
 4376TIP3    H213070   1.243   0.402   3.955
 4377TIP3   OH213071   3.534   2.484   1.422
 4377TIP3    H113072   3.593   2.537   1.474
 4377TIP3    H213073   3.556   2.394   1.445
 4378TIP3   OH213074   8.051   1.238   5.511
 4378TIP3    H113075   8.145   1.216   5.507
 4378TIP3    H213076   8.010   1.157   5.542
 4379TIP3   OH213077   4.712   1.163   6.039
 4379TIP3    H113078   4.701   1.104   5.964
 4379TIP3    H213079   4.709   1.251   6.001
 4380TIP3   OH213080   5.815   0.707   3.968
 4380TIP3    H113081   5.725   0.685   3.944
 4380TIP3    H213082   5.853   0.741   3.887
 4381TIP3   OH213083   0.011   4.613   5.601
 4381TIP3    H113084   0.066   4.679   5.559
 4381TIP3    H213085  -0.078   4.648   5.596
 4382TIP3   OH213086   4.796   1.275   5.383
 4382TIP3    H113087   4.723   1.327   5.415
 4382TIP3    H213088   4.777   1.186   5.412
 4383TIP3   OH213089   7.285   5.470   6.591
 4383TIP3    H113090   7.264   5.417   6.668
 4383TIP3    H213091   7.201   5.484   6.548
 4384TIP3   OH213092   0.115   1.655   3.900
 4384TIP3    H113093   0.019   1.653   3.895
 4384TIP3    H213094   0.133   1.700   3.983
 4385TIP3   OH213095   3.231   6.385   1.689
 4385TIP3    H113096   3.291   6.361   1.619
 4385TIP3    H213097   3.192   6.302   1.717
 4386TIP3   OH213098   3.252   0.660   3.551
 4386TIP3    H113099   3.297   0.628   3.472
 4386TIP3    H213100   3.260   0.588   3.613
 4387TIP3   OH213101   4.252   5.857   5.396
 4387TIP3    H113102   4.258   5.877   5.490
 4387TIP3    H213103   4.195   5.780   5.392
 4388TIP3   OH213104   2.584   4.062   3.451
 4388TIP3    H113105   2.624   4.010   3.520
 4388TIP3    H213106   2.533   4.000   3.400
 4389TIP3   OH213107   4.137   5.376   0.442
 4389TIP3    H113108   4.122   5.457   0.395
 4389TIP3    H213109   4.133   5.400   0.535
 4390TIP3   OH213110   3.536   6.748   2.724
 4390TIP3    H113111   3.454   6.798   2.721
 4390TIP3    H213112   3.509   6.657   2.737
 4391TIP3   OH213113   2.802   5.312   5.976
 4391TIP3    H113114   2.859   5.383   6.004
 4391TIP3    H213115   2.823   5.239   6.035
 4392TIP3   OH213116   1.857   7.033   5.487
 4392TIP3    H113117   1.898   7.116   5.515
 4392TIP3    H213118   1.896   7.015   5.402
 4393TIP3   OH213119   2.151   4.773   6.765
 4393TIP3    H113120   2.146   4.779   6.860
 4393TIP3    H213121   2.137   4.681   6.746
 4394TIP3   OH213122   0.418   6.726   5.311
 4394TIP3    H113123   0.334   6.739   5.357
 4394TIP3    H213124   0.418   6.634   5.287
 4395TIP3   OH213125   5.514   1.032   4.600
 4395TIP3    H113126   5.514   1.127   4.589
 4395TIP3    H213127   5.479   0.998   4.518
 4396TIP3   OH213128   3.089   5.328   5.837
 4396TIP3    H113129   3.104   5.317   5.931
 4396TIP3    H213130   3.128   5.413   5.817
 4397TIP3   OH213131   3.172   2.041   0.958
 4397TIP3    H113132   3.217   2.031   0.874
 4397TIP3    H213133   3.223   2.106   1.005
 4398TIP3   OH213134   0.361   7.157   6.260
 4398TIP3    H113135   0.441   7.208   6.265
 4398TIP3    H213136   0.347   7.125   6.349
 4399TIP3   OH213137   4.515   4.522   4.246
 4399TIP3    H113138   4.606   4.535   4.271
 4399TIP3    H213139   4.497   4.430   4.266
 4400TIP3   OH213140   3.636   6.443   0.192
 4400TIP3    H113141   3.637   6.470   0.283
 4400TIP3    H213142   3.664   6.352   0.194
 4401TIP3   OH213143   7.594   4.135   2.989
 4401TIP3    H113144   7.673   4.085   2.968
 4401TIP3    H213145   7.620   4.226   2.977
 4402TIP3   OH213146   5.497   7.135   2.854
 4402TIP3    H113147   5.403   7.120   2.841
 4402TIP3    H213148   5.502   7.222   2.892
 4403TIP3   OH213149   1.596   3.038   4.185
 4403TIP3    H113150   1.632   3.118   4.223
 4403TIP3    H213151   1.531   3.009   4.250
 4404TIP3   OH213152   3.108   7.856   0.502
 4404TIP3    H113153   3.103   7.834   0.409
 4404TIP3    H213154   3.140   7.776   0.544
 4405TIP3   OH213155   4.423   1.115   0.878
 4405TIP3    H113156   4.495   1.102   0.940
 4405TIP3    H213157   4.379   1.030   0.874
 4406TIP3   OH213158   4.618   0.152   3.555
 4406TIP3    H113159   4.596   0.059   3.565
 4406TIP3    H213160   4.568   0.196   3.624
 4407TIP3   OH213161   3.466   3.793   1.874
 4407TIP3    H113162   3.547   3.828   1.913
 4407TIP3    H213163   3.423   3.870   1.837
 4408TIP3   OH213164   4.598   5.027   5.621
 4408TIP3    H113165   4.516   5.071   5.597
 4408TIP3    H213166   4.571   4.942   5.655
 4409TIP3   OH213167   4.134   0.428   5.015
 4409TIP3    H113168   4.161   0.380   4.937
 4409TIP3    H213169   4.171   0.516   5.003
 4410TIP3   OH213170   2.925   0.150   5.726
 4410TIP3    H113171   3.004   0.155   5.673
 4410TIP3    H213172   2.853   0.145   5.662
 4411TIP3   OH213173   0.810   1.863   1.999
 4411TIP3    H113174   0.878   1.820   1.946
 4411TIP3    H213175   0.815   1.955   1.974
 4412TIP3   OH213176   5.713   6.863   5.219
 4412TIP3    H113177   5.777   6.798   5.248
 4412TIP3    H213178   5.659   6.817   5.155
 4413TIP3   OH213179   7.718   7.773   3.365
 4413TIP3    H113180   7.750   7.774   3.455
 4413TIP3    H213181   7.634   7.728   3.370
 4414TIP3   OH213182   6.636   1.399   1.591
 4414TIP3    H113183   6.604   1.463   1.528
 4414TIP3    H213184   6.591   1.420   1.672
 4415TIP3   OH213185   2.064   6.893   5.267
 4415TIP3    H113186   2.088   6.801   5.258
 4415TIP3    H213187   2.090   6.916   5.356
 4416TIP3   OH213188   6.651   7.061   1.816
 4416TIP3    H113189   6.696   7.093   1.894
 4416TIP3    H213190   6.631   7.140   1.765
 4417TIP3   OH213191   2.914   6.909   0.678
 4417TIP3    H113192   2.958   6.925   0.762
 4417TIP3    H213193   2.917   6.814   0.667
 4418TIP3   OH213194   8.293   2.370   1.528
 4418TIP3    H113195   8.350   2.293   1.535
 4418TIP3    H213196   8.253   2.362   1.441
 4419TIP3   OH213197   2.945   0.180   3.823
 4419TIP3    H113198   3.022   0.156   3.874
 4419TIP3    H213199   2.965   0.267   3.788
 4420TIP3   OH213200   5.950   2.611   2.576
 4420TIP3    H113201   5.941   2.613   2.480
 4420TIP3    H213202   6.035   2.651   2.592
 4421TIP3   OH213203   5.270   6.332   6.344
 4421TIP3    H113204   5.259   6.322   6.250
 4421TIP3    H213205   5.183   6.354   6.376
 4422TIP3   OH213206   1.177   5.200   4.378
 4422TIP3    H113207   1.239   5.128   4.369
 4422TIP3    H213208   1.220   5.275   4.337
 4423TIP3   OH213209   4.259   2.929   3.960
 4423TIP3    H113210   4.336   2.981   3.982
 4423TIP3    H213211   4.195   2.993   3.928
 4424TIP3   OH213212   2.057   3.247   6.749
 4424TIP3    H113213   2.061   3.333   6.792
 4424TIP3    H213214   2.140   3.241   6.701
 4425TIP3   OH213215   4.522   3.819   1.874
 4425TIP3    H113216   4.589   3.855   1.815
 4425TIP3    H213217   4.495   3.894   1.927
 4426TIP3   OH213218   1.653   3.424   5.929
 4426TIP3    H113219   1.588   3.475   5.979
 4426TIP3    H213220   1.737   3.449   5.967
 4427TIP3   OH213221   4.078   3.295   0.322
 4427TIP3    H113222   4.093   3.221   0.381
 4427TIP3    H213223   4.089   3.372   0.377
 4428TIP3   OH213224   0.417   2.644   3.544
 4428TIP3    H113225   0.455   2.558   3.527
 4428TIP3    H213226   0.355   2.658   3.472
 4429TIP3   OH213227   3.181   5.278   6.339
 4429TIP3    H113228   3.178   5.298   6.246
 4429TIP3    H213229   3.265   5.312   6.369
 4430TIP3   OH213230   0.693   4.158   1.149
 4430TIP3    H113231   0.640   4.224   1.195
 4430TIP3    H213232   0.714   4.199   1.065
 4431TIP3   OH213233   3.172   7.801   6.838
 4431TIP3    H113234   3.253   7.795   6.788
 4431TIP3    H213235   3.148   7.710   6.854
 4432TIP3   OH213236   4.424   4.961   1.842
 4432TIP3    H113237   4.466   5.042   1.874
 4432TIP3    H213238   4.491   4.894   1.851
 4433TIP3   OH213239   2.039   6.227   4.144
 4433TIP3    H113240   2.085   6.230   4.060
 4433TIP3    H213241   1.969   6.164   4.130
 4434TIP3   OH213242   7.446   6.698   3.102
 4434TIP3    H113243   7.480   6.660   3.184
 4434TIP3    H213244   7.524   6.722   3.053
 4435TIP3   OH213245   3.219   3.753   6.089
 4435TIP3    H113246   3.254   3.762   6.000
 4435TIP3    H213247   3.129   3.723   6.076
 4436TIP3   OH213248   5.024   7.878   0.808
 4436TIP3    H113249   5.027   7.962   0.762
 4436TIP3    H213250   4.966   7.824   0.755
 4437TIP3   OH213251   4.849   1.612   5.491
 4437TIP3    H113252   4.901   1.580   5.565
 4437TIP3    H213253   4.909   1.671   5.444
 4438TIP3   OH213254   1.528   2.568   3.418
 4438TIP3    H113255   1.618   2.568   3.386
 4438TIP3    H213256   1.533   2.608   3.505
 4439TIP3   OH213257   2.700   5.443   2.079
 4439TIP3    H113258   2.613   5.413   2.054
 4439TIP3    H213259   2.689   5.536   2.098
 4440TIP3   OH213260   1.678   0.087   4.275
 4440TIP3    H113261   1.636   0.157   4.225
 4440TIP3    H213262   1.771   0.093   4.250
 4441TIP3   OH213263   4.476   0.066   2.239
 4441TIP3    H113264   4.485   0.132   2.171
 4441TIP3    H213265   4.473  -0.017   2.191
 4442TIP3   OH213266   0.475   2.626   1.096
 4442TIP3    H113267   0.533   2.700   1.078
 4442TIP3    H213268   0.522   2.575   1.161
 4443TIP3   OH213269   3.259   6.271   3.162
 4443TIP3    H113270   3.300   6.343   3.115
 4443TIP3    H213271   3.165   6.281   3.147
 4444TIP3   OH213272   7.000   0.579   5.145
 4444TIP3    H113273   7.038   0.663   5.121
 4444TIP3    H213274   6.973   0.590   5.236
 4445TIP3   OH213275   2.006   7.436   6.829
 4445TIP3    H113276   1.962   7.395   6.754
 4445TIP3    H213277   2.091   7.464   6.795
 4446TIP3   OH213278   0.217   4.406   2.547
 4446TIP3    H113279   0.128   4.428   2.573
 4446TIP3    H213280   0.264   4.396   2.630
 4447TIP3   OH213281   6.824   4.950   5.209
 4447TIP3    H113282   6.798   5.042   5.203
 4447TIP3    H213283   6.919   4.952   5.220
 4448TIP3   OH213284   8.267   1.656   3.199
 4448TIP3    H113285   8.174   1.637   3.189
 4448TIP3    H213286   8.279   1.670   3.294
 4449TIP3   OH213287   0.410   3.563   4.106
 4449TIP3    H113288   0.397   3.598   4.018
 4449TIP3    H213289   0.454   3.479   4.092
 4450TIP3   OH213290   4.833   7.785   1.918
 4450TIP3    H113291   4.749   7.741   1.900
 4450TIP3    H213292   4.850   7.836   1.839
 4451TIP3   OH213293   3.870   3.798   0.046
 4451TIP3    H113294   3.844   3.775  -0.043
 4451TIP3    H213295   3.811   3.870   0.070
 4452TIP3   OH213296   2.715   5.776   5.262
 4452TIP3    H113297   2.702   5.857   5.310
 4452TIP3    H213298   2.653   5.715   5.301
 4453TIP3   OH213299   3.083   6.320   0.799
 4453TIP3    H113300   3.173   6.340   0.773
 4453TIP3    H213301   3.059   6.390   0.859
 4454TIP3   OH213302   0.560   5.323   0.232
 4454TIP3    H113303   0.544   5.306   0.325
 4454TIP3    H213304   0.651   5.299   0.219
 4455TIP3   OH213305   4.071   1.769   0.820
 4455TIP3    H113306   4.125   1.809   0.751
 4455TIP3    H213307   4.116   1.792   0.902
 4456TIP3   OH213308   4.040   1.011   2.321
 4456TIP3    H113309   3.986   1.090   2.323
 4456TIP3    H213310   3.990   0.950   2.267
 4457TIP3   OH213311   3.920   5.078   2.593
 4457TIP3    H113312   3.833   5.049   2.622
 4457TIP3    H213313   3.974   5.072   2.672
 4458TIP3   OH213314   4.767   0.678   4.199
 4458TIP3    H113315   4.738   0.714   4.115
 4458TIP3    H213316   4.807   0.751   4.244
 4459TIP3   OH213317   1.298   1.890   3.832
 4459TIP3    H113318   1.252   1.970   3.860
 4459TIP3    H213319   1.232   1.840   3.783
 4460TIP3   OH213320   4.725   1.862   5.456
 4460TIP3    H113321   4.777   1.907   5.523
 4460TIP3    H213322   4.672   1.800   5.505
 4461TIP3   OH213323   3.167   2.872   3.198
 4461TIP3    H113324   3.100   2.866   3.131
 4461TIP3    H213325   3.250   2.865   3.151
 4462TIP3   OH213326   4.343   2.318   0.044
 4462TIP3    H113327   4.296   2.244   0.005
 4462TIP3    H213328   4.387   2.280   0.120
 4463TIP3   OH213329   6.660   4.450   3.339
 4463TIP3    H113330   6.641   4.457   3.432
 4463TIP3    H213331   6.755   4.447   3.334
 4464TIP3   OH213332   4.681   1.790   2.928
 4464TIP3    H113333   4.698   1.872   2.975
 4464TIP3    H213334   4.722   1.803   2.842
 4465TIP3   OH213335   2.202   2.340   2.645
 4465TIP3    H113336   2.277   2.353   2.703
 4465TIP3    H213337   2.240   2.330   2.558
 4466TIP3   OH213338   1.080   2.694   0.341
 4466TIP3    H113339   1.083   2.684   0.246
 4466TIP3    H213340   1.142   2.629   0.374
 4467TIP3   OH213341   1.244   4.374   2.614
 4467TIP3    H113342   1.198   4.438   2.667
 4467TIP3    H213343   1.176   4.332   2.561
 4468TIP3   OH213344   5.035   3.305   0.731
 4468TIP3    H113345   5.006   3.214   0.735
 4468TIP3    H213346   5.012   3.335   0.643
 4469TIP3   OH213347   5.623   7.903   4.126
 4469TIP3    H113348   5.586   7.988   4.102
 4469TIP3    H213349   5.549   7.842   4.120
 4470TIP3   OH213350   8.193   0.128   1.175
 4470TIP3    H113351   8.289   0.126   1.177
 4470TIP3    H213352   8.171   0.219   1.195
 4471TIP3   OH213353   3.967   2.488   6.072
 4471TIP3    H113354   3.909   2.548   6.026
 4471TIP3    H213355   3.909   2.435   6.127
 4472TIP3   OH213356   6.497   5.627   6.484
 4472TIP3    H113357   6.444   5.663   6.555
 4472TIP3    H213358   6.433   5.610   6.414
 4473TIP3   OH213359   5.339   7.423   6.174
 4473TIP3    H113360   5.266   7.393   6.120
 4473TIP3    H213361   5.364   7.507   6.136
 4474TIP3   OH213362   2.441   0.626   0.340
 4474TIP3    H113363   2.478   0.687   0.276
 4474TIP3    H213364   2.490   0.545   0.328
 4475TIP3   OH213365   2.503   5.489   1.839
 4475TIP3    H113366   2.416   5.450   1.837
 4475TIP3    H213367   2.538   5.474   1.751
 4476TIP3   OH213368   7.010   4.123   5.890
 4476TIP3    H113369   7.032   4.058   5.823
 4476TIP3    H213370   7.039   4.083   5.972
 4477TIP3   OH213371   7.889   2.217   3.196
 4477TIP3    H113372   7.962   2.247   3.250
 4477TIP3    H213373   7.862   2.134   3.234
 4478TIP3   OH213374   1.850   1.338   4.749
 4478TIP3    H113375   1.849   1.379   4.663
 4478TIP3    H213376   1.786   1.388   4.800
 4479TIP3   OH213377   2.972   4.749   5.581
 4479TIP3    H113378   2.885   4.711   5.569
 4479TIP3    H213379   2.993   4.787   5.496
 4480TIP3   OH213380   7.253   4.550   2.584
 4480TIP3    H113381   7.198   4.475   2.563
 4480TIP3    H213382   7.210   4.625   2.543
 4481TIP3   OH213383   2.778   1.911   1.742
 4481TIP3    H113384   2.794   1.933   1.651
 4481TIP3    H213385   2.853   1.946   1.789
 4482TIP3   OH213386   1.312   6.528   6.138
 4482TIP3    H113387   1.300   6.588   6.064
 4482TIP3    H213388   1.391   6.560   6.183
 4483TIP3   OH213389   7.595   2.161   3.068
 4483TIP3    H113390   7.664   2.135   3.129
 4483TIP3    H213391   7.545   2.080   3.053
 4484TIP3   OH213392   1.033   0.988   1.930
 4484TIP3    H113393   0.949   1.035   1.929
 4484TIP3    H213394   1.057   0.984   2.022
 4485TIP3   OH213395   6.533   2.290   6.779
 4485TIP3    H113396   6.515   2.252   6.693
 4485TIP3    H213397   6.522   2.384   6.766
 4486TIP3   OH213398   2.418   0.209   5.191
 4486TIP3    H113399   2.336   0.196   5.144
 4486TIP3    H213400   2.446   0.297   5.166
 4487TIP3   OH213401   3.947   1.587   3.733
 4487TIP3    H113402   3.938   1.681   3.720
 4487TIP3    H213403   3.980   1.554   3.650
 4488TIP3   OH213404   2.514   6.310   0.341
 4488TIP3    H113405   2.492   6.398   0.372
 4488TIP3    H213406   2.430   6.265   0.334
 4489TIP3   OH213407   3.198   4.332   1.780
 4489TIP3    H113408   3.288   4.303   1.797
 4489TIP3    H213409   3.169   4.366   1.865
 4490TIP3   OH213410   1.215   7.762   4.454
 4490TIP3    H113411   1.123   7.755   4.430
 4490TIP3    H213412   1.239   7.852   4.429
 4491TIP3   OH213413   6.905   5.241   1.359
 4491TIP3    H113414   6.987   5.266   1.317
 4491TIP3    H213415   6.924   5.242   1.452
 4492TIP3   OH213416   1.855   5.162   5.145
 4492TIP3    H113417   1.931   5.105   5.156
 4492TIP3    H213418   1.803   5.118   5.077
 4493TIP3   OH213419   1.480   1.519   0.153
 4493TIP3    H113420   1.521   1.465   0.220
 4493TIP3    H213421   1.447   1.595   0.201
 4494TIP3   OH213422   3.827   7.780   2.747
 4494TIP3    H113423   3.810   7.784   2.653
 4494TIP3    H213424   3.741   7.790   2.787
 4495TIP3   OH213425   3.234   0.852   4.777
 4495TIP3    H113426   3.219   0.764   4.811
 4495TIP3    H213427   3.320   0.847   4.736
 4496TIP3   OH213428   3.625   2.439   5.360
 4496TIP3    H113429   3.635   2.519   5.412
 4496TIP3    H213430   3.550   2.456   5.303
 4497TIP3   OH213431   4.095   6.426   3.352
 4497TIP3    H113432   4.049   6.507   3.374
 4497TIP3    H213433   4.028   6.358   3.356
 4498TIP3   OH213434   0.069   4.775   1.678
 4498TIP3    H113435   0.048   4.703   1.736
 4498TIP3    H213436  -0.012   4.792   1.630
 4499TIP3   OH213437   1.581   3.146   1.655
 4499TIP3    H113438   1.488   3.159   1.641
 4499TIP3    H213439   1.587   3.080   1.724
 4500TIP3   OH213440   1.657   5.557   2.157
 4500TIP3    H113441   1.589   5.576   2.222
 4500TIP3    H213442   1.631   5.472   2.120
 4501TIP3   OH213443   5.046   2.302   0.400
 4501TIP3    H113444   5.016   2.229   0.345
 4501TIP3    H213445   5.056   2.375   0.340
 4502TIP3   OH213446   0.573   6.052   1.233
 4502TIP3    H113447   0.493   6.016   1.194
 4502TIP3    H213448   0.644   6.007   1.188
 4503TIP3   OH213449   1.909   4.568   3.649
 4503TIP3    H113450   1.860   4.546   3.570
 4503TIP3    H213451   1.847   4.554   3.720
 4504TIP3   OH213452   8.298   2.058   6.164
 4504TIP3    H113453   8.219   2.035   6.116
 4504TIP3    H213454   8.340   2.126   6.112
 4505TIP3   OH213455   4.710   3.749   3.965
 4505TIP3    H113456   4.667   3.670   3.933
 4505TIP3    H213457   4.802   3.724   3.973
 4506TIP3   OH213458   1.802   6.950   2.270
 4506TIP3    H113459   1.775   6.866   2.233
 4506TIP3    H213460   1.725   6.981   2.318
 4507TIP3   OH213461   0.515   7.112   4.197
 4507TIP3    H113462   0.552   7.032   4.158
 4507TIP3    H213463   0.421   7.097   4.196
 4508TIP3   OH213464   5.195   1.914   2.185
 4508TIP3    H113465   5.153   1.842   2.138
 4508TIP3    H213466   5.156   1.911   2.272
 4509TIP3   OH213467   5.637   6.881   1.246
 4509TIP3    H113468   5.605   6.965   1.280
 4509TIP3    H213469   5.730   6.879   1.269
 4510TIP3   OH213470   2.887   7.661   5.275
 4510TIP3    H113471   2.818   7.645   5.209
 4510TIP3    H213472   2.840   7.664   5.358
 4511TIP3   OH213473   7.751   2.275   2.338
 4511TIP3    H113474   7.755   2.264   2.433
 4511TIP3    H213475   7.757   2.186   2.303
 4512TIP3   OH213476   3.338   0.151   1.979
 4512TIP3    H113477   3.270   0.106   1.929
 4512TIP3    H213478   3.305   0.240   1.990
 4513TIP3   OH213479   3.811   5.637   3.117
 4513TIP3    H113480   3.767   5.719   3.095
 4513TIP3    H213481   3.742   5.571   3.110
 4514TIP3   OH213482   5.514   6.998   5.626
 4514TIP3    H113483   5.569   7.017   5.702
 4514TIP3    H213484   5.477   6.912   5.644
 4515TIP3   OH213485   0.871   2.106   6.379
 4515TIP3    H113486   0.809   2.151   6.436
 4515TIP3    H213487   0.859   2.146   6.293
 4516TIP3   OH213488   0.392   5.388   5.655
 4516TIP3    H113489   0.467   5.427   5.699
 4516TIP3    H213490   0.329   5.370   5.725
 4517TIP3   OH213491   4.873   3.950   0.991
 4517TIP3    H113492   4.929   3.909   0.926
 4517TIP3    H213493   4.789   3.961   0.947
 4518TIP3   OH213494   2.801   1.501   3.237
 4518TIP3    H113495   2.772   1.590   3.255
 4518TIP3    H213496   2.872   1.512   3.173
 4519TIP3   OH213497   5.411   4.094   4.914
 4519TIP3    H113498   5.438   4.023   4.973
 4519TIP3    H213499   5.336   4.134   4.958
 4520TIP3   OH213500   7.931   4.825   6.453
 4520TIP3    H113501   7.953   4.795   6.365
 4520TIP3    H213502   7.952   4.752   6.510
 4521TIP3   OH213503   6.459   5.986   2.433
 4521TIP3    H113504   6.395   6.000   2.503
 4521TIP3    H213505   6.520   6.059   2.440
 4522TIP3   OH213506   5.827   3.727   2.982
 4522TIP3    H113507   5.845   3.818   2.959
 4522TIP3    H213508   5.838   3.679   2.899
 4523TIP3   OH213509   2.167   3.351   5.251
 4523TIP3    H113510   2.141   3.349   5.343
 4523TIP3    H213511   2.152   3.262   5.219
 4524TIP3   OH213512   7.979   7.907   1.243
 4524TIP3    H113513   7.913   7.901   1.175
 4524TIP3    H213514   7.951   7.981   1.297
 4525TIP3   OH213515   2.583   3.897   1.701
 4525TIP3    H113516   2.544   3.810   1.706
 4525TIP3    H213517   2.542   3.936   1.623
 4526TIP3   OH213518   1.299   3.139   1.561
 4526TIP3    H113519   1.267   3.111   1.475
 4526TIP3    H213520   1.276   3.066   1.619
 4527TIP3   OH213521   7.469   1.988   1.539
 4527TIP3    H113522   7.411   1.980   1.615
 4527TIP3    H213523   7.444   2.071   1.499
 4528TIP3   OH213524   3.191   5.372   5.018
 4528TIP3    H113525   3.134   5.304   4.982
 4528TIP3    H213526   3.150   5.455   4.991
 4529TIP3   OH213527   6.853   5.690   5.685
 4529TIP3    H113528   6.854   5.779   5.719
 4529TIP3    H213529   6.866   5.701   5.591
 4530TIP3   OH213530   3.900   4.464   0.745
 4530TIP3    H113531   3.872   4.545   0.702
 4530TIP3    H213532   3.920   4.405   0.672
 4531TIP3   OH213533   5.118   7.422   4.587
 4531TIP3    H113534   5.077   7.393   4.506
 4531TIP3    H213535   5.060   7.390   4.656
 4532TIP3   OH213536   6.798   7.487   5.997
 4532TIP3    H113537   6.822   7.407   6.044
 4532TIP3    H213538   6.704   7.479   5.981
 4533TIP3   OH213539   7.246   5.777   1.982
 4533TIP3    H113540   7.184   5.811   2.047
 4533TIP3    H213541   7.191   5.748   1.909
 4534TIP3   OH213542   5.523   5.123   4.556
 4534TIP3    H113543   5.520   5.081   4.469
 4534TIP3    H213544   5.432   5.122   4.585
 4535TIP3   OH213545   0.406   5.426   4.351
 4535TIP3    H113546   0.328   5.472   4.384
 4535TIP3    H213547   0.433   5.370   4.424
 4536TIP3   OH213548   6.595   3.229   1.410
 4536TIP3    H113549   6.506   3.252   1.387
 4536TIP3    H213550   6.594   3.219   1.505
 4537TIP3   OH213551   7.746   6.514   0.029
 4537TIP3    H113552   7.706   6.485  -0.053
 4537TIP3    H213553   7.713   6.453   0.094
 4538TIP3   OH213554   8.002   2.574   2.908
 4538TIP3    H113555   7.960   2.650   2.867
 4538TIP3    H213556   7.973   2.500   2.855
 4539TIP3   OH213557   1.528   3.289   3.792
 4539TIP3    H113558   1.474   3.365   3.767
 4539TIP3    H213559   1.589   3.323   3.857
 4540TIP3   OH213560   0.300   1.196   1.419
 4540TIP3    H113561   0.382   1.162   1.385
 4540TIP3    H213562   0.324   1.274   1.469
 4541TIP3   OH213563   6.410   0.114   3.017
 4541TIP3    H113564   6.409   0.020   3.000
 4541TIP3    H213565   6.384   0.122   3.109
 4542TIP3   OH213566   0.316   5.437   2.873
 4542TIP3    H113567   0.319   5.345   2.846
 4542TIP3    H213568   0.402   5.453   2.912
 4543TIP3   OH213569   8.003   4.320   5.575
 4543TIP3    H113570   8.095   4.314   5.550
 4543TIP3    H213571   7.958   4.256   5.518
 4544TIP3   OH213572   5.127   4.069   4.704
 4544TIP3    H113573   5.185   4.144   4.721
 4544TIP3    H213574   5.131   4.057   4.609
 4545TIP3   OH213575   3.707   3.139   4.104
 4545TIP3    H113576   3.761   3.071   4.065
 4545TIP3    H213577   3.761   3.218   4.100
 4546TIP3   OH213578   8.291   5.861   2.362
 4546TIP3    H113579   8.358   5.888   2.425
 4546TIP3    H213580   8.315   5.906   2.281
 4547TIP3   OH213581   2.250   2.007   2.352
 4547TIP3    H113582   2.204   2.085   2.321
 4547TIP3    H213583   2.188   1.965   2.412
 4548TIP3   OH213584   7.104   1.511   5.203
 4548TIP3    H113585   7.073   1.576   5.140
 4548TIP3    H213586   7.178   1.553   5.247
 4549TIP3   OH213587   3.644   7.554   1.377
 4549TIP3    H113588   3.700   7.632   1.379
 4549TIP3    H213589   3.610   7.552   1.287
 4550TIP3   OH213590   0.437   4.059   6.584
 4550TIP3    H113591   0.490   4.121   6.534
 4550TIP3    H213592   0.365   4.035   6.526
 4551TIP3   OH213593   0.736   3.178   1.875
 4551TIP3    H113594   0.831   3.176   1.867
 4551TIP3    H213595   0.715   3.269   1.896
 4552TIP3   OH213596   4.316   2.322   4.433
 4552TIP3    H113597   4.267   2.258   4.485
 4552TIP3    H213598   4.377   2.362   4.495
 4553TIP3   OH213599   4.837   7.820   6.345
 4553TIP3    H113600   4.860   7.770   6.266
 4553TIP3    H213601   4.922   7.849   6.380
 4554TIP3   OH213602   5.348   6.284   2.512
 4554TIP3    H113603   5.334   6.198   2.471
 4554TIP3    H213604   5.442   6.290   2.523
 4555TIP3   OH213605   2.345   5.356   6.041
 4555TIP3    H113606   2.274   5.295   6.059
 4555TIP3    H213607   2.303   5.432   6.001
 4556TIP3   OH213608   1.843   4.912   6.775
 4556TIP3    H113609   1.778   4.842   6.773
 4556TIP3    H213610   1.799   4.987   6.734
 4557TIP3   OH213611   7.881   0.912   4.197
 4557TIP3    H113612   7.918   0.827   4.175
 4557TIP3    H213613   7.801   0.891   4.245
 4558TIP3   OH213614   6.213   1.304   1.642
 4558TIP3    H113615   6.239   1.338   1.727
 4558TIP3    H213616   6.236   1.374   1.580
 4559TIP3   OH213617   1.936   6.767   1.111
 4559TIP3    H113618   1.916   6.854   1.076
 4559TIP3    H213619   1.896   6.767   1.198
 4560TIP3   OH213620   6.346   0.089   3.283
 4560TIP3    H113621   6.384   0.001   3.293
 4560TIP3    H213622   6.251   0.074   3.284
 4561TIP3   OH213623   2.708   3.588   6.079
 4561TIP3    H113624   2.691   3.495   6.067
 4561TIP3    H213625   2.641   3.618   6.140
 4562TIP3   OH213626   1.946   7.664   1.019
 4562TIP3    H113627   1.881   7.699   0.958
 4562TIP3    H213628   1.899   7.651   1.100
 4563TIP3   OH213629   5.178   0.800   6.551
 4563TIP3    H113630   5.249   0.851   6.513
 4563TIP3    H213631   5.127   0.770   6.475
 4564TIP3   OH213632   8.117   6.177   2.316
 4564TIP3    H113633   8.129   6.173   2.221
 4564TIP3    H213634   8.060   6.103   2.336
 4565TIP3   OH213635   6.867   7.430   1.959
 4565TIP3    H113636   6.869   7.424   1.864
 4565TIP3    H213637   6.803   7.499   1.977
 4566TIP3   OH213638   3.240   2.797   2.439
 4566TIP3    H113639   3.328   2.799   2.402
 4566TIP3    H213640   3.249   2.744   2.519
 4567TIP3   OH213641   4.350   1.655   0.862
 4567TIP3    H113642   4.294   1.729   0.841
 4567TIP3    H213643   4.374   1.618   0.777
 4568TIP3   OH213644   5.525   4.670   2.566
 4568TIP3    H113645   5.529   4.765   2.557
 4568TIP3    H213646   5.609   4.645   2.604
 4569TIP3   OH213647   3.135   5.582   6.033
 4569TIP3    H113648   3.179   5.588   5.948
 4569TIP3    H213649   3.077   5.658   6.036
 4570TIP3   OH213650   4.550   2.702   0.672
 4570TIP3    H113651   4.486   2.758   0.715
 4570TIP3    H213652   4.624   2.761   0.653
 4571TIP3   OH213653   0.749   3.792   1.424
 4571TIP3    H113654   0.729   3.847   1.500
 4571TIP3    H213655   0.800   3.849   1.367
 4572TIP3   OH213656   5.997   1.775   2.003
 4572TIP3    H113657   6.006   1.692   2.051
 4572TIP3    H213658   5.943   1.753   1.928
 4573TIP3   OH213659   3.515   2.833   2.334
 4573TIP3    H113660   3.476   2.891   2.268
 4573TIP3    H213661   3.605   2.820   2.304
 4574TIP3   OH213662   3.523   2.032   2.682
 4574TIP3    H113663   3.533   2.120   2.719
 4574TIP3    H213664   3.571   2.036   2.599
 4575TIP3   OH213665   2.410   3.252   3.068
 4575TIP3    H113666   2.402   3.161   3.095
 4575TIP3    H213667   2.474   3.251   2.997
 4576TIP3   OH213668   1.710   2.098   6.268
 4576TIP3    H113669   1.619   2.090   6.295
 4576TIP3    H213670   1.720   2.035   6.197
 4577TIP3   OH213671   5.953   3.535   6.423
 4577TIP3    H113672   5.944   3.483   6.344
 4577TIP3    H213673   5.886   3.501   6.482
 4578TIP3   OH213674   2.791   7.171   0.041
 4578TIP3    H113675   2.855   7.217  -0.014
 4578TIP3    H213676   2.827   7.176   0.129
 4579TIP3   OH213677   7.380   0.948   2.261
 4579TIP3    H113678   7.378   0.879   2.327
 4579TIP3    H213679   7.399   1.028   2.310
 4580TIP3   OH213680   5.121   2.848   4.399
 4580TIP3    H113681   5.161   2.926   4.360
 4580TIP3    H213682   5.138   2.856   4.493
 4581TIP3   OH213683   3.505   2.532   0.592
 4581TIP3    H113684   3.443   2.460   0.599
 4581TIP3    H213685   3.492   2.566   0.503
 4582TIP3   OH213686   0.696   6.313   6.015
 4582TIP3    H113687   0.681   6.408   6.017
 4582TIP3    H213688   0.647   6.283   5.938
 4583TIP3   OH213689   6.128   6.966   2.770
 4583TIP3    H113690   6.063   6.943   2.704
 4583TIP3    H213691   6.078   7.005   2.841
 4584TIP3   OH213692   3.591   5.557   0.312
 4584TIP3    H113693   3.549   5.472   0.298
 4584TIP3    H213694   3.520   5.613   0.344
 4585TIP3   OH213695   2.398   0.740   3.559
 4585TIP3    H113696   2.414   0.813   3.620
 4585TIP3    H213697   2.377   0.666   3.616
 4586TIP3   OH213698   5.679   0.141   1.390
 4586TIP3    H113699   5.676   0.080   1.464
 4586TIP3    H213700   5.731   0.214   1.421
 4587TIP3   OH213701   0.469   0.616   1.838
 4587TIP3    H113702   0.474   0.615   1.743
 4587TIP3    H213703   0.512   0.535   1.865
 4588TIP3   OH213704   3.433   4.173   4.463
 4588TIP3    H113705   3.393   4.254   4.495
 4588TIP3    H213706   3.512   4.202   4.417
 4589TIP3   OH213707   6.197   2.051   5.010
 4589TIP3    H113708   6.211   2.081   4.920
 4589TIP3    H213709   6.276   2.003   5.033
 4590TIP3   OH213710   3.820   5.892   2.754
 4590TIP3    H113711   3.755   5.875   2.686
 4590TIP3    H213712   3.768   5.904   2.834
 4591TIP3   OH213713   3.664   2.200   5.563
 4591TIP3    H113714   3.750   2.179   5.528
 4591TIP3    H213715   3.637   2.279   5.517
 4592TIP3   OH213716   7.950   7.538   6.726
 4592TIP3    H113717   8.026   7.537   6.667
 4592TIP3    H213718   7.977   7.596   6.798
 4593TIP3   OH213719   4.554   2.232   6.812
 4593TIP3    H113720   4.625   2.171   6.830
 4593TIP3    H213721   4.551   2.289   6.889
 4594TIP3   OH213722   3.534   2.581   4.404
 4594TIP3    H113723   3.550   2.655   4.462
 4594TIP3    H213724   3.594   2.513   4.434
 4595TIP3   OH213725   1.216   3.800   4.529
 4595TIP3    H113726   1.190   3.891   4.521
 4595TIP3    H213727   1.230   3.771   4.438
 4596TIP3   OH213728   4.972   7.286   5.645
 4596TIP3    H113729   4.916   7.209   5.650
 4596TIP3    H213730   5.052   7.260   5.691
 4597TIP3   OH213731   3.686   7.742   3.355
 4597TIP3    H113732   3.731   7.732   3.438
 4597TIP3    H213733   3.726   7.677   3.297
 4598TIP3   OH213734   6.777   2.097   0.700
 4598TIP3    H113735   6.784   2.109   0.795
 4598TIP3    H213736   6.721   2.021   0.689
 4599TIP3   OH213737   1.076   4.808   1.569
 4599TIP3    H113738   1.121   4.724   1.568
 4599TIP3    H213739   1.106   4.852   1.490
 4600TIP3   OH213740   4.522   3.299   4.439
 4600TIP3    H113741   4.527   3.288   4.534
 4600TIP3    H213742   4.535   3.393   4.425
 4601TIP3   OH213743   7.355   4.215   2.883
 4601TIP3    H113744   7.449   4.220   2.904
 4601TIP3    H213745   7.352   4.171   2.798
 4602TIP3   OH213746   1.354   6.671   0.361
 4602TIP3    H113747   1.320   6.633   0.442
 4602TIP3    H213748   1.302   6.629   0.292
 4603TIP3   OH213749   0.575   4.504   2.461
 4603TIP3    H113750   0.608   4.437   2.401
 4603TIP3    H213751   0.611   4.481   2.546
 4604TIP3   OH213752   8.300   4.011   4.198
 4604TIP3    H113753   8.391   4.037   4.212
 4604TIP3    H213754   8.303   3.915   4.197
 4605TIP3   OH213755   1.179   4.446   0.793
 4605TIP3    H113756   1.124   4.393   0.849
 4605TIP3    H213757   1.119   4.484   0.728
 4606TIP3   OH213758   2.097   1.831   1.248
 4606TIP3    H113759   2.123   1.869   1.165
 4606TIP3    H213760   2.156   1.757   1.260
 4607TIP3   OH213761   2.631   5.838   2.542
 4607TIP3    H113762   2.622   5.745   2.522
 4607TIP3    H213763   2.600   5.847   2.633
 4608TIP3   OH213764   2.334   1.176   0.563
 4608TIP3    H113765   2.336   1.238   0.490
 4608TIP3    H213766   2.425   1.168   0.591
 4609TIP3   OH213767   7.930   3.556   0.810
 4609TIP3    H113768   8.024   3.542   0.803
 4609TIP3    H213769   7.891   3.471   0.788
 4610TIP3   OH213770   2.290   5.583   5.298
 4610TIP3    H113771   2.235   5.560   5.223
 4610TIP3    H213772   2.285   5.678   5.303
 4611TIP3   OH213773   6.594   6.441   6.722
 4611TIP3    H113774   6.685   6.413   6.736
 4611TIP3    H213775   6.601   6.531   6.690
 4612TIP3   OH213776   5.191   1.539   0.075
 4612TIP3    H113777   5.253   1.483   0.121
 4612TIP3    H213778   5.188   1.503  -0.014
 4613TIP3   OH213779   1.130   2.139   4.763
 4613TIP3    H113780   1.145   2.148   4.857
 4613TIP3    H213781   1.160   2.051   4.743
 4614TIP3   OH213782   0.589   6.686   6.238
 4614TIP3    H113783   0.652   6.748   6.202
 4614TIP3    H213784   0.619   6.670   6.327
 4615TIP3   OH213785   1.211   1.110   4.979
 4615TIP3    H113786   1.204   1.022   4.945
 4615TIP3    H213787   1.260   1.159   4.913
 4616TIP3   OH213788   7.569   6.982   3.890
 4616TIP3    H113789   7.540   7.051   3.830
 4616TIP3    H213790   7.646   6.944   3.848
 4617TIP3   OH213791   8.156   3.150   1.112
 4617TIP3    H113792   8.203   3.204   1.049
 4617TIP3    H213793   8.124   3.212   1.178
 4618TIP3   OH213794   6.069   4.513   4.041
 4618TIP3    H113795   6.142   4.499   4.101
 4618TIP3    H213796   6.109   4.518   3.955
 4619TIP3   OH213797   2.452   4.688   0.913
 4619TIP3    H113798   2.520   4.670   0.977
 4619TIP3    H213799   2.401   4.607   0.909
 4620TIP3   OH213800   5.302   6.044   2.397
 4620TIP3    H113801   5.309   6.024   2.304
 4620TIP3    H213802   5.308   5.958   2.440
 4621TIP3   OH213803   5.445   7.703   5.620
 4621TIP3    H113804   5.362   7.679   5.660
 4621TIP3    H213805   5.448   7.653   5.539
 4622TIP3   OH213806   5.797   6.808   6.578
 4622TIP3    H113807   5.761   6.865   6.510
 4622TIP3    H213808   5.808   6.865   6.654
 4623TIP3   OH213809   6.553   7.871   0.129
 4623TIP3    H113810   6.645   7.897   0.124
 4623TIP3    H213811   6.554   7.792   0.182
 4624TIP3   OH213812   6.813   0.605   5.892
 4624TIP3    H113813   6.752   0.678   5.904
 4624TIP3    H213814   6.800   0.550   5.970
 4625TIP3   OH213815   6.151   4.883   4.208
 4625TIP3    H113816   6.199   4.946   4.155
 4625TIP3    H213817   6.215   4.851   4.272
 4626TIP3   OH213818   5.694   6.760   3.975
 4626TIP3    H113819   5.695   6.664   3.965
 4626TIP3    H213820   5.760   6.778   4.042
 4627TIP3   OH213821   3.274   4.305   3.499
 4627TIP3    H113822   3.283   4.333   3.590
 4627TIP3    H213823   3.266   4.209   3.504
 4628TIP3   OH213824   6.690   0.112   2.357
 4628TIP3    H113825   6.713   0.154   2.440
 4628TIP3    H213826   6.771   0.070   2.328
 4629TIP3   OH213827   1.519   0.633   0.839
 4629TIP3    H113828   1.553   0.608   0.924
 4629TIP3    H213829   1.596   0.647   0.784
 4630TIP3   OH213830   4.250   7.006   0.603
 4630TIP3    H113831   4.233   6.917   0.635
 4630TIP3    H213832   4.274   6.994   0.511
 4631TIP3   OH213833   1.311   3.244   0.635
 4631TIP3    H113834   1.355   3.313   0.585
 4631TIP3    H213835   1.307   3.279   0.724
 4632TIP3   OH213836   0.650   0.574   3.374
 4632TIP3    H113837   0.634   0.511   3.304
 4632TIP3    H213838   0.609   0.534   3.451
 4633TIP3   OH213839   0.652   6.984   6.571
 4633TIP3    H113840   0.710   7.049   6.611
 4633TIP3    H213841   0.566   7.028   6.570
 4634TIP3   OH213842   6.576   4.361   2.652
 4634TIP3    H113843   6.510   4.366   2.583
 4634TIP3    H213844   6.606   4.451   2.663
 4635TIP3   OH213845   0.982   7.317   2.678
 4635TIP3    H113846   0.993   7.307   2.584
 4635TIP3    H213847   0.892   7.291   2.695
 4636TIP3   OH213848   2.513   2.513   4.321
 4636TIP3    H113849   2.565   2.593   4.322
 4636TIP3    H213850   2.423   2.542   4.307
 4637TIP3   OH213851   4.645   0.351   0.558
 4637TIP3    H113852   4.736   0.320   0.559
 4637TIP3    H213853   4.612   0.329   0.645
 4638TIP3   OH213854   5.922   3.239   3.685
 4638TIP3    H113855   5.981   3.286   3.627
 4638TIP3    H213856   5.904   3.301   3.756
 4639TIP3   OH213857   4.579   7.247   4.483
 4639TIP3    H113858   4.611   7.254   4.393
 4639TIP3    H213859   4.489   7.279   4.478
 4640TIP3   OH213860   6.191   3.059   6.182
 4640TIP3    H113861   6.203   3.128   6.117
 4640TIP3    H213862   6.269   3.064   6.237
 4641TIP3   OH213863   7.810   5.686   4.709
 4641TIP3    H113864   7.840   5.747   4.776
 4641TIP3    H213865   7.861   5.709   4.631
 4642TIP3   OH213866   7.214   1.301   4.311
 4642TIP3    H113867   7.279   1.371   4.320
 4642TIP3    H213868   7.180   1.288   4.400
 4643TIP3   OH213869   2.808   6.396   6.395
 4643TIP3    H113870   2.877   6.459   6.378
 4643TIP3    H213871   2.739   6.418   6.333
 4644TIP3   OH213872   3.627   4.868   2.915
 4644TIP3    H113873   3.572   4.878   2.993
 4644TIP3    H213874   3.575   4.814   2.855
 4645TIP3   OH213875   5.412   0.105   5.254
 4645TIP3    H113876   5.485   0.091   5.314
 4645TIP3    H213877   5.428   0.191   5.216
 4646TIP3   OH213878   6.570   3.051   2.705
 4646TIP3    H113879   6.504   3.072   2.639
 4646TIP3    H213880   6.633   3.123   2.700
 4647TIP3   OH213881   4.084   4.979   2.242
 4647TIP3    H113882   4.058   4.906   2.297
 4647TIP3    H213883   4.107   4.938   2.158
 4648TIP3   OH213884   4.347   6.703   6.208
 4648TIP3    H113885   4.376   6.782   6.252
 4648TIP3    H213886   4.425   6.667   6.166
 4649TIP3   OH213887   1.571   3.018   3.766
 4649TIP3    H113888   1.548   3.110   3.779
 4649TIP3    H213889   1.582   3.009   3.672
 4650TIP3   OH213890   1.495   7.841   5.509
 4650TIP3    H113891   1.474   7.765   5.564
 4650TIP3    H213892   1.426   7.904   5.528
 4651TIP3   OH213893   0.555   0.424   0.068
 4651TIP3    H113894   0.479   0.431   0.010
 4651TIP3    H213895   0.630   0.448   0.014
 4652TIP3   OH213896   0.532   1.640   4.969
 4652TIP3    H113897   0.596   1.672   4.906
 4652TIP3    H213898   0.540   1.697   5.045
 4653TIP3   OH213899   4.329   5.914   3.915
 4653TIP3    H113900   4.417   5.942   3.890
 4653TIP3    H213901   4.330   5.819   3.907
 4654TIP3   OH213902   0.222   6.373   6.547
 4654TIP3    H113903   0.227   6.278   6.552
 4654TIP3    H213904   0.207   6.401   6.637
 4655TIP3   OH213905   0.952   3.733   3.576
 4655TIP3    H113906   0.957   3.828   3.586
 4655TIP3    H213907   1.014   3.699   3.641
 4656TIP3   OH213908   2.525   2.266   6.261
 4656TIP3    H113909   2.448   2.314   6.289
 4656TIP3    H213910   2.498   2.174   6.259
 4657TIP3   OH213911   8.102   3.283   2.110
 4657TIP3    H113912   8.166   3.236   2.056
 4657TIP3    H213913   8.032   3.219   2.126
 4658TIP3   OH213914   5.014   5.140   1.943
 4658TIP3    H113915   4.950   5.087   1.990
 4658TIP3    H213916   4.969   5.167   1.863
 4659TIP3   OH213917   4.119   6.883   1.369
 4659TIP3    H113918   4.136   6.828   1.293
 4659TIP3    H213919   4.095   6.821   1.438
 4660TIP3   OH213920   2.923   7.518   3.657
 4660TIP3    H113921   2.866   7.504   3.582
 4660TIP3    H213922   2.914   7.439   3.710
 4661TIP3   OH213923   5.855   4.858   2.536
 4661TIP3    H113924   5.903   4.941   2.528
 4661TIP3    H213925   5.915   4.801   2.583
 4662TIP3   OH213926   5.446   4.991   3.673
 4662TIP3    H113927   5.374   4.956   3.620
 4662TIP3    H213928   5.427   4.960   3.762
 4663TIP3   OH213929   0.003   2.851   4.640
 4663TIP3    H113930   0.083   2.835   4.690
 4663TIP3    H213931  -0.046   2.769   4.647
 4664TIP3   OH213932   3.396   6.827   3.679
 4664TIP3    H113933   3.304   6.810   3.662
 4664TIP3    H213934   3.406   6.816   3.773
 4665TIP3   OH213935   2.741   3.300   6.071
 4665TIP3    H113936   2.676   3.231   6.064
 4665TIP3    H213937   2.807   3.277   6.005
 4666TIP3   OH213938   8.150   2.911   5.382
 4666TIP3    H113939   8.164   3.005   5.372
 4666TIP3    H213940   8.172   2.893   5.473
 4667TIP3   OH213941   3.214   3.761   1.529
 4667TIP3    H113942   3.138   3.756   1.472
 4667TIP3    H213943   3.195   3.699   1.600
 4668TIP3   OH213944   2.649   2.105   0.787
 4668TIP3    H113945   2.669   2.011   0.796
 4668TIP3    H213946   2.559   2.107   0.754
 4669TIP3   OH213947   1.362   1.228   3.896
 4669TIP3    H113948   1.298   1.291   3.929
 4669TIP3    H213949   1.409   1.275   3.827
 4670TIP3   OH213950   5.572   4.272   2.618
 4670TIP3    H113951   5.514   4.283   2.543
 4670TIP3    H213952   5.541   4.193   2.662
 4671TIP3   OH213953   2.580   0.260   5.718
 4671TIP3    H113954   2.524   0.298   5.650
 4671TIP3    H213955   2.531   0.273   5.799
 4672TIP3   OH213956   4.514   1.253   3.138
 4672TIP3    H113957   4.491   1.168   3.175
 4672TIP3    H213958   4.495   1.316   3.207
 4673TIP3   OH213959   6.751   1.830   1.833
 4673TIP3    H113960   6.704   1.816   1.916
 4673TIP3    H213961   6.750   1.744   1.790
 4674TIP3   OH213962   7.360   6.739   1.212
 4674TIP3    H113963   7.359   6.677   1.139
 4674TIP3    H213964   7.349   6.685   1.290
 4675TIP3   OH213965   2.326   4.392   6.675
 4675TIP3    H113966   2.286   4.374   6.590
 4675TIP3    H213967   2.257   4.372   6.738
 4676TIP3   OH213968   4.181   7.148   2.360
 4676TIP3    H113969   4.097   7.180   2.391
 4676TIP3    H213970   4.218   7.100   2.434
 4677TIP3   OH213971   3.225   2.913   0.038
 4677TIP3    H113972   3.231   2.968  -0.040
 4677TIP3    H213973   3.313   2.911   0.073
 4678TIP3   OH213974   0.412   2.117   4.489
 4678TIP3    H113975   0.464   2.113   4.409
 4678TIP3    H213976   0.379   2.028   4.501
 4679TIP3   OH213977   3.548   1.095   1.511
 4679TIP3    H113978   3.606   1.171   1.505
 4679TIP3    H213979   3.469   1.129   1.552
 4680TIP3   OH213980   8.389   4.290   6.518
 4680TIP3    H113981   8.422   4.375   6.549
 4680TIP3    H213982   8.301   4.309   6.485
 4681TIP3   OH213983   0.894   5.309   5.909
 4681TIP3    H113984   0.813   5.258   5.905
 4681TIP3    H213985   0.916   5.327   5.818
 4682TIP3   OH213986   6.800   0.835   4.021
 4682TIP3    H113987   6.755   0.780   4.084
 4682TIP3    H213988   6.730   0.883   3.976
 4683TIP3   OH213989   0.477   3.031   1.270
 4683TIP3    H113990   0.439   3.109   1.230
 4683TIP3    H213991   0.531   2.992   1.201
 4684TIP3   OH213992   1.749   7.484   5.985
 4684TIP3    H113993   1.673   7.527   6.023
 4684TIP3    H213994   1.818   7.491   6.051
 4685TIP3   OH213995   2.913   0.479   2.667
 4685TIP3    H113996   2.841   0.493   2.605
 4685TIP3    H213997   2.990   0.514   2.623
 4686TIP3   OH213998   2.712   0.515   3.177
 4686TIP3    H113999   2.699   0.534   3.270
 4686TIP3    H214000   2.803   0.484   3.172
 4687TIP3   OH214001   3.230   6.619   4.596
 4687TIP3    H114002   3.159   6.650   4.653
 4687TIP3    H214003   3.310   6.633   4.647
 4688TIP3   OH214004   5.184   3.499   5.188
 4688TIP3    H114005   5.167   3.593   5.198
 4688TIP3    H214006   5.101   3.457   5.211
 4689TIP3   OH214007   2.958   7.365   4.810
 4689TIP3    H114008   3.011   7.443   4.827
 4689TIP3    H214009   2.932   7.374   4.718
 4690TIP3   OH214010   0.854   1.531   1.061
 4690TIP3    H114011   0.938   1.488   1.075
 4690TIP3    H214012   0.865   1.582   0.981
 4691TIP3   OH214013   1.734   2.836   4.320
 4691TIP3    H114014   1.680   2.857   4.396
 4691TIP3    H214015   1.711   2.902   4.254
 4692TIP3   OH214016   0.348   3.612   4.451
 4692TIP3    H114017   0.268   3.644   4.493
 4692TIP3    H214018   0.319   3.542   4.393
 4693TIP3   OH214019   6.298   4.452   1.441
 4693TIP3    H114020   6.333   4.363   1.436
 4693TIP3    H214021   6.358   4.504   1.388
 4694TIP3   OH214022   2.896   4.640   1.517
 4694TIP3    H114023   2.943   4.557   1.507
 4694TIP3    H214024   2.933   4.679   1.596
 4695TIP3   OH214025   6.836   7.647   1.454
 4695TIP3    H114026   6.751   7.690   1.440
 4695TIP3    H214027   6.896   7.696   1.397
 4696TIP3   OH214028   6.442   3.672   5.520
 4696TIP3    H114029   6.503   3.619   5.571
 4696TIP3    H214030   6.497   3.731   5.469
 4697TIP3   OH214031   4.136   6.563   3.829
 4697TIP3    H114032   4.126   6.494   3.763
 4697TIP3    H214033   4.120   6.519   3.913
 4698TIP3   OH214034   2.159   6.756   4.130
 4698TIP3    H114035   2.244   6.762   4.086
 4698TIP3    H214036   2.114   6.686   4.084
 4699TIP3   OH214037   1.487   2.400   3.860
 4699TIP3    H114038   1.581   2.419   3.857
 4699TIP3    H214039   1.480   2.309   3.833
 4700TIP3   OH214040   2.903   4.582   5.161
 4700TIP3    H114041   2.931   4.503   5.207
 4700TIP3    H214042   2.877   4.551   5.074
 4701TIP3   OH214043   4.848   6.517   0.425
 4701TIP3    H114044   4.866   6.431   0.387
 4701TIP3    H214045   4.930   6.565   0.419
 4702TIP3   OH214046   7.310   5.460   0.935
 4702TIP3    H114047   7.343   5.433   0.849
 4702TIP3    H214048   7.240   5.523   0.915
 4703TIP3   OH214049   2.297   7.637   1.954
 4703TIP3    H114050   2.307   7.690   2.033
 4703TIP3    H214051   2.368   7.666   1.897
 4704TIP3   OH214052   6.972   1.033   6.321
 4704TIP3    H114053   6.889   0.993   6.295
 4704TIP3    H214054   6.947   1.105   6.379
 4705TIP3   OH214055   0.789   7.214   0.106
 4705TIP3    H114056   0.777   7.119   0.109
 4705TIP3    H214057   0.853   7.232   0.175
 4706TIP3   OH214058   6.877   6.020   2.177
 4706TIP3    H114059   6.897   6.071   2.255
 4706TIP3    H214060   6.782   6.009   2.180
 4707TIP3   OH214061   8.236   1.315   5.844
 4707TIP3    H114062   8.253   1.365   5.764
 4707TIP3    H214063   8.150   1.346   5.873
 4708TIP3   OH214064   1.449   7.167   2.715
 4708TIP3    H114065   1.387   7.104   2.677
 4708TIP3    H214066   1.458   7.234   2.647
 4709TIP3   OH214067   1.125   6.933   6.051
 4709TIP3    H114068   1.168   7.017   6.065
 4709TIP3    H214069   1.142   6.882   6.130
 4710TIP3   OH214070   4.513   7.088   1.408
 4710TIP3    H114071   4.440   7.082   1.347
 4710TIP3    H214072   4.489   7.029   1.480
 4711TIP3   OH214073   6.373   6.648   4.953
 4711TIP3    H114074   6.288   6.655   4.996
 4711TIP3    H214075   6.430   6.609   5.020
 4712TIP3   OH214076   0.918   6.692   3.809
 4712TIP3    H114077   0.897   6.651   3.892
 4712TIP3    H214078   1.010   6.671   3.794
 4713TIP3   OH214079   0.701   3.508   5.655
 4713TIP3    H114080   0.789   3.531   5.684
 4713TIP3    H214081   0.653   3.591   5.657
 4714TIP3   OH214082   5.240   0.027   2.766
 4714TIP3    H114083   5.160   0.065   2.730
 4714TIP3    H214084   5.309   0.057   2.707
 4715TIP3   OH214085   3.204   4.293   3.103
 4715TIP3    H114086   3.119   4.250   3.110
 4715TIP3    H214087   3.184   4.386   3.107
 4716TIP3   OH214088   3.446   1.095   2.212
 4716TIP3    H114089   3.530   1.102   2.167
 4716TIP3    H214090   3.384   1.070   2.143
 4717TIP3   OH214091   3.911   1.696   2.900
 4717TIP3    H114092   3.850   1.707   2.826
 4717TIP3    H214093   3.989   1.744   2.874
 4718TIP3   OH214094   4.699   1.535   4.172
 4718TIP3    H114095   4.613   1.511   4.136
 4718TIP3    H214096   4.723   1.614   4.125
 4719TIP3   OH214097   3.601   1.327   2.085
 4719TIP3    H114098   3.530   1.349   2.146
 4719TIP3    H214099   3.556   1.285   2.011
 4720TIP3   OH214100   4.034   1.891   6.506
 4720TIP3    H114101   4.012   1.933   6.423
 4720TIP3    H214102   4.042   1.798   6.484
 4721TIP3   OH214103   3.610   7.014   0.424
 4721TIP3    H114104   3.566   6.948   0.478
 4721TIP3    H214105   3.692   7.032   0.470
 4722TIP3   OH214106   3.669   7.228   4.938
 4722TIP3    H114107   3.615   7.171   4.994
 4722TIP3    H214108   3.759   7.204   4.960
 4723TIP3   OH214109   1.012   4.564   2.570
 4723TIP3    H114110   0.947   4.563   2.640
 4723TIP3    H214111   0.997   4.483   2.521
 4724TIP3   OH214112   4.417   1.571   4.402
 4724TIP3    H114113   4.371   1.618   4.333
 4724TIP3    H214114   4.502   1.614   4.409
 4725TIP3   OH214115   4.803   5.256   0.183
 4725TIP3    H114116   4.882   5.224   0.139
 4725TIP3    H214117   4.799   5.349   0.160
 4726TIP3   OH214118   7.150   0.792   6.445
 4726TIP3    H114119   7.157   0.869   6.390
 4726TIP3    H214120   7.086   0.736   6.401
 4727TIP3   OH214121   1.439   5.384   2.002
 4727TIP3    H114122   1.408   5.347   2.084
 4727TIP3    H214123   1.414   5.476   2.005
 4728TIP3   OH214124   5.849   7.493   1.492
 4728TIP3    H114125   5.792   7.489   1.416
 4728TIP3    H214126   5.794   7.463   1.565
 4729TIP3   OH214127   2.371   2.104   2.777
 4729TIP3    H114128   2.392   2.186   2.822
 4729TIP3    H214129   2.304   2.064   2.832
 4730TIP3   OH214130   2.594   3.221   2.360
 4730TIP3    H114131   2.630   3.309   2.369
 4730TIP3    H214132   2.652   3.177   2.298
 4731TIP3   OH214133   7.388   6.307   2.869
 4731TIP3    H114134   7.319   6.354   2.916
 4731TIP3    H214135   7.442   6.376   2.830
 4732TIP3   OH214136   4.362   5.047   5.097
 4732TIP3    H114137   4.397   5.029   5.009
 4732TIP3    H214138   4.322   5.133   5.088
 4733TIP3   OH214139   7.540   7.602   0.468
 4733TIP3    H114140   7.556   7.563   0.554
 4733TIP3    H214141   7.627   7.612   0.429
 4734TIP3   OH214142   0.396   5.707   2.154
 4734TIP3    H114143   0.409   5.791   2.198
 4734TIP3    H214144   0.438   5.643   2.211
 4735TIP3   OH214145   3.567   1.355   1.269
 4735TIP3    H114146   3.610   1.283   1.222
 4735TIP3    H214147   3.637   1.395   1.320
 4736TIP3   OH214148   8.045   0.385   2.215
 4736TIP3    H114149   7.991   0.439   2.157
 4736TIP3    H214150   7.987   0.315   2.243
 4737TIP3   OH214151   6.837   6.307   2.267
 4737TIP3    H114152   6.749   6.281   2.295
 4737TIP3    H214153   6.832   6.402   2.259
 4738TIP3   OH214154   3.192   6.629   5.455
 4738TIP3    H114155   3.174   6.711   5.408
 4738TIP3    H214156   3.180   6.561   5.389
 4739TIP3   OH214157   8.312   3.549   1.522
 4739TIP3    H114158   8.229   3.500   1.526
 4739TIP3    H214159   8.337   3.546   1.430
 4740TIP3   OH214160   5.350   7.322   0.673
 4740TIP3    H114161   5.419   7.276   0.626
 4740TIP3    H214162   5.315   7.256   0.734
 4741TIP3   OH214163   2.435   5.093   2.906
 4741TIP3    H114164   2.455   5.075   2.814
 4741TIP3    H214165   2.347   5.059   2.919
 4742TIP3   OH214166   3.336   3.314   1.239
 4742TIP3    H114167   3.256   3.315   1.187
 4742TIP3    H214168   3.381   3.396   1.215
 4743TIP3   OH214169   5.469   0.462   0.682
 4743TIP3    H114170   5.520   0.417   0.749
 4743TIP3    H214171   5.405   0.397   0.652
 4744TIP3   OH214172   6.601   4.208   0.432
 4744TIP3    H114173   6.691   4.186   0.455
 4744TIP3    H214174   6.547   4.156   0.491
 4745TIP3   OH214175   6.350   2.904   0.899
 4745TIP3    H114176   6.417   2.851   0.858
 4745TIP3    H214177   6.278   2.904   0.836
 4746TIP3   OH214178   1.485   2.873   4.539
 4746TIP3    H114179   1.434   2.869   4.620
 4746TIP3    H214180   1.570   2.907   4.566
 4747TIP3   OH214181   7.890   3.124   2.508
 4747TIP3    H114182   7.842   3.140   2.427
 4747TIP3    H214183   7.846   3.049   2.547
 4748TIP3   OH214184   3.834   0.476   4.960
 4748TIP3    H114185   3.811   0.563   4.926
 4748TIP3    H214186   3.930   0.475   4.957
 4749TIP3   OH214187   8.243   6.804   3.410
 4749TIP3    H114188   8.257   6.859   3.486
 4749TIP3    H214189   8.319   6.746   3.408
 4750TIP3   OH214190   0.905   5.158   2.225
 4750TIP3    H114191   0.914   5.229   2.162
 4750TIP3    H214192   0.902   5.079   2.172
 4751TIP3   OH214193   3.577   6.741   3.501
 4751TIP3    H114194   3.538   6.663   3.460
 4751TIP3    H214195   3.506   6.777   3.554
 4752TIP3   OH214196   6.561   2.462   4.542
 4752TIP3    H114197   6.468   2.443   4.537
 4752TIP3    H214198   6.566   2.558   4.539
 4753TIP3   OH214199   7.928   0.304   3.312
 4753TIP3    H114200   7.882   0.346   3.240
 4753TIP3    H214201   8.020   0.321   3.296
 4754TIP3   OH214202   3.124   4.875   4.483
 4754TIP3    H114203   3.145   4.958   4.440
 4754TIP3    H214204   3.084   4.821   4.415
 4755TIP3   OH214205   1.098   7.227   0.880
 4755TIP3    H114206   1.058   7.275   0.952
 4755TIP3    H214207   1.156   7.164   0.921
 4756TIP3   OH214208   8.037   3.991   4.931
 4756TIP3    H114209   8.081   3.919   4.885
 4756TIP3    H214210   7.985   4.035   4.863
 4757TIP3   OH214211   6.374   3.542   2.679
 4757TIP3    H114212   6.301   3.602   2.696
 4757TIP3    H214213   6.370   3.479   2.751
 4758TIP3   OH214214   7.263   3.989   3.944
 4758TIP3    H114215   7.323   3.914   3.946
 4758TIP3    H214216   7.234   3.999   4.035
 4759TIP3   OH214217   1.225   1.506   5.311
 4759TIP3    H114218   1.259   1.575   5.368
 4759TIP3    H214219   1.249   1.425   5.356
 4760TIP3   OH214220   3.436   1.661   6.235
 4760TIP3    H114221   3.373   1.677   6.164
 4760TIP3    H214222   3.403   1.711   6.309
 4761TIP3   OH214223   4.589   3.696   4.219
 4761TIP3    H114224   4.654   3.717   4.153
 4761TIP3    H214225   4.506   3.723   4.180
 4762TIP3   OH214226   3.632   0.588   1.371
 4762TIP3    H114227   3.552   0.638   1.388
 4762TIP3    H214228   3.683   0.596   1.451
 4763TIP3   OH214229   7.292   3.820   6.429
 4763TIP3    H114230   7.328   3.815   6.517
 4763TIP3    H214231   7.211   3.871   6.439
 4764TIP3   OH214232   7.328   4.443   2.262
 4764TIP3    H114233   7.241   4.484   2.265
 4764TIP3    H214234   7.387   4.515   2.239
 4765TIP3   OH214235   5.407   7.464   0.352
 4765TIP3    H114236   5.328   7.473   0.405
 4765TIP3    H214237   5.475   7.508   0.402
 4766TIP3   OH214238   6.570   6.526   5.720
 4766TIP3    H114239   6.590   6.619   5.709
 4766TIP3    H214240   6.584   6.488   5.633
 4767TIP3   OH214241   1.348   7.780   2.848
 4767TIP3    H114242   1.443   7.770   2.845
 4767TIP3    H214243   1.324   7.806   2.759
 4768TIP3   OH214244   7.366   2.144   1.236
 4768TIP3    H114245   7.310   2.099   1.173
 4768TIP3    H214246   7.450   2.154   1.191
 4769TIP3   OH214247   3.200   2.796   3.603
 4769TIP3    H114248   3.186   2.846   3.684
 4769TIP3    H214249   3.291   2.815   3.580
 4770TIP3   OH214250   7.286   6.023   1.788
 4770TIP3    H114251   7.271   5.982   1.873
 4770TIP3    H214252   7.215   6.087   1.780
 4771TIP3   OH214253   4.886   6.823   4.839
 4771TIP3    H114254   4.899   6.742   4.791
 4771TIP3    H214255   4.895   6.799   4.931
 4772TIP3   OH214256   0.787   6.526   2.067
 4772TIP3    H114257   0.751   6.613   2.086
 4772TIP3    H214258   0.744   6.468   2.129
 4773TIP3   OH214259   4.975   0.149   0.287
 4773TIP3    H114260   4.938   0.229   0.323
 4773TIP3    H214261   4.909   0.119   0.224
 4774TIP3   OH214262   8.036   7.406   1.286
 4774TIP3    H114263   8.028   7.500   1.300
 4774TIP3    H214264   8.127   7.386   1.309
 4775TIP3   OH214265   2.945   6.937   4.542
 4775TIP3    H114266   3.024   6.902   4.500
 4775TIP3    H214267   2.904   6.861   4.583
 4776TIP3   OH214268   8.048   5.777   3.340
 4776TIP3    H114269   8.040   5.688   3.306
 4776TIP3    H214270   8.142   5.795   3.339
 4777TIP3   OH214271   2.302   7.115   5.224
 4777TIP3    H114272   2.252   7.039   5.252
 4777TIP3    H214273   2.235   7.182   5.205
 4778TIP3   OH214274   6.926   5.227   2.940
 4778TIP3    H114275   7.001   5.280   2.914
 4778TIP3    H214276   6.857   5.250   2.878
 4779TIP3   OH214277   2.563   6.998   2.394
 4779TIP3    H114278   2.520   6.913   2.381
 4779TIP3    H214279   2.514   7.058   2.339
 4780TIP3   OH214280   2.682   0.195   0.985
 4780TIP3    H114281   2.695   0.273   0.932
 4780TIP3    H214282   2.659   0.228   1.071
 4781TIP3   OH214283   4.178   5.486   6.357
 4781TIP3    H114284   4.225   5.405   6.374
 4781TIP3    H214285   4.184   5.498   6.262
 4782TIP3   OH214286   4.385   7.415   3.103
 4782TIP3    H114287   4.301   7.408   3.149
 4782TIP3    H214288   4.362   7.442   3.014
 4783TIP3   OH214289   2.060   1.659   2.833
 4783TIP3    H114290   2.055   1.734   2.775
 4783TIP3    H214291   2.086   1.586   2.777
 4784TIP3   OH214292   2.106   7.911   2.316
 4784TIP3    H114293   2.121   7.822   2.346
 4784TIP3    H214294   2.043   7.948   2.378
 4785TIP3   OH214295   0.484   3.499   1.736
 4785TIP3    H114296   0.510   3.515   1.645
 4785TIP3    H214297   0.406   3.444   1.729
 4786TIP3   OH214298   5.502   5.578   0.922
 4786TIP3    H114299   5.416   5.567   0.882
 4786TIP3    H214300   5.540   5.490   0.922
 4787TIP3   OH214301   3.845   0.660   3.196
 4787TIP3    H114302   3.775   0.606   3.159
 4787TIP3    H214303   3.921   0.641   3.141
 4788TIP3   OH214304   4.028   3.541   1.879
 4788TIP3    H114305   4.119   3.517   1.895
 4788TIP3    H214306   4.032   3.616   1.820
 4789TIP3   OH214307   3.220   0.878   4.473
 4789TIP3    H114308   3.295   0.818   4.473
 4789TIP3    H214309   3.251   0.955   4.522
 4790TIP3   OH214310   1.838   3.859   2.879
 4790TIP3    H114311   1.856   3.902   2.963
 4790TIP3    H214312   1.925   3.844   2.841
 4791TIP3   OH214313   1.031   2.653   5.516
 4791TIP3    H114314   1.067   2.668   5.428
 4791TIP3    H214315   0.943   2.690   5.512
 4792TIP3   OH214316   8.372   6.277   0.543
 4792TIP3    H114317   8.361   6.343   0.611
 4792TIP3    H214318   8.356   6.324   0.461
 4793TIP3   OH214319   8.226   4.026   5.775
 4793TIP3    H114320   8.184   4.079   5.843
 4793TIP3    H214321   8.157   3.965   5.747
 4794TIP3   OH214322   1.565   2.399   0.448
 4794TIP3    H114323   1.624   2.432   0.381
 4794TIP3    H214324   1.572   2.462   0.520
 4795TIP3   OH214325   3.586   6.279   3.816
 4795TIP3    H114326   3.540   6.359   3.838
 4795TIP3    H214327   3.679   6.298   3.833
 4796TIP3   OH214328   5.321   7.593   1.845
 4796TIP3    H114329   5.347   7.592   1.753
 4796TIP3    H214330   5.332   7.502   1.874
 4797TIP3   OH214331   4.417   0.844   1.045
 4797TIP3    H114332   4.503   0.816   1.014
 4797TIP3    H214333   4.361   0.842   0.967
 4798TIP3   OH214334   5.495   2.518   2.725
 4798TIP3    H114335   5.578   2.472   2.733
 4798TIP3    H214336   5.482   2.560   2.810
 4799TIP3   OH214337   6.960   7.299   2.750
 4799TIP3    H114338   6.943   7.224   2.808
 4799TIP3    H214339   6.964   7.261   2.662
 4800TIP3   OH214340   5.840   1.712   6.666
 4800TIP3    H114341   5.748   1.736   6.654
 4800TIP3    H214342   5.879   1.789   6.708
 4801TIP3   OH214343   7.220   6.804   3.808
 4801TIP3    H114344   7.134   6.831   3.775
 4801TIP3    H214345   7.282   6.849   3.751
 4802TIP3   OH214346   2.060   6.413   4.764
 4802TIP3    H114347   2.082   6.507   4.758
 4802TIP3    H214348   2.041   6.399   4.856
 4803TIP3   OH214349   3.709   0.327   3.163
 4803TIP3    H114350   3.798   0.338   3.195
 4803TIP3    H214351   3.684   0.239   3.192
 4804TIP3   OH214352   7.799   4.947   1.608
 4804TIP3    H114353   7.774   4.981   1.522
 4804TIP3    H214354   7.720   4.955   1.661
 4805TIP3   OH214355   8.292   6.447   0.734
 4805TIP3    H114356   8.260   6.379   0.794
 4805TIP3    H214357   8.264   6.529   0.774
 4806TIP3   OH214358   3.385   5.921   6.797
 4806TIP3    H114359   3.322   5.866   6.842
 4806TIP3    H214360   3.374   5.901   6.704
 4807TIP3   OH214361   6.507   1.995   3.783
 4807TIP3    H114362   6.583   2.040   3.744
 4807TIP3    H214363   6.469   2.059   3.842
 4808TIP3   OH214364   3.851   2.599   1.070
 4808TIP3    H114365   3.768   2.620   1.028
 4808TIP3    H214366   3.836   2.516   1.115
 4809TIP3   OH214367   0.404   3.049   1.613
 4809TIP3    H114368   0.456   3.036   1.692
 4809TIP3    H214369   0.466   3.039   1.541
 4810TIP3   OH214370   4.970   0.169   1.745
 4810TIP3    H114371   4.941   0.130   1.827
 4810TIP3    H214372   4.925   0.119   1.677
 4811TIP3   OH214373   6.683   5.921   6.129
 4811TIP3    H114374   6.755   5.971   6.167
 4811TIP3    H214375   6.720   5.885   6.048
 4812TIP3   OH214376   6.254   0.793   5.700
 4812TIP3    H114377   6.333   0.841   5.724
 4812TIP3    H214378   6.278   0.700   5.710
 4813TIP3   OH214379   5.935   2.604   6.825
 4813TIP3    H114380   5.941   2.574   6.735
 4813TIP3    H214381   6.024   2.596   6.860
 4814TIP3   OH214382   1.114   6.722   3.534
 4814TIP3    H114383   1.164   6.710   3.453
 4814TIP3    H214384   1.031   6.678   3.518
 4815TIP3   OH214385   2.973   5.743   4.591
 4815TIP3    H114386   2.890   5.737   4.544
 4815TIP3    H214387   2.949   5.766   4.680
 4816TIP3   OH214388   8.121   0.101   0.668
 4816TIP3    H114389   8.139   0.033   0.604
 4816TIP3    H214390   8.026   0.114   0.664
 4817TIP3   OH214391   2.147   0.299   3.819
 4817TIP3    H114392   2.105   0.381   3.793
 4817TIP3    H214393   2.151   0.303   3.914
 4818TIP3   OH214394   7.798   6.317   1.292
 4818TIP3    H114395   7.749   6.262   1.232
 4818TIP3    H214396   7.774   6.286   1.379
 4819TIP3   OH214397   6.726   0.812   3.688
 4819TIP3    H114398   6.820   0.818   3.703
 4819TIP3    H214399   6.687   0.835   3.773
 4820TIP3   OH214400   7.192   4.995   2.133
 4820TIP3    H114401   7.234   5.021   2.215
 4820TIP3    H214402   7.150   4.911   2.152
 4821TIP3   OH214403   0.555   1.048   0.050
 4821TIP3    H114404   0.586   1.040   0.140
 4821TIP3    H214405   0.611   0.988   0.001
 4822TIP3   OH214406   5.175   2.052   2.436
 4822TIP3    H114407   5.144   2.015   2.519
 4822TIP3    H214408   5.199   2.142   2.458
 4823TIP3   OH214409   3.601   0.736   5.673
 4823TIP3    H114410   3.545   0.770   5.744
 4823TIP3    H214411   3.667   0.683   5.718
 4824TIP3   OH214412   4.105   2.493   0.727
 4824TIP3    H114413   4.078   2.440   0.652
 4824TIP3    H214414   4.200   2.499   0.718
 4825TIP3   OH214415   4.176   4.810   4.695
 4825TIP3    H114416   4.188   4.901   4.669
 4825TIP3    H214417   4.099   4.781   4.646
 4826TIP3   OH214418   0.327   3.974   5.243
 4826TIP3    H114419   0.293   3.928   5.167
 4826TIP3    H214420   0.266   4.046   5.258
 4827TIP3   OH214421   4.930   4.817   6.072
 4827TIP3    H114422   5.007   4.859   6.107
 4827TIP3    H214423   4.964   4.754   6.008
 4828TIP3   OH214424   2.667   2.199   3.903
 4828TIP3    H114425   2.676   2.284   3.860
 4828TIP3    H214426   2.674   2.136   3.831
 4829TIP3   OH214427   3.002   7.033   6.805
 4829TIP3    H114428   2.937   7.055   6.872
 4829TIP3    H214429   3.054   6.963   6.845
 4830TIP3   OH214430   0.311   2.863   0.088
 4830TIP3    H114431   0.272   2.776   0.094
 4830TIP3    H214432   0.329   2.888   0.178
 4831TIP3   OH214433   1.681   1.456   0.982
 4831TIP3    H114434   1.598   1.408   0.976
 4831TIP3    H214435   1.661   1.532   1.037
 4832TIP3   OH214436   4.254   7.527   0.597
 4832TIP3    H114437   4.265   7.536   0.691
 4832TIP3    H214438   4.274   7.435   0.580
 4833TIP3   OH214439   1.934   7.137   4.482
 4833TIP3    H114440   1.939   7.109   4.573
 4833TIP3    H214441   2.004   7.089   4.438
 4834TIP3   OH214442   5.458   5.699   3.546
 4834TIP3    H114443   5.481   5.643   3.620
 4834TIP3    H214444   5.464   5.641   3.470
 4835TIP3   OH214445   2.820   3.585   4.370
 4835TIP3    H114446   2.729   3.590   4.398
 4835TIP3    H214447   2.826   3.502   4.322
 4836TIP3   OH214448   2.854   0.840   5.533
 4836TIP3    H114449   2.890   0.793   5.608
 4836TIP3    H214450   2.907   0.920   5.527
 4837TIP3   OH214451   7.794   4.586   3.174
 4837TIP3    H114452   7.778   4.503   3.128
 4837TIP3    H214453   7.784   4.564   3.267
 4838TIP3   OH214454   5.432   4.719   4.892
 4838TIP3    H114455   5.467   4.788   4.948
 4838TIP3    H214456   5.466   4.638   4.929
 4839TIP3   OH214457   1.090   4.192   2.984
 4839TIP3    H114458   1.150   4.159   2.917
 4839TIP3    H214459   1.041   4.115   3.013
 4840TIP3   OH214460   1.797   6.588   4.837
 4840TIP3    H114461   1.785   6.662   4.896
 4840TIP3    H214462   1.828   6.627   4.756
 4841TIP3   OH214463   0.173   2.522   4.818
 4841TIP3    H114464   0.090   2.523   4.769
 4841TIP3    H214465   0.238   2.549   4.754
 4842TIP3   OH214466   8.226   5.308   5.884
 4842TIP3    H114467   8.289   5.236   5.893
 4842TIP3    H214468   8.147   5.277   5.926
 4843TIP3   OH214469   3.064   1.801   1.392
 4843TIP3    H114470   3.133   1.867   1.393
 4843TIP3    H214471   3.060   1.769   1.482
 4844TIP3   OH214472   3.630   1.875   2.911
 4844TIP3    H114473   3.648   1.801   2.853
 4844TIP3    H214474   3.601   1.945   2.853
 4845TIP3   OH214475   3.077   4.193   4.643
 4845TIP3    H114476   3.136   4.253   4.689
 4845TIP3    H214477   2.995   4.198   4.692
 4846TIP3   OH214478   0.574   6.342   5.136
 4846TIP3    H114479   0.571   6.299   5.050
 4846TIP3    H214480   0.508   6.296   5.188
 4847TIP3   OH214481   5.092   3.151   4.918
 4847TIP3    H114482   5.169   3.094   4.916
 4847TIP3    H214483   5.079   3.176   4.826
 4848TIP3   OH214484   2.730   0.442   2.478
 4848TIP3    H114485   2.658   0.389   2.510
 4848TIP3    H214486   2.693   0.530   2.469
 4849TIP3   OH214487   4.699   5.687   2.050
 4849TIP3    H114488   4.682   5.593   2.055
 4849TIP3    H214489   4.613   5.728   2.051
 4850TIP3   OH214490   0.671   3.569   4.173
 4850TIP3    H114491   0.580   3.600   4.170
 4850TIP3    H214492   0.718   3.625   4.112
 4851TIP3   OH214493   0.077   3.988   4.592
 4851TIP3    H114494  -0.005   3.993   4.542
 4851TIP3    H214495   0.050   3.981   4.683
 4852TIP3   OH214496   5.133   5.594   6.002
 4852TIP3    H114497   5.143   5.613   5.909
 4852TIP3    H214498   5.173   5.668   6.046
 4853TIP3   OH214499   0.015   1.931   2.230
 4853TIP3    H114500   0.090   1.936   2.289
 4853TIP3    H214501  -0.027   1.848   2.251
 4854TIP3   OH214502   2.704   5.875   0.945
 4854TIP3    H114503   2.729   5.809   0.881
 4854TIP3    H214504   2.616   5.851   0.972
 4855TIP3   OH214505   3.491   7.312   4.217
 4855TIP3    H114506   3.557   7.259   4.174
 4855TIP3    H214507   3.460   7.373   4.149
 4856TIP3   OH214508   4.617   0.956   4.869
 4856TIP3    H114509   4.592   1.047   4.881
 4856TIP3    H214510   4.587   0.912   4.948
 4857TIP3   OH214511   8.196   4.408   3.468
 4857TIP3    H114512   8.212   4.404   3.374
 4857TIP3    H214513   8.192   4.501   3.488
 4858TIP3   OH214514   7.515   4.376   2.521
 4858TIP3    H114515   7.471   4.326   2.590
 4858TIP3    H214516   7.448   4.392   2.456
 4859TIP3   OH214517   1.246   2.522   0.465
 4859TIP3    H114518   1.293   2.477   0.395
 4859TIP3    H214519   1.229   2.454   0.530
 4860TIP3   OH214520   7.291   7.704   4.875
 4860TIP3    H114521   7.264   7.670   4.790
 4860TIP3    H214522   7.272   7.633   4.936
 4861TIP3   OH214523   1.066   1.960   0.868
 4861TIP3    H114524   1.053   2.022   0.796
 4861TIP3    H214525   1.065   2.015   0.947
 4862TIP3   OH214526   5.617   2.817   2.378
 4862TIP3    H114527   5.566   2.848   2.303
 4862TIP3    H214528   5.552   2.807   2.448
 4863TIP3   OH214529   7.570   3.249   4.881
 4863TIP3    H114530   7.540   3.318   4.939
 4863TIP3    H214531   7.632   3.198   4.933
 4864TIP3   OH214532   3.379   1.104   2.489
 4864TIP3    H114533   3.308   1.167   2.488
 4864TIP3    H214534   3.405   1.096   2.397
 4865TIP3   OH214535   5.140   7.264   3.363
 4865TIP3    H114536   5.129   7.355   3.392
 4865TIP3    H214537   5.119   7.265   3.270
 4866TIP3   OH214538   5.284   6.602   4.169
 4866TIP3    H114539   5.338   6.676   4.142
 4866TIP3    H214540   5.243   6.572   4.088
 4867TIP3   OH214541   4.611   7.872   5.355
 4867TIP3    H114542   4.609   7.793   5.302
 4867TIP3    H214543   4.649   7.939   5.299
 4868TIP3   OH214544   7.001   1.850   2.645
 4868TIP3    H114545   7.058   1.854   2.723
 4868TIP3    H214546   7.062   1.854   2.571
 4869TIP3   OH214547   2.426   0.749   5.872
 4869TIP3    H114548   2.345   0.712   5.837
 4869TIP3    H214549   2.494   0.687   5.845
 4870TIP3   OH214550   7.240   6.144   4.509
 4870TIP3    H114551   7.282   6.155   4.594
 4870TIP3    H214552   7.155   6.105   4.529
 4871TIP3   OH214553   6.595   1.705   6.259
 4871TIP3    H114554   6.513   1.677   6.218
 4871TIP3    H214555   6.664   1.664   6.205
 4872TIP3   OH214556   4.381   6.559   2.819
 4872TIP3    H114557   4.328   6.636   2.837
 4872TIP3    H214558   4.411   6.570   2.729
 4873TIP3   OH214559   3.758   3.695   2.623
 4873TIP3    H114560   3.745   3.730   2.535
 4873TIP3    H214561   3.764   3.601   2.610
 4874TIP3   OH214562   5.717   3.621   4.819
 4874TIP3    H114563   5.794   3.676   4.810
 4874TIP3    H214564   5.666   3.637   4.740
 4875TIP3   OH214565   5.240   6.030   2.997
 4875TIP3    H114566   5.210   6.031   3.088
 4875TIP3    H214567   5.161   6.011   2.946
 4876TIP3   OH214568   3.204   7.209   2.588
 4876TIP3    H114569   3.154   7.128   2.581
 4876TIP3    H214570   3.138   7.277   2.601
 4877TIP3   OH214571   1.567   3.653   2.198
 4877TIP3    H114572   1.525   3.654   2.112
 4877TIP3    H214573   1.654   3.618   2.183
 4878TIP3   OH214574   0.989   7.863   5.979
 4878TIP3    H114575   0.940   7.911   6.047
 4878TIP3    H214576   0.958   7.901   5.897
 4879TIP3   OH214577   7.836   7.760   4.874
 4879TIP3    H114578   7.876   7.680   4.907
 4879TIP3    H214579   7.742   7.744   4.879
 4880TIP3   OH214580   2.155   0.396   5.403
 4880TIP3    H114581   2.224   0.461   5.388
 4880TIP3    H214582   2.113   0.424   5.484
 4881TIP3   OH214583   4.460   1.565   1.178
 4881TIP3    H114584   4.545   1.609   1.190
 4881TIP3    H214585   4.478   1.496   1.114
 4882TIP3   OH214586   2.898   6.399   4.869
 4882TIP3    H114587   2.893   6.489   4.900
 4882TIP3    H214588   2.931   6.406   4.779
 4883TIP3   OH214589   7.375   6.036   3.722
 4883TIP3    H114590   7.309   6.103   3.741
 4883TIP3    H214591   7.376   6.031   3.627
 4884TIP3   OH214592   2.730   2.641   3.126
 4884TIP3    H114593   2.689   2.721   3.159
 4884TIP3    H214594   2.738   2.655   3.031
 4885TIP3   OH214595   2.530   4.944   6.003
 4885TIP3    H114596   2.577   5.008   5.950
 4885TIP3    H214597   2.513   4.988   6.086
 4886TIP3   OH214598   3.251   4.321   0.133
 4886TIP3    H114599   3.319   4.307   0.199
 4886TIP3    H214600   3.298   4.341   0.053
 4887TIP3   OH214601   0.159   1.558   5.785
 4887TIP3    H114602   0.097   1.609   5.836
 4887TIP3    H214603   0.192   1.492   5.846
 4888TIP3   OH214604   5.996   6.782   3.323
 4888TIP3    H114605   5.936   6.837   3.272
 4888TIP3    H214606   6.082   6.822   3.310
 4889TIP3   OH214607   3.810   4.716   0.625
 4889TIP3    H114608   3.848   4.795   0.663
 4889TIP3    H214609   3.729   4.746   0.585
 4890TIP3   OH214610   2.125   7.213   0.746
 4890TIP3    H114611   2.191   7.261   0.795
 4890TIP3    H214612   2.134   7.244   0.656
 4891TIP3   OH214613   8.287   7.568   0.839
 4891TIP3    H114614   8.208   7.578   0.893
 4891TIP3    H214615   8.316   7.658   0.822
 4892TIP3   OH214616   6.880   7.209   3.078
 4892TIP3    H114617   6.889   7.170   3.165
 4892TIP3    H214618   6.838   7.293   3.094
 4893TIP3   OH214619   0.941   2.385   6.539
 4893TIP3    H114620   0.900   2.378   6.453
 4893TIP3    H214621   1.011   2.319   6.538
 4894TIP3   OH214622   0.075   4.664   0.722
 4894TIP3    H114623   0.023   4.644   0.800
 4894TIP3    H214624   0.068   4.586   0.667
 4895TIP3   OH214625   4.618   3.952   2.537
 4895TIP3    H114626   4.559   3.931   2.465
 4895TIP3    H214627   4.592   3.894   2.609
 4896TIP3   OH214628   3.236   7.352   1.178
 4896TIP3    H114629   3.162   7.293   1.197
 4896TIP3    H214630   3.203   7.439   1.201
 4897TIP3   OH214631   7.617   6.246   0.676
 4897TIP3    H114632   7.703   6.275   0.705
 4897TIP3    H214633   7.556   6.309   0.715
 4898TIP3   OH214634   0.616   3.774   6.307
 4898TIP3    H114635   0.708   3.757   6.287
 4898TIP3    H214636   0.609   3.869   6.309
 4899TIP3   OH214637   3.276   0.245   0.822
 4899TIP3    H114638   3.189   0.260   0.859
 4899TIP3    H214639   3.284   0.150   0.816
 4900TIP3   OH214640   3.652   3.788   3.108
 4900TIP3    H114641   3.642   3.784   3.013
 4900TIP3    H214642   3.569   3.754   3.142
 4901TIP3   OH214643   3.133   4.464   4.084
 4901TIP3    H114644   3.190   4.403   4.038
 4901TIP3    H214645   3.193   4.518   4.136
 4902TIP3   OH214646   7.369   7.197   0.097
 4902TIP3    H114647   7.364   7.101   0.102
 4902TIP3    H214648   7.281   7.227   0.117
 4903TIP3   OH214649   0.375   6.001   2.201
 4903TIP3    H114650   0.296   6.035   2.243
 4903TIP3    H214651   0.376   6.042   2.114
 4904TIP3   OH214652   3.480   2.835   1.589
 4904TIP3    H114653   3.508   2.793   1.508
 4904TIP3    H214654   3.513   2.777   1.658
 4905TIP3   OH214655   1.491   4.896   1.463
 4905TIP3    H114656   1.526   4.952   1.393
 4905TIP3    H214657   1.568   4.851   1.498
 4906TIP3   OH214658   0.902   6.447   5.001
 4906TIP3    H114659   0.895   6.352   5.006
 4906TIP3    H214660   0.882   6.478   5.089
 4907TIP3   OH214661   2.193   3.784   0.408
 4907TIP3    H114662   2.128   3.805   0.476
 4907TIP3    H214663   2.141   3.755   0.333
 4908TIP3   OH214664   0.155   0.642   0.433
 4908TIP3    H114665   0.156   0.593   0.351
 4908TIP3    H214666   0.178   0.577   0.499
 4909TIP3   OH214667   0.244   6.855   5.680
 4909TIP3    H114668   0.267   6.772   5.723
 4909TIP3    H214669   0.267   6.841   5.588
 4910TIP3   OH214670   0.825   0.685   1.216
 4910TIP3    H114671   0.815   0.648   1.303
 4910TIP3    H214672   0.915   0.718   1.214
 4911TIP3   OH214673   4.558   2.162   3.080
 4911TIP3    H114674   4.619   2.088   3.086
 4911TIP3    H214675   4.565   2.205   3.165
 4912TIP3   OH214676   1.495   4.577   0.539
 4912TIP3    H114677   1.474   4.538   0.624
 4912TIP3    H214678   1.507   4.502   0.481
 4913TIP3   OH214679   4.947   4.003   0.389
 4913TIP3    H114680   5.010   3.982   0.458
 4913TIP3    H214681   4.993   3.979   0.308
 4914TIP3   OH214682   0.611   5.600   0.259
 4914TIP3    H114683   0.570   5.623   0.175
 4914TIP3    H214684   0.585   5.509   0.273
 4915TIP3   OH214685   1.030   3.724   0.642
 4915TIP3    H114686   1.039   3.636   0.679
 4915TIP3    H214687   0.939   3.748   0.661
 4916TIP3   OH214688   3.968   3.922   2.635
 4916TIP3    H114689   3.912   3.968   2.572
 4916TIP3    H214690   3.978   3.983   2.708
 4917TIP3   OH214691   6.806   0.957   5.215
 4917TIP3    H114692   6.748   0.972   5.290
 4917TIP3    H214693   6.826   1.044   5.181
 4918TIP3   OH214694   1.850   6.299   6.258
 4918TIP3    H114695   1.809   6.215   6.280
 4918TIP3    H214696   1.916   6.312   6.327
 4919TIP3   OH214697   4.657   0.533   4.806
 4919TIP3    H114698   4.749   0.557   4.818
 4919TIP3    H214699   4.621   0.604   4.753
 4920TIP3   OH214700   5.427   4.235   2.981
 4920TIP3    H114701   5.365   4.168   2.954
 4920TIP3    H214702   5.402   4.313   2.932
 4921TIP3   OH214703   2.175   7.464   0.308
 4921TIP3    H114704   2.230   7.436   0.235
 4921TIP3    H214705   2.092   7.491   0.268
 4922TIP3   OH214706   6.647   6.059   2.710
 4922TIP3    H114707   6.568   6.114   2.706
 4922TIP3    H214708   6.630   5.998   2.781
 4923TIP3   OH214709   4.719   4.092   2.817
 4923TIP3    H114710   4.815   4.094   2.818
 4923TIP3    H214711   4.694   4.105   2.908
 4924TIP3   OH214712   0.613   1.387   2.218
 4924TIP3    H114713   0.602   1.455   2.285
 4924TIP3    H214714   0.708   1.375   2.211
 4925TIP3   OH214715   5.038   7.883   4.677
 4925TIP3    H114716   4.982   7.844   4.743
 4925TIP3    H214717   5.072   7.809   4.627
 4926TIP3   OH214718   5.695   5.976   6.381
 4926TIP3    H114719   5.659   6.043   6.439
 4926TIP3    H214720   5.762   5.932   6.433
 4927TIP3   OH214721   3.646   3.368   2.077
 4927TIP3    H114722   3.740   3.359   2.091
 4927TIP3    H214723   3.637   3.434   2.008
 4928TIP3   OH214724   2.450   5.799   1.008
 4928TIP3    H114725   2.421   5.756   1.088
 4928TIP3    H214726   2.369   5.829   0.967
 4929TIP3   OH214727   6.614   1.125   4.565
 4929TIP3    H114728   6.579   1.130   4.654
 4929TIP3    H214729   6.539   1.103   4.511
 4930TIP3   OH214730   7.550   0.796   3.191
 4930TIP3    H114731   7.557   0.884   3.229
 4930TIP3    H214732   7.583   0.737   3.259
 4931TIP3   OH214733   8.250   0.104   5.648
 4931TIP3    H114734   8.160   0.082   5.627
 4931TIP3    H214735   8.260   0.083   5.741
 4932TIP3   OH214736   4.055   5.003   0.256
 4932TIP3    H114737   4.117   5.009   0.329
 4932TIP3    H214738   3.979   5.052   0.285
 4933TIP3   OH214739   6.741   6.177   5.718
 4933TIP3    H114740   6.660   6.191   5.670
 4933TIP3    H214741   6.810   6.204   5.658
 4934TIP3   OH214742   3.354   3.330   2.047
 4934TIP3    H114743   3.449   3.336   2.057
 4934TIP3    H214744   3.325   3.419   2.029
 4935TIP3   OH214745   5.823   0.157   3.194
 4935TIP3    H114746   5.809   0.202   3.111
 4935TIP3    H214747   5.910   0.186   3.222
 4936TIP3   OH214748   4.958   2.727   5.740
 4936TIP3    H114749   4.982   2.635   5.730
 4936TIP3    H214750   5.040   2.771   5.765
 4937TIP3   OH214751   5.822   4.705   4.675
 4937TIP3    H114752   5.823   4.678   4.583
 4937TIP3    H214753   5.824   4.800   4.672
 4938TIP3   OH214754   8.300   2.670   2.294
 4938TIP3    H114755   8.219   2.703   2.332
 4938TIP3    H214756   8.278   2.581   2.265
 4939TIP3   OH214757   2.166   0.814   2.531
 4939TIP3    H114758   2.254   0.850   2.545
 4939TIP3    H214759   2.116   0.843   2.607
 4940TIP3   OH214760   1.188   4.505   4.458
 4940TIP3    H114761   1.158   4.532   4.545
 4940TIP3    H214762   1.108   4.479   4.412
 4941TIP3   OH214763   0.732   6.819   3.053
 4941TIP3    H114764   0.710   6.794   3.142
 4941TIP3    H214765   0.664   6.882   3.028
 4942TIP3   OH214766   2.583   3.536   4.043
 4942TIP3    H114767   2.646   3.487   4.096
 4942TIP3    H214768   2.516   3.563   4.106
 4943TIP3   OH214769   3.067   0.762   4.161
 4943TIP3    H114770   3.010   0.782   4.086
 4943TIP3    H214771   3.059   0.839   4.218
 4944TIP3   OH214772   7.029   6.738   6.392
 4944TIP3    H114773   7.119   6.708   6.377
 4944TIP3    H214774   7.028   6.767   6.483
 4945TIP3   OH214775   6.109   6.509   4.134
 4945TIP3    H114776   6.027   6.524   4.180
 4945TIP3    H214777   6.127   6.416   4.148
 4946TIP3   OH214778   4.104   6.459   0.387
 4946TIP3    H114779   4.192   6.465   0.424
 4946TIP3    H214780   4.114   6.402   0.310
 4947TIP3   OH214781   7.972   7.036   2.213
 4947TIP3    H114782   7.999   7.004   2.299
 4947TIP3    H214783   7.907   6.971   2.183
 4948TIP3   OH214784   3.919   4.900   1.629
 4948TIP3    H114785   3.856   4.966   1.660
 4948TIP3    H214786   3.996   4.952   1.604
 4949TIP3   OH214787   1.284   5.420   5.157
 4949TIP3    H114788   1.268   5.510   5.185
 4949TIP3    H214789   1.268   5.367   5.236
 4950TIP3   OH214790   7.616   6.923   6.669
 4950TIP3    H114791   7.548   6.856   6.677
 4950TIP3    H214792   7.695   6.873   6.647
 4951TIP3   OH214793   6.304   1.949   3.488
 4951TIP3    H114794   6.222   1.914   3.454
 4951TIP3    H214795   6.341   1.999   3.415
 4952TIP3   OH214796   7.188   3.250   0.603
 4952TIP3    H114797   7.149   3.336   0.590
 4952TIP3    H214798   7.165   3.226   0.692
 4953TIP3   OH214799   4.245   0.891   3.818
 4953TIP3    H114800   4.318   0.933   3.771
 4953TIP3    H214801   4.268   0.798   3.820
 4954TIP3   OH214802   4.471   1.416   1.748
 4954TIP3    H114803   4.509   1.444   1.665
 4954TIP3    H214804   4.524   1.340   1.774
 4955TIP3   OH214805   7.344   1.241   1.375
 4955TIP3    H114806   7.359   1.161   1.323
 4955TIP3    H214807   7.398   1.229   1.453
 4956TIP3   OH214808   5.633   4.214   4.770
 4956TIP3    H114809   5.576   4.203   4.847
 4956TIP3    H214810   5.674   4.299   4.783
 4957TIP3   OH214811   1.686   4.655   4.219
 4957TIP3    H114812   1.636   4.702   4.285
 4957TIP3    H214813   1.747   4.720   4.184
 4958TIP3   OH214814   7.670   3.828   4.546
 4958TIP3    H114815   7.753   3.783   4.561
 4958TIP3    H214816   7.662   3.830   4.450
 4959TIP3   OH214817   8.057   0.516   5.368
 4959TIP3    H114818   8.073   0.594   5.316
 4959TIP3    H214819   8.091   0.444   5.315
 4960TIP3   OH214820   2.245   3.168   5.987
 4960TIP3    H114821   2.214   3.199   5.902
 4960TIP3    H214822   2.176   3.194   6.049
 4961TIP3   OH214823   2.189   7.788   0.096
 4961TIP3    H114824   2.097   7.803   0.120
 4961TIP3    H214825   2.233   7.769   0.179
 4962TIP3   OH214826   1.814   7.058   2.012
 4962TIP3    H114827   1.745   7.006   1.971
 4962TIP3    H214828   1.816   7.028   2.103
 4963TIP3   OH214829   0.267   7.207   1.977
 4963TIP3    H114830   0.209   7.283   1.968
 4963TIP3    H214831   0.260   7.182   2.069
 4964TIP3   OH214832   7.445   1.471   1.734
 4964TIP3    H114833   7.485   1.521   1.663
 4964TIP3    H214834   7.416   1.389   1.693
 4965TIP3   OH214835   3.639   7.833   4.385
 4965TIP3    H114836   3.620   7.924   4.406
 4965TIP3    H214837   3.677   7.797   4.465
 4966TIP3   OH214838   5.024   3.379   1.938
 4966TIP3    H114839   5.107   3.424   1.926
 4966TIP3    H214840   5.015   3.323   1.861
 4967TIP3   OH214841   5.420   0.688   0.059
 4967TIP3    H114842   5.339   0.654   0.098
 4967TIP3    H214843   5.454   0.615   0.007
 4968TIP3   OH214844   4.607   0.983   5.511
 4968TIP3    H114845   4.580   0.895   5.536
 4968TIP3    H214846   4.551   1.041   5.563
 4969TIP3   OH214847   6.156   4.800   5.633
 4969TIP3    H114848   6.103   4.721   5.622
 4969TIP3    H214849   6.094   4.868   5.660
 4970TIP3   OH214850   6.139   6.275   3.768
 4970TIP3    H114851   6.165   6.191   3.805
 4970TIP3    H214852   6.051   6.289   3.801
 4971TIP3   OH214853   5.031   6.355   6.463
 4971TIP3    H114854   5.018   6.291   6.532
 4971TIP3    H214855   5.032   6.440   6.508
 4972TIP3   OH214856   6.533   2.825   0.679
 4972TIP3    H114857   6.497   2.758   0.621
 4972TIP3    H214858   6.585   2.881   0.621
 4973TIP3   OH214859   1.449   2.920   3.313
 4973TIP3    H114860   1.422   2.963   3.233
 4973TIP3    H214861   1.413   2.974   3.383
 4974TIP3   OH214862   3.346   5.130   4.826
 4974TIP3    H114863   3.310   5.043   4.842
 4974TIP3    H214864   3.291   5.189   4.878
 4975TIP3   OH214865   3.642   6.925   6.266
 4975TIP3    H114866   3.594   6.969   6.336
 4975TIP3    H214867   3.580   6.862   6.230
 4976TIP3   OH214868   0.600   1.094   2.409
 4976TIP3    H114869   0.625   1.094   2.501
 4976TIP3    H214870   0.505   1.081   2.410
 4977TIP3   OH214871   3.389   0.129   3.271
 4977TIP3    H114872   3.302   0.096   3.296
 4977TIP3    H214873   3.411   0.081   3.191
 4978TIP3   OH214874   6.738   7.109   6.563
 4978TIP3    H114875   6.797   7.184   6.565
 4978TIP3    H214876   6.775   7.048   6.627
 4979TIP3   OH214877   7.144   5.228   4.576
 4979TIP3    H114878   7.070   5.201   4.630
 4979TIP3    H214879   7.197   5.284   4.632
 4980TIP3   OH214880   2.377   2.851   4.031
 4980TIP3    H114881   2.305   2.854   3.968
 4980TIP3    H214882   2.429   2.929   4.013
 4981TIP3   OH214883   0.109   4.932   6.162
 4981TIP3    H114884   0.204   4.931   6.165
 4981TIP3    H214885   0.084   5.017   6.199
 4982TIP3   OH214886   6.796   1.099   0.977
 4982TIP3    H114887   6.823   1.124   1.066
 4982TIP3    H214888   6.710   1.059   0.989
 4983TIP3   OH214889   6.850   1.669   3.525
 4983TIP3    H114890   6.836   1.763   3.509
 4983TIP3    H214891   6.941   1.654   3.498
 4984TIP3   OH214892   1.164   0.886   0.094
 4984TIP3    H114893   1.110   0.848   0.024
 4984TIP3    H214894   1.155   0.981   0.082
 4985TIP3   OH214895   2.659   6.632   1.238
 4985TIP3    H114896   2.714   6.702   1.275
 4985TIP3    H214897   2.721   6.565   1.210
 4986TIP3   OH214898   6.565   3.578   4.181
 4986TIP3    H114899   6.558   3.673   4.190
 4986TIP3    H214900   6.555   3.563   4.087
 4987TIP3   OH214901   5.604   3.902   2.731
 4987TIP3    H114902   5.609   3.880   2.638
 4987TIP3    H214903   5.534   3.846   2.765
 4988TIP3   OH214904   6.841   1.614   2.404
 4988TIP3    H114905   6.923   1.572   2.430
 4988TIP3    H214906   6.835   1.692   2.459
 4989TIP3   OH214907   0.771   6.889   4.954
 4989TIP3    H114908   0.741   6.834   4.881
 4989TIP3    H214909   0.690   6.916   4.998
 4990TIP3   OH214910   4.499   4.873   4.628
 4990TIP3    H114911   4.461   4.898   4.543
 4990TIP3    H214912   4.520   4.780   4.618
 4991TIP3   OH214913   4.116   7.875   2.279
 4991TIP3    H114914   4.156   7.928   2.209
 4991TIP3    H214915   4.189   7.826   2.316
 4992TIP3   OH214916   1.062   5.505   0.656
 4992TIP3    H114917   1.147   5.475   0.687
 4992TIP3    H214918   1.002   5.488   0.728
 4993TIP3   OH214919   2.540   6.633   4.476
 4993TIP3    H114920   2.585   6.709   4.438
 4993TIP3    H214921   2.447   6.652   4.464
 4994TIP3   OH214922   5.115   6.248   4.138
 4994TIP3    H114923   5.022   6.272   4.128
 4994TIP3    H214924   5.132   6.256   4.231
 4995TIP3   OH214925   1.778   4.240   1.714
 4995TIP3    H114926   1.864   4.210   1.743
 4995TIP3    H214927   1.776   4.220   1.620
 4996TIP3   OH214928   1.183   1.285   3.581
 4996TIP3    H114929   1.230   1.357   3.625
 4996TIP3    H214930   1.095   1.318   3.567
 4997TIP3   OH214931   1.752   6.456   2.231
 4997TIP3    H114932   1.733   6.543   2.196
 4997TIP3    H214933   1.813   6.417   2.168
 4998TIP3   OH214934   0.356   6.854   2.288
 4998TIP3    H114935   0.295   6.890   2.223
 4998TIP3    H214936   0.379   6.768   2.253
 4999TIP3   OH214937   1.193   7.838   6.449
 4999TIP3    H114938   1.247   7.894   6.393
 4999TIP3    H214939   1.159   7.897   6.516
 5000TIP3   OH214940   7.880   2.458   3.792
 5000TIP3    H114941   7.929   2.375   3.790
 5000TIP3    H214942   7.899   2.499   3.708
 5001TIP3   OH214943   4.736   5.226   5.179
 5001TIP3    H114944   4.820   5.180   5.183
 5001TIP3    H214945   4.749   5.305   5.231
 5002TIP3   OH214946   2.252   0.966   5.531
 5002TIP3    H114947   2.204   0.891   5.567
 5002TIP3    H214948   2.268   1.022   5.607
 5003TIP3   OH214949   0.392   0.421   0.920
 5003TIP3    H114950   0.474   0.467   0.902
 5003TIP3    H214951   0.351   0.473   0.989
 5004TIP3   OH214952   6.535   7.183   2.226
 5004TIP3    H114953   6.492   7.154   2.145
 5004TIP3    H214954   6.558   7.274   2.210
 5005TIP3   OH214955   0.606   1.043   0.798
 5005TIP3    H114956   0.537   1.090   0.752
 5005TIP3    H214957   0.687   1.080   0.763
 5006TIP3   OH214958   6.659   0.595   6.638
 5006TIP3    H114959   6.659   0.535   6.713
 5006TIP3    H214960   6.747   0.634   6.638
 5007TIP3   OH214961   6.241   3.544   2.343
 5007TIP3    H114962   6.280   3.484   2.280
 5007TIP3    H214963   6.216   3.489   2.417
 5008TIP3   OH214964   6.963   0.952   4.391
 5008TIP3    H114965   7.025   0.882   4.413
 5008TIP3    H214966   6.908   0.961   4.469
 5009TIP3   OH214967   1.207   4.821   5.361
 5009TIP3    H114968   1.214   4.869   5.279
 5009TIP3    H214969   1.263   4.870   5.422
 5010TIP3   OH214970   0.289   3.421   5.147
 5010TIP3    H114971   0.332   3.473   5.079
 5010TIP3    H214972   0.197   3.447   5.143
 5011TIP3   OH214973   6.159   0.833   2.301
 5011TIP3    H114974   6.071   0.837   2.263
 5011TIP3    H214975   6.202   0.912   2.270
 5012TIP3   OH214976   7.179   2.295   0.212
 5012TIP3    H114977   7.238   2.360   0.250
 5012TIP3    H214978   7.097   2.342   0.198
 5013TIP3   OH214979   5.833   4.279   3.920
 5013TIP3    H114980   5.880   4.353   3.958
 5013TIP3    H214981   5.865   4.202   3.968
 5014TIP3   OH214982   8.382   7.022   1.804
 5014TIP3    H114983   8.435   6.978   1.871
 5014TIP3    H214984   8.292   7.001   1.827
 5015TIP3   OH214985   3.422   1.256   0.751
 5015TIP3    H114986   3.385   1.176   0.789
 5015TIP3    H214987   3.482   1.224   0.683
 5016TIP3   OH214988   1.868   7.027   0.066
 5016TIP3    H114989   1.950   6.984   0.042
 5016TIP3    H214990   1.893   7.097   0.126
 5017TIP3   OH214991   6.547   6.385   1.463
 5017TIP3    H114992   6.518   6.476   1.466
 5017TIP3    H214993   6.585   6.369   1.550
 5018TIP3   OH214994   0.481   4.170   5.401
 5018TIP3    H114995   0.403   4.223   5.419
 5018TIP3    H214996   0.459   4.122   5.321
 5019TIP3   OH214997   1.207   1.712   0.763
 5019TIP3    H114998   1.120   1.748   0.778
 5019TIP3    H214999   1.259   1.744   0.837
 5020TIP3   OH215000   5.802   6.208   0.305
 5020TIP3    H115001   5.789   6.199   0.400
 5020TIP3    H215002   5.756   6.289   0.282
 5021TIP3   OH215003   4.222   6.357   2.296
 5021TIP3    H115004   4.283   6.283   2.304
 5021TIP3    H215005   4.188   6.350   2.207
 5022TIP3   OH215006   1.839   3.291   6.577
 5022TIP3    H115007   1.792   3.366   6.615
 5022TIP3    H215008   1.911   3.274   6.638
 5023TIP3   OH215009   0.389   2.821   5.833
 5023TIP3    H115010   0.339   2.878   5.774
 5023TIP3    H215011   0.326   2.795   5.899
 5024TIP3   OH215012   3.649   2.479   0.804
 5024TIP3    H115013   3.712   2.551   0.802
 5024TIP3    H215014   3.608   2.481   0.718
 5025TIP3   OH215015   7.897   5.114   6.847
 5025TIP3    H115016   7.819   5.087   6.798
 5025TIP3    H215017   7.946   5.033   6.862
 5026TIP3   OH215018   4.979   1.836   2.475
 5026TIP3    H115019   5.019   1.863   2.558
 5026TIP3    H215020   5.002   1.743   2.467
 5027TIP3   OH215021   5.532   6.981   3.093
 5027TIP3    H115022   5.469   6.911   3.077
 5027TIP3    H215023   5.574   6.995   3.008
 5028TIP3   OH215024   6.634   0.455   1.771
 5028TIP3    H115025   6.586   0.499   1.842
 5028TIP3    H215026   6.714   0.506   1.762
 5029TIP3   OH215027   5.649   0.047   3.471
 5029TIP3    H115028   5.653   0.019   3.380
 5029TIP3    H215029   5.739   0.076   3.491
 5030TIP3   OH215030   1.551   5.392   6.519
 5030TIP3    H115031   1.599   5.410   6.438
 5030TIP3    H215032   1.614   5.405   6.589
 5031TIP3   OH215033   0.461   2.357   3.554
 5031TIP3    H115034   0.391   2.331   3.493
 5031TIP3    H215035   0.437   2.315   3.637
 5032TIP3   OH215036   0.632   4.423   2.741
 5032TIP3    H115037   0.693   4.492   2.765
 5032TIP3    H215038   0.683   4.342   2.749
 5033TIP3   OH215039   8.148   0.365   1.385
 5033TIP3    H115040   8.114   0.454   1.383
 5033TIP3    H215041   8.071   0.309   1.373
 5034TIP3   OH215042   8.262   6.372   4.430
 5034TIP3    H115043   8.220   6.388   4.514
 5034TIP3    H215044   8.251   6.453   4.381
 5035TIP3   OH215045   8.232   7.353   5.950
 5035TIP3    H115046   8.311   7.355   5.895
 5035TIP3    H215047   8.163   7.388   5.894
 5036TIP3   OH215048   2.083   5.675   6.385
 5036TIP3    H115049   2.002   5.712   6.421
 5036TIP3    H215050   2.153   5.715   6.437
 5037TIP3   OH215051   3.379   3.766   3.115
 5037TIP3    H115052   3.353   3.795   3.028
 5037TIP3    H215053   3.390   3.847   3.165
 5038TIP3   OH215054   3.830   3.255   5.836
 5038TIP3    H115055   3.919   3.221   5.830
 5038TIP3    H215056   3.779   3.184   5.875
 5039TIP3   OH215057   5.620   7.460   2.039
 5039TIP3    H115058   5.570   7.525   2.089
 5039TIP3    H215059   5.589   7.376   2.072
 5040TIP3   OH215060   3.173   5.249   3.287
 5040TIP3    H115061   3.092   5.207   3.315
 5040TIP3    H215062   3.169   5.337   3.326
 5041TIP3   OH215063   8.138   6.369   0.202
 5041TIP3    H115064   8.182   6.395   0.283
 5041TIP3    H215065   8.066   6.431   0.193
 5042TIP3   OH215066   6.329   7.758   2.334
 5042TIP3    H115067   6.307   7.665   2.332
 5042TIP3    H215068   6.326   7.781   2.427
 5043TIP3   OH215069   3.586   1.187   6.012
 5043TIP3    H115070   3.575   1.243   6.089
 5043TIP3    H215071   3.536   1.230   5.943
 5044TIP3   OH215072   1.608   6.864   2.017
 5044TIP3    H115073   1.557   6.783   2.020
 5044TIP3    H215074   1.545   6.933   2.037
 5045TIP3   OH215075   6.466   4.443   0.356
 5045TIP3    H115076   6.506   4.357   0.371
 5045TIP3    H215077   6.523   4.485   0.291
 5046TIP3   OH215078   2.783   0.570   1.567
 5046TIP3    H115079   2.809   0.559   1.658
 5046TIP3    H215080   2.840   0.511   1.518
 5047TIP3   OH215081   1.348   7.564   5.046
 5047TIP3    H115082   1.397   7.501   5.100
 5047TIP3    H215083   1.362   7.534   4.956
 5048TIP3   OH215084   1.203   4.389   3.467
 5048TIP3    H115085   1.182   4.372   3.376
 5048TIP3    H215086   1.256   4.469   3.466
 5049TIP3   OH215087   1.986   3.049   1.321
 5049TIP3    H115088   2.027   2.972   1.283
 5049TIP3    H215089   2.042   3.071   1.396
 5050TIP3   OH215090   2.618   5.362   4.026
 5050TIP3    H115091   2.689   5.318   3.980
 5050TIP3    H215092   2.548   5.368   3.962
 5051TIP3   OH215093   5.573   2.190   5.804
 5051TIP3    H115094   5.565   2.285   5.793
 5051TIP3    H215095   5.664   2.176   5.831
 5052TIP3   OH215096   0.514   0.933   1.600
 5052TIP3    H115097   0.577   0.862   1.616
 5052TIP3    H215098   0.432   0.901   1.637
 5053TIP3   OH215099   7.274   2.325   3.420
 5053TIP3    H115100   7.221   2.405   3.418
 5053TIP3    H215101   7.289   2.309   3.513
 5054TIP3   OH215102   4.525   7.840   6.214
 5054TIP3    H115103   4.509   7.869   6.304
 5054TIP3    H215104   4.616   7.811   6.215
 5055TIP3   OH215105   0.762   7.149   0.626
 5055TIP3    H115106   0.770   7.241   0.652
 5055TIP3    H215107   0.845   7.110   0.652
 5056TIP3   OH215108   7.102   3.812   2.022
 5056TIP3    H115109   7.076   3.903   2.039
 5056TIP3    H215110   7.031   3.777   1.968
 5057TIP3   OH215111   7.065   7.162   5.390
 5057TIP3    H115112   7.132   7.229   5.380
 5057TIP3    H215113   7.061   7.119   5.305
 5058TIP3   OH215114   4.386   3.829   4.095
 5058TIP3    H115115   4.421   3.873   4.017
 5058TIP3    H215116   4.291   3.829   4.082
 5059TIP3   OH215117   4.860   2.099   2.196
 5059TIP3    H115118   4.926   2.116   2.263
 5059TIP3    H215119   4.859   2.179   2.143
 5060TIP3   OH215120   3.983   3.765   4.582
 5060TIP3    H115121   3.977   3.784   4.488
 5060TIP3    H215122   3.910   3.707   4.600
 5061TIP3   OH215123   8.126   3.752   1.552
 5061TIP3    H115124   8.189   3.685   1.525
 5061TIP3    H215125   8.099   3.726   1.640
 5062TIP3   OH215126   4.769   6.899   5.363
 5062TIP3    H115127   4.747   6.883   5.455
 5062TIP3    H215128   4.752   6.815   5.319
 5063TIP3   OH215129   5.150   2.523   5.418
 5063TIP3    H115130   5.170   2.551   5.508
 5063TIP3    H215131   5.177   2.597   5.363
 5064TIP3   OH215132   5.287   2.284   2.628
 5064TIP3    H115133   5.348   2.248   2.692
 5064TIP3    H215134   5.254   2.364   2.668
 5065TIP3   OH215135   0.838   3.261   2.697
 5065TIP3    H115136   0.775   3.244   2.766
 5065TIP3    H215137   0.843   3.179   2.648
 5066TIP3   OH215138   7.287   6.578   6.233
 5066TIP3    H115139   7.229   6.512   6.270
 5066TIP3    H215140   7.370   6.531   6.220
 5067TIP3   OH215141   6.315   0.527   5.167
 5067TIP3    H115142   6.323   0.441   5.207
 5067TIP3    H215143   6.382   0.529   5.098
 5068TIP3   OH215144   7.923   5.777   6.690
 5068TIP3    H115145   7.932   5.796   6.596
 5068TIP3    H215146   7.829   5.769   6.703
 5069TIP3   OH215147   4.049   1.505   5.563
 5069TIP3    H115148   4.110   1.462   5.503
 5069TIP3    H215149   3.962   1.476   5.534
 5070TIP3   OH215150   4.077   5.243   6.772
 5070TIP3    H115151   4.122   5.291   6.703
 5070TIP3    H215152   4.130   5.164   6.784
 5071TIP3   OH215153   1.196   7.298   0.114
 5071TIP3    H115154   1.132   7.302   0.042
 5071TIP3    H215155   1.230   7.388   0.120
 5072TIP3   OH215156   5.156   7.394   4.274
 5072TIP3    H115157   5.066   7.393   4.242
 5072TIP3    H215158   5.209   7.407   4.196
 5073TIP3   OH215159   5.297   7.759   1.392
 5073TIP3    H115160   5.381   7.805   1.395
 5073TIP3    H215161   5.320   7.666   1.398
 5074TIP3   OH215162   7.028   5.428   3.674
 5074TIP3    H115163   7.066   5.448   3.589
 5074TIP3    H215164   7.074   5.348   3.703
 5075TIP3   OH215165   0.140   3.692   1.118
 5075TIP3    H115166   0.182   3.738   1.045
 5075TIP3    H215167   0.193   3.613   1.131
 5076TIP3   OH215168   2.796   3.336   0.671
 5076TIP3    H115169   2.705   3.364   0.681
 5076TIP3    H215170   2.790   3.241   0.660
 5077TIP3   OH215171   0.254   7.723   1.948
 5077TIP3    H115172   0.314   7.737   2.021
 5077TIP3    H215173   0.196   7.653   1.977
 5078TIP3   OH215174   3.933   2.493   0.431
 5078TIP3    H115175   3.887   2.409   0.424
 5078TIP3    H215176   3.918   2.536   0.347
 5079TIP3   OH215177   6.772   7.761   5.097
 5079TIP3    H115178   6.768   7.667   5.078
 5079TIP3    H215179   6.865   7.778   5.113
 5080TIP3   OH215180   4.878   5.330   6.532
 5080TIP3    H115181   4.793   5.374   6.535
 5080TIP3    H215182   4.935   5.390   6.482
 5081TIP3   OH215183   0.693   4.240   5.559
 5081TIP3    H115184   0.710   4.147   5.574
 5081TIP3    H215185   0.615   4.242   5.504
 5082TIP3   OH215186   8.163   4.143   6.758
 5082TIP3    H115187   8.079   4.097   6.760
 5082TIP3    H215188   8.146   4.223   6.707
 5083TIP3   OH215189   6.504   5.779   4.001
 5083TIP3    H115190   6.447   5.806   4.073
 5083TIP3    H215191   6.561   5.854   3.985
 5084TIP3   OH215192   5.209   7.757   5.314
 5084TIP3    H115193   5.180   7.715   5.233
 5084TIP3    H215194   5.304   7.739   5.317
 5085TIP3   OH215195   8.279   0.452   5.932
 5085TIP3    H115196   8.310   0.491   5.850
 5085TIP3    H215197   8.198   0.498   5.952
 5086TIP3   OH215198   2.282   0.339   2.240
 5086TIP3    H115199   2.311   0.389   2.317
 5086TIP3    H215200   2.349   0.272   2.227
 5087TIP3   OH215201   8.077   0.733   2.085
 5087TIP3    H115202   8.001   0.676   2.090
 5087TIP3    H215203   8.121   0.708   2.004
 5088TIP3   OH215204   1.390   5.527   0.322
 5088TIP3    H115205   1.456   5.508   0.389
 5088TIP3    H215206   1.343   5.444   0.311
 5089TIP3   OH215207   4.605   1.755   3.600
 5089TIP3    H115208   4.539   1.787   3.539
 5089TIP3    H215209   4.583   1.797   3.683
 5090TIP3   OH215210   2.428   6.290   2.080
 5090TIP3    H115211   2.506   6.341   2.058
 5090TIP3    H215212   2.446   6.203   2.043
 5091TIP3   OH215213   5.185   1.015   6.306
 5091TIP3    H115214   5.159   0.967   6.228
 5091TIP3    H215215   5.231   1.092   6.272
 5092TIP3   OH215216   6.896   7.733   1.768
 5092TIP3    H115217   6.831   7.771   1.709
 5092TIP3    H215218   6.890   7.786   1.848
 5093TIP3   OH215219   5.679   5.960   4.903
 5093TIP3    H115220   5.761   6.008   4.904
 5093TIP3    H215221   5.611   6.026   4.916
 5094TIP3   OH215222   1.583   3.569   2.930
 5094TIP3    H115223   1.536   3.629   2.987
 5094TIP3    H215224   1.546   3.585   2.843
 5095TIP3   OH215225   0.809   6.873   1.931
 5095TIP3    H115226   0.792   6.883   2.024
 5095TIP3    H215227   0.821   6.963   1.899
 5096TIP3   OH215228   4.721   6.738   5.581
 5096TIP3    H115229   4.681   6.658   5.549
 5096TIP3    H215230   4.685   6.750   5.668
 5097TIP3   OH215231   3.109   6.964   2.531
 5097TIP3    H115232   3.020   6.929   2.534
 5097TIP3    H215233   3.166   6.887   2.536
 5098TIP3   OH215234   7.979   2.477   4.074
 5098TIP3    H115235   7.902   2.458   4.020
 5098TIP3    H215236   7.984   2.403   4.135
 5099TIP3   OH215237   7.622   2.560   2.147
 5099TIP3    H115238   7.679   2.613   2.092
 5099TIP3    H215239   7.671   2.479   2.161
 5100TIP3   OH215240   5.620   7.820   5.286
 5100TIP3    H115241   5.580   7.777   5.211
 5100TIP3    H215242   5.673   7.891   5.248
 5101TIP3   OH215243   2.649   4.713   3.092
 5101TIP3    H115244   2.562   4.700   3.129
 5101TIP3    H215245   2.660   4.642   3.029
 5102TIP3   OH215246   7.548   7.486   5.813
 5102TIP3    H115247   7.460   7.451   5.800
 5102TIP3    H215248   7.599   7.411   5.845
 5103TIP3   OH215249   6.704   1.439   4.030
 5103TIP3    H115250   6.633   1.500   4.052
 5103TIP3    H215251   6.779   1.471   4.081
 5104TIP3   OH215252   1.388   0.457   5.671
 5104TIP3    H115253   1.298   0.433   5.693
 5104TIP3    H215254   1.426   0.483   5.755
 5105TIP3   OH215255   5.027   5.298   6.135
 5105TIP3    H115256   5.048   5.246   6.213
 5105TIP3    H215257   4.953   5.252   6.095
 5106TIP3   OH215258   4.494   6.440   1.672
 5106TIP3    H115259   4.409   6.430   1.715
 5106TIP3    H215260   4.477   6.497   1.597
 5107TIP3   OH215261   8.039   0.410   5.770
 5107TIP3    H115262   7.985   0.331   5.778
 5107TIP3    H215263   8.125   0.383   5.803
 5108TIP3   OH215264   3.468   1.180   4.615
 5108TIP3    H115265   3.448   1.238   4.687
 5108TIP3    H215266   3.425   1.220   4.539
 5109TIP3   OH215267   7.811   0.402   2.463
 5109TIP3    H115268   7.860   0.349   2.400
 5109TIP3    H215269   7.755   0.459   2.410
 5110TIP3   OH215270   2.556   3.439   0.326
 5110TIP3    H115271   2.472   3.480   0.346
 5110TIP3    H215272   2.537   3.346   0.321
 5111TIP3   OH215273   5.479   2.998   3.539
 5111TIP3    H115274   5.533   3.018   3.462
 5111TIP3    H215275   5.536   2.943   3.594
 5112TIP3   OH215276   3.010   6.200   6.572
 5112TIP3    H115277   2.929   6.149   6.569
 5112TIP3    H215278   3.022   6.231   6.482
 5113TIP3   OH215279   2.662   2.291   0.576
 5113TIP3    H115280   2.573   2.255   0.578
 5113TIP3    H215281   2.687   2.297   0.668
 5114TIP3   OH215282   2.297   4.143   2.093
 5114TIP3    H115283   2.296   4.206   2.164
 5114TIP3    H215284   2.288   4.196   2.013
 5115TIP3   OH215285   0.268   2.853   1.292
 5115TIP3    H115286   0.346   2.907   1.276
 5115TIP3    H215287   0.194   2.911   1.271
 5116TIP3   OH215288   3.394   2.338   3.014
 5116TIP3    H115289   3.311   2.364   3.054
 5116TIP3    H215290   3.453   2.411   3.033
 5117TIP3   OH215291   6.331   5.387   3.508
 5117TIP3    H115292   6.418   5.423   3.489
 5117TIP3    H215293   6.336   5.359   3.599
 5118TIP3   OH215294   0.028   4.054   5.268
 5118TIP3    H115295  -0.055   4.051   5.221
 5118TIP3    H215296   0.004   4.063   5.360
 5119TIP3   OH215297   0.391   6.102   5.265
 5119TIP3    H115298   0.335   6.031   5.297
 5119TIP3    H215299   0.480   6.074   5.286
 5120TIP3   OH215300   5.832   0.994   3.197
 5120TIP3    H115301   5.831   0.901   3.219
 5120TIP3    H215302   5.925   1.017   3.194
 5121TIP3   OH215303   8.212   2.540   4.917
 5121TIP3    H115304   8.256   2.501   4.992
 5121TIP3    H215305   8.130   2.491   4.909
 5122TIP3   OH215306   8.098   7.068   0.495
 5122TIP3    H115307   8.019   7.068   0.549
 5122TIP3    H215308   8.170   7.067   0.558
 5123TIP3   OH215309   4.678   3.402   1.352
 5123TIP3    H115310   4.741   3.459   1.395
 5123TIP3    H215311   4.608   3.460   1.323
 5124TIP3   OH215312   8.018   7.402   3.280
 5124TIP3    H115313   8.094   7.411   3.337
 5124TIP3    H215314   8.007   7.308   3.268
 5125TIP3   OH215315   7.903   4.559   3.460
 5125TIP3    H115316   7.832   4.623   3.465
 5125TIP3    H215317   7.979   4.609   3.432
 5126TIP3   OH215318   1.625   3.513   4.414
 5126TIP3    H115319   1.599   3.507   4.506
 5126TIP3    H215320   1.718   3.494   4.414
 5127TIP3   OH215321   7.631   5.469   5.884
 5127TIP3    H115322   7.631   5.387   5.933
 5127TIP3    H215323   7.699   5.458   5.818
 5128TIP3   OH215324   2.915   4.348   6.332
 5128TIP3    H115325   2.914   4.444   6.341
 5128TIP3    H215326   2.926   4.316   6.422
 5129TIP3   OH215327   6.384   6.169   2.179
 5129TIP3    H115328   6.458   6.158   2.118
 5129TIP3    H215329   6.420   6.150   2.265
 5130TIP3   OH215330   3.505   0.045   4.257
 5130TIP3    H115331   3.454   0.026   4.336
 5130TIP3    H215332   3.444   0.092   4.200
 5131TIP3   OH215333   5.662   7.267   5.062
 5131TIP3    H115334   5.675   7.206   4.989
 5131TIP3    H215335   5.662   7.353   5.021
 5132TIP3   OH215336   7.424   5.201   6.263
 5132TIP3    H115337   7.404   5.204   6.357
 5132TIP3    H215338   7.341   5.176   6.223
 5133TIP3   OH215339   7.071   4.803   4.900
 5133TIP3    H115340   7.058   4.741   4.971
 5133TIP3    H215341   7.116   4.877   4.940
 5134TIP3   OH215342   7.470   3.808   6.649
 5134TIP3    H115343   7.493   3.730   6.599
 5134TIP3    H215344   7.453   3.776   6.738
 5135TIP3   OH215345   5.701   7.397   0.946
 5135TIP3    H115346   5.668   7.410   0.857
 5135TIP3    H215347   5.794   7.418   0.940
 5136TIP3   OH215348   1.801   6.052   6.369
 5136TIP3    H115349   1.759   5.968   6.352
 5136TIP3    H215350   1.888   6.029   6.402
 5137TIP3   OH215351   1.694   5.922   6.715
 5137TIP3    H115352   1.647   5.901   6.634
 5137TIP3    H215353   1.627   5.963   6.771
 5138TIP3   OH215354   1.174   7.181   5.759
 5138TIP3    H115355   1.081   7.164   5.772
 5138TIP3    H215356   1.211   7.183   5.848
 5139TIP3   OH215357   2.078   6.072   6.448
 5139TIP3    H115358   2.117   6.125   6.518
 5139TIP3    H215359   2.045   5.994   6.493
 5140TIP3   OH215360   5.421   7.330   4.726
 5140TIP3    H115361   5.452   7.412   4.686
 5140TIP3    H215362   5.395   7.355   4.814
 5141TIP3   OH215363   7.647   6.400   4.095
 5141TIP3    H115364   7.596   6.319   4.097
 5141TIP3    H215365   7.636   6.438   4.182
 5142TIP3   OH215366   5.792   2.455   3.767
 5142TIP3    H115367   5.803   2.385   3.832
 5142TIP3    H215368   5.698   2.465   3.757
 5143TIP3   OH215369   5.101   2.683   2.607
 5143TIP3    H115370   5.026   2.670   2.665
 5143TIP3    H215371   5.101   2.606   2.550
 5144TIP3   OH215372   6.490   0.913   5.780
 5144TIP3    H115373   6.473   0.901   5.873
 5144TIP3    H215374   6.581   0.943   5.776
 5145TIP3   OH215375   6.595   2.779   1.926
 5145TIP3    H115376   6.674   2.743   1.966
 5145TIP3    H215377   6.598   2.748   1.836
 5146TIP3   OH215378   0.558   3.868   5.184
 5146TIP3    H115379   0.576   3.784   5.227
 5146TIP3    H215380   0.482   3.903   5.231
 5147TIP3   OH215381   1.973   2.326   0.746
 5147TIP3    H115382   2.050   2.329   0.803
 5147TIP3    H215383   1.981   2.243   0.700
 5148TIP3   OH215384   1.169   7.782   1.650
 5148TIP3    H115385   1.179   7.743   1.563
 5148TIP3    H215386   1.228   7.858   1.649
 5149TIP3   OH215387   4.809   5.320   2.722
 5149TIP3    H115388   4.730   5.362   2.689
 5149TIP3    H215389   4.852   5.284   2.645
 5150TIP3   OH215390   4.909   3.140   3.703
 5150TIP3    H115391   4.900   3.074   3.772
 5150TIP3    H215392   4.986   3.191   3.727
 5151TIP3   OH215393   6.343   4.043   3.544
 5151TIP3    H115394   6.383   4.124   3.512
 5151TIP3    H215395   6.352   4.048   3.639
 5152TIP3   OH215396   4.316   6.662   4.063
 5152TIP3    H115397   4.327   6.613   4.144
 5152TIP3    H215398   4.221   6.675   4.056
 5153TIP3   OH215399   3.548   2.826   4.544
 5153TIP3    H115400   3.609   2.888   4.584
 5153TIP3    H215401   3.484   2.881   4.500
 5154TIP3   OH215402   4.672   7.539   3.871
 5154TIP3    H115403   4.654   7.451   3.839
 5154TIP3    H215404   4.706   7.526   3.960
 5155TIP3   OH215405   2.666   4.242   4.408
 5155TIP3    H115406   2.573   4.221   4.417
 5155TIP3    H215407   2.683   4.305   4.477
 5156TIP3   OH215408   5.305   6.614   2.563
 5156TIP3    H115409   5.242   6.611   2.491
 5156TIP3    H215410   5.295   6.531   2.608
 5157TIP3   OH215411   5.680   3.098   0.466
 5157TIP3    H115412   5.630   3.141   0.397
 5157TIP3    H215413   5.642   3.010   0.472
 5158TIP3   OH215414   4.370   3.183   2.715
 5158TIP3    H115415   4.427   3.106   2.720
 5158TIP3    H215416   4.425   3.255   2.746
 5159TIP3   OH215417   3.556   6.410   5.311
 5159TIP3    H115418   3.628   6.408   5.374
 5159TIP3    H215419   3.571   6.490   5.260
 5160TIP3   OH215420   6.935   7.891   4.337
 5160TIP3    H115421   6.994   7.850   4.273
 5160TIP3    H215422   6.988   7.960   4.378
 5161TIP3   OH215423   0.127   6.250   1.491
 5161TIP3    H115424   0.139   6.165   1.449
 5161TIP3    H215425   0.116   6.312   1.419
 5162TIP3   OH215426   5.897   0.489   0.114
 5162TIP3    H115427   5.917   0.449   0.029
 5162TIP3    H215428   5.839   0.426   0.157
 5163TIP3   OH215429   6.607   3.135   4.583
 5163TIP3    H115430   6.621   3.099   4.495
 5163TIP3    H215431   6.687   3.185   4.601
 5164TIP3   OH215432   7.594   6.870   3.613
 5164TIP3    H115433   7.586   6.946   3.555
 5164TIP3    H215434   7.688   6.858   3.625
 5165TIP3   OH215435   0.555   3.969   3.509
 5165TIP3    H115436   0.618   4.007   3.570
 5165TIP3    H215437   0.587   3.880   3.494
 5166TIP3   OH215438   2.336   3.542   0.411
 5166TIP3    H115439   2.327   3.637   0.399
 5166TIP3    H215440   2.254   3.515   0.452
 5167TIP3   OH215441   3.272   7.297   2.310
 5167TIP3    H115442   3.246   7.288   2.402
 5167TIP3    H215443   3.205   7.248   2.262
 5168TIP3   OH215444   1.962   7.474   0.634
 5168TIP3    H115445   1.903   7.404   0.606
 5168TIP3    H215446   2.050   7.440   0.614
 5169TIP3   OH215447   5.042   5.383   1.563
 5169TIP3    H115448   5.012   5.326   1.634
 5169TIP3    H215449   5.014   5.471   1.590
 5170TIP3   OH215450   4.416   1.593   6.516
 5170TIP3    H115451   4.330   1.623   6.548
 5170TIP3    H215452   4.475   1.665   6.535
 5171TIP3   OH215453   1.146   0.621   6.266
 5171TIP3    H115454   1.071   0.649   6.214
 5171TIP3    H215455   1.175   0.540   6.225
 5172TIP3   OH215456   1.313   0.729   0.628
 5172TIP3    H115457   1.256   0.759   0.558
 5172TIP3    H215458   1.277   0.643   0.653
 5173TIP3   OH215459   7.116   4.624   0.890
 5173TIP3    H115460   7.175   4.550   0.906
 5173TIP3    H215461   7.164   4.700   0.922
 5174TIP3   OH215462   3.829   7.555   6.467
 5174TIP3    H115463   3.822   7.471   6.511
 5174TIP3    H215464   3.741   7.592   6.473
 5175TIP3   OH215465   6.369   2.237   0.089
 5175TIP3    H115466   6.447   2.264   0.041
 5175TIP3    H215467   6.376   2.142   0.096
 5176TIP3   OH215468   6.197   0.767   5.140
 5176TIP3    H115469   6.243   0.686   5.162
 5176TIP3    H215470   6.212   0.779   5.047
 5177TIP3   OH215471   5.764   4.977   4.633
 5177TIP3    H115472   5.682   5.012   4.598
 5177TIP3    H215473   5.819   4.962   4.556
 5178TIP3   OH215474   5.636   4.183   3.712
 5178TIP3    H115475   5.648   4.106   3.767
 5178TIP3    H215476   5.583   4.152   3.639
 5179TIP3   OH215477   0.083   1.060   0.414
 5179TIP3    H115478   0.105   1.000   0.486
 5179TIP3    H215479   0.168   1.092   0.383
 5180TIP3   OH215480   5.883   4.517   0.036
 5180TIP3    H115481   5.955   4.458   0.013
 5180TIP3    H215482   5.828   4.465   0.094
 5181TIP3   OH215483   2.594   7.257   4.065
 5181TIP3    H115484   2.588   7.342   4.110
 5181TIP3    H215485   2.543   7.270   3.984
 5182TIP3   OH215486   4.232   2.687   2.290
 5182TIP3    H115487   4.202   2.625   2.357
 5182TIP3    H215488   4.156   2.697   2.232
 5183TIP3   OH215489   2.099   3.419   5.522
 5183TIP3    H115490   2.006   3.442   5.517
 5183TIP3    H215491   2.115   3.406   5.616
 5184TIP3   OH215492   0.142   5.702   2.068
 5184TIP3    H115493   0.231   5.727   2.094
 5184TIP3    H215494   0.128   5.617   2.110
 5185TIP3   OH215495   1.422   7.075   5.639
 5185TIP3    H115496   1.472   7.022   5.701
 5185TIP3    H215497   1.395   7.152   5.689
 5186TIP3   OH215498   1.345   6.073   5.208
 5186TIP3    H115499   1.377   6.017   5.137
 5186TIP3    H215500   1.400   6.050   5.283
 5187TIP3   OH215501   6.526   4.363   5.825
 5187TIP3    H115502   6.489   4.409   5.900
 5187TIP3    H215503   6.458   4.300   5.799
 5188TIP3   OH215504   5.185   0.951   3.728
 5188TIP3    H115505   5.170   1.040   3.698
 5188TIP3    H215506   5.169   0.955   3.823
 5189TIP3   OH215507   1.054   0.130   4.167
 5189TIP3    H115508   1.030   0.204   4.223
 5189TIP3    H215509   1.111   0.076   4.221
 5190TIP3   OH215510   7.877   4.664   1.285
 5190TIP3    H115511   7.926   4.609   1.224
 5190TIP3    H215512   7.911   4.639   1.371
 5191TIP3   OH215513   6.762   2.345   0.369
 5191TIP3    H115514   6.839   2.318   0.319
 5191TIP3    H215515   6.693   2.284   0.342
 5192TIP3   OH215516   2.636   5.687   4.780
 5192TIP3    H115517   2.688   5.632   4.721
 5192TIP3    H215518   2.637   5.641   4.863
 5193TIP3   OH215519   0.434   4.195   3.963
 5193TIP3    H115520   0.398   4.145   3.889
 5193TIP3    H215521   0.488   4.132   4.010
 5194TIP3   OH215522   4.612   6.238   2.945
 5194TIP3    H115523   4.605   6.293   3.023
 5194TIP3    H215524   4.522   6.227   2.915
 5195TIP3   OH215525   1.239   2.717   3.359
 5195TIP3    H115526   1.289   2.749   3.434
 5195TIP3    H215527   1.210   2.630   3.385
 5196TIP3   OH215528   7.031   1.272   2.695
 5196TIP3    H115529   7.019   1.186   2.738
 5196TIP3    H215530   6.949   1.286   2.647
 5197TIP3   OH215531   0.209   0.388   5.083
 5197TIP3    H115532   0.169   0.302   5.073
 5197TIP3    H215533   0.299   0.377   5.053
 5198TIP3   OH215534   7.092   6.070   1.976
 5198TIP3    H115535   7.093   6.155   2.020
 5198TIP3    H215536   7.029   6.018   2.026
 5199TIP3   OH215537   1.809   0.191   0.484
 5199TIP3    H115538   1.840   0.100   0.477
 5199TIP3    H215539   1.716   0.183   0.506
 5200TIP3   OH215540   7.375   7.738   1.377
 5200TIP3    H115541   7.432   7.801   1.421
 5200TIP3    H215542   7.357   7.671   1.443
 5201TIP3   OH215543   7.850   0.753   5.350
 5201TIP3    H115544   7.909   0.816   5.310
 5201TIP3    H215545   7.897   0.670   5.347
 5202TIP3   OH215546   0.064   2.068   2.610
 5202TIP3    H115547   0.136   2.005   2.614
 5202TIP3    H215548   0.105   2.149   2.578
 5203TIP3   OH215549   2.620   6.714   2.546
 5203TIP3    H115550   2.623   6.642   2.609
 5203TIP3    H215551   2.579   6.675   2.468
 5204TIP3   OH215552   7.540   2.763   1.680
 5204TIP3    H115553   7.570   2.713   1.605
 5204TIP3    H215554   7.513   2.696   1.744
 5205TIP3   OH215555   5.564   0.959   1.168
 5205TIP3    H115556   5.543   1.040   1.122
 5205TIP3    H215557   5.594   0.988   1.254
 5206TIP3   OH215558   4.625   4.343   1.970
 5206TIP3    H115559   4.553   4.405   1.981
 5206TIP3    H215560   4.690   4.370   2.034
 5207TIP3   OH215561   6.317   6.976   0.966
 5207TIP3    H115562   6.284   7.061   0.992
 5207TIP3    H215563   6.244   6.935   0.919
 5208TIP3   OH215564   5.889   7.571   4.364
 5208TIP3    H115565   5.952   7.575   4.436
 5208TIP3    H215566   5.847   7.657   4.365
 5209TIP3   OH215567   2.493   1.478   5.623
 5209TIP3    H115568   2.585   1.506   5.625
 5209TIP3    H215569   2.489   1.414   5.552
 5210TIP3   OH215570   6.151   6.349   3.217
 5210TIP3    H115571   6.139   6.386   3.130
 5210TIP3    H215572   6.226   6.290   3.209
 5211TIP3   OH215573   7.538   3.129   5.878
 5211TIP3    H115574   7.475   3.091   5.818
 5211TIP3    H215575   7.502   3.214   5.901
 5212TIP3   OH215576   4.606   6.238   4.683
 5212TIP3    H115577   4.648   6.318   4.715
 5212TIP3    H215578   4.675   6.191   4.636
 5213TIP3   OH215579   5.847   4.586   5.802
 5213TIP3    H115580   5.847   4.616   5.711
 5213TIP3    H215581   5.933   4.547   5.815
 5214TIP3   OH215582   4.473   6.064   4.864
 5214TIP3    H115583   4.529   6.055   4.941
 5214TIP3    H215584   4.506   6.142   4.819
 5215TIP3   OH215585   2.545   2.853   2.706
 5215TIP3    H115586   2.482   2.881   2.773
 5215TIP3    H215587   2.543   2.923   2.641
 5216TIP3   OH215588   5.685   1.062   6.199
 5216TIP3    H115589   5.660   0.972   6.176
 5216TIP3    H215590   5.651   1.115   6.127
 5217TIP3   OH215591   7.200   2.044   4.401
 5217TIP3    H115592   7.120   2.055   4.452
 5217TIP3    H215593   7.177   2.073   4.313
 5218TIP3   OH215594   6.264   4.456   4.204
 5218TIP3    H115595   6.316   4.432   4.127
 5218TIP3    H215596   6.328   4.487   4.268
 5219TIP3   OH215597   2.833   2.713   1.803
 5219TIP3    H115598   2.876   2.749   1.726
 5219TIP3    H215599   2.750   2.678   1.769
 5220TIP3   OH215600   5.699   5.281   4.110
 5220TIP3    H115601   5.676   5.361   4.156
 5220TIP3    H215602   5.660   5.291   4.023
 5221TIP3   OH215603   7.551   1.982   3.700
 5221TIP3    H115604   7.573   2.030   3.780
 5221TIP3    H215605   7.469   2.021   3.670
 5222TIP3   OH215606   4.996   4.942   3.825
 5222TIP3    H115607   4.981   4.938   3.731
 5222TIP3    H215608   5.091   4.937   3.835
 5223TIP3   OH215609   7.692   5.023   3.776
 5223TIP3    H115610   7.711   4.932   3.756
 5223TIP3    H215611   7.730   5.072   3.703
 5224TIP3   OH215612   5.612   2.859   1.335
 5224TIP3    H115613   5.596   2.923   1.266
 5224TIP3    H215614   5.569   2.779   1.306
 5225TIP3   OH215615   1.858   5.428   1.340
 5225TIP3    H115616   1.858   5.339   1.375
 5225TIP3    H215617   1.778   5.467   1.376
 5226TIP3   OH215618   4.985   7.567   3.927
 5226TIP3    H115619   4.962   7.534   4.014
 5226TIP3    H215620   4.900   7.582   3.885
 5227TIP3   OH215621   0.582   2.690   3.229
 5227TIP3    H115622   0.582   2.752   3.157
 5227TIP3    H215623   0.490   2.667   3.243
 5228TIP3   OH215624   6.096   2.847   2.887
 5228TIP3    H115625   6.130   2.884   2.805
 5228TIP3    H215626   6.001   2.843   2.873
 5229TIP3   OH215627   7.842   3.134   3.874
 5229TIP3    H115628   7.806   3.192   3.807
 5229TIP3    H215629   7.933   3.120   3.847
 5230TIP3   OH215630   7.128   3.543   5.925
 5230TIP3    H115631   7.142   3.637   5.915
 5230TIP3    H215632   7.096   3.533   6.014
 5231TIP3   OH215633   4.658   1.222   3.649
 5231TIP3    H115634   4.643   1.200   3.557
 5231TIP3    H215635   4.660   1.317   3.651
 5232TIP3   OH215636   2.789   6.466   4.010
 5232TIP3    H115637   2.763   6.526   4.080
 5232TIP3    H215638   2.727   6.393   4.017
 5233TIP3   OH215639   4.489   2.668   2.202
 5233TIP3    H115640   4.502   2.575   2.189
 5233TIP3    H215641   4.397   2.675   2.231
 5234TIP3   OH215642   0.437   3.757   2.993
 5234TIP3    H115643   0.465   3.729   3.079
 5234TIP3    H215644   0.511   3.737   2.936
 5235TIP3   OH215645   3.736   1.177   2.698
 5235TIP3    H115646   3.779   1.091   2.691
 5235TIP3    H215647   3.645   1.157   2.718
 5236TIP3   OH215648   7.096   0.802   0.715
 5236TIP3    H115649   7.016   0.850   0.735
 5236TIP3    H215650   7.144   0.799   0.798
 5237TIP3   OH215651   3.254   7.836   3.822
 5237TIP3    H115652   3.180   7.866   3.875
 5237TIP3    H215653   3.227   7.750   3.790
 5238TIP3   OH215654   3.870   2.094   5.401
 5238TIP3    H115655   3.890   2.089   5.494
 5238TIP3    H215656   3.939   2.149   5.364
 5239TIP3   OH215657   0.092   6.314   6.026
 5239TIP3    H115658   0.061   6.323   6.117
 5239TIP3    H215659   0.101   6.219   6.014
 5240TIP3   OH215660   5.867   6.551   4.238
 5240TIP3    H115661   5.805   6.521   4.305
 5240TIP3    H215662   5.917   6.621   4.281
 5241TIP3   OH215663   1.681   1.413   1.954
 5241TIP3    H115664   1.722   1.468   1.888
 5241TIP3    H215665   1.744   1.409   2.026
 5242TIP3   OH215666   2.639   0.065   1.696
 5242TIP3    H115667   2.633   0.152   1.735
 5242TIP3    H215668   2.695   0.077   1.619
 5243TIP3   OH215669   1.482   7.463   1.125
 5243TIP3    H115670   1.454   7.546   1.162
 5243TIP3    H215671   1.458   7.469   1.032
 5244TIP3   OH215672   2.262   6.094   1.293
 5244TIP3    H115673   2.200   6.047   1.237
 5244TIP3    H215674   2.214   6.171   1.323
 5245TIP3   OH215675   2.570   5.864   5.039
 5245TIP3    H115676   2.494   5.815   5.007
 5245TIP3    H215677   2.607   5.808   5.107
 5246TIP3   OH215678   8.371   7.177   4.694
 5246TIP3    H115679   8.292   7.196   4.644
 5246TIP3    H215680   8.440   7.228   4.650
 5247TIP3   OH215681   1.543   7.366   1.851
 5247TIP3    H115682   1.492   7.421   1.911
 5247TIP3    H215683   1.488   7.360   1.773
 5248TIP3   OH215684   0.962   2.238   1.180
 5248TIP3    H115685   0.985   2.322   1.140
 5248TIP3    H215686   0.922   2.188   1.109
 5249TIP3   OH215687   6.465   7.496   5.093
 5249TIP3    H115688   6.463   7.589   5.071
 5249TIP3    H215689   6.547   7.485   5.141
 5250TIP3   OH215690   7.662   6.696   3.341
 5250TIP3    H115691   7.670   6.624   3.405
 5250TIP3    H215692   7.721   6.763   3.374
 5251TIP3   OH215693   5.652   4.089   2.911
 5251TIP3    H115694   5.568   4.100   2.956
 5251TIP3    H215695   5.636   4.018   2.848
 5252TIP3   OH215696   5.660   5.971   3.230
 5252TIP3    H115697   5.619   6.005   3.310
 5252TIP3    H215698   5.587   5.951   3.172
 5253TIP3   OH215699   7.799   4.428   3.674
 5253TIP3    H115700   7.870   4.452   3.733
 5253TIP3    H215701   7.822   4.470   3.591
 5254TIP3   OH215702   0.351   0.254   0.197
 5254TIP3    H115703   0.284   0.187   0.186
 5254TIP3    H215704   0.393   0.261   0.112
 5255TIP3   OH215705   1.161   3.255   2.759
 5255TIP3    H115706   1.164   3.178   2.703
 5255TIP3    H215707   1.124   3.224   2.841
 5256TIP3   OH215708   2.626   7.144   3.725
 5256TIP3    H115709   2.671   7.112   3.803
 5256TIP3    H215710   2.533   7.143   3.749
 5257TIP3   OH215711   4.512   6.055   0.809
 5257TIP3    H115712   4.456   6.020   0.878
 5257TIP3    H215713   4.547   5.978   0.766
 5258TIP3   OH215714   5.027   7.436   1.255
 5258TIP3    H115715   5.018   7.529   1.275
 5258TIP3    H215716   5.087   7.403   1.322
 5259TIP3   OH215717   1.750   7.086   6.166
 5259TIP3    H115718   1.664   7.105   6.204
 5259TIP3    H215719   1.805   7.159   6.196
 5260TIP3   OH215720   5.005   5.579   1.738
 5260TIP3    H115721   4.910   5.590   1.744
 5260TIP3    H215722   5.032   5.556   1.827
 5261TIP3   OH215723   6.592   4.255   1.311
 5261TIP3    H115724   6.514   4.211   1.345
 5261TIP3    H215725   6.560   4.338   1.277
 5262TIP3   OH215726   7.331   1.489   6.515
 5262TIP3    H115727   7.270   1.438   6.463
 5262TIP3    H215728   7.414   1.441   6.510
 5263TIP3   OH215729   7.637   6.331   3.705
 5263TIP3    H115730   7.639   6.248   3.751
 5263TIP3    H215731   7.581   6.388   3.758
 5264TIP3   OH215732   2.138   1.029   5.052
 5264TIP3    H115733   2.215   1.058   5.002
 5264TIP3    H215734   2.108   0.950   5.008
 5265TIP3   OH215735   2.236   6.461   6.709
 5265TIP3    H115736   2.311   6.487   6.763
 5265TIP3    H215737   2.160   6.480   6.763
 5266TIP3   OH215738   8.011   1.939   2.568
 5266TIP3    H115739   8.024   1.850   2.535
 5266TIP3    H215740   7.920   1.960   2.546
 5267TIP3   OH215741   7.449   3.937   2.850
 5267TIP3    H115742   7.499   3.997   2.905
 5267TIP3    H215743   7.507   3.861   2.840
 5268TIP3   OH215744   2.660   2.289   4.425
 5268TIP3    H115745   2.640   2.274   4.517
 5268TIP3    H215746   2.576   2.316   4.387
 5269TIP3   OH215747   6.320   3.392   1.556
 5269TIP3    H115748   6.294   3.363   1.643
 5269TIP3    H215749   6.272   3.474   1.542
 5270TIP3   OH215750   8.009   6.175   3.632
 5270TIP3    H115751   7.981   6.102   3.687
 5270TIP3    H215752   7.982   6.151   3.543
 5271TIP3   OH215753   1.300   0.446   1.186
 5271TIP3    H115754   1.314   0.513   1.253
 5271TIP3    H215755   1.274   0.495   1.108
 5272TIP3   OH215756   1.264   1.785   0.075
 5272TIP3    H115757   1.335   1.843   0.047
 5272TIP3    H215758   1.191   1.844   0.096
 5273TIP3   OH215759   4.569   5.374   1.123
 5273TIP3    H115760   4.504   5.407   1.061
 5273TIP3    H215761   4.627   5.319   1.071
 5274TIP3   OH215762   6.351   7.323   0.894
 5274TIP3    H115763   6.336   7.254   0.958
 5274TIP3    H215764   6.428   7.370   0.926
 5275TIP3   OH215765   4.990   5.140   5.092
 5275TIP3    H115766   4.960   5.141   5.002
 5275TIP3    H215767   5.069   5.086   5.091
 5276TIP3   OH215768   6.862   2.732   2.099
 5276TIP3    H115769   6.925   2.735   2.171
 5276TIP3    H215770   6.894   2.662   2.042
 5277TIP3   OH215771   6.492   1.123   1.913
 5277TIP3    H115772   6.425   1.184   1.882
 5277TIP3    H215773   6.472   1.040   1.870
 5278TIP3   OH215774   3.696   2.019   4.254
 5278TIP3    H115775   3.628   1.976   4.201
 5278TIP3    H215776   3.648   2.060   4.326
 5279TIP3   OH215777   5.079   0.369   2.902
 5279TIP3    H115778   5.153   0.342   2.957
 5279TIP3    H215779   5.011   0.395   2.964
 5280TIP3   OH215780   4.594   6.283   3.198
 5280TIP3    H115781   4.514   6.310   3.243
 5280TIP3    H215782   4.585   6.189   3.185
 5281TIP3   OH215783   5.364   7.790   6.593
 5281TIP3    H115784   5.273   7.808   6.569
 5281TIP3    H215785   5.359   7.748   6.678
 5282TIP3   OH215786   7.522   0.554   4.873
 5282TIP3    H115787   7.548   0.464   4.890
 5282TIP3    H215788   7.432   0.560   4.907
 5283TIP3   OH215789   8.187   4.321   3.806
 5283TIP3    H115790   8.191   4.262   3.881
 5283TIP3    H215791   8.272   4.365   3.805
 5284TIP3   OH215792   4.876   7.022   1.136
 5284TIP3    H115793   4.942   7.081   1.171
 5284TIP3    H215794   4.924   6.943   1.111
 5285TIP3   OH215795   7.208   5.991   3.220
 5285TIP3    H115796   7.171   5.906   3.244
 5285TIP3    H215797   7.198   5.995   3.125
 5286TIP3   OH215798   2.770   6.175   5.853
 5286TIP3    H115799   2.765   6.138   5.765
 5286TIP3    H215800   2.686   6.153   5.893
 5287TIP3   OH215801   3.356   4.300   3.986
 5287TIP3    H115802   3.449   4.292   4.009
 5287TIP3    H215803   3.314   4.230   4.036
 5288TIP3   OH215804   2.886   3.319   6.293
 5288TIP3    H115805   2.829   3.319   6.216
 5288TIP3    H215806   2.921   3.408   6.298
 5289TIP3   OH215807   6.494   1.097   5.111
 5289TIP3    H115808   6.508   1.003   5.112
 5289TIP3    H215809   6.406   1.109   5.145
 5290TIP3   OH215810   6.775   0.786   2.891
 5290TIP3    H115811   6.863   0.820   2.875
 5290TIP3    H215812   6.776   0.759   2.983
 5291TIP3   OH215813   3.505   6.552   5.621
 5291TIP3    H115814   3.433   6.496   5.590
 5291TIP3    H215815   3.581   6.523   5.571
 5292TIP3   OH215816   3.513   2.136   1.102
 5292TIP3    H115817   3.541   2.059   1.052
 5292TIP3    H215818   3.453   2.182   1.044
 5293TIP3   OH215819   2.822   4.305   4.164
 5293TIP3    H115820   2.747   4.293   4.107
 5293TIP3    H215821   2.797   4.263   4.246
 5294TIP3   OH215822   3.917   0.789   3.409
 5294TIP3    H115823   3.890   0.743   3.330
 5294TIP3    H215824   3.858   0.864   3.414
 5295TIP3   OH215825   4.181   5.442   1.400
 5295TIP3    H115826   4.125   5.393   1.339
 5295TIP3    H215827   4.121   5.478   1.464
 5296TIP3   OH215828   2.601   4.795   0.129
 5296TIP3    H115829   2.544   4.828   0.060
 5296TIP3    H215830   2.682   4.769   0.083
 5297TIP3   OH215831   3.521   2.750   1.339
 5297TIP3    H115832   3.614   2.732   1.355
 5297TIP3    H215833   3.478   2.665   1.348
 5298TIP3   OH215834   1.831   1.603   2.278
 5298TIP3    H115835   1.857   1.540   2.211
 5298TIP3    H215836   1.900   1.670   2.277
 5299TIP3   OH215837   7.750   6.475   5.900
 5299TIP3    H115838   7.801   6.459   5.820
 5299TIP3    H215839   7.726   6.387   5.931
 5300TIP3   OH215840   0.190   5.874   1.615
 5300TIP3    H115841   0.249   5.822   1.671
 5300TIP3    H215842   0.247   5.938   1.573
 5301TIP3   OH215843   3.136   2.618   2.726
 5301TIP3    H115844   3.105   2.708   2.722
 5301TIP3    H215845   3.209   2.621   2.788
 5302TIP3   OH215846   1.495   1.929   0.052
 5302TIP3    H115847   1.536   1.852   0.014
 5302TIP3    H215848   1.562   1.968   0.108
 5303TIP3   OH215849   6.647   0.654   4.811
 5303TIP3    H115850   6.696   0.677   4.732
 5303TIP3    H215851   6.693   0.700   4.882
 5304TIP3   OH215852   2.640   2.336   1.002
 5304TIP3    H115853   2.685   2.253   1.015
 5304TIP3    H215854   2.674   2.369   0.919
 5305TIP3   OH215855   1.134   6.091   2.128
 5305TIP3    H115856   1.176   6.151   2.190
 5305TIP3    H215857   1.067   6.145   2.085
 5306TIP3   OH215858   0.046   3.168   4.977
 5306TIP3    H115859   0.029   3.202   4.889
 5306TIP3    H215860   0.031   3.244   5.034
 5307TIP3   OH215861   0.233   2.208   2.925
 5307TIP3    H115862   0.199   2.287   2.882
 5307TIP3    H215863   0.186   2.205   3.009
 5308TIP3   OH215864   0.135   4.957   3.786
 5308TIP3    H115865   0.043   4.931   3.788
 5308TIP3    H215866   0.168   4.934   3.873
 5309TIP3   OH215867   6.744   5.508   1.376
 5309TIP3    H115868   6.751   5.448   1.450
 5309TIP3    H215869   6.659   5.488   1.337
 5310TIP3   OH215870   2.357   7.158   6.429
 5310TIP3    H115871   2.432   7.143   6.372
 5310TIP3    H215872   2.363   7.251   6.453
 5311TIP3   OH215873   6.046   5.762   2.587
 5311TIP3    H115874   6.080   5.690   2.640
 5311TIP3    H215875   5.963   5.785   2.629
 5312TIP3   OH215876   0.146   4.966   1.035
 5312TIP3    H115877   0.137   4.872   1.019
 5312TIP3    H215878   0.057   4.998   1.040
 5313TIP3   OH215879   2.730   6.052   0.565
 5313TIP3    H115880   2.674   6.081   0.636
 5313TIP3    H215881   2.819   6.057   0.601
 5314TIP3   OH215882   0.958   6.316   0.853
 5314TIP3    H115883   0.996   6.287   0.936
 5314TIP3    H215884   1.020   6.381   0.820
 5315TIP3   OH215885   3.603   5.255   0.225
 5315TIP3    H115886   3.693   5.236   0.197
 5315TIP3    H215887   3.558   5.281   0.145
 5316TIP3   OH215888   3.497   4.678   1.582
 5316TIP3    H115889   3.568   4.666   1.519
 5316TIP3    H215890   3.422   4.707   1.530
 5317TIP3   OH215891   2.764   2.093   1.072
 5317TIP3    H115892   2.798   2.023   1.127
 5317TIP3    H215893   2.774   2.060   0.983
 5318TIP3   OH215894   0.068   2.295   1.234
 5318TIP3    H115895   0.094   2.217   1.284
 5318TIP3    H215896  -0.027   2.301   1.245
 5319TIP3   OH215897   4.370   4.225   4.550
 5319TIP3    H115898   4.348   4.308   4.591
 5319TIP3    H215899   4.348   4.237   4.458
 5320TIP3   OH215900   6.129   0.177   4.454
 5320TIP3    H115901   6.053   0.149   4.403
 5320TIP3    H215902   6.194   0.202   4.388
 5321TIP3   OH215903   4.628   2.930   0.541
 5321TIP3    H115904   4.717   2.911   0.511
 5321TIP3    H215905   4.573   2.918   0.464
 5322TIP3   OH215906   7.287   6.231   4.761
 5322TIP3    H115907   7.327   6.309   4.801
 5322TIP3    H215908   7.319   6.158   4.814
 5323TIP3   OH215909   5.743   7.541   5.323
 5323TIP3    H115910   5.752   7.585   5.238
 5323TIP3    H215911   5.763   7.450   5.306
 5324TIP3   OH215912   2.908   1.348   3.501
 5324TIP3    H115913   2.999   1.361   3.528
 5324TIP3    H215914   2.900   1.397   3.420
 5325TIP3   OH215915   5.008   1.217   3.007
 5325TIP3    H115916   5.023   1.296   2.955
 5325TIP3    H215917   4.914   1.203   3.003
 5326TIP3   OH215918   7.325   0.465   3.756
 5326TIP3    H115919   7.385   0.487   3.685
 5326TIP3    H215920   7.369   0.394   3.803
 5327TIP3   OH215921   3.387   3.047   5.729
 5327TIP3    H115922   3.379   3.080   5.640
 5327TIP3    H215923   3.297   3.028   5.756
 5328TIP3   OH215924   6.444   7.115   5.773
 5328TIP3    H115925   6.533   7.145   5.755
 5328TIP3    H215926   6.456   7.037   5.826
 5329TIP3   OH215927   0.250   0.492   6.616
 5329TIP3    H115928   0.167   0.505   6.663
 5329TIP3    H215929   0.236   0.530   6.530
 5330TIP3   OH215930   4.949   4.310   1.806
 5330TIP3    H115931   5.004   4.366   1.751
 5330TIP3    H215932   4.940   4.357   1.889
 5331TIP3   OH215933   3.892   7.092   5.805
 5331TIP3    H115934   3.946   7.018   5.776
 5331TIP3    H215935   3.821   7.051   5.855
 5332TIP3   OH215936   1.140   6.814   6.311
 5332TIP3    H115937   1.089   6.858   6.379
 5332TIP3    H215938   1.092   6.734   6.292
 5333TIP3   OH215939   0.170   7.134   2.613
 5333TIP3    H115940   0.196   7.047   2.581
 5333TIP3    H215941   0.160   7.186   2.533
 5334TIP3   OH215942   4.001   6.936   2.454
 5334TIP3    H115943   3.911   6.924   2.424
 5334TIP3    H215944   4.054   6.884   2.394
 5335TIP3   OH215945   2.946   5.883   6.354
 5335TIP3    H115946   2.888   5.948   6.315
 5335TIP3    H215947   2.967   5.918   6.441
 5336TIP3   OH215948   1.668   1.112   0.180
 5336TIP3    H115949   1.618   1.165   0.118
 5336TIP3    H215950   1.606   1.095   0.252
 5337TIP3   OH215951   3.142   1.243   0.350
 5337TIP3    H115952   3.117   1.335   0.350
 5337TIP3    H215953   3.236   1.243   0.369
 5338TIP3   OH215954   6.534   1.067   3.214
 5338TIP3    H115955   6.554   1.156   3.189
 5338TIP3    H215956   6.464   1.075   3.279
 5339TIP3   OH215957   4.373   0.873   4.077
 5339TIP3    H115958   4.403   0.813   4.009
 5339TIP3    H215959   4.287   0.840   4.103
 5340TIP3   OH215960   1.501   0.039   4.838
 5340TIP3    H115961   1.444   0.040   4.915
 5340TIP3    H215962   1.578  -0.010   4.865
 5341TIP3   OH215963   7.154   4.078   4.179
 5341TIP3    H115964   7.066   4.076   4.217
 5341TIP3    H215965   7.159   4.162   4.134
 5342TIP3   OH215966   6.182   1.555   5.762
 5342TIP3    H115967   6.154   1.470   5.727
 5342TIP3    H215968   6.155   1.618   5.695
 5343TIP3   OH215969   0.537   7.155   2.015
 5343TIP3    H115970   0.455   7.141   1.966
 5343TIP3    H215971   0.601   7.177   1.948
 5344TIP3   OH215972   7.778   7.377   4.148
 5344TIP3    H115973   7.838   7.452   4.149
 5344TIP3    H215974   7.834   7.301   4.133
 5345TIP3   OH215975   3.869   7.766   0.371
 5345TIP3    H115976   3.927   7.728   0.304
 5345TIP3    H215977   3.903   7.732   0.453
 5346TIP3   OH215978   3.786   2.738   2.802
 5346TIP3    H115979   3.825   2.668   2.748
 5346TIP3    H215980   3.850   2.753   2.871
 5347TIP3   OH215981   8.379   4.025   2.486
 5347TIP3    H115982   8.474   4.016   2.476
 5347TIP3    H215983   8.353   3.947   2.534
 5348TIP3   OH215984   3.015   0.803   0.282
 5348TIP3    H115985   3.093   0.747   0.280
 5348TIP3    H215986   3.017   0.849   0.198
 5349TIP3   OH215987   3.647   4.344   6.325
 5349TIP3    H115988   3.732   4.386   6.334
 5349TIP3    H215989   3.667   4.256   6.294
 5350TIP3   OH215990   1.878   0.841   2.176
 5350TIP3    H115991   1.945   0.891   2.130
 5350TIP3    H215992   1.922   0.807   2.254
 5351TIP3   OH215993   2.508   3.385   3.669
 5351TIP3    H115994   2.582   3.329   3.695
 5351TIP3    H215995   2.546   3.449   3.610
 5352TIP3   OH215996   0.510   1.376   1.955
 5352TIP3    H115997   0.541   1.370   2.046
 5352TIP3    H215998   0.427   1.329   1.955
 5353TIP3   OH215999   0.763   7.351   4.157
 5353TIP3    H116000   0.852   7.321   4.139
 5353TIP3    H216001   0.736   7.304   4.235
 5354TIP3   OH216002   2.465   3.890   0.898
 5354TIP3    H116003   2.464   3.897   0.802
 5354TIP3    H216004   2.378   3.919   0.925
 5355TIP3   OH216005   4.805   5.032   1.442
 5355TIP3    H116006   4.818   5.063   1.352
 5355TIP3    H216007   4.731   4.972   1.436
 5356TIP3   OH216008   5.290   6.081   0.801
 5356TIP3    H116009   5.260   6.140   0.870
 5356TIP3    H216010   5.364   6.126   0.761
 5357TIP3   OH216011   7.838   2.143   6.762
 5357TIP3    H116012   7.845   2.073   6.827
 5357TIP3    H216013   7.924   2.145   6.721
 5358TIP3   OH216014   1.158   2.590   4.583
 5358TIP3    H116015   1.129   2.625   4.499
 5358TIP3    H216016   1.087   2.532   4.611
 5359TIP3   OH216017   4.780   2.330   2.996
 5359TIP3    H116018   4.774   2.424   2.979
 5359TIP3    H216019   4.751   2.320   3.086
 5360TIP3   OH216020   3.002   5.509   3.603
 5360TIP3    H116021   3.038   5.552   3.681
 5360TIP3    H216022   3.050   5.548   3.530
 5361TIP3   OH216023   5.531   0.289   2.107
 5361TIP3    H116024   5.450   0.269   2.155
 5361TIP3    H216025   5.555   0.206   2.065
 5362TIP3   OH216026   5.533   3.380   1.695
 5362TIP3    H116027   5.523   3.296   1.739
 5362TIP3    H216028   5.445   3.402   1.665
 5363TIP3   OH216029   6.660   1.948   6.052
 5363TIP3    H116030   6.728   1.991   5.999
 5363TIP3    H216031   6.579   1.963   6.004
 5364TIP3   OH216032   4.298   4.837   4.340
 5364TIP3    H116033   4.334   4.752   4.365
 5364TIP3    H216034   4.364   4.875   4.282
 5365TIP3   OH216035   2.359   6.057   6.636
 5365TIP3    H116036   2.285   6.117   6.641
 5365TIP3    H216037   2.380   6.035   6.727
 5366TIP3   OH216038   1.270   1.739   5.649
 5366TIP3    H116039   1.223   1.666   5.689
 5366TIP3    H216040   1.287   1.799   5.722
 5367TIP3   OH216041   6.370   5.809   6.652
 5367TIP3    H116042   6.277   5.805   6.631
 5367TIP3    H216043   6.397   5.898   6.629
 5368TIP3   OH216044   6.638   1.672   4.196
 5368TIP3    H116045   6.587   1.744   4.158
 5368TIP3    H216046   6.688   1.713   4.267
 5369TIP3   OH216047   3.313   3.164   6.012
 5369TIP3    H116048   3.277   3.233   6.068
 5369TIP3    H216049   3.316   3.203   5.925
 5370TIP3   OH216050   3.184   3.129   2.558
 5370TIP3    H116051   3.245   3.121   2.631
 5370TIP3    H216052   3.237   3.167   2.487
 5371TIP3   OH216053   0.877   1.297   2.514
 5371TIP3    H116054   0.830   1.217   2.536
 5371TIP3    H216055   0.837   1.365   2.570
 5372TIP3   OH216056   8.057   6.366   5.946
 5372TIP3    H116057   8.100   6.418   6.014
 5372TIP3    H216058   7.997   6.428   5.904
 5373TIP3   OH216059   0.996   5.013   2.899
 5373TIP3    H116060   1.025   4.943   2.958
 5373TIP3    H216061   1.035   4.990   2.814
 5374TIP3   OH216062   2.774   0.716   4.387
 5374TIP3    H116063   2.745   0.807   4.393
 5374TIP3    H216064   2.858   0.715   4.433
 5375TIP3   OH216065   7.995   3.379   2.526
 5375TIP3    H116066   7.962   3.289   2.535
 5375TIP3    H216067   7.917   3.434   2.535
 5376TIP3   OH216068   6.869   7.595   0.201
 5376TIP3    H116069   6.946   7.616   0.149
 5376TIP3    H216070   6.812   7.547   0.141
 5377TIP3   OH216071   3.070   2.678   3.399
 5377TIP3    H116072   3.107   2.736   3.333
 5377TIP3    H216073   3.117   2.702   3.480
 5378TIP3   OH216074   4.918   6.587   6.243
 5378TIP3    H116075   5.005   6.621   6.261
 5378TIP3    H216076   4.932   6.495   6.221
 5379TIP3   OH216077   2.783   5.667   1.278
 5379TIP3    H116078   2.750   5.649   1.190
 5379TIP3    H216079   2.742   5.749   1.303
 5380TIP3   OH216080   2.656   5.531   3.744
 5380TIP3    H116081   2.572   5.519   3.787
 5380TIP3    H216082   2.654   5.621   3.711
 5381TIP3   OH216083   3.385   4.823   2.791
 5381TIP3    H116084   3.322   4.839   2.721
 5381TIP3    H216085   3.382   4.729   2.805
 5382TIP3   OH216086   6.426   2.481   2.773
 5382TIP3    H116087   6.465   2.566   2.795
 5382TIP3    H216088   6.387   2.450   2.854
 5383TIP3   OH216089   6.171   1.101   2.532
 5383TIP3    H116090   6.164   1.067   2.443
 5383TIP3    H216091   6.222   1.181   2.524
 5384TIP3   OH216092   3.108   3.296   5.684
 5384TIP3    H116093   3.135   3.256   5.601
 5384TIP3    H216094   3.189   3.332   5.721
 5385TIP3   OH216095   8.137   3.448   3.666
 5385TIP3    H116096   8.075   3.492   3.607
 5385TIP3    H216097   8.223   3.469   3.629
 5386TIP3   OH216098   7.973   0.010   3.031
 5386TIP3    H116099   7.881   0.012   3.058
 5386TIP3    H216100   8.001  -0.080   3.047
 5387TIP3   OH216101   3.054   2.925   0.783
 5387TIP3    H116102   3.043   3.014   0.750
 5387TIP3    H216103   3.091   2.877   0.709
 5388TIP3   OH216104   7.137   6.910   0.765
 5388TIP3    H116105   7.225   6.872   0.770
 5388TIP3    H216106   7.109   6.918   0.856
 5389TIP3   OH216107   1.010   6.684   5.539
 5389TIP3    H116108   0.957   6.754   5.502
 5389TIP3    H216109   1.033   6.715   5.627
 5390TIP3   OH216110   6.411   0.880   6.046
 5390TIP3    H116111   6.482   0.927   6.090
 5390TIP3    H216112   6.333   0.900   6.097
 5391TIP3   OH216113   2.211   0.031   0.998
 5391TIP3    H116114   2.148   0.083   1.048
 5391TIP3    H216115   2.255   0.095   0.941
 5392TIP3   OH216116   6.026   6.664   5.537
 5392TIP3    H116117   6.036   6.589   5.596
 5392TIP3    H216118   6.060   6.739   5.587
 5393TIP3   OH216119   6.617   3.253   5.249
 5393TIP3    H116120   6.615   3.228   5.157
 5393TIP3    H216121   6.528   3.237   5.281
 5394TIP3   OH216122   7.291   1.282   0.952
 5394TIP3    H116123   7.250   1.350   0.899
 5394TIP3    H216124   7.228   1.211   0.954
 5395TIP3   OH216125   0.318   5.933   3.122
 5395TIP3    H116126   0.313   5.938   3.218
 5395TIP3    H216127   0.243   5.878   3.098
 5396TIP3   OH216128   2.755   7.278   2.890
 5396TIP3    H116129   2.800   7.279   2.806
 5396TIP3    H216130   2.689   7.209   2.882
 5397TIP3   OH216131   2.127   2.247   4.674
 5397TIP3    H116132   2.046   2.196   4.666
 5397TIP3    H216133   2.097   2.336   4.690
 5398TIP3   OH216134   3.663   6.047   2.306
 5398TIP3    H116135   3.757   6.052   2.290
 5398TIP3    H216136   3.639   6.134   2.336
 5399TIP3   OH216137   4.512   5.103   0.109
 5399TIP3    H116138   4.429   5.056   0.097
 5399TIP3    H216139   4.486   5.192   0.133
 5400TIP3   OH216140   6.284   7.412   1.816
 5400TIP3    H116141   6.290   7.454   1.902
 5400TIP3    H216142   6.199   7.441   1.782
 5401TIP3   OH216143   1.759   1.798   3.770
 5401TIP3    H116144   1.785   1.876   3.818
 5401TIP3    H216145   1.756   1.728   3.836
 5402TIP3   OH216146   8.109   0.992   4.733
 5402TIP3    H116147   8.093   1.034   4.648
 5402TIP3    H216148   8.195   1.023   4.759
 5403TIP3   OH216149   2.968   4.276   6.596
 5403TIP3    H116150   3.059   4.276   6.569
 5403TIP3    H216151   2.966   4.332   6.674
 5404TIP3   OH216152   5.197   6.870   3.918
 5404TIP3    H116153   5.237   6.920   3.989
 5404TIP3    H216154   5.267   6.814   3.886
 5405TIP3   OH216155   1.874   7.853   4.088
 5405TIP3    H116156   1.929   7.882   4.161
 5405TIP3    H216157   1.785   7.858   4.123
 5406TIP3   OH216158   2.984   2.313   0.871
 5406TIP3    H116159   3.024   2.390   0.912
 5406TIP3    H216160   3.029   2.239   0.911
 5407TIP3   OH216161   5.951   2.508   3.240
 5407TIP3    H116162   5.979   2.519   3.331
 5407TIP3    H216163   5.911   2.592   3.217
 5408TIP3   OH216164   7.573   0.729   1.364
 5408TIP3    H116165   7.521   0.744   1.285
 5408TIP3    H216166   7.514   0.750   1.436
 5409TIP3   OH216167   1.645   5.069   4.419
 5409TIP3    H116168   1.585   5.113   4.358
 5409TIP3    H216169   1.664   5.136   4.485
 5410TIP3   OH216170   1.802   5.510   1.768
 5410TIP3    H116171   1.845   5.451   1.706
 5410TIP3    H216172   1.773   5.584   1.715
 5411TIP3   OH216173   5.869   3.600   3.331
 5411TIP3    H116174   5.902   3.616   3.243
 5411TIP3    H216175   5.917   3.661   3.387
 5412TIP3   OH216176   1.705   0.650   4.191
 5412TIP3    H116177   1.692   0.737   4.152
 5412TIP3    H216178   1.762   0.604   4.129
 5413TIP3   OH216179   3.448   4.013   1.310
 5413TIP3    H116180   3.380   4.005   1.377
 5413TIP3    H216181   3.494   3.929   1.312
 5414TIP3   OH216182   7.129   0.054   4.766
 5414TIP3    H116183   7.154  -0.023   4.715
 5414TIP3    H216184   7.044   0.079   4.731
 5415TIP3   OH216185   4.781   1.768   2.677
 5415TIP3    H116186   4.747   1.686   2.642
 5415TIP3    H216187   4.822   1.811   2.602
 5416TIP3   OH216188   3.040   3.603   3.964
 5416TIP3    H116189   3.011   3.688   3.996
 5416TIP3    H216190   3.049   3.614   3.869
 5417TIP3   OH216191   4.421   5.379   2.731
 5417TIP3    H116192   4.327   5.387   2.742
 5417TIP3    H216193   4.441   5.288   2.753
 5418TIP3   OH216194   2.112   2.580   3.885
 5418TIP3    H116195   2.105   2.587   3.980
 5418TIP3    H216196   2.151   2.663   3.858
 5419TIP3   OH216197   1.939   7.595   6.182
 5419TIP3    H116198   2.020   7.645   6.181
 5419TIP3    H216199   1.870   7.661   6.181
 5420TIP3   OH216200   5.979   2.840   2.135
 5420TIP3    H116201   5.913   2.906   2.154
 5420TIP3    H216202   5.965   2.817   2.043
 5421TIP3   OH216203   6.371   3.064   4.889
 5421TIP3    H116204   6.363   3.030   4.978
 5421TIP3    H216205   6.464   3.053   4.868
 5422TIP3   OH216206   6.435   0.362   2.200
 5422TIP3    H116207   6.340   0.353   2.204
 5422TIP3    H216208   6.461   0.383   2.290
 5423TIP3   OH216209   5.639   1.235   5.971
 5423TIP3    H116210   5.559   1.253   5.921
 5423TIP3    H216211   5.697   1.191   5.910
 5424TIP3   OH216212   6.492   5.413   4.419
 5424TIP3    H116213   6.410   5.450   4.453
 5424TIP3    H216214   6.507   5.460   4.337
 5425TIP3   OH216215   1.767   4.134   3.712
 5425TIP3    H116216   1.718   4.105   3.789
 5425TIP3    H216217   1.841   4.183   3.747
 5426TIP3   OH216218   4.376   1.551   0.601
 5426TIP3    H116219   4.444   1.619   0.600
 5426TIP3    H216220   4.424   1.470   0.619
 5427TIP3   OH216221   3.714   5.136   4.383
 5427TIP3    H116222   3.799   5.143   4.426
 5427TIP3    H216223   3.651   5.157   4.452
 5428TIP3   OH216224   3.542   4.251   5.095
 5428TIP3    H116225   3.552   4.157   5.076
 5428TIP3    H216226   3.563   4.294   5.012
 5429TIP3   OH216227   4.152   2.895   3.147
 5429TIP3    H116228   4.222   2.880   3.084
 5429TIP3    H216229   4.174   2.979   3.187
 5430TIP3   OH216230   3.588   7.217   0.217
 5430TIP3    H116231   3.662   7.201   0.277
 5430TIP3    H216232   3.625   7.205   0.130
 5431TIP3   OH216233   6.097   2.196   2.970
 5431TIP3    H116234   6.141   2.180   3.054
 5431TIP3    H216235   6.071   2.288   2.975
 5432TIP3   OH216236   1.765   3.120   2.199
 5432TIP3    H116237   1.677   3.097   2.169
 5432TIP3    H216238   1.822   3.099   2.124
 5433TIP3   OH216239   3.881   2.365   2.343
 5433TIP3    H116240   3.789   2.365   2.372
 5433TIP3    H216241   3.875   2.379   2.248
 5434TIP3   OH216242   1.939   3.154   4.346
 5434TIP3    H116243   2.028   3.141   4.381
 5434TIP3    H216244   1.882   3.123   4.416
 5435TIP3   OH216245   2.478   2.437   1.708
 5435TIP3    H116246   2.478   2.464   1.617
 5435TIP3    H216247   2.400   2.383   1.717
 5436TIP3   OH216248   5.571   7.732   0.161
 5436TIP3    H116249   5.638   7.675   0.121
 5436TIP3    H216250   5.619   7.811   0.185
 5437TIP3   OH216251   5.291   4.800   0.434
 5437TIP3    H116252   5.299   4.895   0.442
 5437TIP3    H216253   5.329   4.780   0.349
 5438TIP3   OH216254   3.780   1.730   2.215
 5438TIP3    H116255   3.773   1.700   2.125
 5438TIP3    H216256   3.730   1.666   2.266
 5439TIP3   OH216257   2.588   4.693   5.908
 5439TIP3    H116258   2.539   4.759   5.957
 5439TIP3    H216259   2.641   4.649   5.975
 5440TIP3   OH216260   2.424   1.357   5.895
 5440TIP3    H116261   2.468   1.273   5.891
 5440TIP3    H216262   2.473   1.413   5.835
 5441TIP3   OH216263   6.849   3.142   5.058
 5441TIP3    H116264   6.831   3.055   5.094
 5441TIP3    H216265   6.941   3.159   5.081
 5442TIP3   OH216266   0.837   2.785   6.165
 5442TIP3    H116267   0.769   2.811   6.103
 5442TIP3    H216268   0.839   2.855   6.230
 5443TIP3   OH216269   8.340   2.496   3.445
 5443TIP3    H116270   8.401   2.457   3.383
 5443TIP3    H216271   8.393   2.559   3.494
 5444TIP3   OH216272   5.601   7.183   1.932
 5444TIP3    H116273   5.665   7.206   1.864
 5444TIP3    H216274   5.551   7.111   1.894
 5445TIP3   OH216275   8.186   7.265   6.853
 5445TIP3    H116276   8.172   7.359   6.859
 5445TIP3    H216277   8.237   7.253   6.772
 5446TIP3   OH216278   6.717   1.223   3.791
 5446TIP3    H116279   6.706   1.306   3.838
 5446TIP3    H216280   6.638   1.215   3.738
 5447TIP3   OH216281   4.368   4.389   1.664
 5447TIP3    H116282   4.330   4.455   1.723
 5447TIP3    H216283   4.453   4.425   1.640
 5448TIP3   OH216284   4.769   4.553   2.749
 5448TIP3    H116285   4.816   4.480   2.708
 5448TIP3    H216286   4.812   4.631   2.716
 5449TIP3   OH216287   6.806   2.366   4.646
 5449TIP3    H116288   6.763   2.400   4.724
 5449TIP3    H216289   6.740   2.374   4.577
 5450TIP3   OH216290   1.881   1.261   1.706
 5450TIP3    H116291   1.934   1.324   1.754
 5450TIP3    H216292   1.796   1.305   1.694
 5451TIP3   OH216293   4.343   7.838   5.086
 5451TIP3    H116294   4.353   7.769   5.151
 5451TIP3    H216295   4.408   7.817   5.018
 5452TIP3   OH216296   6.791   2.195   0.026
 5452TIP3    H116297   6.736   2.273   0.032
 5452TIP3    H216298   6.870   2.224  -0.020
 5453TIP3   OH216299   3.478   1.738   5.451
 5453TIP3    H116300   3.477   1.832   5.468
 5453TIP3    H216301   3.571   1.716   5.444
 5454TIP3   OH216302   8.028   0.060   6.008
 5454TIP3    H116303   8.035  -0.035   6.010
 5454TIP3    H216304   8.100   0.088   5.951
 5455TIP3   OH216305   3.427   7.042   2.633
 5455TIP3    H116306   3.366   7.103   2.673
 5455TIP3    H216307   3.415   7.054   2.539
 5456TIP3   OH216308   6.187   3.712   6.430
 5456TIP3    H116309   6.143   3.729   6.514
 5456TIP3    H216310   6.116   3.699   6.368
 5457TIP3   OH216311   2.474   3.968   1.452
 5457TIP3    H116312   2.487   4.060   1.431
 5457TIP3    H216313   2.458   3.927   1.367
 5458TIP3   OH216314   7.846   1.817   1.316
 5458TIP3    H116315   7.933   1.857   1.319
 5458TIP3    H216316   7.854   1.748   1.250
 5459TIP3   OH216317   6.954   0.722   2.009
 5459TIP3    H116318   6.888   0.705   2.075
 5459TIP3    H216319   6.947   0.649   1.948
 5460TIP3   OH216320   4.996   1.288   4.905
 5460TIP3    H116321   4.934   1.335   4.961
 5460TIP3    H216322   5.031   1.356   4.847
 5461TIP3   OH216323   5.842   2.440   1.226
 5461TIP3    H116324   5.747   2.449   1.232
 5461TIP3    H216325   5.875   2.528   1.241
 5462TIP3   OH216326   7.463   5.317   5.459
 5462TIP3    H116327   7.402   5.382   5.494
 5462TIP3    H216328   7.415   5.234   5.465
 5463TIP3   OH216329   4.129   6.469   5.185
 5463TIP3    H116330   4.188   6.421   5.129
 5463TIP3    H216331   4.044   6.465   5.141
 5464TIP3   OH216332   5.716   5.686   6.777
 5464TIP3    H116333   5.710   5.761   6.836
 5464TIP3    H216334   5.775   5.625   6.822
 5465TIP3   OH216335   8.145   4.888   4.724
 5465TIP3    H116336   8.080   4.823   4.749
 5465TIP3    H216337   8.140   4.891   4.628
 5466TIP3   OH216338   6.309   0.320   4.803
 5466TIP3    H116339   6.257   0.393   4.769
 5466TIP3    H216340   6.367   0.360   4.868
 5467TIP3   OH216341   2.162   4.962   4.088
 5467TIP3    H116342   2.199   4.916   4.013
 5467TIP3    H216343   2.121   4.893   4.141
 5468TIP3   OH216344   8.233   0.351   5.169
 5468TIP3    H116345   8.306   0.393   5.122
 5468TIP3    H216346   8.159   0.359   5.110
 5469TIP3   OH216347   3.908   2.999   4.398
 5469TIP3    H116348   3.970   3.012   4.326
 5469TIP3    H216349   3.854   2.926   4.370
 5470TIP3   OH216350   3.255   5.181   2.812
 5470TIP3    H116351   3.241   5.094   2.774
 5470TIP3    H216352   3.267   5.239   2.738
 5471TIP3   OH216353   4.350   2.767   1.967
 5471TIP3    H116354   4.323   2.693   1.912
 5471TIP3    H216355   4.427   2.735   2.014
 5472TIP3   OH216356   4.118   7.889   0.630
 5472TIP3    H116357   4.195   7.833   0.621
 5472TIP3    H216358   4.067   7.873   0.551
 5473TIP3   OH216359   6.571   6.811   2.725
 5473TIP3    H116360   6.602   6.782   2.639
 5473TIP3    H216361   6.534   6.732   2.764
 5474TIP3   OH216362   4.896   7.904   3.058
 5474TIP3    H116363   4.855   7.827   3.018
 5474TIP3    H216364   4.878   7.976   2.997
 5475TIP3   OH216365   6.948   3.947   1.429
 5475TIP3    H116366   6.939   4.027   1.482
 5475TIP3    H216367   7.018   3.967   1.367
 5476TIP3   OH216368   5.218   4.730   1.427
 5476TIP3    H116369   5.175   4.813   1.447
 5476TIP3    H216370   5.203   4.718   1.333
 5477TIP3   OH216371   8.317   7.553   3.904
 5477TIP3    H116372   8.259   7.624   3.876
 5477TIP3    H216373   8.385   7.550   3.837
 5478TIP3   OH216374   5.302   0.945   4.007
 5478TIP3    H116375   5.306   0.961   4.101
 5478TIP3    H216376   5.321   0.851   3.999
 5479TIP3   OH216377   3.248   2.831   1.156
 5479TIP3    H116378   3.269   2.739   1.140
 5479TIP3    H216379   3.332   2.872   1.173
 5480TIP3   OH216380   7.742   1.349   3.517
 5480TIP3    H116381   7.773   1.313   3.434
 5480TIP3    H216382   7.718   1.273   3.569
 5481TIP3   OH216383   6.417   5.765   2.052
 5481TIP3    H116384   6.501   5.721   2.064
 5481TIP3    H216385   6.372   5.711   1.986
 5482TIP3   OH216386   7.353   2.894   0.051
 5482TIP3    H116387   7.283   2.885   0.116
 5482TIP3    H216388   7.413   2.958   0.090
 5483TIP3   OH216389   1.195   3.224   6.628
 5483TIP3    H116390   1.146   3.142   6.636
 5483TIP3    H216391   1.137   3.282   6.578
 5484TIP3   OH216392   7.134   1.163   4.592
 5484TIP3    H116393   7.080   1.085   4.581
 5484TIP3    H216394   7.071   1.234   4.605
 5485TIP3   OH216395   7.376   1.654   6.041
 5485TIP3    H116396   7.448   1.629   6.100
 5485TIP3    H216397   7.407   1.734   5.999
 5486TIP3   OH216398   0.391   3.669   5.963
 5486TIP3    H116399   0.315   3.724   5.942
 5486TIP3    H216400   0.395   3.605   5.892
 5487TIP3   OH216401   0.928   3.545   2.728
 5487TIP3    H116402   0.911   3.451   2.730
 5487TIP3    H216403   0.922   3.568   2.636
 5488TIP3   OH216404   6.006   4.638   5.261
 5488TIP3    H116405   5.977   4.645   5.352
 5488TIP3    H216406   6.038   4.548   5.252
 5489TIP3   OH216407   1.844   3.752   6.719
 5489TIP3    H116408   1.900   3.724   6.646
 5489TIP3    H216409   1.778   3.808   6.678
 5490TIP3   OH216410   4.704   3.122   3.474
 5490TIP3    H116411   4.767   3.140   3.543
 5490TIP3    H216412   4.700   3.026   3.469
 5491TIP3   OH216413   5.890   0.239   2.549
 5491TIP3    H116414   5.910   0.190   2.470
 5491TIP3    H216415   5.797   0.221   2.565
 5492TIP3   OH216416   8.308   3.587   3.449
 5492TIP3    H116417   8.402   3.587   3.466
 5492TIP3    H216418   8.278   3.671   3.484
 5493TIP3   OH216419   1.705   4.123   6.431
 5493TIP3    H116420   1.742   4.163   6.510
 5493TIP3    H216421   1.772   4.137   6.364
 5494TIP3   OH216422   5.178   3.119   5.167
 5494TIP3    H116423   5.113   3.106   5.237
 5494TIP3    H216424   5.125   3.137   5.089
 5495TIP3   OH216425   0.948   5.635   5.829
 5495TIP3    H116426   1.018   5.671   5.883
 5495TIP3    H216427   0.911   5.564   5.882
 5496TIP3   OH216428   1.936   6.663   6.423
 5496TIP3    H116429   1.845   6.640   6.402
 5496TIP3    H216430   1.932   6.695   6.513
 5497TIP3   OH216431   2.086   7.231   5.914
 5497TIP3    H116432   2.088   7.324   5.893
 5497TIP3    H216433   2.135   7.224   5.996
 5498TIP3   OH216434   2.608   4.918   4.113
 5498TIP3    H116435   2.698   4.897   4.137
 5498TIP3    H216436   2.557   4.903   4.193
 5499TIP3   OH216437   7.630   2.446   5.927
 5499TIP3    H116438   7.687   2.370   5.922
 5499TIP3    H216439   7.631   2.483   5.839
 5500TIP3   OH216440   3.004   5.934   4.158
 5500TIP3    H116441   3.037   6.008   4.209
 5500TIP3    H216442   3.029   5.857   4.209
 5501TIP3   OH216443   0.504   3.436   0.246
 5501TIP3    H116444   0.560   3.393   0.181
 5501TIP3    H216445   0.565   3.476   0.308
 5502TIP3   OH216446   3.621   1.156   1.065
 5502TIP3    H116447   3.528   1.158   1.042
 5502TIP3    H216448   3.665   1.204   0.995
 5503TIP3   OH216449   0.351   6.924   0.609
 5503TIP3    H116450   0.422   6.964   0.660
 5503TIP3    H216451   0.291   6.889   0.674
 5504TIP3   OH216452   2.025   7.486   2.929
 5504TIP3    H116453   2.031   7.581   2.943
 5504TIP3    H216454   2.028   7.449   3.017
 5505TIP3   OH216455   3.412   2.897   6.720
 5505TIP3    H116456   3.445   2.935   6.802
 5505TIP3    H216457   3.334   2.947   6.699
 5506TIP3   OH216458   1.374   1.288   4.841
 5506TIP3    H116459   1.464   1.302   4.873
 5506TIP3    H216460   1.385   1.272   4.747
 5507TIP3   OH216461   2.280   3.839   6.493
 5507TIP3    H116462   2.374   3.830   6.506
 5507TIP3    H216463   2.241   3.822   6.579
 5508TIP3   OH216464   5.996   3.149   3.990
 5508TIP3    H116465   5.970   3.104   3.910
 5508TIP3    H216466   6.091   3.135   3.995
 5509TIP3   OH216467   5.531   6.226   5.231
 5509TIP3    H116468   5.438   6.245   5.226
 5509TIP3    H216469   5.536   6.130   5.238
 5510TIP3   OH216470   4.533   0.977   2.480
 5510TIP3    H116471   4.438   0.964   2.477
 5510TIP3    H216472   4.569   0.888   2.489
 5511TIP3   OH216473   7.068   3.507   2.248
 5511TIP3    H116474   7.036   3.427   2.288
 5511TIP3    H216475   7.054   3.494   2.154
 5512TIP3   OH216476   7.296   3.489   6.676
 5512TIP3    H116477   7.225   3.488   6.740
 5512TIP3    H216478   7.290   3.404   6.632
 5513TIP3   OH216479   7.892   0.132   0.107
 5513TIP3    H116480   7.938   0.095   0.182
 5513TIP3    H216481   7.957   0.128   0.036
 5514TIP3   OH216482   8.308   3.699   6.311
 5514TIP3    H116483   8.289   3.749   6.232
 5514TIP3    H216484   8.276   3.755   6.383
 5515TIP3   OH216485   6.624   6.744   6.012
 5515TIP3    H116486   6.582   6.715   6.093
 5515TIP3    H216487   6.703   6.691   6.005
 5516TIP3   OH216488   1.663   4.652   6.073
 5516TIP3    H116489   1.668   4.556   6.074
 5516TIP3    H216490   1.572   4.671   6.049
 5517TIP3   OH216491   3.169   7.023   3.243
 5517TIP3    H116492   3.139   7.070   3.320
 5517TIP3    H216493   3.088   6.992   3.201
 5518TIP3   OH216494   1.356   3.672   2.011
 5518TIP3    H116495   1.264   3.648   2.024
 5518TIP3    H216496   1.384   3.622   1.934
 5519TIP3   OH216497   6.214   3.657   3.813
 5519TIP3    H116498   6.186   3.623   3.898
 5519TIP3    H216499   6.190   3.750   3.815
 5520TIP3   OH216500   8.392   2.141   5.531
 5520TIP3    H116501   8.299   2.122   5.542
 5520TIP3    H216502   8.435   2.088   5.598
 5521TIP3   OH216503   0.231   2.280   6.679
 5521TIP3    H116504   0.152   2.301   6.729
 5521TIP3    H216505   0.221   2.328   6.597
 5522TIP3   OH216506   7.174   0.354   4.741
 5522TIP3    H116507   7.142   0.320   4.657
 5522TIP3    H216508   7.180   0.276   4.797
 5523TIP3   OH216509   1.099   1.379   1.067
 5523TIP3    H116510   1.053   1.359   1.150
 5523TIP3    H216511   1.190   1.394   1.093
 5524TIP3   OH216512   4.161   6.335   6.107
 5524TIP3    H116513   4.074   6.298   6.094
 5524TIP3    H216514   4.219   6.259   6.106
 5525TIP3   OH216515   2.973   7.490   5.689
 5525TIP3    H116516   2.942   7.411   5.734
 5525TIP3    H216517   3.055   7.512   5.733
 5526TIP3   OH216518   0.573   1.773   0.293
 5526TIP3    H116519   0.542   1.684   0.310
 5526TIP3    H216520   0.496   1.818   0.257
 5527TIP3   OH216521   7.975   1.424   6.269
 5527TIP3    H116522   7.894   1.383   6.298
 5527TIP3    H216523   8.045   1.366   6.300
 5528TIP3   OH216524   3.918   5.661   3.402
 5528TIP3    H116525   4.003   5.689   3.370
 5528TIP3    H216526   3.869   5.637   3.324
 5529TIP3   OH216527   3.124   5.304   4.030
 5529TIP3    H116528   3.171   5.309   4.113
 5529TIP3    H216529   3.192   5.298   3.963
 5530TIP3   OH216530   5.404   7.373   4.083
 5530TIP3    H116531   5.382   7.315   4.010
 5530TIP3    H216532   5.408   7.460   4.044
 5531TIP3   OH216533   5.313   7.776   0.111
 5531TIP3    H116534   5.395   7.730   0.131
 5531TIP3    H216535   5.310   7.847   0.175
 5532TIP3   OH216536   5.215   5.866   5.408
 5532TIP3    H116537   5.176   5.810   5.341
 5532TIP3    H216538   5.296   5.898   5.368
 5533TIP3   OH216539   2.230   6.686   4.382
 5533TIP3    H116540   2.208   6.593   4.388
 5533TIP3    H216541   2.189   6.715   4.301
 5534TIP3   OH216542   1.015   6.806   5.794
 5534TIP3    H116543   0.925   6.784   5.771
 5534TIP3    H216544   1.016   6.804   5.890
 5535TIP3   OH216545   1.760   3.508   1.695
 5535TIP3    H116546   1.738   3.507   1.602
 5535TIP3    H216547   1.786   3.599   1.712
 5536TIP3   OH216548   3.626   0.825   6.594
 5536TIP3    H116549   3.714   0.789   6.604
 5536TIP3    H216550   3.605   0.859   6.681
 5537TIP3   OH216551   3.569   7.488   2.983
 5537TIP3    H116552   3.615   7.405   2.972
 5537TIP3    H216553   3.496   7.483   2.921
 5538TIP3   OH216554   3.963   4.406   5.417
 5538TIP3    H116555   4.013   4.487   5.405
 5538TIP3    H216556   3.996   4.370   5.500
 5539TIP3   OH216557   7.001   3.189   5.699
 5539TIP3    H116558   7.056   3.138   5.639
 5539TIP3    H216559   6.960   3.123   5.755
 5540TIP3   OH216560   5.947   1.167   3.554
 5540TIP3    H116561   5.862   1.129   3.534
 5540TIP3    H216562   5.955   1.241   3.493
 5541TIP3   OH216563   3.668   4.232   1.116
 5541TIP3    H116564   3.701   4.169   1.180
 5541TIP3    H216565   3.651   4.311   1.168
 5542TIP3   OH216566   5.411   0.182   2.930
 5542TIP3    H116567   5.352   0.118   2.888
 5542TIP3    H216568   5.481   0.195   2.866
 5543TIP3   OH216569   0.281   0.663   5.820
 5543TIP3    H116570   0.316   0.678   5.732
 5543TIP3    H216571   0.351   0.619   5.867
 5544TIP3   OH216572   5.717   2.387   0.901
 5544TIP3    H116573   5.698   2.481   0.896
 5544TIP3    H216574   5.812   2.381   0.909
 5545TIP3   OH216575   5.255   2.375   2.009
 5545TIP3    H116576   5.300   2.318   2.072
 5545TIP3    H216577   5.193   2.425   2.062
 5546TIP3   OH216578   4.271   7.911   5.874
 5546TIP3    H116579   4.223   7.829   5.888
 5546TIP3    H216580   4.282   7.948   5.962
 5547TIP3   OH216581   8.196   1.267   4.796
 5547TIP3    H116582   8.102   1.246   4.799
 5547TIP3    H216583   8.203   1.336   4.731
 5548TIP3   OH216584   0.709   2.593   4.778
 5548TIP3    H116585   0.727   2.686   4.792
 5548TIP3    H216586   0.697   2.558   4.866
 5549TIP3   OH216587   0.282   1.940   3.577
 5549TIP3    H116588   0.368   1.954   3.616
 5549TIP3    H216589   0.272   1.844   3.575
 5550TIP3   OH216590   5.937   1.104   1.350
 5550TIP3    H116591   6.007   1.039   1.345
 5550TIP3    H216592   5.904   1.110   1.261
 5551TIP3   OH216593   5.951   5.891   0.655
 5551TIP3    H116594   5.991   5.845   0.730
 5551TIP3    H216595   5.999   5.858   0.579
 5552TIP3   OH216596   2.359   7.019   4.959
 5552TIP3    H116597   2.324   6.930   4.960
 5552TIP3    H216598   2.383   7.036   5.051
 5553TIP3   OH216599   6.409   0.787   3.311
 5553TIP3    H116600   6.400   0.876   3.343
 5553TIP3    H216601   6.435   0.736   3.388
 5554TIP3   OH216602   5.046   7.717   1.272
 5554TIP3    H116603   5.141   7.706   1.264
 5554TIP3    H216604   5.024   7.780   1.204
 5555TIP3   OH216605   7.015   6.434   0.691
 5555TIP3    H116606   6.935   6.388   0.716
 5555TIP3    H216607   7.022   6.506   0.754
 5556TIP3   OH216608   1.401   1.266   4.255
 5556TIP3    H116609   1.305   1.262   4.251
 5556TIP3    H216610   1.422   1.359   4.252
 5557TIP3   OH216611   0.968   3.733   2.477
 5557TIP3    H116612   0.899   3.772   2.532
 5557TIP3    H216613   0.960   3.779   2.393
 5558TIP3   OH216614   2.607   5.770   5.603
 5558TIP3    H116615   2.598   5.707   5.531
 5558TIP3    H216616   2.576   5.723   5.680
 5559TIP3   OH216617   4.639   7.338   4.749
 5559TIP3    H116618   4.694   7.269   4.787
 5559TIP3    H216619   4.640   7.321   4.655
 5560TIP3   OH216620   3.702   7.421   4.530
 5560TIP3    H116621   3.625   7.459   4.489
 5560TIP3    H216622   3.701   7.329   4.504
 5561TIP3   OH216623   1.704   1.186   5.083
 5561TIP3    H116624   1.752   1.265   5.058
 5561TIP3    H216625   1.694   1.136   5.002
 5562TIP3   OH216626   0.172   3.619   3.463
 5562TIP3    H116627   0.216   3.694   3.423
 5562TIP3    H216628   0.242   3.568   3.503
 5563TIP3   OH216629   2.104   1.923   3.566
 5563TIP3    H116630   2.100   1.920   3.661
 5563TIP3    H216631   2.073   2.011   3.543
 5564TIP3   OH216632   2.847   3.133   2.757
 5564TIP3    H116633   2.759   3.143   2.791
 5564TIP3    H216634   2.834   3.112   2.664
 5565TIP3   OH216635   7.581   5.622   4.322
 5565TIP3    H116636   7.594   5.717   4.322
 5565TIP3    H216637   7.626   5.591   4.243
 5566TIP3   OH216638   7.733   5.079   5.336
 5566TIP3    H116639   7.700   5.003   5.383
 5566TIP3    H216640   7.673   5.089   5.261
 5567TIP3   OH216641   5.462   1.197   1.312
 5567TIP3    H116642   5.540   1.223   1.361
 5567TIP3    H216643   5.467   1.247   1.231
 5568TIP3   OH216644   5.702   5.818   5.122
 5568TIP3    H116645   5.681   5.851   5.035
 5568TIP3    H216646   5.617   5.793   5.159
 5569TIP3   OH216647   3.254   0.580   2.027
 5569TIP3    H116648   3.167   0.616   2.043
 5569TIP3    H216649   3.241   0.485   2.020
 5570TIP3   OH216650   0.175   2.714   6.200
 5570TIP3    H116651   0.155   2.728   6.108
 5570TIP3    H216652   0.098   2.746   6.246
 5571TIP3   OH216653   2.053   6.397   2.741
 5571TIP3    H116654   2.000   6.418   2.818
 5571TIP3    H216655   1.990   6.396   2.668
 5572TIP3   OH216656   0.050   5.899   1.895
 5572TIP3    H116657   0.117   5.839   1.928
 5572TIP3    H216658   0.061   5.897   1.800
 5573TIP3   OH216659   1.786   6.961   4.075
 5573TIP3    H116660   1.734   7.035   4.107
 5573TIP3    H216661   1.854   6.949   4.141
 5574TIP3   OH216662   8.102   2.051   1.710
 5574TIP3    H116663   8.085   2.004   1.791
 5574TIP3    H216664   8.121   1.983   1.645
 5575TIP3   OH216665   4.648   4.759   6.554
 5575TIP3    H116666   4.570   4.813   6.551
 5575TIP3    H216667   4.713   4.812   6.601
 5576TIP3   OH216668   2.374   6.315   4.217
 5576TIP3    H116669   2.286   6.330   4.251
 5576TIP3    H216670   2.420   6.271   4.288
 5577TIP3   OH216671   2.921   7.876   6.273
 5577TIP3    H116672   2.911   7.910   6.184
 5577TIP3    H216673   2.914   7.781   6.264
 5578TIP3   OH216674   0.217   6.661   2.658
 5578TIP3    H116675   0.164   6.626   2.730
 5578TIP3    H216676   0.167   6.639   2.580
 5579TIP3   OH216677   3.100   4.195   2.706
 5579TIP3    H116678   3.182   4.154   2.733
 5579TIP3    H216679   3.051   4.207   2.787
 5580TIP3   OH216680   5.823   2.146   0.656
 5580TIP3    H116681   5.804   2.115   0.745
 5580TIP3    H216682   5.892   2.212   0.669
 5581TIP3   OH216683   3.821   3.507   3.316
 5581TIP3    H116684   3.851   3.598   3.309
 5581TIP3    H216685   3.846   3.467   3.233
 5582TIP3   OH216686   2.238   5.768   2.466
 5582TIP3    H116687   2.147   5.780   2.439
 5582TIP3    H216688   2.242   5.803   2.554
 5583TIP3   OH216689   0.120   0.090   0.150
 5583TIP3    H116690   0.083   0.077   0.062
 5583TIP3    H216691   0.054   0.139   0.198
 5584TIP3   OH216692   6.026   3.517   0.082
 5584TIP3    H116693   6.022   3.432   0.039
 5584TIP3    H216694   6.120   3.536   0.090
 5585TIP3   OH216695   2.366   6.113   2.322
 5585TIP3    H116696   2.390   6.205   2.324
 5585TIP3    H216697   2.335   6.094   2.410
 5586TIP3   OH216698   6.574   0.326   6.360
 5586TIP3    H116699   6.488   0.368   6.354
 5586TIP3    H216700   6.569   0.253   6.298
 5587TIP3   OH216701   3.805   2.375   2.904
 5587TIP3    H116702   3.884   2.406   2.859
 5587TIP3    H216703   3.829   2.376   2.996
 5588TIP3   OH216704   6.929   1.182   3.974
 5588TIP3    H116705   6.849   1.209   3.929
 5588TIP3    H216706   6.904   1.175   4.066
 5589TIP3   OH216707   3.312   4.452   5.593
 5589TIP3    H116708   3.305   4.484   5.504
 5589TIP3    H216709   3.391   4.494   5.628
 5590TIP3   OH216710   2.992   3.291   2.911
 5590TIP3    H116711   2.932   3.364   2.924
 5590TIP3    H216712   2.948   3.234   2.847
 5591TIP3   OH216713   2.051   0.958   3.717
 5591TIP3    H116714   2.142   0.976   3.692
 5591TIP3    H216715   2.058   0.888   3.781
 5592TIP3   OH216716   0.359   4.293   6.730
 5592TIP3    H116717   0.346   4.327   6.642
 5592TIP3    H216718   0.345   4.198   6.721
 5593TIP3   OH216719   4.104   0.507   2.029
 5593TIP3    H116720   4.137   0.438   2.087
 5593TIP3    H216721   4.036   0.464   1.978
 5594TIP3   OH216722   2.706   5.881   6.110
 5594TIP3    H116723   2.698   5.834   6.193
 5594TIP3    H216724   2.617   5.910   6.090
 5595TIP3   OH216725   4.856   6.230   2.789
 5595TIP3    H116726   4.775   6.233   2.840
 5595TIP3    H216727   4.922   6.271   2.846
 5596TIP3   OH216728   5.447   4.668   3.258
 5596TIP3    H116729   5.531   4.640   3.222
 5596TIP3    H216730   5.466   4.688   3.350
 5597TIP3   OH216731   0.734   2.960   5.459
 5597TIP3    H116732   0.704   3.020   5.391
 5597TIP3    H216733   0.714   3.006   5.541
 5598TIP3   OH216734   5.234   0.243   4.339
 5598TIP3    H116735   5.217   0.184   4.265
 5598TIP3    H216736   5.147   0.270   4.368
 5599TIP3   OH216737   6.716   0.047   1.032
 5599TIP3    H116738   6.800   0.024   0.992
 5599TIP3    H216739   6.667   0.091   0.962
 5600TIP3   OH216740   7.531   0.267   1.765
 5600TIP3    H116741   7.454   0.323   1.760
 5600TIP3    H216742   7.526   0.212   1.686
 5601TIP3   OH216743   7.591   6.395   0.202
 5601TIP3    H116744   7.499   6.376   0.185
 5601TIP3    H216745   7.624   6.316   0.246
 5602TIP3   OH216746   4.564   0.136   3.147
 5602TIP3    H116747   4.584   0.063   3.205
 5602TIP3    H216748   4.649   0.165   3.115
 5603TIP3   OH216749   1.980   3.149   3.593
 5603TIP3    H116750   1.985   3.054   3.606
 5603TIP3    H216751   2.017   3.186   3.673
 5604TIP3   OH216752   5.097   7.253   3.104
 5604TIP3    H116753   5.064   7.163   3.101
 5604TIP3    H216754   5.117   7.274   3.013
 5605TIP3   OH216755   0.065   2.068   4.755
 5605TIP3    H116756   0.107   2.102   4.676
 5605TIP3    H216757   0.107   2.115   4.827
 5606TIP3   OH216758   5.359   1.889   4.841
 5606TIP3    H116759   5.309   1.897   4.760
 5606TIP3    H216760   5.307   1.936   4.907
 5607TIP3   OH216761   6.767   5.301   2.382
 5607TIP3    H116762   6.779   5.324   2.474
 5607TIP3    H216763   6.722   5.377   2.344
 5608TIP3   OH216764   7.877   6.498   3.908
 5608TIP3    H116765   7.893   6.405   3.891
 5608TIP3    H216766   7.865   6.503   4.003
 5609TIP3   OH216767   5.083   3.607   4.704
 5609TIP3    H116768   5.034   3.654   4.772
 5609TIP3    H216769   5.044   3.636   4.621
 5610TIP3   OH216770   3.208   4.251   0.719
 5610TIP3    H116771   3.270   4.311   0.760
 5610TIP3    H216772   3.153   4.307   0.665
 5611TIP3   OH216773   4.357   3.899   1.532
 5611TIP3    H116774   4.361   3.976   1.589
 5611TIP3    H216775   4.353   3.936   1.444
 5612TIP3   OH216776   3.191   3.128   5.163
 5612TIP3    H116777   3.144   3.120   5.080
 5612TIP3    H216778   3.283   3.114   5.141
 5613TIP3   OH216779   7.253   7.357   5.327
 5613TIP3    H116780   7.317   7.414   5.372
 5613TIP3    H216781   7.307   7.297   5.276
 5614TIP3   OH216782   7.345   0.532   0.722
 5614TIP3    H116783   7.407   0.536   0.649
 5614TIP3    H216784   7.264   0.569   0.686
 5615TIP3   OH216785   5.023   5.541   3.422
 5615TIP3    H116786   5.098   5.494   3.459
 5615TIP3    H216787   5.052   5.632   3.416
 5616TIP3   OH216788   7.114   7.550   1.213
 5616TIP3    H116789   7.167   7.620   1.252
 5616TIP3    H216790   7.138   7.472   1.263
 5617TIP3   OH216791   8.342   5.249   3.284
 5617TIP3    H116792   8.306   5.215   3.366
 5617TIP3    H216793   8.296   5.200   3.216
 5618TIP3   OH216794   2.799   1.199   3.186
 5618TIP3    H116795   2.866   1.169   3.248
 5618TIP3    H216796   2.783   1.290   3.209
 5619TIP3   OH216797   7.826   1.182   2.657
 5619TIP3    H116798   7.777   1.264   2.651
 5619TIP3    H216799   7.761   1.114   2.642
 5620TIP3   OH216800   4.776   7.016   6.359
 5620TIP3    H116801   4.733   7.048   6.439
 5620TIP3    H216802   4.822   7.093   6.325
 5621TIP3   OH216803   5.324   5.067   5.832
 5621TIP3    H116804   5.419   5.058   5.836
 5621TIP3    H216805   5.307   5.160   5.847
 5622TIP3   OH216806   8.233   2.761   3.761
 5622TIP3    H116807   8.233   2.785   3.854
 5622TIP3    H216808   8.143   2.734   3.744
 5623TIP3   OH216809   0.299   7.490   2.148
 5623TIP3    H116810   0.206   7.487   2.172
 5623TIP3    H216811   0.333   7.406   2.177
 5624TIP3   OH216812   1.613   5.046   6.140
 5624TIP3    H116813   1.592   5.067   6.050
 5624TIP3    H216814   1.529   5.021   6.180
 5625TIP3   OH216815   7.657   2.619   1.476
 5625TIP3    H116816   7.665   2.534   1.433
 5625TIP3    H216817   7.725   2.618   1.544
 5626TIP3   OH216818   3.895   0.677   4.766
 5626TIP3    H116819   3.839   0.672   4.688
 5626TIP3    H216820   3.893   0.770   4.791
 5627TIP3   OH216821   1.562   6.714   5.810
 5627TIP3    H116822   1.631   6.760   5.762
 5627TIP3    H216823   1.606   6.639   5.850
 5628TIP3   OH216824   8.133   2.975   2.453
 5628TIP3    H116825   8.059   3.034   2.439
 5628TIP3    H216826   8.093   2.891   2.477
 5629TIP3   OH216827   7.396   1.053   6.380
 5629TIP3    H116828   7.331   1.042   6.310
 5629TIP3    H216829   7.430   0.965   6.395
 5630TIP3   OH216830   7.924   6.299   4.347
 5630TIP3    H116831   7.897   6.333   4.433
 5630TIP3    H216832   7.853   6.242   4.320
 5631TIP3   OH216833   0.103   4.832   5.221
 5631TIP3    H116834   0.134   4.911   5.176
 5631TIP3    H216835   0.080   4.862   5.309
 5632TIP3   OH216836   3.640   7.461   1.646
 5632TIP3    H116837   3.615   7.551   1.668
 5632TIP3    H216838   3.656   7.463   1.552
 5633TIP3   OH216839   1.047   6.686   4.213
 5633TIP3    H116840   1.140   6.691   4.232
 5633TIP3    H216841   1.013   6.773   4.236
 5634TIP3   OH216842   4.663   7.200   0.091
 5634TIP3    H116843   4.731   7.187   0.025
 5634TIP3    H216844   4.697   7.159   0.170
 5635TIP3   OH216845   3.884   4.458   1.280
 5635TIP3    H116846   3.955   4.520   1.297
 5635TIP3    H216847   3.892   4.437   1.187
 5636TIP3   OH216848   5.154   2.918   5.775
 5636TIP3    H116849   5.174   2.900   5.867
 5636TIP3    H216850   5.233   2.959   5.740
 5637TIP3   OH216851   0.908   5.496   2.326
 5637TIP3    H116852   0.891   5.481   2.234
 5637TIP3    H216853   0.934   5.411   2.360
 5638TIP3   OH216854   4.545   0.379   4.583
 5638TIP3    H116855   4.618   0.387   4.644
 5638TIP3    H216856   4.573   0.430   4.507
 5639TIP3   OH216857   3.580   0.853   1.648
 5639TIP3    H116858   3.526   0.910   1.702
 5639TIP3    H216859   3.592   0.901   1.566
 5640TIP3   OH216860   1.127   2.518   5.738
 5640TIP3    H116861   1.085   2.578   5.676
 5640TIP3    H216862   1.054   2.480   5.787
 5641TIP3   OH216863   2.768   1.335   5.671
 5641TIP3    H116864   2.843   1.351   5.614
 5641TIP3    H216865   2.773   1.405   5.737
 5642TIP3   OH216866   6.009   5.125   3.166
 5642TIP3    H116867   6.072   5.187   3.202
 5642TIP3    H216868   6.024   5.045   3.217
 5643TIP3   OH216869   3.317   1.690   3.581
 5643TIP3    H116870   3.272   1.633   3.518
 5643TIP3    H216871   3.319   1.776   3.539
 5644TIP3   OH216872   0.503   7.342   2.873
 5644TIP3    H116873   0.489   7.252   2.904
 5644TIP3    H216874   0.436   7.393   2.918
 5645TIP3   OH216875   6.154   7.038   3.526
 5645TIP3    H116876   6.167   7.036   3.431
 5645TIP3    H216877   6.179   6.951   3.556
 5646TIP3   OH216878   7.043   4.971   0.967
 5646TIP3    H116879   7.108   4.904   0.986
 5646TIP3    H216880   7.090   5.054   0.977
 5647TIP3   OH216881   4.404   4.671   1.272
 5647TIP3    H116882   4.494   4.651   1.297
 5647TIP3    H216883   4.355   4.669   1.355
 5648TIP3   OH216884   6.752   3.668   4.994
 5648TIP3    H116885   6.760   3.573   4.983
 5648TIP3    H216886   6.692   3.695   4.924
 5649TIP3   OH216887   5.818   2.441   2.745
 5649TIP3    H116888   5.827   2.454   2.839
 5649TIP3    H216889   5.867   2.514   2.706
 5650TIP3   OH216890   0.192   0.189   6.361
 5650TIP3    H116891   0.103   0.217   6.338
 5650TIP3    H216892   0.246   0.267   6.351
 5651TIP3   OH216893   6.228   7.519   6.500
 5651TIP3    H116894   6.293   7.542   6.434
 5651TIP3    H216895   6.279   7.497   6.578
 5652TIP3   OH216896   7.315   6.906   0.111
 5652TIP3    H116897   7.269   6.913   0.028
 5652TIP3    H216898   7.352   6.818   0.111
 5653TIP3   OH216899   6.479   5.727   3.014
 5653TIP3    H116900   6.394   5.750   2.977
 5653TIP3    H216901   6.530   5.807   3.009
 5654TIP3   OH216902   2.958   1.508   1.587
 5654TIP3    H116903   2.960   1.516   1.683
 5654TIP3    H216904   2.946   1.414   1.571
 5655TIP3   OH216905   5.878   3.406   1.019
 5655TIP3    H116906   5.960   3.369   0.986
 5655TIP3    H216907   5.888   3.407   1.114
 5656TIP3   OH216908   5.661   5.825   4.427
 5656TIP3    H116909   5.629   5.804   4.514
 5656TIP3    H216910   5.708   5.908   4.438
 5657TIP3   OH216911   1.411   3.422   2.311
 5657TIP3    H116912   1.476   3.353   2.321
 5657TIP3    H216913   1.462   3.502   2.294
 5658TIP3   OH216914   3.964   5.990   6.139
 5658TIP3    H116915   3.903   5.931   6.094
 5658TIP3    H216916   3.907   6.052   6.185
 5659TIP3   OH216917   5.242   5.925   4.221
 5659TIP3    H116918   5.328   5.882   4.220
 5659TIP3    H216919   5.203   5.899   4.305
 5660TIP3   OH216920   5.996   2.600   4.783
 5660TIP3    H116921   5.903   2.582   4.770
 5660TIP3    H216922   5.998   2.676   4.841
 5661TIP3   OH216923   6.485   4.499   1.224
 5661TIP3    H116924   6.546   4.555   1.176
 5661TIP3    H216925   6.414   4.481   1.163
 5662TIP3   OH216926   3.135   7.442   5.053
 5662TIP3    H116927   3.043   7.441   5.080
 5662TIP3    H216928   3.168   7.526   5.084
 5663TIP3   OH216929   5.890   5.101   5.062
 5663TIP3    H116930   5.940   5.042   5.119
 5663TIP3    H216931   5.819   5.134   5.118
 5664TIP3   OH216932   1.822   0.250   5.517
 5664TIP3    H116933   1.889   0.183   5.526
 5664TIP3    H216934   1.791   0.265   5.607
 5665TIP3   OH216935   7.100   1.858   0.244
 5665TIP3    H116936   7.073   1.796   0.177
 5665TIP3    H216937   7.058   1.827   0.324
 5666TIP3   OH216938   7.640   2.252   0.399
 5666TIP3    H116939   7.726   2.217   0.373
 5666TIP3    H216940   7.578   2.203   0.345
 5667TIP3   OH216941   2.674   6.226   2.827
 5667TIP3    H116942   2.654   6.149   2.881
 5667TIP3    H216943   2.707   6.189   2.745
 5668TIP3   OH216944   3.327   4.219   2.192
 5668TIP3    H116945   3.238   4.185   2.197
 5668TIP3    H216946   3.359   4.217   2.282
 5669TIP3   OH216947   5.585   7.694   6.199
 5669TIP3    H116948   5.631   7.725   6.120
 5669TIP3    H216949   5.568   7.774   6.249
 5670TIP3   OH216950   4.549   5.267   1.402
 5670TIP3    H116951   4.485   5.195   1.404
 5670TIP3    H216952   4.581   5.267   1.312
 5671TIP3   OH216953   6.097   7.157   1.464
 5671TIP3    H116954   6.099   7.241   1.510
 5671TIP3    H216955   6.059   7.178   1.378
 5672TIP3   OH216956   3.042   1.428   4.632
 5672TIP3    H116957   2.960   1.404   4.674
 5672TIP3    H216958   3.016   1.467   4.548
 5673TIP3   OH216959   6.907   0.403   4.939
 5673TIP3    H116960   6.966   0.331   4.960
 5673TIP3    H216961   6.910   0.460   5.016
 5674TIP3   OH216962   0.857   7.601   3.282
 5674TIP3    H116963   0.890   7.691   3.268
 5674TIP3    H216964   0.822   7.576   3.196
 5675TIP3   OH216965   3.890   6.237   6.847
 5675TIP3    H116966   3.975   6.195   6.848
 5675TIP3    H216967   3.853   6.216   6.761
 5676TIP3   OH216968   4.242   0.938   0.842
 5676TIP3    H116969   4.173   0.872   0.845
 5676TIP3    H216970   4.194   1.021   0.841
 5677TIP3   OH216971   0.448   7.747   2.147
 5677TIP3    H116972   0.445   7.669   2.203
 5677TIP3    H216973   0.509   7.806   2.192
 5678TIP3   OH216974   6.694   2.612   0.443
 5678TIP3    H116975   6.650   2.656   0.370
 5678TIP3    H216976   6.697   2.520   0.417
 5679TIP3   OH216977   4.281   5.857   0.150
 5679TIP3    H116978   4.262   5.937   0.102
 5679TIP3    H216979   4.376   5.847   0.142
 5680TIP3   OH216980   0.190   6.289   4.324
 5680TIP3    H116981   0.205   6.233   4.248
 5680TIP3    H216982   0.117   6.249   4.370
 5681TIP3   OH216983   3.830   6.639   0.056
 5681TIP3    H116984   3.741   6.604   0.067
 5681TIP3    H216985   3.818   6.726   0.019
 5682TIP3   OH216986   7.192   3.098   5.467
 5682TIP3    H116987   7.105   3.057   5.460
 5682TIP3    H216988   7.249   3.027   5.497
 5683TIP3   OH216989   3.682   4.723   1.990
 5683TIP3    H116990   3.730   4.640   1.993
 5683TIP3    H216991   3.637   4.728   2.074
 5684TIP3   OH216992   4.268   0.772   2.619
 5684TIP3    H116993   4.318   0.691   2.616
 5684TIP3    H216994   4.285   0.814   2.534
 5685TIP3   OH216995   6.127   7.222   6.837
 5685TIP3    H116996   6.219   7.223   6.864
 5685TIP3    H216997   6.123   7.161   6.763
 5686TIP3   OH216998   5.599   4.041   6.704
 5686TIP3    H116999   5.609   4.022   6.797
 5686TIP3    H217000   5.537   3.974   6.673
 5687TIP3   OH217001   7.264   0.317   2.213
 5687TIP3    H117002   7.342   0.270   2.181
 5687TIP3    H217003   7.223   0.256   2.274
 5688TIP3   OH217004   2.833   3.815   2.542
 5688TIP3    H117005   2.777   3.789   2.469
 5688TIP3    H217006   2.773   3.853   2.607
 5689TIP3   OH217007   7.637   5.428   0.500
 5689TIP3    H117008   7.619   5.443   0.407
 5689TIP3    H217009   7.637   5.515   0.539
 5690TIP3   OH217010   0.243   5.618   6.778
 5690TIP3    H117011   0.198   5.694   6.817
 5690TIP3    H217012   0.244   5.552   6.848
 5691TIP3   OH217013   0.101   4.525   6.608
 5691TIP3    H117014   0.062   4.605   6.643
 5691TIP3    H217015   0.175   4.556   6.555
 5692TIP3   OH217016   1.797   1.550   3.923
 5692TIP3    H117017   1.854   1.493   3.870
 5692TIP3    H217018   1.758   1.490   3.987
 5693TIP3   OH217019   7.863   4.075   0.636
 5693TIP3    H117020   7.793   4.067   0.701
 5693TIP3    H217021   7.861   4.167   0.609
 5694TIP3   OH217022   8.185   1.140   0.647
 5694TIP3    H117023   8.151   1.135   0.558
 5694TIP3    H217024   8.260   1.080   0.647
 5695TIP3   OH217025   7.781   7.773   6.783
 5695TIP3    H117026   7.839   7.764   6.707
 5695TIP3    H217027   7.694   7.753   6.749
 5696TIP3   OH217028   0.351   1.118   4.741
 5696TIP3    H117029   0.383   1.052   4.804
 5696TIP3    H217030   0.384   1.088   4.656
 5697TIP3   OH217031   8.333   2.249   0.758
 5697TIP3    H117032   8.321   2.160   0.725
 5697TIP3    H217033   8.400   2.241   0.826
 5698TIP3   OH217034   1.996   3.799   6.034
 5698TIP3    H117035   1.975   3.879   5.986
 5698TIP3    H217036   2.091   3.792   6.026
 5699TIP3   OH217037   3.455   7.624   3.354
 5699TIP3    H117038   3.397   7.646   3.427
 5699TIP3    H217039   3.526   7.688   3.359
 5700TIP3   OH217040   2.817   7.284   5.302
 5700TIP3    H117041   2.818   7.333   5.220
 5700TIP3    H217042   2.741   7.319   5.350
 5701TIP3   OH217043   3.323   6.857   6.710
 5701TIP3    H117044   3.251   6.826   6.766
 5701TIP3    H217045   3.388   6.786   6.714
 5702TIP3   OH217046   4.581   1.540   4.936
 5702TIP3    H117047   4.620   1.514   4.853
 5702TIP3    H217048   4.587   1.635   4.936
 5703TIP3   OH217049   1.831   4.918   1.444
 5703TIP3    H117050   1.883   4.853   1.395
 5703TIP3    H217051   1.817   4.879   1.530
 5704TIP3   OH217052   5.908   2.843   0.229
 5704TIP3    H117053   5.955   2.859   0.311
 5704TIP3    H217054   5.856   2.765   0.246
 5705TIP3   OH217055   8.329   5.692   3.235
 5705TIP3    H117056   8.260   5.628   3.217
 5705TIP3    H217057   8.400   5.639   3.274
 5706TIP3   OH217058   1.552   7.785   0.910
 5706TIP3    H117059   1.481   7.823   0.858
 5706TIP3    H217060   1.562   7.696   0.877
 5707TIP3   OH217061   3.422   0.224   0.605
 5707TIP3    H117062   3.496   0.169   0.629
 5707TIP3    H217063   3.385   0.253   0.688
 5708TIP3   OH217064   4.626   7.253   4.217
 5708TIP3    H117065   4.615   7.216   4.129
 5708TIP3    H217066   4.634   7.348   4.202
 5709TIP3   OH217067   0.362   6.773   1.420
 5709TIP3    H117068   0.336   6.819   1.500
 5709TIP3    H217069   0.381   6.684   1.449
 5710TIP3   OH217070   8.224   4.955   3.771
 5710TIP3    H117071   8.195   5.017   3.838
 5710TIP3    H217072   8.235   5.008   3.692
 5711TIP3   OH217073   2.729   6.875   6.209
 5711TIP3    H117074   2.690   6.837   6.131
 5711TIP3    H217075   2.798   6.933   6.177
 5712TIP3   OH217076   0.202   4.120   0.655
 5712TIP3    H117077   0.175   4.028   0.652
 5712TIP3    H217078   0.127   4.166   0.690
 5713TIP3   OH217079   3.229   1.329   5.437
 5713TIP3    H117080   3.145   1.324   5.481
 5713TIP3    H217081   3.252   1.422   5.440
 5714TIP3   OH217082   0.214   5.050   3.494
 5714TIP3    H117083   0.188   5.002   3.573
 5714TIP3    H217084   0.255   5.130   3.528
 5715TIP3   OH217085   5.566   3.951   0.770
 5715TIP3    H117086   5.552   4.043   0.749
 5715TIP3    H217087   5.643   3.951   0.826
 5716TIP3   OH217088   2.612   0.327   1.235
 5716TIP3    H117089   2.534   0.354   1.187
 5716TIP3    H217090   2.610   0.381   1.314
 5717TIP3   OH217091   3.272   2.712   1.856
 5717TIP3    H117092   3.236   2.631   1.819
 5717TIP3    H217093   3.205   2.778   1.839
 5718TIP3   OH217094   1.334   1.901   3.222
 5718TIP3    H117095   1.425   1.909   3.250
 5718TIP3    H217096   1.340   1.877   3.129
 5719TIP3   OH217097   4.266   0.161   2.473
 5719TIP3    H117098   4.287   0.134   2.383
 5719TIP3    H217099   4.315   0.100   2.528
 5720TIP3   OH217100   4.255   4.585   1.809
 5720TIP3    H117101   4.259   4.675   1.776
 5720TIP3    H217102   4.181   4.584   1.869
 5721TIP3   OH217103   5.021   4.937   0.368
 5721TIP3    H117104   4.999   5.001   0.300
 5721TIP3    H217105   5.036   4.989   0.447
 5722TIP3   OH217106   8.115   1.103   4.470
 5722TIP3    H117107   8.167   1.132   4.395
 5722TIP3    H217108   8.055   1.176   4.487
 5723TIP3   OH217109   7.420   2.117   0.805
 5723TIP3    H117110   7.373   2.085   0.728
 5723TIP3    H217111   7.498   2.160   0.770
 5724TIP3   OH217112   4.598   6.365   1.899
 5724TIP3    H117113   4.573   6.274   1.916
 5724TIP3    H217114   4.568   6.382   1.810
 5725TIP3   OH217115   1.205   1.654   5.890
 5725TIP3    H117116   1.248   1.577   5.927
 5725TIP3    H217117   1.182   1.708   5.965
 5726TIP3   OH217118   7.632   1.249   1.208
 5726TIP3    H117119   7.577   1.171   1.197
 5726TIP3    H217120   7.636   1.288   1.121
 5727TIP3   OH217121   8.305   2.138   3.173
 5727TIP3    H117122   8.326   2.183   3.091
 5727TIP3    H217123   8.390   2.120   3.213
 5728TIP3   OH217124   3.413   2.646   4.722
 5728TIP3    H117125   3.493   2.603   4.694
 5728TIP3    H217126   3.419   2.735   4.686
 5729TIP3   OH217127   5.949   1.938   4.965
 5729TIP3    H117128   5.952   1.855   5.011
 5729TIP3    H217129   6.029   1.983   4.991
 5730TIP3   OH217130   0.194   2.586   6.849
 5730TIP3    H117131   0.222   2.496   6.832
 5730TIP3    H217132   0.269   2.640   6.824
 5731TIP3   OH217133   1.439   7.718   0.436
 5731TIP3    H117134   1.450   7.700   0.530
 5731TIP3    H217135   1.345   7.734   0.425
 5732TIP3   OH217136   3.626   3.439   5.995
 5732TIP3    H117137   3.625   3.349   5.962
 5732TIP3    H217138   3.534   3.459   6.010
 5733TIP3   OH217139   7.147   6.538   6.814
 5733TIP3    H117140   7.119   6.446   6.813
 5733TIP3    H217141   7.236   6.535   6.851
 5734TIP3   OH217142   3.342   5.401   4.471
 5734TIP3    H117143   3.438   5.403   4.470
 5734TIP3    H217144   3.320   5.315   4.506
 5735TIP3   OH217145   7.815   5.630   2.124
 5735TIP3    H117146   7.878   5.702   2.131
 5735TIP3    H217147   7.743   5.667   2.073
 5736TIP3   OH217148   1.321   6.997   1.411
 5736TIP3    H117149   1.243   6.996   1.355
 5736TIP3    H217150   1.394   7.006   1.350
 5737TIP3   OH217151   5.303   3.684   1.091
 5737TIP3    H117152   5.278   3.689   0.999
 5737TIP3    H217153   5.399   3.693   1.091
 5738TIP3   OH217154   5.589   6.100   2.716
 5738TIP3    H117155   5.586   6.158   2.792
 5738TIP3    H217156   5.640   6.149   2.651
 5739TIP3   OH217157   5.948   0.470   3.977
 5739TIP3    H117158   5.892   0.400   4.011
 5739TIP3    H217159   5.920   0.548   4.024
 5740TIP3   OH217160   7.710   2.144   2.816
 5740TIP3    H117161   7.707   2.202   2.892
 5740TIP3    H217162   7.778   2.080   2.836
 5741TIP3   OH217163   6.570   4.348   5.456
 5741TIP3    H117164   6.611   4.321   5.374
 5741TIP3    H217165   6.483   4.379   5.431
 5742TIP3   OH217166   5.384   7.317   3.618
 5742TIP3    H117167   5.289   7.320   3.616
 5742TIP3    H217168   5.408   7.347   3.706
 5743TIP3   OH217169   0.104   3.044   4.298
 5743TIP3    H117170   0.090   3.137   4.318
 5743TIP3    H217171   0.041   3.025   4.229
 5744TIP3   OH217172   3.358   7.708   2.839
 5744TIP3    H117173   3.290   7.769   2.810
 5744TIP3    H217174   3.326   7.673   2.922
 5745TIP3   OH217175   7.738   7.049   3.229
 5745TIP3    H117176   7.677   7.118   3.202
 5745TIP3    H217177   7.747   7.061   3.324
 5746TIP3   OH217178   3.481   7.283   1.107
 5746TIP3    H117179   3.394   7.301   1.142
 5746TIP3    H217180   3.468   7.277   1.012
 5747TIP3   OH217181   0.861   1.345   1.543
 5747TIP3    H117182   0.954   1.362   1.560
 5747TIP3    H217183   0.825   1.324   1.629
 5748TIP3   OH217184   8.365   3.859   1.756
 5748TIP3    H117185   8.314   3.938   1.769
 5748TIP3    H217186   8.300   3.791   1.736
 5749TIP3   OH217187   5.780   7.181   4.212
 5749TIP3    H117188   5.873   7.191   4.229
 5749TIP3    H217189   5.774   7.164   4.118
 5750TIP3   OH217190   3.795   1.295   4.073
 5750TIP3    H117191   3.887   1.306   4.096
 5750TIP3    H217192   3.795   1.285   3.978
 5751TIP3   OH217193   5.002   6.002   3.979
 5751TIP3    H117194   5.056   5.982   4.056
 5751TIP3    H217195   4.949   6.077   4.006
 5752TIP3   OH217196   3.843   7.285   0.073
 5752TIP3    H117197   3.877   7.303   0.161
 5752TIP3    H217198   3.803   7.367   0.045
 5753TIP3   OH217199   3.958   0.302   0.160
 5753TIP3    H117200   3.912   0.382   0.187
 5753TIP3    H217201   4.018   0.285   0.232
 5754TIP3   OH217202   1.394   7.730   1.233
 5754TIP3    H117203   1.486   7.752   1.249
 5754TIP3    H217204   1.377   7.761   1.144
 5755TIP3   OH217205   4.418   3.232   5.461
 5755TIP3    H117206   4.393   3.311   5.412
 5755TIP3    H217207   4.341   3.176   5.456
 5756TIP3   OH217208   7.818   5.440   1.390
 5756TIP3    H117209   7.832   5.349   1.417
 5756TIP3    H217210   7.776   5.482   1.464
 5757TIP3   OH217211   8.297   1.437   2.950
 5757TIP3    H117212   8.211   1.403   2.926
 5757TIP3    H217213   8.356   1.400   2.885
 5758TIP3   OH217214   3.058   0.043   2.170
 5758TIP3    H117215   3.037  -0.027   2.231
 5758TIP3    H217216   3.138   0.013   2.127
 5759TIP3   OH217217   0.041   0.875   6.807
 5759TIP3    H117218   0.136   0.873   6.814
 5759TIP3    H217219   0.024   0.911   6.720
 5760TIP3   OH217220   6.815   6.147   4.444
 5760TIP3    H117221   6.747   6.174   4.382
 5760TIP3    H217222   6.872   6.090   4.393
 5761TIP3   OH217223   4.310   6.969   3.001
 5761TIP3    H117224   4.337   6.992   3.090
 5761TIP3    H217225   4.261   7.045   2.971
 5762TIP3   OH217226   0.333   6.135   2.681
 5762TIP3    H117227   0.298   6.149   2.769
 5762TIP3    H217228   0.424   6.164   2.686
 5763TIP3   OH217229   0.955   6.945   3.387
 5763TIP3    H117230   0.950   6.851   3.401
 5763TIP3    H217231   0.903   6.983   3.458
 5764TIP3   OH217232   4.949   5.246   4.567
 5764TIP3    H117233   5.030   5.208   4.600
 5764TIP3    H217234   4.977   5.327   4.523
 5765TIP3   OH217235   2.247   3.324   3.594
 5765TIP3    H117236   2.340   3.347   3.605
 5765TIP3    H217237   2.224   3.280   3.676
 5766TIP3   OH217238   6.816   7.505   2.306
 5766TIP3    H117239   6.759   7.519   2.381
 5766TIP3    H217240   6.760   7.463   2.241
 5767TIP3   OH217241   0.888   6.078   5.949
 5767TIP3    H117242   0.924   6.167   5.946
 5767TIP3    H217243   0.904   6.049   6.039
 5768TIP3   OH217244   4.640   7.427   0.769
 5768TIP3    H117245   4.587   7.500   0.736
 5768TIP3    H217246   4.730   7.457   0.762
 5769TIP3   OH217247   6.978   7.307   6.598
 5769TIP3    H117248   7.060   7.334   6.557
 5769TIP3    H217249   6.955   7.380   6.655
 5770TIP3   OH217250   4.758   1.950   4.196
 5770TIP3    H117251   4.767   2.036   4.237
 5770TIP3    H217252   4.664   1.931   4.202
 5771TIP3   OH217253   3.341   0.415   5.334
 5771TIP3    H117254   3.426   0.441   5.370
 5771TIP3    H217255   3.357   0.405   5.240
 5772TIP3   OH217256   7.048   7.107   1.789
 5772TIP3    H117257   7.090   7.044   1.730
 5772TIP3    H217258   7.043   7.188   1.738
 5773TIP3   OH217259   3.634   6.719   2.479
 5773TIP3    H117260   3.620   6.717   2.574
 5773TIP3    H217261   3.559   6.769   2.445
 5774TIP3   OH217262   7.700   7.625   5.395
 5774TIP3    H117263   7.658   7.585   5.319
 5774TIP3    H217264   7.751   7.698   5.359
 5775TIP3   OH217265   5.079   6.610   6.590
 5775TIP3    H117266   5.014   6.663   6.635
 5775TIP3    H217267   5.153   6.606   6.650
 5776TIP3   OH217268   7.059   4.880   4.161
 5776TIP3    H117269   6.971   4.873   4.197
 5776TIP3    H217270   7.108   4.930   4.227
 5777TIP3   OH217271   6.905   0.373   2.993
 5777TIP3    H117272   6.834   0.411   3.045
 5777TIP3    H217273   6.960   0.328   3.058
 5778TIP3   OH217274   2.170   4.444   0.230
 5778TIP3    H117275   2.139   4.479   0.146
 5778TIP3    H217276   2.153   4.514   0.292
 5779TIP3   OH217277   1.902   6.011   5.811
 5779TIP3    H117278   1.871   6.092   5.853
 5779TIP3    H217279   1.835   5.946   5.831
 5780TIP3   OH217280   5.997   7.002   5.727
 5780TIP3    H117281   6.052   6.925   5.717
 5780TIP3    H217282   5.912   6.976   5.692
 5781TIP3   OH217283   3.709   5.153   1.986
 5781TIP3    H117284   3.709   5.240   2.025
 5781TIP3    H217285   3.630   5.111   2.021
 5782TIP3   OH217286   6.373   4.423   3.900
 5782TIP3    H117287   6.411   4.509   3.918
 5782TIP3    H217288   6.280   4.440   3.888
 5783TIP3   OH217289   3.581   3.538   2.312
 5783TIP3    H117290   3.587   3.492   2.228
 5783TIP3    H217291   3.655   3.599   2.311
 5784TIP3   OH217292   7.127   3.605   0.992
 5784TIP3    H117293   7.145   3.547   0.919
 5784TIP3    H217294   7.053   3.658   0.963
 5785TIP3   OH217295   5.823   6.974   5.505
 5785TIP3    H117296   5.751   6.911   5.519
 5785TIP3    H217297   5.780   7.051   5.467
 5786TIP3   OH217298   2.247   1.747   4.612
 5786TIP3    H117299   2.224   1.667   4.659
 5786TIP3    H217300   2.323   1.782   4.659
 5787TIP3   OH217301   2.524   6.422   6.302
 5787TIP3    H117302   2.528   6.502   6.355
 5787TIP3    H217303   2.572   6.444   6.222
 5788TIP3   OH217304   0.895   0.002   3.948
 5788TIP3    H117305   0.924  -0.035   3.865
 5788TIP3    H217306   0.975   0.037   3.988
 5789TIP3   OH217307   6.758   6.354   0.754
 5789TIP3    H117308   6.730   6.262   0.755
 5789TIP3    H217309   6.725   6.391   0.835
 5790TIP3   OH217310   2.013   1.682   0.297
 5790TIP3    H117311   2.004   1.626   0.374
 5790TIP3    H217312   1.929   1.727   0.290
 5791TIP3   OH217313   7.234   0.778   0.490
 5791TIP3    H117314   7.170   0.781   0.562
 5791TIP3    H217315   7.182   0.797   0.412
 5792TIP3   OH217316   7.361   1.525   4.341
 5792TIP3    H117317   7.307   1.586   4.290
 5792TIP3    H217318   7.402   1.580   4.408
 5793TIP3   OH217319   2.050   6.843   2.228
 5793TIP3    H117320   1.984   6.793   2.179
 5793TIP3    H217321   2.001   6.917   2.264
 5794TIP3   OH217322   3.795   4.080   1.558
 5794TIP3    H117323   3.713   4.111   1.597
 5794TIP3    H217324   3.822   4.008   1.613
 5795TIP3   OH217325   0.895   6.903   5.374
 5795TIP3    H117326   0.939   6.892   5.289
 5795TIP3    H217327   0.813   6.948   5.352
 5796TIP3   OH217328   5.645   6.066   2.125
 5796TIP3    H117329   5.637   6.154   2.088
 5796TIP3    H217330   5.660   6.009   2.049
 5797TIP3   OH217331   1.946   0.021   1.524
 5797TIP3    H117332   1.896   0.008   1.605
 5797TIP3    H217333   1.997   0.100   1.540
 5798TIP3   OH217334   0.730   1.377   5.891
 5798TIP3    H117335   0.739   1.359   5.797
 5798TIP3    H217336   0.777   1.306   5.934
 5799TIP3   OH217337   7.451   7.771   6.372
 5799TIP3    H117338   7.517   7.703   6.354
 5799TIP3    H217339   7.434   7.810   6.287
 5800TIP3   OH217340   3.437   2.825   3.113
 5800TIP3    H117341   3.510   2.784   3.159
 5800TIP3    H217342   3.477   2.894   3.060
 5801TIP3   OH217343   0.406   1.211   0.678
 5801TIP3    H117344   0.377   1.284   0.733
 5801TIP3    H217345   0.446   1.252   0.602
 5802TIP3   OH217346   7.206   3.919   0.910
 5802TIP3    H117347   7.203   3.912   1.005
 5802TIP3    H217348   7.157   4.000   0.890
 5803TIP3   OH217349   7.712   0.695   0.192
 5803TIP3    H117350   7.746   0.760   0.253
 5803TIP3    H217351   7.790   0.656   0.152
 5804TIP3   OH217352   2.429   6.715   4.926
 5804TIP3    H117353   2.506   6.763   4.894
 5804TIP3    H217354   2.459   6.625   4.937
 5805TIP3   OH217355   6.248   5.062   4.023
 5805TIP3    H117356   6.322   5.122   4.031
 5805TIP3    H217357   6.171   5.119   4.020
 5806TIP3   OH217358   1.180   7.182   4.496
 5806TIP3    H117359   1.156   7.107   4.551
 5806TIP3    H217360   1.258   7.154   4.450
 5807TIP3   OH217361   0.971   7.735   2.229
 5807TIP3    H117362   1.030   7.664   2.257
 5807TIP3    H217363   1.020   7.779   2.159
 5808TIP3   OH217364   3.708   5.652   1.967
 5808TIP3    H117365   3.770   5.723   1.982
 5808TIP3    H217366   3.705   5.605   2.050
 5809TIP3   OH217367   4.523   7.169   3.996
 5809TIP3    H117368   4.453   7.150   3.934
 5809TIP3    H217369   4.597   7.195   3.942
 5810TIP3   OH217370   3.238   3.230   0.271
 5810TIP3    H117371   3.157   3.262   0.230
 5810TIP3    H217372   3.300   3.221   0.199
 5811TIP3   OH217373   6.998   7.173   2.493
 5811TIP3    H117374   6.952   7.147   2.414
 5811TIP3    H217375   7.068   7.232   2.462
 5812TIP3   OH217376   7.181   3.602   1.670
 5812TIP3    H117377   7.257   3.658   1.688
 5812TIP3    H217378   7.203   3.519   1.713
 5813TIP3   OH217379   7.357   1.399   3.539
 5813TIP3    H117380   7.391   1.390   3.629
 5813TIP3    H217381   7.359   1.494   3.523
 5814TIP3   OH217382   5.664   4.921   3.164
 5814TIP3    H117383   5.624   4.835   3.181
 5814TIP3    H217384   5.589   4.981   3.161
 5815TIP3   OH217385   5.095   3.316   4.698
 5815TIP3    H117386   5.146   3.284   4.624
 5815TIP3    H217387   5.098   3.412   4.690
 5816TIP3   OH217388   2.979   5.099   3.395
 5816TIP3    H117389   2.912   5.166   3.389
 5816TIP3    H217390   2.941   5.032   3.451
 5817TIP3   OH217391   2.238   5.318   5.392
 5817TIP3    H117392   2.295   5.260   5.342
 5817TIP3    H217393   2.270   5.406   5.373
 5818TIP3   OH217394   1.259   7.121   5.099
 5818TIP3    H117395   1.189   7.182   5.124
 5818TIP3    H217396   1.328   7.135   5.164
 5819TIP3   OH217397   7.468   5.138   3.878
 5819TIP3    H117398   7.524   5.098   3.811
 5819TIP3    H217399   7.435   5.064   3.929
 5820TIP3   OH217400   4.046   7.707   4.324
 5820TIP3    H117401   4.003   7.762   4.259
 5820TIP3    H217402   4.108   7.765   4.369
 5821TIP3   OH217403   1.462   3.925   3.744
 5821TIP3    H117404   1.523   3.933   3.818
 5821TIP3    H217405   1.508   3.870   3.681
 5822TIP3   OH217406   4.386   6.399   3.045
 5822TIP3    H117407   4.412   6.442   2.964
 5822TIP3    H217408   4.349   6.315   3.018
 5823TIP3   OH217409   4.912   3.344   4.357
 5823TIP3    H117410   4.888   3.261   4.397
 5823TIP3    H217411   4.851   3.407   4.396
 5824TIP3   OH217412   6.747   5.092   2.621
 5824TIP3    H117413   6.696   5.172   2.633
 5824TIP3    H217414   6.836   5.123   2.607
 5825TIP3   OH217415   7.521   0.210   2.120
 5825TIP3    H117416   7.512   0.204   2.025
 5825TIP3    H217417   7.574   0.133   2.144
 5826TIP3   OH217418   2.046   6.955   1.356
 5826TIP3    H117419   2.110   7.013   1.316
 5826TIP3    H217420   2.007   7.007   1.427
 5827TIP3   OH217421   2.391   6.044   4.372
 5827TIP3    H117422   2.376   6.027   4.279
 5827TIP3    H217423   2.472   5.997   4.393
 5828TIP3   OH217424   6.124   0.402   2.453
 5828TIP3    H117425   6.121   0.324   2.396
 5828TIP3    H217426   6.033   0.428   2.463
 5829TIP3   OH217427   1.888   4.945   4.680
 5829TIP3    H117428   1.810   4.891   4.672
 5829TIP3    H217429   1.934   4.935   4.596
 5830TIP3   OH217430   6.944   6.821   2.933
 5830TIP3    H117431   6.905   6.739   2.901
 5830TIP3    H217432   7.036   6.815   2.910
 5831TIP3   OH217433   4.413   6.133   1.854
 5831TIP3    H117434   4.398   6.067   1.786
 5831TIP3    H217435   4.441   6.082   1.931
 5832TIP3   OH217436   7.566   4.076   4.650
 5832TIP3    H117437   7.627   4.148   4.636
 5832TIP3    H217438   7.600   4.004   4.596
 5833TIP3   OH217439   8.116   3.712   1.834
 5833TIP3    H117440   8.190   3.690   1.891
 5833TIP3    H217441   8.046   3.654   1.863
 5834TIP3   OH217442   2.264   0.035   0.203
 5834TIP3    H117443   2.266   0.115   0.150
 5834TIP3    H217444   2.287  -0.034   0.141
 5835TIP3   OH217445   5.561   2.789   6.027
 5835TIP3    H117446   5.635   2.741   5.990
 5835TIP3    H217447   5.536   2.851   5.959
 5836TIP3   OH217448   4.007   1.778   2.623
 5836TIP3    H117449   4.043   1.824   2.548
 5836TIP3    H217450   4.054   1.695   2.625
 5837TIP3   OH217451   2.051   6.862   4.981
 5837TIP3    H117452   2.079   6.888   5.068
 5837TIP3    H217453   1.960   6.833   4.992
 5838TIP3   OH217454   0.349   0.170   5.238
 5838TIP3    H117455   0.358   0.085   5.281
 5838TIP3    H217456   0.320   0.149   5.149
 5839TIP3   OH217457   1.195   2.186   5.621
 5839TIP3    H117458   1.164   2.264   5.575
 5839TIP3    H217459   1.254   2.143   5.558
 5840TIP3   OH217460   1.194   5.398   3.491
 5840TIP3    H117461   1.203   5.493   3.488
 5840TIP3    H217462   1.164   5.379   3.580
 5841TIP3   OH217463   0.295   3.043   4.834
 5841TIP3    H117464   0.233   2.970   4.834
 5841TIP3    H217465   0.258   3.107   4.772
 5842TIP3   OH217466   6.875   0.057   6.539
 5842TIP3    H117467   6.901  -0.015   6.481
 5842TIP3    H217468   6.790   0.030   6.573
 5843TIP3   OH217469   2.585   7.289   2.515
 5843TIP3    H117470   2.617   7.237   2.442
 5843TIP3    H217471   2.621   7.247   2.593
 5844TIP3   OH217472   7.169   2.818   5.268
 5844TIP3    H117473   7.188   2.848   5.180
 5844TIP3    H217474   7.103   2.879   5.301
 5845TIP3   OH217475   3.160   5.162   4.422
 5845TIP3    H117476   3.224   5.136   4.356
 5845TIP3    H217477   3.076   5.163   4.375
 5846TIP3   OH217478   5.716   3.340   3.340
 5846TIP3    H117479   5.684   3.353   3.429
 5846TIP3    H217480   5.789   3.401   3.333
 5847TIP3   OH217481   6.372   3.647   1.663
 5847TIP3    H117482   6.331   3.723   1.705
 5847TIP3    H217483   6.355   3.574   1.724
 5848TIP3   OH217484   6.243   6.098   0.680
 5848TIP3    H117485   6.302   6.045   0.627
 5848TIP3    H217486   6.191   6.147   0.616
 5849TIP3   OH217487   2.212   7.325   5.653
 5849TIP3    H117488   2.225   7.231   5.664
 5849TIP3    H217489   2.287   7.365   5.696
 5850TIP3   OH217490   3.494   4.803   1.808
 5850TIP3    H117491   3.515   4.767   1.721
 5850TIP3    H217492   3.578   4.831   1.844
 5851TIP3   OH217493   2.910   0.787   2.933
 5851TIP3    H117494   2.869   0.872   2.948
 5851TIP3    H217495   2.977   0.781   3.002
 5852TIP3   OH217496   7.991   2.528   3.524
 5852TIP3    H117497   7.990   2.622   3.542
 5852TIP3    H217498   7.908   2.510   3.480
 5853TIP3   OH217499   7.283   4.555   6.618
 5853TIP3    H117500   7.360   4.609   6.637
 5853TIP3    H217501   7.283   4.546   6.522
 5854TIP3   OH217502   5.048   5.469   4.013
 5854TIP3    H117503   4.988   5.481   4.087
 5854TIP3    H217504   5.067   5.557   3.983
 5855TIP3   OH217505   1.415   6.201   2.737
 5855TIP3    H117506   1.362   6.267   2.693
 5855TIP3    H217507   1.495   6.195   2.684
 5856TIP3   OH217508   7.792   2.181   1.165
 5856TIP3    H117509   7.809   2.183   1.259
 5856TIP3    H217510   7.713   2.127   1.156
 5857TIP3   OH217511   6.455   6.411   4.093
 5857TIP3    H117512   6.367   6.379   4.114
 5857TIP3    H217513   6.514   6.351   4.140
 5858TIP3   OH217514   5.717   4.357   2.922
 5858TIP3    H117515   5.680   4.401   2.846
 5858TIP3    H217516   5.708   4.264   2.903
 5859TIP3   OH217517   0.614   0.245   2.561
 5859TIP3    H117518   0.558   0.169   2.547
 5859TIP3    H217519   0.703   0.210   2.559
 5860TIP3   OH217520   6.900   5.352   2.154
 5860TIP3    H117521   6.891   5.281   2.090
 5860TIP3    H217522   6.858   5.319   2.233
 5861TIP3   OH217523   7.694   3.677   2.024
 5861TIP3    H117524   7.753   3.677   1.949
 5861TIP3    H217525   7.752   3.676   2.101
 5862TIP3   OH217526   7.648   5.658   6.700
 5862TIP3    H117527   7.589   5.634   6.628
 5862TIP3    H217528   7.594   5.712   6.758
 5863TIP3   OH217529   4.495   2.770   6.646
 5863TIP3    H117530   4.418   2.779   6.702
 5863TIP3    H217531   4.460   2.735   6.563
 5864TIP3   OH217532   4.840   6.453   3.247
 5864TIP3    H117533   4.761   6.400   3.237
 5864TIP3    H217534   4.838   6.483   3.338
 5865TIP3   OH217535   4.633   5.109   6.691
 5865TIP3    H117536   4.707   5.168   6.678
 5865TIP3    H217537   4.587   5.144   6.767
 5866TIP3   OH217538   5.777   4.563   4.283
 5866TIP3    H117539   5.870   4.586   4.278
 5866TIP3    H217540   5.775   4.477   4.325
 5867TIP3   OH217541   7.635   3.038   5.562
 5867TIP3    H117542   7.720   3.049   5.604
 5867TIP3    H217543   7.573   3.029   5.634
 5868TIP3   OH217544   1.111   5.751   1.497
 5868TIP3    H117545   1.040   5.807   1.467
 5868TIP3    H217546   1.071   5.664   1.506
 5869TIP3   OH217547   1.484   1.747   4.067
 5869TIP3    H117548   1.434   1.811   4.017
 5869TIP3    H217549   1.534   1.800   4.130
 5870TIP3   OH217550   6.711   4.225   4.883
 5870TIP3    H117551   6.733   4.196   4.971
 5870TIP3    H217552   6.771   4.176   4.826
 5871TIP3   OH217553   7.240   4.971   3.000
 5871TIP3    H117554   7.144   4.971   2.997
 5871TIP3    H217555   7.267   4.963   2.909
 5872TIP3   OH217556   1.086   0.759   6.626
 5872TIP3    H117557   1.154   0.803   6.575
 5872TIP3    H217558   1.070   0.817   6.700
 5873TIP3   OH217559   5.024   6.032   5.524
 5873TIP3    H117560   5.038   6.115   5.479
 5873TIP3    H217561   5.107   5.985   5.513
 5874TIP3   OH217562   2.074   0.201   2.126
 5874TIP3    H117563   2.019   0.168   2.197
 5874TIP3    H217564   2.138   0.258   2.169
 5875TIP3   OH217565   3.735   2.397   1.759
 5875TIP3    H117566   3.728   2.346   1.678
 5875TIP3    H217567   3.677   2.472   1.745
 5876TIP3   OH217568   7.865   6.814   6.584
 5876TIP3    H117569   7.916   6.836   6.662
 5876TIP3    H217570   7.868   6.893   6.531
 5877TIP3   OH217571   6.988   1.402   4.623
 5877TIP3    H117572   6.904   1.410   4.578
 5877TIP3    H217573   7.039   1.478   4.593
 5878TIP3   OH217574   0.183   7.306   2.394
 5878TIP3    H117575   0.222   7.387   2.427
 5878TIP3    H217576   0.253   7.263   2.345
 5879TIP3   OH217577   3.345   3.127   6.359
 5879TIP3    H117578   3.290   3.182   6.415
 5879TIP3    H217579   3.406   3.188   6.319
 5880TIP3   OH217580   7.244   7.051   3.017
 5880TIP3    H117581   7.275   7.014   2.934
 5880TIP3    H217582   7.238   7.145   3.000
 5881TIP3   OH217583   5.411   0.168   1.632
 5881TIP3    H117584   5.348   0.121   1.577
 5881TIP3    H217585   5.376   0.159   1.721
 5882TIP3   OH217586   6.698   6.829   6.815
 5882TIP3    H117587   6.761   6.895   6.847
 5882TIP3    H217588   6.615   6.876   6.810
 5883TIP3   OH217589   5.142   3.710   2.450
 5883TIP3    H117590   5.128   3.773   2.521
 5883TIP3    H217591   5.092   3.633   2.477
 5884TIP3   OH217592   3.036   2.106   1.773
 5884TIP3    H117593   3.099   2.040   1.742
 5884TIP3    H217594   3.089   2.168   1.823
 5885TIP3   OH217595   7.745   6.174   6.387
 5885TIP3    H117596   7.766   6.084   6.409
 5885TIP3    H217597   7.827   6.212   6.357
 5886TIP3   OH217598   5.206   4.384   2.152
 5886TIP3    H117599   5.200   4.288   2.152
 5886TIP3    H217600   5.229   4.407   2.061
 5887TIP3   OH217601   7.500   3.632   5.787
 5887TIP3    H117602   7.500   3.727   5.802
 5887TIP3    H217603   7.450   3.620   5.707
 5888TIP3   OH217604   6.857   4.887   3.498
 5888TIP3    H117605   6.815   4.876   3.412
 5888TIP3    H217606   6.885   4.978   3.500
 5889TIP3   OH217607   7.873   6.888   4.415
 5889TIP3    H117608   7.781   6.902   4.390
 5889TIP3    H217609   7.869   6.831   4.491
 5890TIP3   OH217610   3.904   0.090   4.832
 5890TIP3    H117611   3.815   0.101   4.797
 5890TIP3    H217612   3.907  -0.002   4.859
 5891TIP3   OH217613   5.311   6.624   6.742
 5891TIP3    H117614   5.402   6.646   6.727
 5891TIP3    H217615   5.284   6.681   6.815
 5892TIP3   OH217616   4.070   7.523   1.053
 5892TIP3    H117617   3.987   7.549   1.012
 5892TIP3    H217618   4.063   7.429   1.066
 5893TIP3   OH217619   8.003   2.284   2.019
 5893TIP3    H117620   7.983   2.319   2.105
 5893TIP3    H217621   7.938   2.215   2.005
 5894TIP3   OH217622   3.302   5.737   0.204
 5894TIP3    H117623   3.229   5.776   0.154
 5894TIP3    H217624   3.364   5.708   0.137
 5895TIP3   OH217625   5.982   1.629   3.716
 5895TIP3    H117626   6.062   1.588   3.684
 5895TIP3    H217627   5.999   1.644   3.809
 5896TIP3   OH217628   7.100   7.624   0.677
 5896TIP3    H117629   7.052   7.606   0.596
 5896TIP3    H217630   7.084   7.548   0.732
 5897TIP3   OH217631   3.107   3.636   0.933
 5897TIP3    H117632   3.176   3.570   0.933
 5897TIP3    H217633   3.045   3.606   0.867
 5898TIP3   OH217634   0.685   5.870   0.365
 5898TIP3    H117635   0.599   5.913   0.364
 5898TIP3    H217636   0.671   5.787   0.320
 5899TIP3   OH217637   0.226   6.563   4.339
 5899TIP3    H117638   0.197   6.472   4.347
 5899TIP3    H217639   0.246   6.573   4.246
 5900TIP3   OH217640   1.581   2.165   6.816
 5900TIP3    H117641   1.554   2.165   6.725
 5900TIP3    H217642   1.599   2.257   6.836
 5901TIP3   OH217643   7.700   1.091   0.544
 5901TIP3    H117644   7.624   1.034   0.539
 5901TIP3    H217645   7.770   1.034   0.576
 5902TIP3   OH217646   4.694   5.371   3.021
 5902TIP3    H117647   4.724   5.281   3.009
 5902TIP3    H217648   4.771   5.424   3.000
 5903TIP3   OH217649   2.999   0.918   3.914
 5903TIP3    H117650   3.011   1.012   3.914
 5903TIP3    H217651   3.088   0.882   3.914
 5904TIP3   OH217652   4.679   4.598   1.348
 5904TIP3    H117653   4.770   4.588   1.376
 5904TIP3    H217654   4.681   4.668   1.284
 5905TIP3   OH217655   4.805   6.243   1.163
 5905TIP3    H117656   4.838   6.222   1.250
 5905TIP3    H217657   4.773   6.160   1.129
 5906TIP3   OH217658   4.722   2.671   0.340
 5906TIP3    H117659   4.772   2.749   0.365
 5906TIP3    H217660   4.631   2.701   0.334
 5907TIP3   OH217661   2.306   3.873   4.858
 5907TIP3    H117662   2.220   3.900   4.891
 5907TIP3    H217663   2.368   3.930   4.905
 5908TIP3   OH217664   4.407   1.887   0.414
 5908TIP3    H117665   4.355   1.874   0.494
 5908TIP3    H217666   4.483   1.830   0.426
 5909TIP3   OH217667   8.195   1.682   0.799
 5909TIP3    H117668   8.246   1.738   0.857
 5909TIP3    H217669   8.250   1.670   0.722
 5910TIP3   OH217670   5.681   6.448   0.278
 5910TIP3    H117671   5.594   6.482   0.300
 5910TIP3    H217672   5.730   6.524   0.246
 5911TIP3   OH217673   1.517   3.009   2.150
 5911TIP3    H117674   1.529   2.965   2.234
 5911TIP3    H217675   1.422   3.006   2.135
 5912TIP3   OH217676   1.060   2.870   2.252
 5912TIP3    H117677   1.093   2.810   2.320
 5912TIP3    H217678   0.999   2.817   2.201
 5913TIP3   OH217679   8.347   6.541   5.328
 5913TIP3    H117680   8.412   6.554   5.259
 5913TIP3    H217681   8.350   6.447   5.347
 5914TIP3   OH217682   4.551   1.253   4.938
 5914TIP3    H117683   4.628   1.304   4.963
 5914TIP3    H217684   4.512   1.302   4.865
 5915TIP3   OH217685   3.156   5.028   5.832
 5915TIP3    H117686   3.067   4.998   5.815
 5915TIP3    H217687   3.145   5.112   5.876
 5916TIP3   OH217688   4.399   7.009   1.111
 5916TIP3    H117689   4.481   7.018   1.064
 5916TIP3    H217690   4.359   7.096   1.107
 5917TIP3   OH217691   5.490   6.993   5.338
 5917TIP3    H117692   5.550   6.936   5.290
 5917TIP3    H217693   5.525   6.996   5.427
 5918TIP3   OH217694   8.189   4.937   6.808
 5918TIP3    H117695   8.101   4.943   6.771
 5918TIP3    H217696   8.207   4.843   6.811
 5919TIP3   OH217697   5.922   4.224   3.607
 5919TIP3    H117698   5.840   4.251   3.648
 5919TIP3    H217699   5.904   4.136   3.574
 5920TIP3   OH217700   1.235   5.755   5.135
 5920TIP3    H117701   1.154   5.724   5.095
 5920TIP3    H217702   1.278   5.806   5.066
 5921TIP3   OH217703   7.919   4.378   0.775
 5921TIP3    H117704   7.937   4.464   0.813
 5921TIP3    H217705   7.897   4.397   0.683
 5922TIP3   OH217706   2.248   1.717   3.471
 5922TIP3    H117707   2.335   1.756   3.462
 5922TIP3    H217708   2.195   1.785   3.512
 5923TIP3   OH217709   5.238   4.072   6.803
 5923TIP3    H117710   5.182   4.130   6.751
 5923TIP3    H217711   5.205   3.984   6.785
 5924TIP3   OH217712   3.093   6.537   0.951
 5924TIP3    H117713   3.147   6.614   0.968
 5924TIP3    H217714   3.062   6.510   1.037
 5925TIP3   OH217715   3.390   0.197   5.991
 5925TIP3    H117716   3.427   0.113   6.018
 5925TIP3    H217717   3.343   0.229   6.069
 5926TIP3   OH217718   4.122   4.653   3.162
 5926TIP3    H117719   4.083   4.573   3.128
 5926TIP3    H217720   4.079   4.723   3.112
 5927TIP3   OH217721   1.023   5.996   0.428
 5927TIP3    H117722   0.989   6.006   0.339
 5927TIP3    H217723   1.065   6.080   0.447
 5928TIP3   OH217724   2.414   7.646   4.694
 5928TIP3    H117725   2.376   7.577   4.639
 5928TIP3    H217726   2.347   7.715   4.695
 5929TIP3   OH217727   3.636   0.942   6.835
 5929TIP3    H117728   3.649   1.036   6.844
 5929TIP3    H217729   3.683   0.904   6.909
 5930TIP3   OH217730   1.392   0.860   0.230
 5930TIP3    H117731   1.412   0.766   0.225
 5930TIP3    H217732   1.339   0.877   0.152
 5931TIP3   OH217733   5.440   3.214   6.163
 5931TIP3    H117734   5.357   3.232   6.207
 5931TIP3    H217735   5.425   3.242   6.072
 5932TIP3   OH217736   6.830   1.189   1.235
 5932TIP3    H117737   6.827   1.283   1.218
 5932TIP3    H217738   6.797   1.180   1.325
 5933TIP3   OH217739   1.782   0.735   3.022
 5933TIP3    H117740   1.860   0.747   3.076
 5933TIP3    H217741   1.747   0.650   3.048
 5934TIP3   OH217742   6.141   7.667   5.312
 5934TIP3    H117743   6.087   7.712   5.375
 5934TIP3    H217744   6.080   7.616   5.258
 5935TIP3   OH217745   8.378   3.880   0.474
 5935TIP3    H117746   8.288   3.851   0.486
 5935TIP3    H217747   8.415   3.818   0.412
 5936TIP3   OH217748   1.750   7.779   6.183
 5936TIP3    H117749   1.730   7.863   6.143
 5936TIP3    H217750   1.720   7.787   6.274
 5937TIP3   OH217751   1.633   3.221   0.890
 5937TIP3    H117752   1.699   3.159   0.922
 5937TIP3    H217753   1.684   3.299   0.866
 5938TIP3   OH217754   0.426   1.516   4.470
 5938TIP3    H117755   0.430   1.610   4.488
 5938TIP3    H217756   0.337   1.491   4.495
 5939TIP3   OH217757   4.365   7.278   6.611
 5939TIP3    H117758   4.290   7.278   6.671
 5939TIP3    H217759   4.436   7.318   6.661
 5940TIP3   OH217760   7.488   4.704   6.704
 5940TIP3    H117761   7.514   4.775   6.647
 5940TIP3    H217762   7.456   4.747   6.784
 5941TIP3   OH217763   7.149   7.060   6.304
 5941TIP3    H117764   7.193   6.999   6.244
 5941TIP3    H217765   7.212   7.072   6.375
 5942TIP3   OH217766   7.821   4.749   3.722
 5942TIP3    H117767   7.915   4.731   3.719
 5942TIP3    H217768   7.791   4.709   3.804
 5943TIP3   OH217769   7.816   7.421   0.378
 5943TIP3    H117770   7.822   7.516   0.386
 5943TIP3    H217771   7.777   7.407   0.292
 5944TIP3   OH217772   1.874   5.069   3.498
 5944TIP3    H117773   1.862   5.041   3.588
 5944TIP3    H217774   1.969   5.067   3.485
 5945TIP3   OH217775   5.428   4.428   5.001
 5945TIP3    H117776   5.355   4.366   4.992
 5945TIP3    H217777   5.506   4.372   5.003
 5946TIP3   OH217778   7.436   1.109   1.117
 5946TIP3    H117779   7.395   1.188   1.081
 5946TIP3    H217780   7.462   1.059   1.039
 5947TIP3   OH217781   6.941   3.098   6.177
 5947TIP3    H117782   6.852   3.116   6.208
 5947TIP3    H217783   6.989   3.180   6.191
 5948TIP3   OH217784   1.631   2.631   0.942
 5948TIP3    H117785   1.637   2.626   1.038
 5948TIP3    H217786   1.569   2.703   0.926
 5949TIP3   OH217787   4.011   4.943   5.068
 5949TIP3    H117788   3.939   4.968   5.009
 5949TIP3    H217789   4.049   4.865   5.028
 5950TIP3   OH217790   7.822   5.106   3.101
 5950TIP3    H117791   7.839   5.014   3.118
 5950TIP3    H217792   7.804   5.111   3.007
 5951TIP3   OH217793   0.025   3.551   5.334
 5951TIP3    H117794  -0.024   3.486   5.283
 5951TIP3    H217795   0.067   3.500   5.403
 5952TIP3   OH217796   4.755   4.165   5.745
 5952TIP3    H117797   4.766   4.124   5.831
 5952TIP3    H217798   4.752   4.259   5.764
 5953TIP3   OH217799   7.670   2.386   1.365
 5953TIP3    H117800   7.625   2.384   1.280
 5953TIP3    H217801   7.750   2.335   1.351
 5954TIP3   OH217802   5.129   1.726   0.587
 5954TIP3    H117803   5.145   1.773   0.505
 5954TIP3    H217804   5.124   1.634   0.562
 5955TIP3   OH217805   3.947   1.938   1.255
 5955TIP3    H117806   3.880   1.876   1.284
 5955TIP3    H217807   3.915   1.970   1.170
 5956TIP3   OH217808   2.452   6.259   1.453
 5956TIP3    H117809   2.510   6.192   1.489
 5956TIP3    H217810   2.393   6.211   1.395
 5957TIP3   OH217811   7.716   2.884   3.161
 5957TIP3    H117812   7.796   2.859   3.113
 5957TIP3    H217813   7.733   2.854   3.251
 5958TIP3   OH217814   7.473   4.257   0.013
 5958TIP3    H117815   7.514   4.328   0.063
 5958TIP3    H217816   7.431   4.302  -0.060
 5959TIP3   OH217817   3.388   5.718   4.390
 5959TIP3    H117818   3.359   5.629   4.367
 5959TIP3    H217819   3.477   5.705   4.425
 5960TIP3   OH217820   7.723   4.014   0.247
 5960TIP3    H117821   7.642   4.063   0.234
 5960TIP3    H217822   7.750   3.988   0.158
 5961TIP3   OH217823   6.127   4.386   0.113
 5961TIP3    H117824   6.144   4.404   0.205
 5961TIP3    H217825   6.153   4.295   0.100
 5962TIP3   OH217826   1.781   0.821   2.738
 5962TIP3    H117827   1.752   0.792   2.824
 5962TIP3    H217828   1.761   0.748   2.680
 5963TIP3   OH217829   0.176   3.533   4.222
 5963TIP3    H117830   0.253   3.555   4.171
 5963TIP3    H217831   0.173   3.438   4.221
 5964TIP3   OH217832   0.148   6.565   0.627
 5964TIP3    H117833   0.105   6.508   0.691
 5964TIP3    H217834   0.083   6.632   0.607
 5965TIP3   OH217835   4.426   0.771   1.802
 5965TIP3    H117836   4.374   0.739   1.876
 5965TIP3    H217837   4.515   0.778   1.836
 5966TIP3   OH217838   7.722   5.911   0.746
 5966TIP3    H117839   7.745   5.983   0.687
 5966TIP3    H217840   7.628   5.922   0.760
 5967TIP3   OH217841   0.980   4.735   3.553
 5967TIP3    H117842   1.013   4.791   3.623
 5967TIP3    H217843   1.056   4.717   3.498
 5968TIP3   OH217844   6.574   3.734   3.195
 5968TIP3    H117845   6.607   3.776   3.274
 5968TIP3    H217846   6.486   3.703   3.218
 5969TIP3   OH217847   1.412   1.044   5.562
 5969TIP3    H117848   1.405   0.950   5.547
 5969TIP3    H217849   1.506   1.061   5.568
 5970TIP3   OH217850   3.316   5.346   2.601
 5970TIP3    H117851   3.386   5.296   2.558
 5970TIP3    H217852   3.259   5.375   2.530
 5971TIP3   OH217853   1.849   3.052   5.623
 5971TIP3    H117854   1.757   3.058   5.647
 5971TIP3    H217855   1.855   3.093   5.537
 5972TIP3   OH217856   7.382   6.112   0.575
 5972TIP3    H117857   7.416   6.023   0.568
 5972TIP3    H217858   7.456   6.164   0.607
 5973TIP3   OH217859   7.354   0.990   4.608
 5973TIP3    H117860   7.416   1.034   4.666
 5973TIP3    H217861   7.276   1.045   4.612
 5974TIP3   OH217862   1.309   6.343   1.814
 5974TIP3    H117863   1.387   6.372   1.862
 5974TIP3    H217864   1.284   6.419   1.761
 5975TIP3   OH217865   0.488   2.136   0.860
 5975TIP3    H117866   0.518   2.194   0.930
 5975TIP3    H217867   0.483   2.050   0.901
 5976TIP3   OH217868   2.942   0.552   2.305
 5976TIP3    H117869   3.015   0.566   2.365
 5976TIP3    H217870   2.868   0.528   2.361
 5977TIP3   OH217871   5.371   1.751   0.176
 5977TIP3    H117872   5.327   1.676   0.136
 5977TIP3    H217873   5.414   1.796   0.103
 5978TIP3   OH217874   0.662   0.564   5.155
 5978TIP3    H117875   0.611   0.493   5.194
 5978TIP3    H217876   0.615   0.644   5.179
 5979TIP3   OH217877   5.348   2.574   5.707
 5979TIP3    H117878   5.403   2.652   5.700
 5979TIP3    H217879   5.405   2.502   5.678
 5980TIP3   OH217880   7.623   5.337   6.832
 5980TIP3    H117881   7.622   5.268   6.766
 5980TIP3    H217882   7.673   5.408   6.792
 5981TIP3   OH217883   8.018   5.757   5.178
 5981TIP3    H117884   8.023   5.715   5.092
 5981TIP3    H217885   7.939   5.811   5.174
 5982TIP3   OH217886   5.831   0.834   4.209
 5982TIP3    H117887   5.883   0.767   4.252
 5982TIP3    H217888   5.828   0.808   4.117
 5983TIP3   OH217889   5.069   6.463   5.824
 5983TIP3    H117890   5.032   6.546   5.856
 5983TIP3    H217891   5.132   6.438   5.891
 5984TIP3   OH217892   8.073   4.896   1.554
 5984TIP3    H117893   8.118   4.822   1.595
 5984TIP3    H217894   7.986   4.896   1.594
 5985TIP3   OH217895   5.964   7.383   2.019
 5985TIP3    H117896   5.876   7.412   2.045
 5985TIP3    H217897   6.002   7.458   1.975
 5986TIP3   OH217898   7.819   5.077   0.390
 5986TIP3    H117899   7.860   5.162   0.408
 5986TIP3    H217900   7.847   5.021   0.462
 5987TIP3   OH217901   8.112   7.083   4.402
 5987TIP3    H117902   8.034   7.028   4.404
 5987TIP3    H217903   8.185   7.020   4.403
 5988TIP3   OH217904   6.540   7.266   2.512
 5988TIP3    H117905   6.558   7.206   2.584
 5988TIP3    H217906   6.541   7.210   2.434
 5989TIP3   OH217907   0.541   2.814   6.538
 5989TIP3    H117908   0.545   2.909   6.526
 5989TIP3    H217909   0.486   2.783   6.466
 5990TIP3   OH217910   7.454   3.673   3.092
 5990TIP3    H117911   7.404   3.746   3.129
 5990TIP3    H217912   7.408   3.594   3.122
 5991TIP3   OH217913   0.130   7.467   1.838
 5991TIP3    H117914   0.197   7.535   1.837
 5991TIP3    H217915   0.112   7.451   1.745
 5992TIP3   OH217916   1.757   0.265   6.286
 5992TIP3    H117917   1.838   0.281   6.334
 5992TIP3    H217918   1.758   0.171   6.267
 5993TIP3   OH217919   7.838   4.786   0.173
 5993TIP3    H117920   7.894   4.798   0.096
 5993TIP3    H217921   7.839   4.871   0.217
 5994TIP3   OH217922   4.984   5.962   2.433
 5994TIP3    H117923   5.074   5.935   2.452
 5994TIP3    H217924   4.965   5.926   2.347
 5995TIP3   OH217925   3.404   2.597   5.247
 5995TIP3    H117926   3.462   2.673   5.258
 5995TIP3    H217927   3.343   2.623   5.178
 5996TIP3   OH217928   3.426   7.683   2.584
 5996TIP3    H117929   3.389   7.691   2.672
 5996TIP3    H217930   3.520   7.688   2.596
 5997TIP3   OH217931   6.923   5.089   3.951
 5997TIP3    H117932   6.880   5.115   3.870
 5997TIP3    H217933   6.850   5.070   4.011
 5998TIP3   OH217934   1.620   2.564   5.405
 5998TIP3    H117935   1.595   2.477   5.436
 5998TIP3    H217936   1.537   2.612   5.401
 5999TIP3   OH217937   0.389   7.145   0.879
 5999TIP3    H117938   0.459   7.092   0.840
 5999TIP3    H217939   0.311   7.088   0.874
 6000TIP3   OH217940   7.589   5.907   4.359
 6000TIP3    H117941   7.634   5.986   4.386
 6000TIP3    H217942   7.500   5.936   4.336
 6001TIP3   OH217943   6.871   4.855   0.461
 6001TIP3    H117944   6.829   4.941   0.464
 6001TIP3    H217945   6.855   4.817   0.547
 6002TIP3   OH217946   1.615   7.206   0.181
 6002TIP3    H117947   1.544   7.150   0.151
 6002TIP3    H217948   1.694   7.154   0.169
 6003TIP3   OH217949   5.021   6.574   0.716
 6003TIP3    H117950   5.057   6.496   0.760
 6003TIP3    H217951   4.933   6.547   0.689
 6004TIP3   OH217952   1.494   4.870   4.945
 6004TIP3    H117953   1.516   4.933   5.013
 6004TIP3    H217954   1.519   4.785   4.981
 6005TIP3   OH217955   2.618   4.331   1.919
 6005TIP3    H117956   2.636   4.304   2.009
 6005TIP3    H217957   2.597   4.424   1.926
 6006TIP3   OH217958   8.246   5.059   5.020
 6006TIP3    H117959   8.221   5.112   4.945
 6006TIP3    H217960   8.340   5.071   5.029
 6007TIP3   OH217961   6.355   1.519   4.989
 6007TIP3    H117962   6.394   1.446   5.037
 6007TIP3    H217963   6.261   1.512   5.006
 6008TIP3   OH217964   5.434   2.461   3.885
 6008TIP3    H117965   5.464   2.508   3.963
 6008TIP3    H217966   5.392   2.382   3.920
 6009TIP3   OH217967   1.160   3.995   4.217
 6009TIP3    H117968   1.186   3.909   4.184
 6009TIP3    H217969   1.216   4.008   4.294
 6010TIP3   OH217970   7.170   1.747   2.868
 6010TIP3    H117971   7.201   1.678   2.926
 6010TIP3    H217972   7.100   1.790   2.918
 6011TIP3   OH217973   5.952   3.753   1.436
 6011TIP3    H117974   5.881   3.804   1.475
 6011TIP3    H217975   5.968   3.794   1.351
 6012TIP3   OH217976   1.929   0.684   4.352
 6012TIP3    H117977   1.852   0.674   4.296
 6012TIP3    H217978   1.933   0.778   4.371
 6013TIP3   OH217979   0.186   2.215   0.881
 6013TIP3    H117980   0.272   2.186   0.849
 6013TIP3    H217981   0.150   2.138   0.924
 6014TIP3   OH217982   7.211   6.875   6.094
 6014TIP3    H117983   7.270   6.805   6.066
 6014TIP3    H217984   7.192   6.924   6.015
 6015TIP3   OH217985   1.919   2.006   5.070
 6015TIP3    H117986   1.915   2.004   5.165
 6015TIP3    H217987   1.985   2.073   5.050
 6016TIP3   OH217988   0.319   6.588   5.751
 6016TIP3    H117989   0.263   6.519   5.716
 6016TIP3    H217990   0.385   6.602   5.684
 6017TIP3   OH217991   4.689   5.916   3.006
 6017TIP3    H117992   4.642   6.000   3.006
 6017TIP3    H217993   4.720   5.906   3.096
 6018TIP3   OH217994   7.742   3.415   6.705
 6018TIP3    H117995   7.787   3.378   6.629
 6018TIP3    H217996   7.790   3.496   6.724
 6019TIP3   OH217997   4.291   3.151   1.161
 6019TIP3    H117998   4.262   3.060   1.158
 6019TIP3    H217999   4.285   3.175   1.253
 6020TIP3   OH218000   4.443   1.214   2.384
 6020TIP3    H118001   4.512   1.150   2.398
 6020TIP3    H218002   4.407   1.192   2.298
 6021TIP3   OH218003   1.155   2.202   3.373
 6021TIP3    H118004   1.159   2.140   3.300
 6021TIP3    H218005   1.246   2.232   3.384
 6022TIP3   OH218006   1.041   4.972   4.707
 6022TIP3    H118007   1.112   4.919   4.743
 6022TIP3    H218008   1.081   5.058   4.691
 6023TIP3   OH218009   3.608   7.768   6.361
 6023TIP3    H118010   3.567   7.754   6.447
 6023TIP3    H218011   3.536   7.791   6.303
 6024TIP3   OH218012   0.785   0.088   1.546
 6024TIP3    H118013   0.798   0.173   1.588
 6024TIP3    H218014   0.738   0.108   1.465
 6025TIP3   OH218015   6.096   3.042   4.792
 6025TIP3    H118016   6.181   3.079   4.817
 6025TIP3    H218017   6.079   3.076   4.704
 6026TIP3   OH218018   7.824   7.019   1.098
 6026TIP3    H118019   7.788   6.930   1.097
 6026TIP3    H218020   7.790   7.060   1.018
 6027TIP3   OH218021   7.680   3.913   0.786
 6027TIP3    H118022   7.745   3.909   0.855
 6027TIP3    H218023   7.696   3.835   0.733
 6028TIP3   OH218024   4.984   1.188   0.540
 6028TIP3    H118025   4.979   1.192   0.445
 6028TIP3    H218026   5.078   1.195   0.559
 6029TIP3   OH218027   3.899   6.378   0.759
 6029TIP3    H118028   3.914   6.291   0.723
 6029TIP3    H218029   3.879   6.432   0.682
 6030TIP3   OH218030   3.634   2.779   0.985
 6030TIP3    H118031   3.648   2.873   0.991
 6030TIP3    H218032   3.552   2.770   0.936
 6031TIP3   OH218033   1.493   5.285   2.522
 6031TIP3    H118034   1.441   5.205   2.524
 6031TIP3    H218035   1.533   5.285   2.435
 6032TIP3   OH218036   0.304   3.827   0.935
 6032TIP3    H118037   0.293   3.800   0.844
 6032TIP3    H218038   0.258   3.911   0.940
 6033TIP3   OH218039   3.965   1.778   0.516
 6033TIP3    H118040   3.908   1.765   0.440
 6033TIP3    H218041   3.909   1.821   0.581
 6034TIP3   OH218042   0.710   0.191   4.132
 6034TIP3    H118043   0.681   0.125   4.194
 6034TIP3    H218044   0.802   0.170   4.116
 6035TIP3   OH218045   2.809   6.153   2.157
 6035TIP3    H118046   2.771   6.112   2.234
 6035TIP3    H218047   2.765   6.110   2.083
 6036TIP3   OH218048   3.739   3.408   2.572
 6036TIP3    H118049   3.645   3.390   2.575
 6036TIP3    H218050   3.770   3.363   2.493
 6037TIP3   OH218051   3.652   1.675   3.549
 6037TIP3    H118052   3.668   1.761   3.511
 6037TIP3    H218053   3.557   1.669   3.558
 6038TIP3   OH218054   4.434   0.674   5.261
 6038TIP3    H118055   4.349   0.631   5.259
 6038TIP3    H218056   4.452   0.687   5.354
 6039TIP3   OH218057   1.248   5.562   6.072
 6039TIP3    H118058   1.221   5.490   6.129
 6039TIP3    H218059   1.208   5.541   5.987
 6040TIP3   OH218060   8.001   3.150   0.759
 6040TIP3    H118061   8.090   3.143   0.793
 6040TIP3    H218062   7.951   3.194   0.828
 6041TIP3   OH218063   6.549   1.945   5.344
 6041TIP3    H118064   6.513   1.898   5.419
 6041TIP3    H218065   6.644   1.943   5.358
 6042TIP3   OH218066   2.728   1.556   0.479
 6042TIP3    H118067   2.702   1.565   0.387
 6042TIP3    H218068   2.796   1.622   0.491
 6043TIP3   OH218069   6.726   1.023   5.774
 6043TIP3    H118070   6.690   1.108   5.799
 6043TIP3    H218071   6.808   1.043   5.729
 6044TIP3   OH218072   3.263   3.056   0.910
 6044TIP3    H118073   3.222   3.008   0.982
 6044TIP3    H218074   3.202   3.044   0.836
 6045TIP3   OH218075   7.548   0.217   3.742
 6045TIP3    H118076   7.516   0.198   3.830
 6045TIP3    H218077   7.468   0.232   3.691
 6046TIP3   OH218078   7.029   4.014   6.173
 6046TIP3    H118079   6.994   4.092   6.216
 6046TIP3    H218080   6.973   3.943   6.203
 6047TIP3   OH218081   4.033   2.520   3.385
 6047TIP3    H118082   4.049   2.517   3.480
 6047TIP3    H218083   4.011   2.611   3.367
 6048TIP3   OH218084   4.026   7.177   1.739
 6048TIP3    H118085   3.978   7.258   1.722
 6048TIP3    H218086   4.047   7.143   1.652
 6049TIP3   OH218087   4.165   0.567   5.889
 6049TIP3    H118088   4.183   0.478   5.918
 6049TIP3    H218089   4.207   0.573   5.803
 6050TIP3   OH218090   2.941   3.209   4.504
 6050TIP3    H118091   2.914   3.118   4.515
 6050TIP3    H218092   2.959   3.217   4.410
 6051TIP3   OH218093   2.913   6.658   6.029
 6051TIP3    H118094   2.820   6.640   6.013
 6051TIP3    H218095   2.925   6.642   6.123
 6052TIP3   OH218096   1.832   2.355   3.562
 6052TIP3    H118097   1.894   2.423   3.535
 6052TIP3    H218098   1.761   2.360   3.499
 6053TIP3   OH218099   5.869   7.823   4.822
 6053TIP3    H118100   5.913   7.903   4.793
 6053TIP3    H218101   5.926   7.752   4.793
 6054TIP3   OH218102   3.195   4.741   5.180
 6054TIP3    H118103   3.143   4.763   5.258
 6054TIP3    H218104   3.254   4.815   5.168
 6055TIP3   OH218105   0.939   7.046   0.349
 6055TIP3    H118106   1.013   7.018   0.403
 6055TIP3    H218107   0.951   7.140   0.338
 6056TIP3   OH218108   1.301   7.065   0.985
 6056TIP3    H118109   1.388   7.034   0.960
 6056TIP3    H218110   1.313   7.101   1.073
 6057TIP3   OH218111   4.910   0.461   0.996
 6057TIP3    H118112   4.831   0.511   1.015
 6057TIP3    H218113   4.981   0.516   1.028
 6058TIP3   OH218114   5.750   6.275   6.273
 6058TIP3    H118115   5.830   6.258   6.322
 6058TIP3    H218116   5.727   6.365   6.296
 6059TIP3   OH218117   7.838   7.697   0.936
 6059TIP3    H118118   7.742   7.701   0.941
 6059TIP3    H218119   7.867   7.781   0.970
 6060TIP3   OH218120   7.731   0.890   1.972
 6060TIP3    H118121   7.636   0.885   1.959
 6060TIP3    H218122   7.768   0.863   1.889
 6061TIP3   OH218123   2.861   6.022   3.260
 6061TIP3    H118124   2.892   5.973   3.184
 6061TIP3    H218125   2.941   6.046   3.306
 6062TIP3   OH218126   0.163   1.671   0.008
 6062TIP3    H118127   0.176   1.579  -0.015
 6062TIP3    H218128   0.116   1.708  -0.066
 6063TIP3   OH218129   6.590   6.881   0.890
 6063TIP3    H118130   6.631   6.961   0.857
 6063TIP3    H218131   6.496   6.898   0.883
 6064TIP3   OH218132   1.293   4.699   6.541
 6064TIP3    H118133   1.334   4.659   6.618
 6064TIP3    H218134   1.358   4.764   6.512
 6065TIP3   OH218135   0.756   0.602   5.438
 6065TIP3    H118136   0.695   0.565   5.502
 6065TIP3    H218137   0.705   0.608   5.357
 6066TIP3   OH218138   2.175   3.442   3.371
 6066TIP3    H118139   2.174   3.405   3.459
 6066TIP3    H218140   2.165   3.536   3.383
 6067TIP3   OH218141   3.759   3.703   0.436
 6067TIP3    H118142   3.732   3.622   0.479
 6067TIP3    H218143   3.762   3.767   0.507
 6068TIP3   OH218144   6.328   7.480   4.453
 6068TIP3    H118145   6.293   7.403   4.409
 6068TIP3    H218146   6.335   7.455   4.545
 6069TIP3   OH218147   6.550   4.135   4.121
 6069TIP3    H118148   6.463   4.159   4.152
 6069TIP3    H218149   6.559   4.043   4.145
 6070TIP3   OH218150   0.752   0.539   2.272
 6070TIP3    H118151   0.696   0.475   2.227
 6070TIP3    H218152   0.816   0.565   2.206
 6071TIP3   OH218153   7.525   1.676   2.943
 6071TIP3    H118154   7.588   1.605   2.953
 6071TIP3    H218155   7.445   1.642   2.981
 6072TIP3   OH218156   1.821   5.993   0.897
 6072TIP3    H118157   1.847   5.920   0.841
 6072TIP3    H218158   1.726   5.987   0.901
 6073TIP3   OH218159   0.765   1.589   1.652
 6073TIP3    H118160   0.781   1.636   1.571
 6073TIP3    H218161   0.781   1.497   1.630
 6074TIP3   OH218162   7.326   1.617   5.368
 6074TIP3    H118163   7.338   1.669   5.289
 6074TIP3    H218164   7.391   1.653   5.430
 6075TIP3   OH218165   6.679   0.436   6.119
 6075TIP3    H118166   6.759   0.384   6.129
 6075TIP3    H218167   6.648   0.450   6.208
 6076TIP3   OH218168   2.041   0.265   0.379
 6076TIP3    H118169   1.950   0.240   0.395
 6076TIP3    H218170   2.047   0.276   0.284
 6077TIP3   OH218171   2.065   7.048   1.822
 6077TIP3    H118172   2.117   6.973   1.852
 6077TIP3    H218173   1.981   7.039   1.866
 6078TIP3   OH218174   2.516   2.338   0.150
 6078TIP3    H118175   2.506   2.284   0.071
 6078TIP3    H218176   2.609   2.361   0.151
 6079TIP3   OH218177   0.908   7.840   3.167
 6079TIP3    H118178   0.899   7.893   3.088
 6079TIP3    H218179   1.001   7.845   3.189
 6080TIP3   OH218180   0.126   0.205   2.908
 6080TIP3    H118181   0.153   0.135   2.968
 6080TIP3    H218182   0.050   0.170   2.862
 6081TIP3   OH218183   1.120   6.869   0.945
 6081TIP3    H118184   1.144   6.779   0.967
 6081TIP3    H218185   1.203   6.912   0.925
 6082TIP3   OH218186   6.974   7.267   6.299
 6082TIP3    H118187   7.029   7.189   6.299
 6082TIP3    H218188   6.931   7.266   6.385
 6083TIP3   OH218189   1.267   2.023   1.686
 6083TIP3    H118190   1.174   2.016   1.665
 6083TIP3    H218191   1.299   1.933   1.684
 6084TIP3   OH218192   5.236   0.875   1.346
 6084TIP3    H118193   5.250   0.891   1.440
 6084TIP3    H218194   5.155   0.825   1.342
 6085TIP3   OH218195   7.480   1.092   3.525
 6085TIP3    H118196   7.390   1.109   3.552
 6085TIP3    H218197   7.494   1.150   3.450
 6086TIP3   OH218198   3.865   1.988   2.283
 6086TIP3    H118199   3.847   1.899   2.253
 6086TIP3    H218200   3.952   2.008   2.249
 6087TIP3   OH218201   7.757   6.537   4.479
 6087TIP3    H118202   7.775   6.491   4.560
 6087TIP3    H218203   7.662   6.550   4.480
 6088TIP3   OH218204   1.900   5.532   2.503
 6088TIP3    H118205   1.823   5.479   2.524
 6088TIP3    H218206   1.884   5.563   2.414
 6089TIP3   OH218207   5.298   1.369   2.358
 6089TIP3    H118208   5.233   1.303   2.382
 6089TIP3    H218209   5.250   1.452   2.361
 6090TIP3   OH218210   4.508   0.668   2.156
 6090TIP3    H118211   4.571   0.671   2.084
 6090TIP3    H218212   4.426   0.696   2.117
 6091TIP3   OH218213   3.371   7.395   0.083
 6091TIP3    H118214   3.305   7.396   0.153
 6091TIP3    H218215   3.435   7.330   0.111
 6092TIP3   OH218216   1.879   1.745   2.017
 6092TIP3    H118217   1.897   1.674   1.955
 6092TIP3    H218218   1.805   1.792   1.979
 6093TIP3   OH218219   4.658   4.287   0.665
 6093TIP3    H118220   4.718   4.282   0.590
 6093TIP3    H218221   4.713   4.268   0.741
 6094TIP3   OH218222   8.152   3.540   5.401
 6094TIP3    H118223   8.114   3.587   5.476
 6094TIP3    H218224   8.247   3.546   5.415
 6095TIP3   OH218225   5.781   4.469   6.714
 6095TIP3    H118226   5.698   4.429   6.741
 6095TIP3    H218227   5.830   4.481   6.796
 6096TIP3   OH218228   7.799   2.336   4.659
 6096TIP3    H118229   7.875   2.326   4.717
 6096TIP3    H218230   7.728   2.361   4.717
 6097TIP3   OH218231   5.401   3.710   1.662
 6097TIP3    H118232   5.489   3.673   1.672
 6097TIP3    H218233   5.374   3.686   1.574
 6098TIP3   OH218234   4.556   5.083   0.965
 6098TIP3    H118235   4.639   5.038   0.950
 6098TIP3    H218236   4.495   5.013   0.988
 6099TIP3   OH218237   8.073   4.770   6.202
 6099TIP3    H118238   8.103   4.855   6.237
 6099TIP3    H218239   8.127   4.757   6.124
 6100TIP3   OH218240   6.103   0.299   4.158
 6100TIP3    H118241   6.056   0.366   4.108
 6100TIP3    H218242   6.084   0.218   4.112
 6101TIP3   OH218243   6.346   4.653   3.623
 6101TIP3    H118244   6.293   4.688   3.552
 6101TIP3    H218245   6.374   4.730   3.672
 6102TIP3   OH218246   2.104   5.646   3.845
 6102TIP3    H118247   2.159   5.647   3.923
 6102TIP3    H218248   2.141   5.714   3.789
 6103TIP3   OH218249   6.020   7.271   3.896
 6103TIP3    H118250   6.043   7.362   3.915
 6103TIP3    H218251   6.027   7.227   3.981
 6104TIP3   OH218252   2.635   2.305   4.948
 6104TIP3    H118253   2.579   2.336   4.877
 6104TIP3    H218254   2.617   2.366   5.020
 6105TIP3   OH218255   6.440   3.194   0.589
 6105TIP3    H118256   6.452   3.202   0.684
 6105TIP3    H218257   6.345   3.190   0.577
 6106TIP3   OH218258   0.961   0.382   6.283
 6106TIP3    H118259   1.043   0.342   6.315
 6106TIP3    H218260   0.916   0.411   6.362
 6107TIP3   OH218261   3.208   1.875   4.137
 6107TIP3    H118262   3.208   1.780   4.128
 6107TIP3    H218263   3.255   1.891   4.219
 6108TIP3   OH218264   1.165   5.696   0.325
 6108TIP3    H118265   1.201   5.764   0.269
 6108TIP3    H218266   1.228   5.624   0.321
 6109TIP3   OH218267   7.863   5.904   4.890
 6109TIP3    H118268   7.926   5.974   4.904
 6109TIP3    H218269   7.783   5.948   4.861
 6110TIP3   OH218270   3.867   0.390   2.328
 6110TIP3    H118271   3.901   0.321   2.384
 6110TIP3    H218272   3.776   0.402   2.356
 6111TIP3   OH218273   0.086   5.220   0.675
 6111TIP3    H118274   0.076   5.127   0.696
 6111TIP3    H218275   0.170   5.226   0.630
 6112TIP3   OH218276   8.081   1.261   3.600
 6112TIP3    H118277   8.058   1.195   3.535
 6112TIP3    H218278   7.998   1.303   3.623
 6113TIP3   OH218279   0.902   1.417   4.412
 6113TIP3    H118280   0.995   1.418   4.434
 6113TIP3    H218281   0.879   1.324   4.410
 6114TIP3   OH218282   7.609   6.260   4.904
 6114TIP3    H118283   7.696   6.301   4.896
 6114TIP3    H218284   7.551   6.333   4.927
 6115TIP3   OH218285   3.472   1.442   3.472
 6115TIP3    H118286   3.558   1.422   3.434
 6115TIP3    H218287   3.410   1.422   3.402
 6116TIP3   OH218288   6.495   6.442   1.064
 6116TIP3    H118289   6.434   6.511   1.038
 6116TIP3    H218290   6.445   6.361   1.059
 6117TIP3   OH218291   5.626   0.623   1.766
 6117TIP3    H118292   5.705   0.587   1.807
 6117TIP3    H218293   5.563   0.551   1.766
 6118TIP3   OH218294   5.250   3.095   0.847
 6118TIP3    H118295   5.210   3.020   0.892
 6118TIP3    H218296   5.283   3.058   0.765
 6119TIP3   OH218297   4.547   4.468   5.585
 6119TIP3    H118298   4.487   4.465   5.659
 6119TIP3    H218299   4.634   4.463   5.625
 6120TIP3   OH218300   7.109   2.515   5.786
 6120TIP3    H118301   7.058   2.552   5.858
 6120TIP3    H218302   7.200   2.528   5.811
 6121TIP3   OH218303   3.566   6.282   2.409
 6121TIP3    H118304   3.482   6.284   2.455
 6121TIP3    H218305   3.573   6.368   2.368
 6122TIP3   OH218306   1.419   7.782   5.234
 6122TIP3    H118307   1.410   7.728   5.156
 6122TIP3    H218308   1.351   7.751   5.293
 6123TIP3   OH218309   7.369   6.368   5.523
 6123TIP3    H118310   7.398   6.305   5.458
 6123TIP3    H218311   7.365   6.319   5.605
 6124TIP3   OH218312   4.524   6.598   6.825
 6124TIP3    H118313   4.549   6.616   6.735
 6124TIP3    H218314   4.473   6.675   6.851
 6125TIP3   OH218315   1.576   5.576   3.078
 6125TIP3    H118316   1.503   5.516   3.092
 6125TIP3    H218317   1.553   5.624   2.998
 6126TIP3   OH218318   0.200   0.735   2.276
 6126TIP3    H118319   0.279   0.696   2.315
 6126TIP3    H218320   0.132   0.720   2.341
 6127TIP3   OH218321   6.511   2.272   0.905
 6127TIP3    H118322   6.540   2.194   0.859
 6127TIP3    H218323   6.592   2.318   0.928
 6128TIP3   OH218324   5.811   1.410   3.769
 6128TIP3    H118325   5.851   1.497   3.770
 6128TIP3    H218326   5.845   1.367   3.848
 6129TIP3   OH218327   5.797   0.457   4.900
 6129TIP3    H118328   5.763   0.545   4.915
 6129TIP3    H218329   5.786   0.442   4.806
 6130TIP3   OH218330   3.791   7.026   1.157
 6130TIP3    H118331   3.776   7.118   1.137
 6130TIP3    H218332   3.849   6.995   1.088
 6131TIP3   OH218333   3.644   4.411   2.875
 6131TIP3    H118334   3.635   4.329   2.923
 6131TIP3    H218335   3.724   4.450   2.911
 6132TIP3   OH218336   8.222   3.453   4.405
 6132TIP3    H118337   8.233   3.541   4.442
 6132TIP3    H218338   8.183   3.402   4.476
 6133TIP3   OH218339   7.985   3.841   6.390
 6133TIP3    H118340   7.954   3.931   6.392
 6133TIP3    H218341   8.044   3.834   6.466
 6134TIP3   OH218342   1.826   4.099   3.452
 6134TIP3    H118343   1.795   4.107   3.542
 6134TIP3    H218344   1.790   4.176   3.408
 6135TIP3   OH218345   0.938   6.023   3.646
 6135TIP3    H118346   1.033   6.035   3.654
 6135TIP3    H218347   0.929   5.945   3.591
 6136TIP3   OH218348   7.932   4.919   1.037
 6136TIP3    H118349   8.011   4.949   0.993
 6136TIP3    H218350   7.948   4.939   1.130
 6137TIP3   OH218351   4.756   0.603   0.713
 6137TIP3    H118352   4.794   0.528   0.668
 6137TIP3    H218353   4.816   0.675   0.694
 6138TIP3   OH218354   2.661   3.922   3.688
 6138TIP3    H118355   2.636   3.869   3.764
 6138TIP3    H218356   2.712   3.994   3.725
 6139TIP3   OH218357   4.935   3.210   4.065
 6139TIP3    H118358   4.903   3.207   4.155
 6139TIP3    H218359   4.992   3.134   4.056
 6140TIP3   OH218360   6.384   0.439   1.687
 6140TIP3    H118361   6.479   0.432   1.687
 6140TIP3    H218362   6.360   0.453   1.779
 6141TIP3   OH218363   1.933   5.535   5.812
 6141TIP3    H118364   1.952   5.560   5.721
 6141TIP3    H218365   2.009   5.565   5.862
 6142TIP3   OH218366   4.815   7.860   1.655
 6142TIP3    H118367   4.897   7.843   1.608
 6142TIP3    H218368   4.780   7.939   1.614
 6143TIP3   OH218369   4.350   5.892   3.411
 6143TIP3    H118370   4.446   5.891   3.409
 6143TIP3    H218371   4.325   5.814   3.361
 6144TIP3   OH218372   4.228   4.267   2.031
 6144TIP3    H118373   4.159   4.325   2.000
 6144TIP3    H218374   4.243   4.293   2.122
 6145TIP3   OH218375   1.890   4.265   5.565
 6145TIP3    H118376   1.807   4.220   5.552
 6145TIP3    H218377   1.954   4.194   5.572
 6146TIP3   OH218378   0.537   3.135   6.830
 6146TIP3    H118379   0.625   3.122   6.867
 6146TIP3    H218380   0.541   3.092   6.745
 6147TIP3   OH218381   2.236   4.314   4.878
 6147TIP3    H118382   2.297   4.320   4.951
 6147TIP3    H218383   2.288   4.280   4.805
 6148TIP3   OH218384   5.442   6.161   1.828
 6148TIP3    H118385   5.379   6.232   1.843
 6148TIP3    H218386   5.387   6.084   1.815
 6149TIP3   OH218387   8.389   7.863   0.920
 6149TIP3    H118388   8.445   7.829   0.991
 6149TIP3    H218389   8.323   7.915   0.966
 6150TIP3   OH218390   6.320   4.964   5.846
 6150TIP3    H118391   6.403   4.989   5.805
 6150TIP3    H218392   6.261   4.949   5.772
 6151TIP3   OH218393   5.963   6.418   4.566
 6151TIP3    H118394   5.876   6.444   4.536
 6151TIP3    H218395   6.013   6.500   4.566
 6152TIP3   OH218396   2.814   5.045   6.667
 6152TIP3    H118397   2.725   5.069   6.693
 6152TIP3    H218398   2.853   5.127   6.638
 6153TIP3   OH218399   3.563   7.044   6.542
 6153TIP3    H118400   3.481   7.091   6.559
 6153TIP3    H218401   3.546   6.955   6.572
 6154TIP3   OH218402   8.310   1.902   0.920
 6154TIP3    H118403   8.395   1.918   0.878
 6154TIP3    H218404   8.249   1.959   0.873
 6155TIP3   OH218405   5.156   1.684   0.866
 6155TIP3    H118406   5.063   1.661   0.875
 6155TIP3    H218407   5.169   1.695   0.772
 6156TIP3   OH218408   7.244   7.602   2.976
 6156TIP3    H118409   7.198   7.608   3.059
 6156TIP3    H218410   7.322   7.656   2.987
 6157TIP3   OH218411   3.077   5.795   4.988
 6157TIP3    H118412   3.017   5.853   4.941
 6157TIP3    H218413   3.034   5.781   5.073
 6158TIP3   OH218414   2.570   3.462   2.870
 6158TIP3    H118415   2.542   3.378   2.835
 6158TIP3    H218416   2.645   3.487   2.816
 6159TIP3   OH218417   4.286   1.403   6.362
 6159TIP3    H118418   4.329   1.470   6.415
 6159TIP3    H218419   4.331   1.406   6.278
 6160TIP3   OH218420   3.364   3.137   0.600
 6160TIP3    H118421   3.430   3.205   0.618
 6160TIP3    H218422   3.399   3.058   0.642
 6161TIP3   OH218423   6.302   1.174   5.828
 6161TIP3    H118424   6.382   1.126   5.805
 6161TIP3    H218425   6.322   1.265   5.807
 6162TIP3   OH218426   5.820   6.853   1.883
 6162TIP3    H118427   5.849   6.944   1.878
 6162TIP3    H218428   5.774   6.847   1.967
 6163TIP3   OH218429   2.409   7.047   1.067
 6163TIP3    H118430   2.391   6.959   1.101
 6163TIP3    H218431   2.443   7.095   1.143
 6164TIP3   OH218432   6.640   7.795   3.749
 6164TIP3    H118433   6.727   7.778   3.784
 6164TIP3    H218434   6.654   7.807   3.655
 6165TIP3   OH218435   2.333   1.230   4.294
 6165TIP3    H118436   2.309   1.295   4.360
 6165TIP3    H218437   2.380   1.280   4.228
 6166TIP3   OH218438   6.224   4.361   3.241
 6166TIP3    H118439   6.211   4.397   3.329
 6166TIP3    H218440   6.309   4.317   3.246
 6167TIP3   OH218441   7.181   5.034   5.019
 6167TIP3    H118442   7.152   5.120   4.986
 6167TIP3    H218443   7.152   5.032   5.110
 6168TIP3   OH218444   2.667   1.695   1.884
 6168TIP3    H118445   2.746   1.672   1.932
 6168TIP3    H218446   2.689   1.775   1.837
 6169TIP3   OH218447   3.846   5.325   1.009
 6169TIP3    H118448   3.814   5.401   0.961
 6169TIP3    H218449   3.851   5.355   1.100
 6170TIP3   OH218450   4.978   1.978   3.894
 6170TIP3    H118451   4.983   1.975   3.990
 6170TIP3    H218452   5.048   1.919   3.865
 6171TIP3   OH218453   6.576   6.768   0.484
 6171TIP3    H118454   6.638   6.833   0.452
 6171TIP3    H218455   6.631   6.696   0.516
 6172TIP3   OH218456   8.315   4.150   5.511
 6172TIP3    H118457   8.298   4.244   5.506
 6172TIP3    H218458   8.383   4.141   5.577
 6173TIP3   OH218459   5.156   6.663   6.328
 6173TIP3    H118460   5.129   6.636   6.416
 6173TIP3    H218461   5.249   6.685   6.338
 6174TIP3   OH218462   1.165   1.281   2.501
 6174TIP3    H118463   1.176   1.371   2.469
 6174TIP3    H218464   1.070   1.270   2.506
 6175TIP3   OH218465   6.965   4.642   0.266
 6175TIP3    H118466   6.947   4.678   0.353
 6175TIP3    H218467   7.046   4.685   0.239
 6176TIP3   OH218468   5.080   1.861   1.859
 6176TIP3    H118469   4.997   1.843   1.815
 6176TIP3    H218470   5.146   1.820   1.802
 6177TIP3   OH218471   3.194   2.727   1.434
 6177TIP3    H118472   3.248   2.679   1.371
 6177TIP3    H218473   3.253   2.793   1.470
 6178TIP3   OH218474   3.392   4.356   6.253
 6178TIP3    H118475   3.486   4.360   6.266
 6178TIP3    H218476   3.374   4.421   6.185
 6179TIP3   OH218477   5.530   1.393   4.853
 6179TIP3    H118478   5.514   1.486   4.868
 6179TIP3    H218479   5.623   1.381   4.874
 6180TIP3   OH218480   5.855   0.243   1.823
 6180TIP3    H118481   5.819   0.246   1.735
 6180TIP3    H218482   5.893   0.330   1.837
 6181TIP3   OH218483   3.481   6.573   1.915
 6181TIP3    H118484   3.563   6.614   1.886
 6181TIP3    H218485   3.422   6.584   1.840
 6182TIP3   OH218486   7.755   3.526   2.610
 6182TIP3    H118487   7.711   3.604   2.577
 6182TIP3    H218488   7.795   3.554   2.693
 6183TIP3   OH218489   5.699   0.773   6.183
 6183TIP3    H118490   5.763   0.702   6.182
 6183TIP3    H218491   5.632   0.744   6.244
 6184TIP3   OH218492   6.625   2.844   5.610
 6184TIP3    H118493   6.586   2.780   5.551
 6184TIP3    H218494   6.677   2.792   5.672
 6185TIP3   OH218495   8.006   1.834   4.990
 6185TIP3    H118496   7.994   1.784   4.909
 6185TIP3    H218497   8.097   1.864   4.986
 6186TIP3   OH218498   0.044   4.927   4.664
 6186TIP3    H118499   0.068   5.014   4.695
 6186TIP3    H218500  -0.039   4.907   4.707
 6187TIP3   OH218501   5.396   1.337   3.752
 6187TIP3    H118502   5.433   1.287   3.825
 6187TIP3    H218503   5.379   1.272   3.684
 6188TIP3   OH218504   5.236   6.981   6.416
 6188TIP3    H118505   5.223   6.908   6.476
 6188TIP3    H218506   5.208   7.058   6.465
 6189TIP3   OH218507   3.196   1.445   1.036
 6189TIP3    H118508   3.169   1.375   0.977
 6189TIP3    H218509   3.282   1.473   1.004
 6190TIP3   OH218510   3.532   5.584   6.699
 6190TIP3    H118511   3.466   5.634   6.746
 6190TIP3    H218512   3.482   5.535   6.633
 6191TIP3   OH218513   6.723   3.912   6.004
 6191TIP3    H118514   6.655   3.903   5.937
 6191TIP3    H218515   6.713   4.002   6.037
 6192TIP3   OH218516   2.123   4.086   0.526
 6192TIP3    H118517   2.130   4.059   0.617
 6192TIP3    H218518   2.038   4.053   0.497
 6193TIP3   OH218519   6.872   4.958   0.187
 6193TIP3    H118520   6.794   4.923   0.146
 6193TIP3    H218521   6.882   4.907   0.268
 6194TIP3   OH218522   0.293   7.540   2.497
 6194TIP3    H118523   0.363   7.573   2.440
 6194TIP3    H218524   0.312   7.579   2.582
 6195TIP3   OH218525   6.782   2.514   6.436
 6195TIP3    H118526   6.691   2.508   6.408
 6195TIP3    H218527   6.833   2.478   6.363
 6196TIP3   OH218528   5.672   7.506   4.899
 6196TIP3    H118529   5.582   7.509   4.932
 6196TIP3    H218530   5.663   7.492   4.805
 6197TIP3   OH218531   0.463   1.546   3.467
 6197TIP3    H118532   0.369   1.560   3.458
 6197TIP3    H218533   0.473   1.450   3.464
 6198TIP3   OH218534   6.069   3.524   1.532
 6198TIP3    H118535   6.007   3.500   1.601
 6198TIP3    H218536   6.034   3.605   1.495
 6199TIP3   OH218537   2.639   2.798   5.908
 6199TIP3    H118538   2.605   2.852   5.837
 6199TIP3    H218539   2.602   2.711   5.893
 6200TIP3   OH218540   0.356   0.993   5.071
 6200TIP3    H118541   0.405   0.943   5.006
 6200TIP3    H218542   0.357   0.938   5.149
 6201TIP3   OH218543   6.263   4.411   0.738
 6201TIP3    H118544   6.330   4.421   0.670
 6201TIP3    H218545   6.213   4.492   0.734
 6202TIP3   OH218546   7.230   7.536   6.764
 6202TIP3    H118547   7.146   7.583   6.763
 6202TIP3    H218548   7.267   7.555   6.850
 6203TIP3   OH218549   2.567   2.772   0.579
 6203TIP3    H118550   2.555   2.755   0.672
 6203TIP3    H218551   2.617   2.697   0.547
 6204TIP3   OH218552   0.268   5.507   4.712
 6204TIP3    H118553   0.297   5.582   4.764
 6204TIP3    H218554   0.302   5.431   4.758
 6205TIP3   OH218555   7.651   1.998   5.064
 6205TIP3    H118556   7.573   2.053   5.071
 6205TIP3    H218557   7.617   1.909   5.052
 6206TIP3   OH218558   3.884   1.907   6.012
 6206TIP3    H118559   3.809   1.852   6.033
 6206TIP3    H218560   3.861   1.948   5.929
 6207TIP3   OH218561   0.111   7.553   2.911
 6207TIP3    H118562   0.035   7.591   2.955
 6207TIP3    H218563   0.079   7.470   2.875
 6208TIP3   OH218564   3.391   2.293   5.192
 6208TIP3    H118565   3.398   2.385   5.167
 6208TIP3    H218566   3.332   2.294   5.268
 6209TIP3   OH218567   3.399   6.425   6.184
 6209TIP3    H118568   3.343   6.459   6.114
 6209TIP3    H218569   3.459   6.497   6.203
 6210TIP3   OH218570   3.653   0.008   2.662
 6210TIP3    H118571   3.591  -0.061   2.638
 6210TIP3    H218572   3.650   0.070   2.589
 6211TIP3   OH218573   5.480   5.131   3.189
 6211TIP3    H118574   5.392   5.113   3.224
 6211TIP3    H218575   5.465   5.184   3.111
 6212TIP3   OH218576   0.821   5.220   5.449
 6212TIP3    H118577   0.727   5.229   5.462
 6212TIP3    H218578   0.841   5.132   5.483
 6213TIP3   OH218579   4.040   2.815   2.469
 6213TIP3    H118580   3.966   2.757   2.452
 6213TIP3    H218581   4.047   2.817   2.564
 6214TIP3   OH218582   8.312   5.692   5.963
 6214TIP3    H118583   8.346   5.693   5.874
 6214TIP3    H218584   8.322   5.783   5.993
 6215TIP3   OH218585   5.052   5.730   6.677
 6215TIP3    H118586   5.124   5.698   6.732
 6215TIP3    H218587   4.996   5.780   6.736
 6216TIP3   OH218588   7.448   4.186   1.025
 6216TIP3    H118589   7.476   4.107   0.978
 6216TIP3    H218590   7.529   4.233   1.044
 6217TIP3   OH218591   4.164   0.393   2.495
 6217TIP3    H118592   4.115   0.351   2.566
 6217TIP3    H218593   4.210   0.322   2.452
 6218TIP3   OH218594   0.643   4.030   4.211
 6218TIP3    H118595   0.620   4.113   4.252
 6218TIP3    H218596   0.734   4.014   4.238
 6219TIP3   OH218597   0.893   7.759   5.190
 6219TIP3    H118598   0.952   7.692   5.156
 6219TIP3    H218599   0.811   7.743   5.144
 6220TIP3   OH218600   5.879   3.580   0.394
 6220TIP3    H118601   5.861   3.650   0.330
 6220TIP3    H218602   5.953   3.612   0.445
 6221TIP3   OH218603   6.131   0.178   0.277
 6221TIP3    H118604   6.145   0.112   0.209
 6221TIP3    H218605   6.189   0.152   0.349
 6222TIP3   OH218606   4.901   2.071   6.329
 6222TIP3    H118607   4.939   2.004   6.272
 6222TIP3    H218608   4.807   2.056   6.325
 6223TIP3   OH218609   3.006   7.404   2.659
 6223TIP3    H118610   2.946   7.472   2.688
 6223TIP3    H218611   3.078   7.451   2.616
 6224TIP3   OH218612   6.651   2.067   6.300
 6224TIP3    H118613   6.709   2.014   6.354
 6224TIP3    H218614   6.634   2.014   6.222
 6225TIP3   OH218615   0.803   6.529   0.968
 6225TIP3    H118616   0.871   6.578   0.922
 6225TIP3    H218617   0.842   6.442   0.981
 6226TIP3   OH218618   4.113   6.624   6.061
 6226TIP3    H118619   4.117   6.529   6.048
 6226TIP3    H218620   4.185   6.642   6.122
 6227TIP3   OH218621   3.539   7.051   5.132
 6227TIP3    H118622   3.471   7.108   5.166
 6227TIP3    H218623   3.589   7.024   5.209
 6228TIP3   OH218624   1.679   7.864   6.430
 6228TIP3    H118625   1.692   7.792   6.492
 6228TIP3    H218626   1.719   7.940   6.472
 6229TIP3   OH218627   2.284   1.550   2.243
 6229TIP3    H118628   2.315   1.614   2.178
 6229TIP3    H218629   2.274   1.600   2.324
 6230TIP3   OH218630   8.308   1.226   6.783
 6230TIP3    H118631   8.315   1.246   6.877
 6230TIP3    H218632   8.228   1.173   6.776
 6231TIP3   OH218633   4.600   7.722   0.179
 6231TIP3    H118634   4.621   7.695   0.090
 6231TIP3    H218635   4.647   7.804   0.191
 6232TIP3   OH218636   5.218   4.614   2.561
 6232TIP3    H118637   5.311   4.637   2.551
 6232TIP3    H218638   5.195   4.568   2.481
 6233TIP3   OH218639   8.354   0.536   1.286
 6233TIP3    H118640   8.335   0.445   1.308
 6233TIP3    H218641   8.406   0.568   1.359
 6234TIP3   OH218642   4.262   5.354   3.779
 6234TIP3    H118643   4.205   5.391   3.847
 6234TIP3    H218644   4.350   5.368   3.813
 6235TIP3   OH218645   3.966   3.643   0.663
 6235TIP3    H118646   3.914   3.672   0.738
 6235TIP3    H218647   4.008   3.723   0.631
 6236TIP3   OH218648   5.095   5.624   0.542
 6236TIP3    H118649   5.161   5.681   0.581
 6236TIP3    H218650   5.119   5.620   0.449
 6237TIP3   OH218651   2.266   2.326   0.878
 6237TIP3    H118652   2.312   2.383   0.816
 6237TIP3    H218653   2.243   2.384   0.951
 6238TIP3   OH218654   1.801   3.538   2.144
 6238TIP3    H118655   1.892   3.554   2.121
 6238TIP3    H218656   1.769   3.478   2.076
 6239TIP3   OH218657   5.260   5.025   2.533
 6239TIP3    H118658   5.225   4.960   2.473
 6239TIP3    H218659   5.342   5.054   2.493
 6240TIP3   OH218660   3.535   4.240   5.375
 6240TIP3    H118661   3.477   4.174   5.412
 6240TIP3    H218662   3.507   4.249   5.284
 6241TIP3   OH218663   8.030   5.338   6.725
 6241TIP3    H118664   7.952   5.383   6.691
 6241TIP3    H218665   7.999   5.251   6.749
 6242TIP3   OH218666   2.851   5.220   5.697
 6242TIP3    H118667   2.912   5.232   5.770
 6242TIP3    H218668   2.775   5.273   5.722
 6243TIP3   OH218669   7.115   4.554   1.464
 6243TIP3    H118670   7.209   4.561   1.450
 6243TIP3    H218671   7.076   4.573   1.378
 6244TIP3   OH218672   7.318   6.768   2.361
 6244TIP3    H118673   7.227   6.763   2.331
 6244TIP3    H218674   7.334   6.862   2.372
 6245TIP3   OH218675   6.072   3.768   5.018
 6245TIP3    H118676   6.164   3.751   4.998
 6245TIP3    H218677   6.058   3.731   5.105
 6246TIP3   OH218678   7.222   4.833   2.455
 6246TIP3    H118679   7.264   4.917   2.434
 6246TIP3    H218680   7.287   4.767   2.430
 6247TIP3   OH218681   7.474   7.606   2.599
 6247TIP3    H118682   7.539   7.602   2.529
 6247TIP3    H218683   7.524   7.632   2.677
 6248TIP3   OH218684   7.323   6.330   0.177
 6248TIP3    H118685   7.297   6.304   0.266
 6248TIP3    H218686   7.258   6.396   0.152
 6249TIP3   OH218687   6.025   7.435   3.176
 6249TIP3    H118688   5.947   7.432   3.231
 6249TIP3    H218689   6.061   7.523   3.191
 6250TIP3   OH218690   4.321   2.912   1.414
 6250TIP3    H118691   4.231   2.885   1.393
 6250TIP3    H218692   4.316   3.007   1.424
 6251TIP3   OH218693   1.564   3.929   4.848
 6251TIP3    H118694   1.640   3.926   4.906
 6251TIP3    H218695   1.550   4.023   4.832
 6252TIP3   OH218696   6.878   3.748   4.134
 6252TIP3    H118697   6.940   3.763   4.063
 6252TIP3    H218698   6.814   3.819   4.125
 6253TIP3   OH218699   2.881   7.046   6.550
 6253TIP3    H118700   2.912   7.058   6.640
 6253TIP3    H218701   2.961   7.050   6.497
 6254TIP3   OH218702   0.848   3.233   6.735
 6254TIP3    H118703   0.816   3.303   6.678
 6254TIP3    H218704   0.933   3.265   6.767
 6255TIP3   OH218705   6.235   5.936   6.096
 6255TIP3    H118706   6.247   6.022   6.056
 6255TIP3    H218707   6.219   5.954   6.188
 6256TIP3   OH218708   2.985   1.603   4.401
 6256TIP3    H118709   2.904   1.554   4.393
 6256TIP3    H218710   2.962   1.681   4.451
 6257TIP3   OH218711   4.368   1.091   2.150
 6257TIP3    H118712   4.450   1.041   2.153
 6257TIP3    H218713   4.356   1.111   2.057
 6258TIP3   OH218714   4.600   0.352   5.346
 6258TIP3    H118715   4.566   0.401   5.421
 6258TIP3    H218716   4.529   0.294   5.321
 6259TIP3   OH218717   4.068   1.325   5.825
 6259TIP3    H118718   4.067   1.388   5.753
 6259TIP3    H218719   4.144   1.348   5.877
 6260TIP3   OH218720   5.213   4.765   5.923
 6260TIP3    H118721   5.237   4.853   5.951
 6260TIP3    H218722   5.175   4.777   5.836
 6261TIP3   OH218723   6.907   1.268   0.551
 6261TIP3    H118724   6.852   1.341   0.579
 6261TIP3    H218725   6.846   1.208   0.507
 6262TIP3   OH218726   0.372   7.278   4.911
 6262TIP3    H118727   0.309   7.222   4.957
 6262TIP3    H218728   0.331   7.294   4.826
 6263TIP3   OH218729   1.201   7.626   1.432
 6263TIP3    H118730   1.257   7.686   1.383
 6263TIP3    H218731   1.140   7.591   1.366
 6264TIP3   OH218732   1.464   1.265   2.541
 6264TIP3    H118733   1.492   1.355   2.559
 6264TIP3    H218734   1.390   1.274   2.481
 6265TIP3   OH218735   6.473   4.280   4.577
 6265TIP3    H118736   6.514   4.359   4.542
 6265TIP3    H218737   6.470   4.295   4.672
 6266TIP3   OH218738   7.099   6.672   4.501
 6266TIP3    H118739   7.142   6.727   4.435
 6266TIP3    H218740   7.019   6.641   4.458
 6267TIP3   OH218741   3.680   0.286   0.947
 6267TIP3    H118742   3.635   0.216   0.901
 6267TIP3    H218743   3.700   0.351   0.880
 6268TIP3   OH218744   0.620   5.191   6.219
 6268TIP3    H118745   0.709   5.227   6.219
 6268TIP3    H218746   0.602   5.175   6.312
 6269TIP3   OH218747   1.684   6.655   6.729
 6269TIP3    H118748   1.710   6.571   6.766
 6269TIP3    H218749   1.741   6.719   6.773
 6270TIP3   OH218750   8.242   2.522   2.612
 6270TIP3    H118751   8.166   2.473   2.642
 6270TIP3    H218752   8.209   2.579   2.543
 6271TIP3   OH218753   1.492   3.067   6.624
 6271TIP3    H118754   1.410   3.022   6.649
 6271TIP3    H218755   1.529   3.096   6.708
 6272TIP3   OH218756   3.544   7.817   5.975
 6272TIP3    H118757   3.559   7.831   5.881
 6272TIP3    H218758   3.627   7.779   6.006
 6273TIP3   OH218759   1.481   2.750   6.110
 6273TIP3    H118760   1.417   2.715   6.047
 6273TIP3    H218761   1.444   2.728   6.195
 6274TIP3   OH218762   7.442   5.984   2.043
 6274TIP3    H118763   7.368   5.923   2.046
 6274TIP3    H218764   7.435   6.033   2.125
 6275TIP3   OH218765   1.532   7.173   1.338
 6275TIP3    H118766   1.590   7.248   1.322
 6275TIP3    H218767   1.445   7.211   1.348
 6276TIP3   OH218768   0.106   5.621   2.844
 6276TIP3    H118769   0.097   5.551   2.779
 6276TIP3    H218770   0.179   5.593   2.899
 6277TIP3   OH218771   4.064   5.812   0.691
 6277TIP3    H118772   4.083   5.860   0.771
 6277TIP3    H218773   4.132   5.839   0.630
 6278TIP3   OH218774   6.941   5.844   5.187
 6278TIP3    H118775   6.860   5.821   5.142
 6278TIP3    H218776   6.975   5.919   5.137
 6279TIP3   OH218777   3.411   1.189   6.575
 6279TIP3    H118778   3.500   1.154   6.566
 6279TIP3    H218779   3.384   1.161   6.662
 6280TIP3   OH218780   4.788   1.190   4.126
 6280TIP3    H118781   4.777   1.166   4.034
 6280TIP3    H218782   4.865   1.141   4.154
 6281TIP3   OH218783   5.750   3.727   5.232
 6281TIP3    H118784   5.709   3.798   5.283
 6281TIP3    H218785   5.843   3.744   5.238
 6282TIP3   OH218786   4.302   4.959   5.982
 6282TIP3    H118787   4.396   4.953   5.968
 6282TIP3    H218788   4.264   4.949   5.894
 6283TIP3   OH218789   5.500   3.551   5.992
 6283TIP3    H118790   5.520   3.460   5.970
 6283TIP3    H218791   5.518   3.600   5.911
 6284TIP3   OH218792   1.575   3.987   1.403
 6284TIP3    H118793   1.561   3.934   1.482
 6284TIP3    H218794   1.544   3.932   1.331
 6285TIP3   OH218795   1.961   0.516   5.574
 6285TIP3    H118796   1.920   0.523   5.659
 6285TIP3    H218797   1.940   0.427   5.544
 6286TIP3   OH218798   1.553   6.604   2.050
 6286TIP3    H118799   1.554   6.539   1.979
 6286TIP3    H218800   1.470   6.590   2.094
 6287TIP3   OH218801   6.732   0.392   0.994
 6287TIP3    H118802   6.658   0.443   1.026
 6287TIP3    H218803   6.788   0.381   1.071
 6288TIP3   OH218804   0.750   7.640   6.150
 6288TIP3    H118805   0.700   7.559   6.149
 6288TIP3    H218806   0.841   7.612   6.140
 6289TIP3   OH218807   4.519   5.110   5.294
 6289TIP3    H118808   4.455   5.099   5.223
 6289TIP3    H218809   4.599   5.138   5.250
 6290TIP3   OH218810   7.370   2.354   3.863
 6290TIP3    H118811   7.446   2.397   3.826
 6290TIP3    H218812   7.336   2.300   3.792
 6291TIP3   OH218813   4.505   5.687   0.903
 6291TIP3    H118814   4.466   5.600   0.913
 6291TIP3    H218815   4.569   5.677   0.832
 6292TIP3   OH218816   0.260   1.837   6.166
 6292TIP3    H118817   0.211   1.832   6.248
 6292TIP3    H218818   0.344   1.797   6.185
 6293TIP3   OH218819   0.486   5.622   5.370
 6293TIP3    H118820   0.436   5.545   5.397
 6293TIP3    H218821   0.556   5.586   5.315
 6294TIP3   OH218822   3.590   3.140   2.199
 6294TIP3    H118823   3.606   3.215   2.142
 6294TIP3    H218824   3.546   3.076   2.143
 6295TIP3   OH218825   1.279   1.046   0.639
 6295TIP3    H118826   1.211   1.083   0.695
 6295TIP3    H218827   1.325   0.984   0.695
 6296TIP3   OH218828   0.371   2.338   6.104
 6296TIP3    H118829   0.334   2.268   6.159
 6296TIP3    H218830   0.441   2.295   6.056
 6297TIP3   OH218831   1.698   0.652   5.742
 6297TIP3    H118832   1.734   0.739   5.726
 6297TIP3    H218833   1.628   0.666   5.805
 6298TIP3   OH218834   5.004   0.961   4.105
 6298TIP3    H118835   5.005   1.022   4.031
 6298TIP3    H218836   5.093   0.968   4.142
 6299TIP3   OH218837   5.748   4.388   6.426
 6299TIP3    H118838   5.795   4.336   6.492
 6299TIP3    H218839   5.792   4.369   6.344
 6300TIP3   OH218840   7.405   6.737   1.698
 6300TIP3    H118841   7.418   6.767   1.608
 6300TIP3    H218842   7.490   6.747   1.740
 6301TIP3   OH218843   0.810   4.369   3.100
 6301TIP3    H118844   0.726   4.361   3.145
 6301TIP3    H218845   0.816   4.462   3.078
 6302TIP3   OH218846   7.472   0.091   4.694
 6302TIP3    H118847   7.455   0.169   4.642
 6302TIP3    H218848   7.454   0.018   4.635
 6303TIP3   OH218849   5.194   1.595   4.114
 6303TIP3    H118850   5.182   1.662   4.181
 6303TIP3    H218851   5.120   1.535   4.127
 6304TIP3   OH218852   2.141   5.979   0.739
 6304TIP3    H118853   2.227   5.961   0.701
 6304TIP3    H218854   2.145   6.070   0.767
 6305TIP3   OH218855   4.749   6.715   1.723
 6305TIP3    H118856   4.812   6.782   1.751
 6305TIP3    H218857   4.721   6.744   1.636
 6306TIP3   OH218858   0.669   4.175   3.687
 6306TIP3    H118859   0.590   4.228   3.675
 6306TIP3    H218860   0.715   4.216   3.760
 6307TIP3   OH218861   6.159   6.684   6.650
 6307TIP3    H118862   6.095   6.750   6.678
 6307TIP3    H218863   6.168   6.626   6.726
 6308TIP3   OH218864   5.168   1.918   1.344
 6308TIP3    H118865   5.073   1.905   1.348
 6308TIP3    H218866   5.185   1.989   1.406
 6309TIP3   OH218867   8.213   5.279   0.752
 6309TIP3    H118868   8.247   5.296   0.840
 6309TIP3    H218869   8.155   5.353   0.734
 6310TIP3   OH218870   1.693   3.379   2.356
 6310TIP3    H118871   1.737   3.295   2.369
 6310TIP3    H218872   1.732   3.414   2.276
 6311TIP3   OH218873   6.740   5.696   3.713
 6311TIP3    H118874   6.712   5.728   3.627
 6311TIP3    H218875   6.735   5.773   3.770
 6312TIP3   OH218876   0.153   2.370   0.221
 6312TIP3    H118877   0.214   2.354   0.149
 6312TIP3    H218878   0.184   2.313   0.292
 6313TIP3   OH218879   0.007   4.008   4.861
 6313TIP3    H118880  -0.047   3.950   4.915
 6313TIP3    H218881   0.035   4.077   4.921
 6314TIP3   OH218882   4.921   6.876   1.849
 6314TIP3    H118883   4.850   6.909   1.904
 6314TIP3    H218884   4.980   6.950   1.838
 6315TIP3   OH218885   2.602   4.449   2.996
 6315TIP3    H118886   2.643   4.421   2.914
 6315TIP3    H218887   2.628   4.383   3.060
 6316TIP3   OH218888   6.332   4.045   2.402
 6316TIP3    H118889   6.419   4.060   2.440
 6316TIP3    H218890   6.300   3.967   2.447
 6317TIP3   OH218891   8.175   3.155   5.247
 6317TIP3    H118892   8.162   3.182   5.338
 6317TIP3    H218893   8.100   3.189   5.200
 6318TIP3   OH218894   4.767   1.507   2.965
 6318TIP3    H118895   4.743   1.599   2.976
 6318TIP3    H218896   4.749   1.467   3.050
 6319TIP3   OH218897   6.462   2.998   1.235
 6319TIP3    H118898   6.398   2.967   1.170
 6319TIP3    H218899   6.508   3.070   1.191
 6320TIP3   OH218900   2.021   7.583   4.762
 6320TIP3    H118901   2.063   7.669   4.766
 6320TIP3    H218902   1.970   7.578   4.842
 6321TIP3   OH218903   3.429   7.408   3.929
 6321TIP3    H118904   3.353   7.396   3.986
 6321TIP3    H218905   3.393   7.402   3.840
 6322TIP3   OH218906   2.181   4.961   0.316
 6322TIP3    H118907   2.223   4.893   0.369
 6322TIP3    H218908   2.089   4.936   0.314
 6323TIP3   OH218909   4.289   4.454   4.722
 6323TIP3    H118910   4.234   4.531   4.707
 6323TIP3    H218911   4.330   4.470   4.807
 6324TIP3   OH218912   7.518   3.135   0.048
 6324TIP3    H118913   7.431   3.171   0.068
 6324TIP3    H218914   7.577   3.181   0.107
 6325TIP3   OH218915   0.867   7.627   1.514
 6325TIP3    H118916   0.772   7.628   1.502
 6325TIP3    H218917   0.889   7.716   1.542
 6326TIP3   OH218918   4.149   3.620   5.800
 6326TIP3    H118919   4.143   3.685   5.870
 6326TIP3    H218920   4.075   3.561   5.815
 6327TIP3   OH218921   2.264   1.822   6.141
 6327TIP3    H118922   2.265   1.730   6.114
 6327TIP3    H218923   2.235   1.869   6.063
 6328TIP3   OH218924   4.780   5.910   4.315
 6328TIP3    H118925   4.768   5.943   4.226
 6328TIP3    H218926   4.869   5.876   4.316
 6329TIP3   OH218927   7.353   5.629   5.453
 6329TIP3    H118928   7.446   5.649   5.459
 6329TIP3    H218929   7.309   5.709   5.482
 6330TIP3   OH218930   4.494   0.523   1.588
 6330TIP3    H118931   4.458   0.544   1.502
 6330TIP3    H218932   4.575   0.574   1.594
 6331TIP3   OH218933   5.387   3.154   6.687
 6331TIP3    H118934   5.341   3.168   6.770
 6331TIP3    H218935   5.395   3.059   6.681
 6332TIP3   OH218936   5.372   0.883   5.352
 6332TIP3    H118937   5.355   0.943   5.280
 6332TIP3    H218938   5.384   0.939   5.429
 6333TIP3   OH218939   2.124   6.904   0.970
 6333TIP3    H118940   2.185   6.847   0.924
 6333TIP3    H218941   2.089   6.851   1.041
 6334TIP3   OH218942   4.059   0.093   4.366
 6334TIP3    H118943   4.013   0.104   4.283
 6334TIP3    H218944   4.007   0.143   4.429
 6335TIP3   OH218945   5.277   2.879   2.768
 6335TIP3    H118946   5.251   2.845   2.854
 6335TIP3    H218947   5.197   2.873   2.715
 6336TIP3   OH218948   6.196   0.095   6.305
 6336TIP3    H118949   6.134   0.152   6.351
 6336TIP3    H218950   6.141   0.027   6.266
 6337TIP3   OH218951   2.543   6.149   6.161
 6337TIP3    H118952   2.454   6.137   6.193
 6337TIP3    H218953   2.536   6.220   6.096
 6338TIP3   OH218954   7.912   0.932   2.176
 6338TIP3    H118955   7.849   0.925   2.104
 6338TIP3    H218956   7.985   0.877   2.148
 6339TIP3   OH218957   4.949   5.864   5.721
 6339TIP3    H118958   4.955   5.919   5.799
 6339TIP3    H218959   4.972   5.922   5.648
 6340TIP3   OH218960   6.739   6.859   3.883
 6340TIP3    H118961   6.760   6.775   3.843
 6340TIP3    H218962   6.823   6.895   3.911
 6341TIP3   OH218963   2.357   3.642   4.548
 6341TIP3    H118964   2.286   3.640   4.485
 6341TIP3    H218965   2.349   3.727   4.591
 6342TIP3   OH218966   6.134   6.609   5.807
 6342TIP3    H118967   6.206   6.555   5.837
 6342TIP3    H218968   6.055   6.558   5.829
 6343TIP3   OH218969   1.348   7.102   4.855
 6343TIP3    H118970   1.327   7.115   4.948
 6343TIP3    H218971   1.402   7.022   4.855
 6344TIP3   OH218972   8.207   5.469   1.551
 6344TIP3    H118973   8.119   5.432   1.552
 6344TIP3    H218974   8.258   5.410   1.606
 6345TIP3   OH218975   0.262   1.351   5.940
 6345TIP3    H118976   0.208   1.353   6.019
 6345TIP3    H218977   0.349   1.376   5.970
 6346TIP3   OH218978   3.489   0.572   0.022
 6346TIP3    H118979   3.511   0.568   0.115
 6346TIP3    H218980   3.574   0.585  -0.022
 6347TIP3   OH218981   3.647   3.429   4.815
 6347TIP3    H118982   3.554   3.439   4.793
 6347TIP3    H218983   3.689   3.504   4.775
 6348TIP3   OH218984   5.110   7.395   5.028
 6348TIP3    H118985   5.153   7.319   5.067
 6348TIP3    H218986   5.017   7.382   5.045
 6349TIP3   OH218987   0.854   2.244   4.335
 6349TIP3    H118988   0.904   2.217   4.413
 6349TIP3    H218989   0.836   2.337   4.349
 6350TIP3   OH218990   4.266   3.713   0.261
 6350TIP3    H118991   4.308   3.661   0.330
 6350TIP3    H218992   4.172   3.700   0.274
 6351TIP3   OH218993   7.256   6.256   3.320
 6351TIP3    H118994   7.253   6.172   3.275
 6351TIP3    H218995   7.331   6.301   3.280
 6352TIP3   OH218996   0.866   1.512   4.970
 6352TIP3    H118997   0.846   1.591   4.919
 6352TIP3    H218998   0.900   1.545   5.053
 6353TIP3   OH218999   7.302   4.186   5.798
 6353TIP3    H119000   7.291   4.144   5.883
 6353TIP3    H219001   7.242   4.261   5.800
 6354TIP3   OH219002   5.766   2.188   1.085
 6354TIP3    H119003   5.672   2.204   1.095
 6354TIP3    H219004   5.807   2.261   1.132
 6355TIP3   OH219005   5.581   0.869   5.949
 6355TIP3    H119006   5.594   0.826   6.033
 6355TIP3    H219007   5.554   0.799   5.890
 6356TIP3   OH219008   3.215   3.720   0.530
 6356TIP3    H119009   3.232   3.626   0.520
 6356TIP3    H219010   3.119   3.727   0.529
 6357TIP3   OH219011   3.800   7.423   4.178
 6357TIP3    H119012   3.878   7.443   4.230
 6357TIP3    H219013   3.729   7.464   4.226
 6358TIP3   OH219014   1.408   6.162   3.856
 6358TIP3    H119015   1.403   6.132   3.947
 6358TIP3    H219016   1.490   6.211   3.852
 6359TIP3   OH219017   6.715   3.923   1.299
 6359TIP3    H119018   6.799   3.923   1.346
 6359TIP3    H219019   6.732   3.973   1.219
 6360TIP3   OH219020   2.413   2.730   1.242
 6360TIP3    H119021   2.355   2.680   1.184
 6360TIP3    H219022   2.500   2.719   1.204
 6361TIP3   OH219023   8.187   2.123   5.017
 6361TIP3    H119024   8.150   2.166   5.094
 6361TIP3    H219025   8.239   2.051   5.052
 6362TIP3   OH219026   4.309   5.863   2.199
 6362TIP3    H119027   4.214   5.854   2.208
 6362TIP3    H219028   4.328   5.949   2.237
 6363TIP3   OH219029   0.058   6.166   1.942
 6363TIP3    H119030  -0.026   6.202   1.913
 6363TIP3    H219031   0.045   6.071   1.939
 6364TIP3   OH219032   6.132   5.633   1.188
 6364TIP3    H119033   6.062   5.568   1.188
 6364TIP3    H219034   6.184   5.613   1.110
 6365TIP3   OH219035   0.980   5.235   1.357
 6365TIP3    H119036   1.067   5.276   1.363
 6365TIP3    H219037   0.921   5.307   1.334
 6366TIP3   OH219038   1.151   1.032   5.740
 6366TIP3    H119039   1.059   1.035   5.714
 6366TIP3    H219040   1.196   0.989   5.667
 6367TIP3   OH219041   2.233   5.191   2.517
 6367TIP3    H119042   2.160   5.173   2.576
 6367TIP3    H219043   2.235   5.287   2.510
 6368TIP3   OH219044   4.383   0.456   1.135
 6368TIP3    H119045   4.343   0.511   1.202
 6368TIP3    H219046   4.376   0.507   1.055
 6369TIP3   OH219047   6.212   5.127   5.151
 6369TIP3    H119048   6.139   5.072   5.121
 6369TIP3    H219049   6.172   5.188   5.213
 6370TIP3   OH219050   5.838   1.013   5.318
 6370TIP3    H119051   5.856   1.106   5.310
 6370TIP3    H219052   5.880   0.987   5.400
 6371TIP3   OH219053   8.388   4.079   2.763
 6371TIP3    H119054   8.362   4.049   2.676
 6371TIP3    H219055   8.343   4.163   2.774
 6372TIP3   OH219056   4.182   2.566   5.361
 6372TIP3    H119057   4.173   2.484   5.409
 6372TIP3    H219058   4.129   2.628   5.411
 6373TIP3   OH219059   5.728   3.282   2.742
 6373TIP3    H119060   5.671   3.220   2.786
 6373TIP3    H219061   5.795   3.228   2.701
 6374TIP3   OH219062   6.734   2.479   4.888
 6374TIP3    H119063   6.761   2.563   4.850
 6374TIP3    H219064   6.807   2.455   4.945
 6375TIP3   OH219065   1.661   7.385   6.798
 6375TIP3    H119066   1.676   7.476   6.825
 6375TIP3    H219067   1.651   7.337   6.881
 6376TIP3   OH219068   2.268   0.434   0.064
 6376TIP3    H119069   2.330   0.396   0.127
 6376TIP3    H219070   2.182   0.418   0.103
 6377TIP3   OH219071   3.483   0.758   5.435
 6377TIP3    H119072   3.393   0.777   5.460
 6377TIP3    H219073   3.528   0.742   5.518
 6378TIP3   OH219074   5.718   7.472   1.782
 6378TIP3    H119075   5.695   7.475   1.875
 6378TIP3    H219076   5.645   7.515   1.737
 6379TIP3   OH219077   8.112   4.185   0.752
 6379TIP3    H119078   8.053   4.257   0.776
 6379TIP3    H219079   8.063   4.134   0.688
 6380TIP3   OH219080   1.852   5.792   3.601
 6380TIP3    H119081   1.855   5.743   3.519
 6380TIP3    H219082   1.820   5.879   3.576
 6381TIP3   OH219083   6.967   5.370   1.689
 6381TIP3    H119084   6.957   5.407   1.776
 6381TIP3    H219085   7.012   5.438   1.639
 6382TIP3   OH219086   2.350   4.420   0.948
 6382TIP3    H119087   2.302   4.364   0.886
 6382TIP3    H219088   2.413   4.361   0.989
 6383TIP3   OH219089   6.335   6.957   4.599
 6383TIP3    H119090   6.356   6.874   4.555
 6383TIP3    H219091   6.312   6.932   4.688
 6384TIP3   OH219092   6.267   6.568   4.713
 6384TIP3    H119093   6.303   6.480   4.696
 6384TIP3    H219094   6.324   6.604   4.781
 6385TIP3   OH219095   6.112   5.813   3.386
 6385TIP3    H119096   6.063   5.798   3.305
 6385TIP3    H219097   6.050   5.857   3.444
 6386TIP3   OH219098   4.001   2.710   5.507
 6386TIP3    H119099   3.912   2.692   5.475
 6386TIP3    H219100   3.994   2.700   5.602
 6387TIP3   OH219101   0.916   3.713   0.062
 6387TIP3    H119102   0.954   3.797   0.089
 6387TIP3    H219103   0.822   3.730   0.055
 6388TIP3   OH219104   7.321   3.878   0.490
 6388TIP3    H119105   7.348   3.969   0.476
 6388TIP3    H219106   7.311   3.870   0.585
 6389TIP3   OH219107   0.997   1.142   4.472
 6389TIP3    H119108   1.017   1.142   4.379
 6389TIP3    H219109   1.039   1.222   4.506
 6390TIP3   OH219110   2.956   4.542   0.898
 6390TIP3    H119111   3.015   4.469   0.916
 6390TIP3    H219112   3.014   4.619   0.897
 6391TIP3   OH219113   8.213   1.420   4.578
 6391TIP3    H119114   8.214   1.515   4.575
 6391TIP3    H219115   8.192   1.393   4.488
 6392TIP3   OH219116   4.502   3.942   4.594
 6392TIP3    H119117   4.594   3.924   4.613
 6392TIP3    H219118   4.500   4.035   4.570
 6393TIP3   OH219119   7.364   4.033   1.672
 6393TIP3    H119120   7.457   4.032   1.649
 6393TIP3    H219121   7.319   4.007   1.592
 6394TIP3   OH219122   2.880   6.276   1.704
 6394TIP3    H119123   2.957   6.221   1.719
 6394TIP3    H219124   2.899   6.357   1.749
 6395TIP3   OH219125   0.965   5.407   3.034
 6395TIP3    H119126   0.965   5.336   2.970
 6395TIP3    H219127   0.952   5.487   2.982
 6396TIP3   OH219128   4.008   7.445   4.376
 6396TIP3    H119129   4.020   7.537   4.352
 6396TIP3    H219130   4.005   7.445   4.472
 6397TIP3   OH219131   1.654   6.104   1.765
 6397TIP3    H119132   1.693   6.101   1.678
 6397TIP3    H219133   1.561   6.119   1.749
 6398TIP3   OH219134   3.377   7.299   4.720
 6398TIP3    H119135   3.420   7.376   4.756
 6398TIP3    H219136   3.337   7.330   4.638
 6399TIP3   OH219137   4.650   1.779   0.001
 6399TIP3    H119138   4.559   1.809   0.008
 6399TIP3    H219139   4.646   1.686   0.024
 6400TIP3   OH219140   8.127   5.523   0.712
 6400TIP3    H119141   8.154   5.559   0.796
 6400TIP3    H219142   8.052   5.577   0.685
 6401TIP3   OH219143   6.115   1.974   0.751
 6401TIP3    H119144   6.025   2.004   0.764
 6401TIP3    H219145   6.169   2.038   0.797
 6402TIP3   OH219146   3.252   2.068   1.363
 6402TIP3    H119147   3.344   2.077   1.339
 6402TIP3    H219148   3.251   2.070   1.459
 6403TIP3   OH219149   5.974   4.109   4.090
 6403TIP3    H119150   6.069   4.098   4.084
 6403TIP3    H219151   5.962   4.174   4.159
 6404TIP3   OH219152   4.857   4.664   6.402
 6404TIP3    H119153   4.786   4.689   6.461
 6404TIP3    H219154   4.870   4.741   6.347
 6405TIP3   OH219155   1.441   4.416   0.762
 6405TIP3    H119156   1.467   4.441   0.851
 6405TIP3    H219157   1.345   4.419   0.764
 6406TIP3   OH219158   5.650   3.479   0.882
 6406TIP3    H119159   5.664   3.489   0.788
 6406TIP3    H219160   5.738   3.478   0.920
 6407TIP3   OH219161   2.182   3.080   4.485
 6407TIP3    H119162   2.200   3.002   4.536
 6407TIP3    H219163   2.268   3.119   4.469
 6408TIP3   OH219164   8.139   2.806   0.629
 6408TIP3    H119165   8.231   2.833   0.638
 6408TIP3    H219166   8.140   2.712   0.646
 6409TIP3   OH219167   2.405   6.501   1.297
 6409TIP3    H119168   2.494   6.527   1.277
 6409TIP3    H219169   2.414   6.429   1.359
 6410TIP3   OH219170   4.812   1.450   5.045
 6410TIP3    H119171   4.729   1.477   5.007
 6410TIP3    H219172   4.796   1.448   5.139
 6411TIP3   OH219173   7.719   3.800   5.539
 6411TIP3    H119174   7.630   3.833   5.533
 6411TIP3    H219175   7.710   3.705   5.549
 6412TIP3   OH219176   3.060   2.120   5.651
 6412TIP3    H119177   3.096   2.130   5.563
 6412TIP3    H219178   3.062   2.209   5.687
 6413TIP3   OH219179   6.258   3.983   2.804
 6413TIP3    H119180   6.174   3.960   2.765
 6413TIP3    H219181   6.256   3.942   2.890
 6414TIP3   OH219182   8.139   6.926   1.881
 6414TIP3    H119183   8.128   6.845   1.932
 6414TIP3    H219184   8.070   6.984   1.914
 6415TIP3   OH219185   3.621   0.522   0.287
 6415TIP3    H119186   3.565   0.535   0.364
 6415TIP3    H219187   3.635   0.428   0.284
 6416TIP3   OH219188   3.114   7.327   3.220
 6416TIP3    H119189   3.102   7.278   3.139
 6416TIP3    H219190   3.209   7.337   3.228
 6417TIP3   OH219191   1.590   5.988   3.615
 6417TIP3    H119192   1.671   5.999   3.564
 6417TIP3    H219193   1.529   5.947   3.554
 6418TIP3   OH219194   7.854   7.801   5.242
 6418TIP3    H119195   7.879   7.780   5.152
 6418TIP3    H219196   7.858   7.897   5.246
 6419TIP3   OH219197   0.170   4.510   2.855
 6419TIP3    H119198   0.167   4.604   2.837
 6419TIP3    H219199   0.249   4.480   2.812
 6420TIP3   OH219200   5.821   7.056   6.736
 6420TIP3    H119201   5.909   7.056   6.775
 6420TIP3    H219202   5.796   7.148   6.732
 6421TIP3   OH219203   5.760   0.568   0.966
 6421TIP3    H119204   5.722   0.480   0.968
 6421TIP3    H219205   5.833   0.561   0.904
 6422TIP3   OH219206   1.076   5.830   2.698
 6422TIP3    H119207   1.030   5.758   2.656
 6422TIP3    H219208   1.164   5.828   2.661
 6423TIP3   OH219209   3.803   7.745   1.482
 6423TIP3    H119210   3.738   7.789   1.537
 6423TIP3    H219211   3.875   7.808   1.475
 6424TIP3   OH219212   7.441   1.830   0.694
 6424TIP3    H119213   7.504   1.764   0.723
 6424TIP3    H219214   7.479   1.913   0.721
 6425TIP3   OH219215   6.334   2.262   5.881
 6425TIP3    H119216   6.362   2.315   5.807
 6425TIP3    H219217   6.270   2.316   5.928
 6426TIP3   OH219218   5.360   0.443   3.586
 6426TIP3    H119219   5.289   0.485   3.538
 6426TIP3    H219220   5.319   0.369   3.630
 6427TIP3   OH219221   4.853   6.972   6.014
 6427TIP3    H119222   4.935   6.933   5.985
 6427TIP3    H219223   4.874   7.013   6.098
 6428TIP3   OH219224   7.809   0.929   3.859
 6428TIP3    H119225   7.854   0.847   3.836
 6428TIP3    H219226   7.736   0.901   3.914
 6429TIP3   OH219227   1.343   1.128   2.166
 6429TIP3    H119228   1.294   1.089   2.238
 6429TIP3    H219229   1.431   1.142   2.201
 6430TIP3   OH219230   7.525   0.791   6.400
 6430TIP3    H119231   7.461   0.751   6.459
 6430TIP3    H219232   7.499   0.761   6.313
 6431TIP3   OH219233   0.972   4.756   4.927
 6431TIP3    H119234   1.060   4.763   4.891
 6431TIP3    H219235   0.953   4.843   4.962
 6432TIP3   OH219236   1.757   0.784   4.967
 6432TIP3    H119237   1.838   0.834   4.973
 6432TIP3    H219238   1.772   0.705   5.018
 6433TIP3   OH219239   6.002   5.865   5.046
 6433TIP3    H119240   6.040   5.858   5.133
 6433TIP3    H219241   5.920   5.817   5.051
 6434TIP3   OH219242   1.518   0.430   1.547
 6434TIP3    H119243   1.523   0.463   1.636
 6434TIP3    H219244   1.512   0.508   1.492
 6435TIP3   OH219245   5.665   1.670   6.238
 6435TIP3    H119246   5.755   1.654   6.267
 6435TIP3    H219247   5.673   1.741   6.174
 6436TIP3   OH219248   7.514   4.110   6.260
 6436TIP3    H119249   7.561   4.026   6.259
 6436TIP3    H219250   7.469   4.112   6.344
 6437TIP3   OH219251   4.604   4.142   4.090
 6437TIP3    H119252   4.698   4.154   4.105
 6437TIP3    H219253   4.567   4.136   4.178
 6438TIP3   OH219254   0.530   5.203   3.354
 6438TIP3    H119255   0.491   5.254   3.424
 6438TIP3    H219256   0.469   5.212   3.281
 6439TIP3   OH219257   4.281   3.679   1.399
 6439TIP3    H119258   4.288   3.761   1.447
 6439TIP3    H219259   4.211   3.693   1.336
 6440TIP3   OH219260   7.195   4.443   5.866
 6440TIP3    H119261   7.243   4.503   5.924
 6440TIP3    H219262   7.152   4.501   5.803
 6441TIP3   OH219263   3.594   2.944   6.487
 6441TIP3    H119264   3.563   2.994   6.411
 6441TIP3    H219265   3.524   2.953   6.552
 6442TIP3   OH219266   7.833   4.305   3.240
 6442TIP3    H119267   7.796   4.221   3.268
 6442TIP3    H219268   7.832   4.359   3.318
 6443TIP3   OH219269   1.575   1.557   6.343
 6443TIP3    H119270   1.572   1.461   6.347
 6443TIP3    H219271   1.546   1.586   6.429
 6444TIP3   OH219272   3.947   0.603   1.800
 6444TIP3    H119273   4.042   0.592   1.802
 6444TIP3    H219274   3.932   0.694   1.826
 6445TIP3   OH219275   7.831   3.529   3.708
 6445TIP3    H119276   7.802   3.608   3.663
 6445TIP3    H219277   7.887   3.560   3.779
 6446TIP3   OH219278   1.679   4.373   6.060
 6446TIP3    H119279   1.732   4.371   5.980
 6446TIP3    H219280   1.740   4.351   6.130
 6447TIP3   OH219281   4.062   3.146   2.023
 6447TIP3    H119282   4.150   3.181   2.008
 6447TIP3    H219283   4.073   3.084   2.096
 6448TIP3   OH219284   1.607   0.134   3.493
 6448TIP3    H119285   1.623   0.183   3.574
 6448TIP3    H219286   1.635   0.045   3.512
 6449TIP3   OH219287   5.274   7.092   0.818
 6449TIP3    H119288   5.274   7.146   0.897
 6449TIP3    H219289   5.254   7.004   0.849
 6450TIP3   OH219290   6.343   3.688   4.560
 6450TIP3    H119291   6.388   3.604   4.551
 6450TIP3    H219292   6.394   3.749   4.506
 6451TIP3   OH219293   5.349   0.143   2.532
 6451TIP3    H119294   5.289   0.134   2.458
 6451TIP3    H219295   5.423   0.086   2.509
 6452TIP3   OH219296   7.518   1.686   5.584
 6452TIP3    H119297   7.589   1.632   5.548
 6452TIP3    H219298   7.487   1.638   5.661
 6453TIP3   OH219299   6.195   3.591   5.859
 6453TIP3    H119300   6.159   3.670   5.899
 6453TIP3    H219301   6.243   3.548   5.929
 6454TIP3   OH219302   2.414   1.213   6.771
 6454TIP3    H119303   2.448   1.164   6.696
 6454TIP3    H219304   2.385   1.296   6.734
 6455TIP3   OH219305   1.799   6.019   3.445
 6455TIP3    H119306   1.831   6.108   3.425
 6455TIP3    H219307   1.810   5.971   3.363
 6456TIP3   OH219308   7.103   3.606   2.767
 6456TIP3    H119309   7.062   3.676   2.715
 6456TIP3    H219310   7.114   3.644   2.854
 6457TIP3   OH219311   0.544   6.307   5.781
 6457TIP3    H119312   0.468   6.275   5.830
 6457TIP3    H219313   0.508   6.371   5.720
 6458TIP3   OH219314   7.269   0.573   4.994
 6458TIP3    H119315   7.271   0.514   5.069
 6458TIP3    H219316   7.176   0.592   4.981
 6459TIP3   OH219317   1.443   1.044   4.053
 6459TIP3    H119318   1.424   1.087   4.137
 6459TIP3    H219319   1.410   1.105   3.987
 6460TIP3   OH219320   1.179   7.187   6.829
 6460TIP3    H119321   1.152   7.151   6.744
 6460TIP3    H219322   1.271   7.163   6.837
 6461TIP3   OH219323   1.628   6.564   1.602
 6461TIP3    H119324   1.660   6.578   1.691
 6461TIP3    H219325   1.666   6.637   1.552
 6462TIP3   OH219326   1.673   3.289   1.200
 6462TIP3    H119327   1.592   3.316   1.243
 6462TIP3    H219328   1.650   3.287   1.107
 6463TIP3   OH219329   5.923   4.945   6.506
 6463TIP3    H119330   5.886   4.857   6.506
 6463TIP3    H219331   5.915   4.975   6.596
 6464TIP3   OH219332   2.099   0.424   1.611
 6464TIP3    H119333   2.133   0.335   1.609
 6464TIP3    H219334   2.028   0.424   1.546
 6465TIP3   OH219335   1.679   4.152   4.166
 6465TIP3    H119336   1.711   4.226   4.218
 6465TIP3    H219337   1.674   4.080   4.229
 6466TIP3   OH219338   5.313   5.370   6.595
 6466TIP3    H119339   5.271   5.405   6.516
 6466TIP3    H219340   5.398   5.414   6.599
 6467TIP3   OH219341   3.174   0.028   1.799
 6467TIP3    H119342   3.110   0.099   1.797
 6467TIP3    H219343   3.124  -0.048   1.829
 6468TIP3   OH219344   4.201   4.973   0.513
 6468TIP3    H119345   4.162   4.898   0.556
 6468TIP3    H219346   4.185   5.046   0.572
 6469TIP3   OH219347   1.183   0.556   1.655
 6469TIP3    H119348   1.143   0.627   1.604
 6469TIP3    H219349   1.275   0.557   1.628
 6470TIP3   OH219350   3.774   2.031   3.091
 6470TIP3    H119351   3.774   1.946   3.137
 6470TIP3    H219352   3.763   2.008   2.999
 6471TIP3   OH219353   3.093   7.526   2.048
 6471TIP3    H119354   3.038   7.449   2.057
 6471TIP3    H219355   3.051   7.577   1.979
 6472TIP3   OH219356   8.030   3.232   0.207
 6472TIP3    H119357   8.054   3.211   0.117
 6472TIP3    H219358   8.051   3.153   0.257
 6473TIP3   OH219359   6.807   4.306   4.275
 6473TIP3    H119360   6.862   4.284   4.350
 6473TIP3    H219361   6.785   4.222   4.236
 6474TIP3   OH219362   5.635   2.635   5.382
 6474TIP3    H119363   5.581   2.578   5.327
 6474TIP3    H219364   5.697   2.576   5.425
 6475TIP3   OH219365   8.056   1.586   1.733
 6475TIP3    H119366   7.975   1.581   1.784
 6475TIP3    H219367   8.124   1.601   1.799
 6476TIP3   OH219368   2.077   3.133   0.810
 6476TIP3    H119369   2.160   3.179   0.797
 6476TIP3    H219370   2.043   3.168   0.892
 6477TIP3   OH219371   3.559   5.226   2.450
 6477TIP3    H119372   3.638   5.278   2.463
 6477TIP3    H219373   3.591   5.140   2.424
 6478TIP3   OH219374   6.500   0.958   4.200
 6478TIP3    H119375   6.497   1.053   4.213
 6478TIP3    H219376   6.408   0.931   4.201
 6479TIP3   OH219377   4.701   2.268   0.526
 6479TIP3    H119378   4.660   2.353   0.545
 6479TIP3    H219379   4.731   2.236   0.612
 6480TIP3   OH219380   6.983   3.680   6.117
 6480TIP3    H119381   6.930   3.758   6.103
 6480TIP3    H219382   7.071   3.714   6.134
 6481TIP3   OH219383   2.458   0.275   0.243
 6481TIP3    H119384   2.538   0.325   0.262
 6481TIP3    H219385   2.490   0.188   0.219
 6482TIP3   OH219386   5.939   3.062   6.012
 6482TIP3    H119387   6.008   3.024   6.067
 6482TIP3    H219388   5.967   3.043   5.922
 6483TIP3   OH219389   4.753   7.543   1.516
 6483TIP3    H119390   4.768   7.484   1.442
 6483TIP3    H219391   4.661   7.568   1.509
 6484TIP3   OH219392   8.337   6.014   5.210
 6484TIP3    H119393   8.268   5.972   5.160
 6484TIP3    H219394   8.399   6.046   5.144
 6485TIP3   OH219395   8.070   1.504   4.062
 6485TIP3    H119396   7.989   1.466   4.097
 6485TIP3    H219397   8.100   1.563   4.131
 6486TIP3   OH219398   4.660   3.257   0.936
 6486TIP3    H119399   4.697   3.171   0.917
 6486TIP3    H219400   4.724   3.300   0.992
 6487TIP3   OH219401   1.952   5.372   0.514
 6487TIP3    H119402   1.900   5.373   0.594
 6487TIP3    H219403   2.013   5.299   0.526
 6488TIP3   OH219404   4.170   4.972   5.752
 6488TIP3    H119405   4.091   4.920   5.763
 6488TIP3    H219406   4.140   5.063   5.758
 6489TIP3   OH219407   3.978   5.188   4.489
 6489TIP3    H119408   4.057   5.136   4.496
 6489TIP3    H219409   3.955   5.211   4.579
 6490TIP3   OH219410   2.666   5.704   2.143
 6490TIP3    H119411   2.736   5.748   2.192
 6490TIP3    H219412   2.587   5.721   2.194
 6491TIP3   OH219413   6.551   3.262   3.684
 6491TIP3    H119414   6.625   3.229   3.734
 6491TIP3    H219415   6.483   3.195   3.694
 6492TIP3   OH219416   4.181   6.421   4.650
 6492TIP3    H119417   4.244   6.489   4.624
 6492TIP3    H219418   4.224   6.339   4.627
 6493TIP3   OH219419   6.952   0.755   5.399
 6493TIP3    H119420   6.889   0.815   5.359
 6493TIP3    H219421   6.926   0.749   5.491
 6494TIP3   OH219422   5.597   5.132   3.447
 6494TIP3    H119423   5.544   5.101   3.520
 6494TIP3    H219424   5.542   5.120   3.370
 6495TIP3   OH219425   2.035   6.727   3.256
 6495TIP3    H119426   2.014   6.715   3.163
 6495TIP3    H219427   2.084   6.809   3.259
 6496TIP3   OH219428   0.043   4.997   2.133
 6496TIP3    H119429   0.072   5.050   2.059
 6496TIP3    H219430   0.122   4.952   2.163
 6497TIP3   OH219431   7.494   4.006   1.292
 6497TIP3    H119432   7.583   4.042   1.294
 6497TIP3    H219433   7.484   3.973   1.203
 6498TIP3   OH219434   2.170   1.039   2.926
 6498TIP3    H119435   2.152   1.079   3.011
 6498TIP3    H219436   2.211   1.109   2.875
 6499TIP3   OH219437   6.886   6.915   6.250
 6499TIP3    H119438   6.927   6.840   6.291
 6499TIP3    H219439   6.956   6.980   6.242
 6500TIP3   OH219440   7.314   2.602   3.613
 6500TIP3    H119441   7.364   2.666   3.663
 6500TIP3    H219442   7.380   2.548   3.570
 6501TIP3   OH219443   1.282   5.439   4.264
 6501TIP3    H119444   1.215   5.475   4.206
 6501TIP3    H219445   1.309   5.512   4.318
 6502TIP3   OH219446   2.361   2.121   0.002
 6502TIP3    H119447   2.315   2.204  -0.007
 6502TIP3    H219448   2.322   2.079   0.078
 6503TIP3   OH219449   6.625   2.928   6.023
 6503TIP3    H119450   6.608   2.930   6.117
 6503TIP3    H219451   6.599   2.840   5.996
 6504TIP3   OH219452   3.931   7.872   4.117
 6504TIP3    H119453   3.943   7.910   4.030
 6504TIP3    H219454   3.841   7.840   4.118
 6505TIP3   OH219455   8.218   6.954   6.521
 6505TIP3    H119456   8.265   7.012   6.581
 6505TIP3    H219457   8.156   7.012   6.477
 6506TIP3   OH219458   5.638   3.777   1.223
 6506TIP3    H119459   5.643   3.762   1.129
 6506TIP3    H219460   5.584   3.856   1.232
 6507TIP3   OH219461   1.955   6.293   0.581
 6507TIP3    H119462   1.998   6.373   0.551
 6507TIP3    H219463   2.015   6.257   0.646
 6508TIP3   OH219464   5.049   2.953   4.114
 6508TIP3    H119465   5.016   2.871   4.151
 6508TIP3    H219466   5.051   3.013   4.189
 6509TIP3   OH219467   4.621   5.073   0.474
 6509TIP3    H119468   4.566   5.057   0.550
 6509TIP3    H219469   4.617   5.168   0.461
 6510TIP3   OH219470   2.776   3.443   2.346
 6510TIP3    H119471   2.793   3.401   2.262
 6510TIP3    H219472   2.856   3.430   2.397
 6511TIP3   OH219473   1.174   5.395   1.338
 6511TIP3    H119474   1.188   5.480   1.298
 6511TIP3    H219475   1.163   5.413   1.431
 6512TIP3   OH219476   8.338   6.778   6.280
 6512TIP3    H119477   8.392   6.735   6.346
 6512TIP3    H219478   8.248   6.771   6.314
 6513TIP3   OH219479   4.693   3.877   6.540
 6513TIP3    H119480   4.655   3.790   6.553
 6513TIP3    H219481   4.785   3.860   6.518
 6514TIP3   OH219482   0.464   6.500   2.905
 6514TIP3    H119483   0.545   6.474   2.949
 6514TIP3    H219484   0.460   6.595   2.915
 6515TIP3   OH219485   5.443   7.674   6.841
 6515TIP3    H119486   5.454   7.608   6.909
 6515TIP3    H219487   5.494   7.749   6.871
 6516TIP3   OH219488   4.918   2.792   4.654
 6516TIP3    H119489   4.865   2.712   4.645
 6516TIP3    H219490   4.936   2.819   4.564
 6517TIP3   OH219491   5.706   5.935   0.361
 6517TIP3    H119492   5.633   5.940   0.422
 6517TIP3    H219493   5.761   6.011   0.383
 6518TIP3   OH219494   5.183   1.786   3.785
 6518TIP3    H119495   5.208   1.740   3.704
 6518TIP3    H219496   5.182   1.718   3.852
 6519TIP3   OH219497   3.550   4.121   2.508
 6519TIP3    H119498   3.563   4.191   2.572
 6519TIP3    H219499   3.455   4.111   2.502
 6520TIP3   OH219500   2.061   0.837   1.946
 6520TIP3    H119501   2.030   0.770   1.885
 6520TIP3    H219502   2.076   0.791   2.028
 6521TIP3   OH219503   2.668   7.344   6.440
 6521TIP3    H119504   2.608   7.294   6.385
 6521TIP3    H219505   2.740   7.368   6.382
 6522TIP3   OH219506   5.248   3.852   0.796
 6522TIP3    H119507   5.316   3.785   0.802
 6522TIP3    H219508   5.167   3.806   0.813
 6523TIP3   OH219509   6.122   7.036   1.841
 6523TIP3    H119510   6.210   7.022   1.807
 6523TIP3    H219511   6.088   7.110   1.791
 6524TIP3   OH219512   5.438   2.870   6.586
 6524TIP3    H119513   5.456   2.777   6.602
 6524TIP3    H219514   5.389   2.871   6.504
 6525TIP3   OH219515   1.703   1.074   5.523
 6525TIP3    H119516   1.751   1.152   5.492
 6525TIP3    H219517   1.694   1.019   5.445
 6526TIP3   OH219518   0.492   1.515   6.003
 6526TIP3    H119519   0.581   1.518   5.967
 6526TIP3    H219520   0.452   1.597   5.974
 6527TIP3   OH219521   3.620   6.990   3.377
 6527TIP3    H119522   3.610   6.900   3.408
 6527TIP3    H219523   3.628   7.042   3.457
 6528TIP3   OH219524   0.351   0.848   4.215
 6528TIP3    H119525   0.326   0.939   4.226
 6528TIP3    H219526   0.370   0.817   4.304
 6529TIP3   OH219527   5.978   5.928   5.432
 6529TIP3    H119528   5.982   5.949   5.339
 6529TIP3    H219529   5.996   5.834   5.436
 6530TIP3   OH219530   4.349   2.800   0.880
 6530TIP3    H119531   4.321   2.864   0.815
 6530TIP3    H219532   4.268   2.758   0.909
 6531TIP3   OH219533   4.204   0.609   0.111
 6531TIP3    H119534   4.260   0.603   0.189
 6531TIP3    H219535   4.198   0.519   0.079
 6532TIP3   OH219536   5.728   7.078   1.716
 6532TIP3    H119537   5.796   7.011   1.705
 6532TIP3    H219538   5.653   7.029   1.750
 6533TIP3   OH219539   3.755   3.416   5.063
 6533TIP3    H119540   3.703   3.435   4.984
 6533TIP3    H219541   3.824   3.483   5.062
 6534TIP3   OH219542   0.914   1.570   3.865
 6534TIP3    H119543   0.901   1.531   3.951
 6534TIP3    H219544   0.829   1.608   3.842
 6535TIP3   OH219545   8.112   5.301   2.370
 6535TIP3    H119546   8.062   5.362   2.425
 6535TIP3    H219547   8.078   5.315   2.282
 6536TIP3   OH219548   4.831   3.494   5.577
 6536TIP3    H119549   4.784   3.434   5.519
 6536TIP3    H219550   4.832   3.577   5.529
 6537TIP3   OH219551   2.098   4.130   4.537
 6537TIP3    H119552   2.039   4.074   4.487
 6537TIP3    H219553   2.055   4.139   4.623
 6538TIP3   OH219554   8.264   6.430   6.738
 6538TIP3    H119555   8.273   6.351   6.685
 6538TIP3    H219556   8.234   6.398   6.823
 6539TIP3   OH219557   1.967   6.749   6.682
 6539TIP3    H119558   2.049   6.784   6.717
 6539TIP3    H219559   1.899   6.799   6.728
 6540TIP3   OH219560   2.688   1.871   4.288
 6540TIP3    H119561   2.614   1.926   4.316
 6540TIP3    H219562   2.764   1.930   4.291
 6541TIP3   OH219563   1.342   3.791   2.316
 6541TIP3    H119564   1.343   3.735   2.394
 6541TIP3    H219565   1.406   3.751   2.257
 6542TIP3   OH219566   6.291   1.033   4.762
 6542TIP3    H119567   6.324   0.958   4.811
 6542TIP3    H219568   6.234   1.079   4.824
 6543TIP3   OH219569   5.243   3.165   0.183
 6543TIP3    H119570   5.293   3.214   0.117
 6543TIP3    H219571   5.157   3.207   0.185
 6544TIP3   OH219572   8.301   3.300   5.733
 6544TIP3    H119573   8.312   3.374   5.793
 6544TIP3    H219574   8.306   3.223   5.790
 6545TIP3   OH219575   3.678   4.368   4.492
 6545TIP3    H119576   3.729   4.287   4.496
 6545TIP3    H219577   3.738   4.432   4.453
 6546TIP3   OH219578   7.925   6.028   5.385
 6546TIP3    H119579   8.013   5.990   5.383
 6546TIP3    H219580   7.870   5.965   5.338
 6547TIP3   OH219581   3.171   3.290   6.486
 6547TIP3    H119582   3.118   3.363   6.457
 6547TIP3    H219583   3.198   3.313   6.575
 6548TIP3   OH219584   4.065   6.653   0.192
 6548TIP3    H119585   4.091   6.569   0.230
 6548TIP3    H219586   3.987   6.633   0.140
 6549TIP3   OH219587   5.653   1.854   5.514
 6549TIP3    H119588   5.577   1.841   5.458
 6549TIP3    H219589   5.682   1.943   5.496
 6550TIP3   OH219590   7.787   2.441   5.308
 6550TIP3    H119591   7.698   2.463   5.337
 6550TIP3    H219592   7.840   2.449   5.388
 6551TIP3   OH219593   1.597   6.279   5.274
 6551TIP3    H119594   1.517   6.268   5.325
 6551TIP3    H219595   1.663   6.229   5.323
 6552TIP3   OH219596   3.375   4.286   4.844
 6552TIP3    H119597   3.462   4.264   4.811
 6552TIP3    H219598   3.334   4.337   4.774
 6553TIP3   OH219599   5.410   3.945   1.856
 6553TIP3    H119600   5.502   3.944   1.882
 6553TIP3    H219601   5.406   3.890   1.778
 6554TIP3   OH219602   5.649   5.430   2.980
 6554TIP3    H119603   5.697   5.508   3.009
 6554TIP3    H219604   5.706   5.357   3.002
 6555TIP3   OH219605   5.096   5.327   5.528
 6555TIP3    H119606   5.110   5.233   5.525
 6555TIP3    H219607   5.130   5.359   5.444
 6556TIP3   OH219608   1.403   0.931   0.838
 6556TIP3    H119609   1.423   0.842   0.809
 6556TIP3    H219610   1.390   0.924   0.932
 6557TIP3   OH219611   3.525   7.423   6.496
 6557TIP3    H119612   3.456   7.375   6.542
 6557TIP3    H219613   3.576   7.465   6.565
 6558TIP3   OH219614   0.470   0.923   6.273
 6558TIP3    H119615   0.407   0.956   6.210
 6558TIP3    H219616   0.513   1.001   6.309
 6559TIP3   OH219617   6.198   2.274   0.475
 6559TIP3    H119618   6.200   2.181   0.455
 6559TIP3    H219619   6.132   2.282   0.544
 6560TIP3   OH219620   1.546   0.214   2.286
 6560TIP3    H119621   1.595   0.185   2.363
 6560TIP3    H219622   1.495   0.289   2.317
 6561TIP3   OH219623   7.146   3.898   1.757
 6561TIP3    H119624   7.232   3.937   1.742
 6561TIP3    H219625   7.155   3.851   1.840
 6562TIP3   OH219626   3.707   3.778   0.712
 6562TIP3    H119627   3.782   3.807   0.765
 6562TIP3    H219628   3.661   3.858   0.690
 6563TIP3   OH219629   3.578   0.058   0.835
 6563TIP3    H119630   3.570   0.022   0.923
 6563TIP3    H219631   3.631  -0.005   0.787
 6564TIP3   OH219632   6.229   7.906   3.774
 6564TIP3    H119633   6.236   7.845   3.700
 6564TIP3    H219634   6.182   7.858   3.841
 6565TIP3   OH219635   3.335   6.423   1.257
 6565TIP3    H119636   3.307   6.347   1.307
 6565TIP3    H219637   3.429   6.431   1.274
 6566TIP3   OH219638   0.029   7.315   2.791
 6566TIP3    H119639  -0.064   7.314   2.770
 6566TIP3    H219640   0.070   7.259   2.725
 6567TIP3   OH219641   5.636   3.310   5.729
 6567TIP3    H119642   5.706   3.245   5.717
 6567TIP3    H219643   5.619   3.345   5.642
 6568TIP3   OH219644   7.400   3.691   0.980
 6568TIP3    H119645   7.322   3.636   0.977
 6568TIP3    H219646   7.379   3.765   0.923
 6569TIP3   OH219647   1.027   1.024   6.493
 6569TIP3    H119648   1.119   1.004   6.477
 6569TIP3    H219649   0.984   1.014   6.408
 6570TIP3   OH219650   3.113   3.525   5.115
 6570TIP3    H119651   3.126   3.529   5.210
 6570TIP3    H219652   3.192   3.565   5.079
 6571TIP3   OH219653   5.381   3.339   3.472
 6571TIP3    H119654   5.418   3.251   3.481
 6571TIP3    H219655   5.424   3.390   3.541
 6572TIP3   OH219656   2.509   6.426   4.654
 6572TIP3    H119657   2.568   6.465   4.589
 6572TIP3    H219658   2.425   6.421   4.609
 6573TIP3   OH219659   4.012   7.209   6.166
 6573TIP3    H119660   4.104   7.224   6.188
 6573TIP3    H219661   3.969   7.292   6.185
 6574TIP3   OH219662   7.273   3.680   2.215
 6574TIP3    H119663   7.212   3.624   2.264
 6574TIP3    H219664   7.218   3.721   2.148
 6575TIP3   OH219665   0.572   2.748   1.571
 6575TIP3    H119666   0.578   2.699   1.654
 6575TIP3    H219667   0.486   2.727   1.537
 6576TIP3   OH219668   1.575   6.732   3.973
 6576TIP3    H119669   1.670   6.722   3.968
 6576TIP3    H219670   1.541   6.643   3.978
 6577TIP3   OH219671   4.941   4.518   6.141
 6577TIP3    H119672   4.918   4.600   6.184
 6577TIP3    H219673   4.856   4.478   6.121
 6578TIP3   OH219674   5.411   1.668   3.228
 6578TIP3    H119675   5.452   1.650   3.313
 6578TIP3    H219676   5.343   1.733   3.247
 6579TIP3   OH219677   0.685   5.215   4.271
 6579TIP3    H119678   0.713   5.244   4.185
 6579TIP3    H219679   0.766   5.185   4.314
 6580TIP3   OH219680   6.735   0.040   5.878
 6580TIP3    H119681   6.761   0.011   5.790
 6580TIP3    H219682   6.809   0.092   5.909
 6581TIP3   OH219683   1.055   4.885   2.670
 6581TIP3    H119684   1.003   4.807   2.649
 6581TIP3    H219685   1.081   4.920   2.585
 6582TIP3   OH219686   3.534   4.595   4.877
 6582TIP3    H119687   3.545   4.510   4.836
 6582TIP3    H219688   3.443   4.596   4.907
 6583TIP3   OH219689   6.005   5.478   2.922
 6583TIP3    H119690   5.971   5.527   2.997
 6583TIP3    H219691   5.963   5.392   2.928
 6584TIP3   OH219692   0.619   0.674   4.727
 6584TIP3    H119693   0.610   0.594   4.675
 6584TIP3    H219694   0.713   0.693   4.726
 6585TIP3   OH219695   5.392   4.030   2.538
 6585TIP3    H119696   5.328   4.002   2.472
 6585TIP3    H219697   5.469   3.976   2.520
 6586TIP3   OH219698   6.470   5.148   5.235
 6586TIP3    H119699   6.387   5.137   5.188
 6586TIP3    H219700   6.453   5.220   5.296
 6587TIP3   OH219701   6.048   3.717   2.654
 6587TIP3    H119702   6.026   3.799   2.698
 6587TIP3    H219703   5.995   3.651   2.698
 6588TIP3   OH219704   5.594   5.819   5.498
 6588TIP3    H119705   5.658   5.866   5.551
 6588TIP3    H219706   5.526   5.792   5.560
 6589TIP3   OH219707   6.629   0.860   1.437
 6589TIP3    H119708   6.645   0.941   1.484
 6589TIP3    H219709   6.566   0.883   1.369
 6590TIP3   OH219710   6.171   2.364   6.678
 6590TIP3    H119711   6.100   2.428   6.678
 6590TIP3    H219712   6.149   2.304   6.607
 6591TIP3   OH219713   5.260   1.737   1.693
 6591TIP3    H119714   5.236   1.649   1.661
 6591TIP3    H219715   5.329   1.720   1.757
 6592TIP3   OH219716   3.145   3.580   2.419
 6592TIP3    H119717   3.113   3.558   2.331
 6592TIP3    H219718   3.237   3.600   2.406
 6593TIP3   OH219719   4.104   6.375   4.029
 6593TIP3    H119720   4.155   6.394   4.108
 6593TIP3    H219721   4.023   6.335   4.062
 6594TIP3   OH219722   4.897   1.387   3.856
 6594TIP3    H119723   4.912   1.379   3.762
 6594TIP3    H219724   4.982   1.413   3.892
 6595TIP3   OH219725   7.976   0.295   0.469
 6595TIP3    H119726   8.011   0.319   0.383
 6595TIP3    H219727   7.976   0.377   0.518
 6596TIP3   OH219728   8.384   4.906   0.448
 6596TIP3    H119729   8.478   4.916   0.463
 6596TIP3    H219730   8.374   4.814   0.423
 6597TIP3   OH219731   6.675   1.508   5.933
 6597TIP3    H119732   6.707   1.548   6.013
 6597TIP3    H219733   6.580   1.521   5.936
 6598TIP3   OH219734   3.082   1.579   5.183
 6598TIP3    H119735   3.155   1.619   5.135
 6598TIP3    H219736   3.124   1.540   5.260
 6599TIP3   OH219737   1.363   3.394   1.548
 6599TIP3    H119738   1.381   3.395   1.454
 6599TIP3    H219739   1.336   3.304   1.566
 6600TIP3   OH219740   5.096   2.098   1.977
 6600TIP3    H119741   5.108   2.015   1.932
 6600TIP3    H219742   5.153   2.093   2.054
 6601TIP3   OH219743   2.164   5.276   0.903
 6601TIP3    H119744   2.116   5.256   0.984
 6601TIP3    H219745   2.130   5.361   0.875
 6602TIP3   OH219746   6.971   4.302   6.836
 6602TIP3    H119747   6.889   4.286   6.883
 6602TIP3    H219748   7.036   4.252   6.885
 6603TIP3   OH219749   3.321   3.334   4.093
 6603TIP3    H119750   3.270   3.294   4.022
 6603TIP3    H219751   3.369   3.405   4.050
 6604TIP3   OH219752   2.722   6.434   5.762
 6604TIP3    H119753   2.680   6.402   5.682
 6604TIP3    H219754   2.751   6.355   5.808
 6605TIP3   OH219755   4.459   6.163   1.131
 6605TIP3    H119756   4.486   6.088   1.079
 6605TIP3    H219757   4.415   6.221   1.069
 6606TIP3   OH219758   1.931   3.716   0.324
 6606TIP3    H119759   1.945   3.690   0.233
 6606TIP3    H219760   1.861   3.659   0.355
 6607TIP3   OH219761   0.739   5.733   5.011
 6607TIP3    H119762   0.705   5.819   4.987
 6607TIP3    H219763   0.661   5.678   5.018
 6608TIP3   OH219764   0.297   2.577   6.424
 6608TIP3    H119765   0.229   2.518   6.455
 6608TIP3    H219766   0.253   2.631   6.357
 6609TIP3   OH219767   1.939   2.631   6.077
 6609TIP3    H119768   1.862   2.574   6.077
 6609TIP3    H219769   1.909   2.713   6.115
 6610TIP3   OH219770   8.173   4.674   1.678
 6610TIP3    H119771   8.155   4.704   1.768
 6610TIP3    H219772   8.246   4.613   1.688
 6611TIP3   OH219773   7.721   5.157   6.037
 6611TIP3    H119774   7.699   5.241   6.077
 6611TIP3    H219775   7.655   5.145   5.968
 6612TIP3   OH219776   2.391   2.043   5.087
 6612TIP3    H119777   2.415   2.091   5.008
 6612TIP3    H219778   2.428   2.096   5.158
 6613TIP3   OH219779   1.759   5.483   6.684
 6613TIP3    H119780   1.758   5.548   6.754
 6613TIP3    H219781   1.850   5.477   6.657
 6614TIP3   OH219782   3.001   6.587   4.216
 6614TIP3    H119783   2.922   6.569   4.267
 6614TIP3    H219784   3.067   6.529   4.253
 6615TIP3   OH219785   6.080   1.532   3.139
 6615TIP3    H119786   6.077   1.451   3.088
 6615TIP3    H219787   6.143   1.588   3.093
 6616TIP3   OH219788   6.318   3.785   0.669
 6616TIP3    H119789   6.275   3.743   0.744
 6616TIP3    H219790   6.381   3.720   0.639
 6617TIP3   OH219791   2.734   1.662   0.227
 6617TIP3    H119792   2.782   1.742   0.208
 6617TIP3    H219793   2.781   1.594   0.179
 6618TIP3   OH219794   2.951   5.797   5.510
 6618TIP3    H119795   2.918   5.760   5.592
 6618TIP3    H219796   2.920   5.888   5.510
 6619TIP3   OH219797   2.007   3.426   5.045
 6619TIP3    H119798   1.971   3.515   5.040
 6619TIP3    H219799   2.092   3.436   5.087
 6620TIP3   OH219800   1.134   1.021   6.153
 6620TIP3    H119801   1.178   1.095   6.196
 6620TIP3    H219802   1.198   0.988   6.090
 6621TIP3   OH219803   3.773   3.738   1.844
 6621TIP3    H119804   3.761   3.830   1.866
 6621TIP3    H219805   3.844   3.737   1.780
 6622TIP3   OH219806   4.539   6.869   4.849
 6622TIP3    H119807   4.505   6.940   4.795
 6622TIP3    H219808   4.567   6.802   4.787
 6623TIP3   OH219809   5.831   5.060   2.733
 6623TIP3    H119810   5.769   5.063   2.660
 6623TIP3    H219811   5.826   4.969   2.765
 6624TIP3   OH219812   5.585   7.411   3.805
 6624TIP3    H119813   5.547   7.486   3.851
 6624TIP3    H219814   5.666   7.444   3.767
 6625TIP3   OH219815   1.179   1.476   5.047
 6625TIP3    H119816   1.146   1.392   5.079
 6625TIP3    H219817   1.254   1.495   5.103
 6626TIP3   OH219818   0.856   7.613   3.679
 6626TIP3    H119819   0.785   7.582   3.623
 6626TIP3    H219820   0.823   7.695   3.717
 6627TIP3   OH219821   7.218   4.104   1.221
 6627TIP3    H119822   7.212   4.008   1.224
 6627TIP3    H219823   7.293   4.122   1.165
 6628TIP3   OH219824   2.017   0.868   4.868
 6628TIP3    H119825   2.058   0.811   4.803
 6628TIP3    H219826   1.971   0.934   4.816
 6629TIP3   OH219827   5.325   5.399   1.529
 6629TIP3    H119828   5.348   5.458   1.456
 6629TIP3    H219829   5.230   5.408   1.538
 6630TIP3   OH219830   3.455   7.543   6.752
 6630TIP3    H119831   3.372   7.524   6.796
 6630TIP3    H219832   3.522   7.514   6.813
 6631TIP3   OH219833   7.229   0.600   4.645
 6631TIP3    H119834   7.323   0.614   4.634
 6631TIP3    H219835   7.222   0.516   4.689
 6632TIP3   OH219836   2.465   0.563   2.135
 6632TIP3    H119837   2.485   0.641   2.188
 6632TIP3    H219838   2.392   0.522   2.180
 6633TIP3   OH219839   6.728   7.519   4.835
 6633TIP3    H119840   6.687   7.439   4.803
 6633TIP3    H219841   6.788   7.489   4.903
 6634TIP3   OH219842   0.144   6.534   3.191
 6634TIP3    H119843   0.230   6.535   3.233
 6634TIP3    H219844   0.119   6.627   3.186
 6635TIP3   OH219845   4.128   4.435   6.641
 6635TIP3    H119846   4.175   4.393   6.568
 6635TIP3    H219847   4.097   4.518   6.606
 6636TIP3   OH219848   5.859   0.059   5.063
 6636TIP3    H119849   5.905   0.025   5.140
 6636TIP3    H219850   5.894   0.008   4.989
 6637TIP3   OH219851   5.996   7.903   1.175
 6637TIP3    H119852   5.966   7.970   1.236
 6637TIP3    H219853   6.023   7.830   1.231
 6638TIP3   OH219854   3.995   1.498   6.643
 6638TIP3    H119855   3.985   1.412   6.685
 6638TIP3    H219856   3.906   1.521   6.615
 6639TIP3   OH219857   6.536   1.535   1.204
 6639TIP3    H119858   6.522   1.548   1.298
 6639TIP3    H219859   6.500   1.614   1.164
 6640TIP3   OH219860   0.410   7.399   3.326
 6640TIP3    H119861   0.373   7.312   3.310
 6640TIP3    H219862   0.379   7.452   3.252
 6641TIP3   OH219863   1.358   2.512   4.082
 6641TIP3    H119864   1.420   2.584   4.093
 6641TIP3    H219865   1.369   2.485   3.990
 6642TIP3   OH219866   2.368   5.007   3.267
 6642TIP3    H119867   2.453   5.051   3.267
 6642TIP3    H219868   2.384   4.925   3.220
 6643TIP3   OH219869   2.348   1.136   2.249
 6643TIP3    H119870   2.431   1.152   2.204
 6643TIP3    H219871   2.374   1.107   2.336
 6644TIP3   OH219872   1.646   1.978   4.989
 6644TIP3    H119873   1.732   1.945   5.015
 6644TIP3    H219874   1.665   2.048   4.927
 6645TIP3   OH219875   1.351   0.849   4.837
 6645TIP3    H119876   1.320   0.865   4.748
 6645TIP3    H219877   1.275   0.815   4.883
 6646TIP3   OH219878   6.158   4.891   2.427
 6646TIP3    H119879   6.250   4.908   2.406
 6646TIP3    H219880   6.158   4.880   2.523
 6647TIP3   OH219881   7.349   1.904   6.671
 6647TIP3    H119882   7.440   1.877   6.687
 6647TIP3    H219883   7.321   1.849   6.598
 6648TIP3   OH219884   8.302   1.091   0.202
 6648TIP3    H119885   8.331   1.036   0.130
 6648TIP3    H219886   8.366   1.076   0.272
 6649TIP3   OH219887   6.259   3.279   6.031
 6649TIP3    H119888   6.297   3.353   6.079
 6649TIP3    H219889   6.279   3.297   5.939
 6650TIP3   OH219890   2.005   4.521   2.027
 6650TIP3    H119891   1.947   4.461   2.074
 6650TIP3    H219892   2.059   4.560   2.096
 6651TIP3   OH219893   3.077   2.902   1.831
 6651TIP3    H119894   3.095   2.996   1.836
 6651TIP3    H219895   2.985   2.896   1.807
 6652TIP3   OH219896   6.654   5.709   0.593
 6652TIP3    H119897   6.685   5.729   0.682
 6652TIP3    H219898   6.578   5.765   0.581
 6653TIP3   OH219899   3.112   5.097   6.849
 6653TIP3    H119900   3.114   5.095   6.753
 6653TIP3    H219901   3.195   5.056   6.876
 6654TIP3   OH219902   3.474   0.391   3.867
 6654TIP3    H119903   3.450   0.356   3.953
 6654TIP3    H219904   3.564   0.364   3.854
 6655TIP3   OH219905   1.439   0.079   3.894
 6655TIP3    H119906   1.405   0.088   3.805
 6655TIP3    H219907   1.519   0.028   3.884
 6656TIP3   OH219908   0.561   1.786   2.807
 6656TIP3    H119909   0.584   1.803   2.898
 6656TIP3    H219910   0.528   1.696   2.807
 6657TIP3   OH219911   3.868   6.189   2.757
 6657TIP3    H119912   3.946   6.232   2.793
 6657TIP3    H219913   3.891   6.096   2.754
 6658TIP3   OH219914   2.004   5.400   3.252
 6658TIP3    H119915   2.083   5.354   3.225
 6658TIP3    H219916   1.942   5.386   3.181
 6659TIP3   OH219917   1.068   4.395   5.761
 6659TIP3    H119918   1.072   4.360   5.850
 6659TIP3    H219919   1.014   4.474   5.769
 6660TIP3   OH219920   3.970   1.101   5.689
 6660TIP3    H119921   4.015   1.149   5.759
 6660TIP3    H219922   3.880   1.133   5.692
 6661TIP3   OH219923   7.250   6.468   3.040
 6661TIP3    H119924   7.277   6.558   3.055
 6661TIP3    H219925   7.309   6.416   3.095
 6662TIP3   OH219926   7.190   7.631   5.877
 6662TIP3    H119927   7.153   7.711   5.839
 6662TIP3    H219928   7.189   7.568   5.806
 6663TIP3   OH219929   5.146   2.080   6.016
 6663TIP3    H119930   5.227   2.038   6.045
 6663TIP3    H219931   5.170   2.127   5.937
 6664TIP3   OH219932   7.090   1.662   3.943
 6664TIP3    H119933   7.033   1.710   4.004
 6664TIP3    H219934   7.033   1.641   3.869
 6665TIP3   OH219935   6.509   5.364   6.650
 6665TIP3    H119936   6.513   5.413   6.732
 6665TIP3    H219937   6.555   5.419   6.587
 6666TIP3   OH219938   4.691   3.657   0.397
 6666TIP3    H119939   4.655   3.568   0.393
 6666TIP3    H219940   4.761   3.657   0.331
 6667TIP3   OH219941   5.994   2.153   2.511
 6667TIP3    H119942   5.953   2.148   2.598
 6667TIP3    H219943   6.057   2.224   2.518
 6668TIP3   OH219944   0.708   6.182   3.540
 6668TIP3    H119945   0.777   6.128   3.578
 6668TIP3    H219946   0.627   6.149   3.578
 6669TIP3   OH219947   4.795   7.701   2.649
 6669TIP3    H119948   4.795   7.699   2.745
 6669TIP3    H219949   4.707   7.671   2.625
 6670TIP3   OH219950   0.022   2.281   4.543
 6670TIP3    H119951  -0.035   2.304   4.470
 6670TIP3    H219952  -0.037   2.273   4.619
 6671TIP3   OH219953   0.744   2.619   0.999
 6671TIP3    H119954   0.789   2.614   0.915
 6671TIP3    H219955   0.802   2.574   1.060
 6672TIP3   OH219956   0.255   3.908   2.452
 6672TIP3    H119957   0.288   3.996   2.435
 6672TIP3    H219958   0.303   3.879   2.529
 6673TIP3   OH219959   0.928   4.963   3.292
 6673TIP3    H119960   1.010   4.984   3.249
 6673TIP3    H219961   0.939   4.873   3.323
 6674TIP3   OH219962   6.205   7.724   1.509
 6674TIP3    H119963   6.170   7.728   1.420
 6674TIP3    H219964   6.244   7.811   1.523
 6675TIP3   OH219965   1.300   1.496   3.267
 6675TIP3    H119966   1.323   1.518   3.358
 6675TIP3    H219967   1.377   1.450   3.233
 6676TIP3   OH219968   6.344   0.818   1.250
 6676TIP3    H119969   6.297   0.741   1.217
 6676TIP3    H219970   6.286   0.892   1.231
 6677TIP3   OH219971   6.239   0.919   4.214
 6677TIP3    H119972   6.183   0.995   4.226
 6677TIP3    H219973   6.218   0.862   4.288
 6678TIP3   OH219974   3.870   1.201   1.803
 6678TIP3    H119975   3.871   1.281   1.750
 6678TIP3    H219976   3.949   1.154   1.777
 6679TIP3   OH219977   6.603   5.328   0.758
 6679TIP3    H119978   6.660   5.313   0.833
 6679TIP3    H219979   6.615   5.251   0.703
 6680TIP3   OH219980   4.432   0.186   3.734
 6680TIP3    H119981   4.491   0.200   3.808
 6680TIP3    H219982   4.363   0.129   3.768
 6681TIP3   OH219983   6.007   7.536   0.222
 6681TIP3    H119984   5.949   7.552   0.147
 6681TIP3    H219985   6.057   7.617   0.231
 6682TIP3   OH219986   5.702   7.151   0.431
 6682TIP3    H119987   5.610   7.172   0.412
 6682TIP3    H219988   5.702   7.125   0.524
 6683TIP3   OH219989   4.848   3.536   1.801
 6683TIP3    H119990   4.911   3.476   1.844
 6683TIP3    H219991   4.899   3.615   1.783
 6684TIP3   OH219992   5.028   6.520   3.071
 6684TIP3    H119993   4.948   6.504   3.121
 6684TIP3    H219994   5.087   6.565   3.132
 6685TIP3   OH219995   0.580   5.807   3.364
 6685TIP3    H119996   0.566   5.724   3.318
 6685TIP3    H219997   0.556   5.789   3.455
 6686TIP3   OH219998   3.184   2.347   5.411
 6686TIP3    H119999   3.182   2.406   5.336
 6686TIP3    H220000   3.093   2.321   5.423
 6687TIP3   OH220001   4.402   2.970   6.345
 6687TIP3    H120002   4.345   2.902   6.381
 6687TIP3    H220003   4.457   2.997   6.419
 6688TIP3   OH220004   4.502   2.311   3.688
 6688TIP3    H120005   4.558   2.325   3.764
 6688TIP3    H220006   4.526   2.380   3.626
 6689TIP3   OH220007   0.362   6.210   5.002
 6689TIP3    H120008   0.406   6.170   4.927
 6689TIP3    H220009   0.392   6.159   5.077
 6690TIP3   OH220010   8.116   5.152   3.921
 6690TIP3    H120011   8.037   5.201   3.898
 6690TIP3    H220012   8.153   5.201   3.995
 6691TIP3   OH220013   1.518   5.335   0.094
 6691TIP3    H120014   1.435   5.305   0.132
 6691TIP3    H220015   1.519   5.429   0.110
 6692TIP3   OH220016   0.097   7.518   5.144
 6692TIP3    H120017   0.117   7.486   5.232
 6692TIP3    H220018   0.157   7.591   5.130
 6693TIP3   OH220019   2.038   4.638   1.785
 6693TIP3    H120020   2.010   4.581   1.857
 6693TIP3    H220021   2.069   4.718   1.828
 6694TIP3   OH220022   3.424   3.547   5.047
 6694TIP3    H120023   3.375   3.484   4.993
 6694TIP3    H220024   3.472   3.600   4.983
 6695TIP3   OH220025   7.540   2.407   3.257
 6695TIP3    H120026   7.530   2.353   3.178
 6695TIP3    H220027   7.489   2.362   3.324
 6696TIP3   OH220028   2.483   6.290   3.721
 6696TIP3    H120029   2.467   6.383   3.738
 6696TIP3    H220030   2.480   6.250   3.808
 6697TIP3   OH220031   1.212   7.691   5.385
 6697TIP3    H120032   1.144   7.742   5.430
 6697TIP3    H220033   1.235   7.622   5.447
 6698TIP3   OH220034   0.162   1.529   0.730
 6698TIP3    H120035   0.173   1.466   0.659
 6698TIP3    H220036   0.086   1.581   0.706
 6699TIP3   OH220037   3.170   1.042   0.738
 6699TIP3    H120038   3.229   0.967   0.744
 6699TIP3    H220039   3.130   1.034   0.652
 6700TIP3   OH220040   0.904   3.856   6.338
 6700TIP3    H120041   0.938   3.940   6.369
 6700TIP3    H220042   0.964   3.791   6.376
 6701TIP3   OH220043   1.561   5.807   1.803
 6701TIP3    H120044   1.653   5.827   1.786
 6701TIP3    H220045   1.523   5.795   1.716
 6702TIP3   OH220046   4.190   1.099   5.465
 6702TIP3    H120047   4.125   1.121   5.397
 6702TIP3    H220048   4.256   1.169   5.458
 6703TIP3   OH220049   5.625   1.284   2.432
 6703TIP3    H120050   5.591   1.278   2.521
 6703TIP3    H220051   5.719   1.269   2.441
 6704TIP3   OH220052   7.716   6.546   6.674
 6704TIP3    H120053   7.766   6.547   6.593
 6704TIP3    H220054   7.718   6.455   6.703
 6705TIP3   OH220055   7.197   0.498   6.736
 6705TIP3    H120056   7.241   0.506   6.651
 6705TIP3    H220057   7.107   0.472   6.714
 6706TIP3   OH220058   3.385   0.667   3.284
 6706TIP3    H120059   3.472   0.677   3.244
 6706TIP3    H220060   3.335   0.618   3.219
 6707TIP3   OH220061   1.533   3.437   4.672
 6707TIP3    H120062   1.536   3.465   4.763
 6707TIP3    H220063   1.537   3.341   4.677
 6708TIP3   OH220064   5.686   5.912   0.095
 6708TIP3    H120065   5.701   5.922   0.189
 6708TIP3    H220066   5.596   5.942   0.082
 6709TIP3   OH220067   3.714   7.460   6.746
 6709TIP3    H120068   3.732   7.535   6.803
 6709TIP3    H220069   3.799   7.417   6.736
 6710TIP3   OH220070   1.112   6.726   5.241
 6710TIP3    H120071   1.187   6.749   5.295
 6710TIP3    H220072   1.091   6.806   5.193
 6711TIP3   OH220073   5.410   5.021   5.470
 6711TIP3    H120074   5.458   5.085   5.417
 6711TIP3    H220075   5.373   4.961   5.406
 6712TIP3   OH220076   1.559   0.462   1.063
 6712TIP3    H120077   1.545   0.413   0.982
 6712TIP3    H220078   1.487   0.437   1.120
 6713TIP3   OH220079   4.456   3.661   3.410
 6713TIP3    H120080   4.385   3.597   3.398
 6713TIP3    H220081   4.535   3.608   3.415
 6714TIP3   OH220082   5.272   0.996   3.176
 6714TIP3    H120083   5.188   0.959   3.151
 6714TIP3    H220084   5.335   0.925   3.163
 6715TIP3   OH220085   1.413   6.896   6.267
 6715TIP3    H120086   1.339   6.895   6.327
 6715TIP3    H220087   1.394   6.825   6.204
 6716TIP3   OH220088   4.481   1.233   2.669
 6716TIP3    H120089   4.570   1.261   2.691
 6716TIP3    H220090   4.478   1.239   2.573
 6717TIP3   OH220091   7.738   0.749   0.524
 6717TIP3    H120092   7.801   0.804   0.478
 6717TIP3    H220093   7.652   0.782   0.497
 6718TIP3   OH220094   1.759   0.860   0.520
 6718TIP3    H120095   1.692   0.910   0.567
 6718TIP3    H220096   1.796   0.802   0.587
 6719TIP3   OH220097   1.071   5.037   0.162
 6719TIP3    H120098   1.068   4.950   0.121
 6719TIP3    H220099   1.154   5.038   0.209
 6720TIP3   OH220100   4.769   4.017   2.218
 6720TIP3    H120101   4.687   3.980   2.251
 6720TIP3    H220102   4.787   3.967   2.138
 6721TIP3   OH220103   3.077   0.902   3.501
 6721TIP3    H120104   3.063   0.812   3.473
 6721TIP3    H220105   3.084   0.897   3.597
 6722TIP3   OH220106   2.575   0.655   4.554
 6722TIP3    H120107   2.643   0.662   4.486
 6722TIP3    H220108   2.620   0.617   4.629
 6723TIP3   OH220109   5.028   5.081   0.606
 6723TIP3    H120110   5.093   5.148   0.586
 6723TIP3    H220111   4.946   5.116   0.572
 6724TIP3   OH220112   4.821   1.636   3.491
 6724TIP3    H120113   4.842   1.595   3.575
 6724TIP3    H220114   4.745   1.691   3.510
 6725TIP3   OH220115   1.638   7.574   5.257
 6725TIP3    H120116   1.588   7.526   5.323
 6725TIP3    H220117   1.615   7.666   5.273
 6726TIP3   OH220118   3.884   4.409   6.435
 6726TIP3    H120119   3.968   4.399   6.390
 6726TIP3    H220120   3.889   4.494   6.477
 6727TIP3   OH220121   0.782   1.883   5.818
 6727TIP3    H120122   0.838   1.807   5.804
 6727TIP3    H220123   0.724   1.884   5.742
 6728TIP3   OH220124   4.421   5.671   2.444
 6728TIP3    H120125   4.364   5.727   2.498
 6728TIP3    H220126   4.476   5.733   2.396
 6729TIP3   OH220127   4.400   2.480   0.642
 6729TIP3    H120128   4.424   2.439   0.558
 6729TIP3    H220129   4.443   2.565   0.641
 6730TIP3   OH220130   0.089   2.387   3.152
 6730TIP3    H120131  -0.006   2.381   3.137
 6730TIP3    H220132   0.121   2.446   3.084
 6731TIP3   OH220133   3.239   6.996   6.481
 6731TIP3    H120134   3.290   7.073   6.453
 6731TIP3    H220135   3.271   6.976   6.569
 6732TIP3   OH220136   3.411   0.754   1.383
 6732TIP3    H120137   3.320   0.765   1.359
 6732TIP3    H220138   3.417   0.789   1.472
 6733TIP3   OH220139   4.341   0.257   5.267
 6733TIP3    H120140   4.265   0.209   5.233
 6733TIP3    H220141   4.314   0.287   5.354
 6734TIP3   OH220142   3.172   0.270   4.500
 6734TIP3    H120143   3.220   0.187   4.508
 6734TIP3    H220144   3.125   0.263   4.417
 6735TIP3   OH220145   1.804   4.860   6.209
 6735TIP3    H120146   1.744   4.926   6.173
 6735TIP3    H220147   1.785   4.781   6.158
 6736TIP3   OH220148   3.415   5.148   3.405
 6736TIP3    H120149   3.390   5.057   3.417
 6736TIP3    H220150   3.345   5.186   3.352
 6737TIP3   OH220151   2.443   3.004   6.390
 6737TIP3    H120152   2.397   2.925   6.417
 6737TIP3    H220153   2.486   2.979   6.308
 6738TIP3   OH220154   8.120   7.886   2.693
 6738TIP3    H120155   8.185   7.900   2.624
 6738TIP3    H220156   8.149   7.943   2.764
 6739TIP3   OH220157   3.364   4.125   0.537
 6739TIP3    H120158   3.301   4.163   0.598
 6739TIP3    H220159   3.341   4.033   0.531
 6740TIP3   OH220160   6.131   4.337   2.465
 6740TIP3    H120161   6.163   4.357   2.378
 6740TIP3    H220162   6.189   4.268   2.497
 6741TIP3   OH220163   4.161   1.316   2.375
 6741TIP3    H120164   4.185   1.360   2.294
 6741TIP3    H220165   4.233   1.256   2.393
 6742TIP3   OH220166   3.725   1.910   5.761
 6742TIP3    H120167   3.643   1.928   5.716
 6742TIP3    H220168   3.721   1.816   5.781
 6743TIP3   OH220169   7.287   0.629   1.000
 6743TIP3    H120170   7.372   0.641   1.044
 6743TIP3    H220171   7.309   0.605   0.910
 6744TIP3   OH220172   8.231   1.017   5.820
 6744TIP3    H120173   8.148   0.970   5.825
 6744TIP3    H220174   8.211   1.105   5.850
 6745TIP3   OH220175   2.344   4.507   0.605
 6745TIP3    H120176   2.413   4.443   0.588
 6745TIP3    H220177   2.263   4.457   0.598
 6746TIP3   OH220178   0.647   6.205   5.543
 6746TIP3    H120179   0.570   6.151   5.560
 6746TIP3    H220180   0.661   6.254   5.623
 6747TIP3   OH220181   0.460   0.376   4.254
 6747TIP3    H120182   0.533   0.355   4.195
 6747TIP3    H220183   0.382   0.357   4.203
 6748TIP3   OH220184   6.812   6.565   6.382
 6748TIP3    H120185   6.802   6.515   6.301
 6748TIP3    H220186   6.860   6.644   6.357
 6749TIP3   OH220187   0.367   0.151   0.941
 6749TIP3    H120188   0.386   0.130   1.033
 6749TIP3    H220189   0.387   0.244   0.933
 6750TIP3   OH220190   6.578   4.170   6.541
 6750TIP3    H120191   6.516   4.150   6.611
 6750TIP3    H220192   6.547   4.120   6.466
 6751TIP3   OH220193   2.314   0.247   6.167
 6751TIP3    H120194   2.226   0.216   6.149
 6751TIP3    H220195   2.365   0.168   6.185
 6752TIP3   OH220196   4.618   5.359   0.504
 6752TIP3    H120197   4.650   5.353   0.594
 6752TIP3    H220198   4.651   5.443   0.472
 6753TIP3   OH220199   0.198   6.897   4.166
 6753TIP3    H120200   0.181   6.990   4.154
 6753TIP3    H220201   0.252   6.872   4.091
 6754TIP3   OH220202   7.822   0.175   1.902
 6754TIP3    H120203   7.743   0.208   1.859
 6754TIP3    H220204   7.894   0.218   1.855
 6755TIP3   OH220205   5.522   1.475   1.148
 6755TIP3    H120206   5.508   1.556   1.100
 6755TIP3    H220207   5.534   1.502   1.239
 6756TIP3   OH220208   5.832   2.769   6.581
 6756TIP3    H120209   5.879   2.686   6.585
 6756TIP3    H220210   5.775   2.761   6.505
 6757TIP3   OH220211   5.697   1.002   2.782
 6757TIP3    H120212   5.696   1.087   2.739
 6757TIP3    H220213   5.764   0.952   2.735
 6758TIP3   OH220214   6.191   0.507   0.583
 6758TIP3    H120215   6.167   0.506   0.491
 6758TIP3    H220216   6.152   0.588   0.617
 6759TIP3   OH220217   4.609   0.810   4.654
 6759TIP3    H120218   4.697   0.822   4.619
 6759TIP3    H220219   4.612   0.849   4.741
 6760TIP3   OH220220   1.926   4.900   2.088
 6760TIP3    H120221   2.003   4.872   2.038
 6760TIP3    H220222   1.867   4.936   2.022
 6761TIP3   OH220223   4.008   4.143   2.994
 6761TIP3    H120224   4.011   4.236   3.016
 6761TIP3    H220225   4.092   4.108   3.023
 6762TIP3   OH220226   3.435   2.912   3.878
 6762TIP3    H120227   3.449   3.002   3.848
 6762TIP3    H220228   3.523   2.877   3.893
 6763TIP3   OH220229   0.615   6.861   2.375
 6763TIP3    H120230   0.633   6.773   2.407
 6763TIP3    H220231   0.519   6.868   2.375
 6764TIP3   OH220232   4.243   6.543   6.516
 6764TIP3    H120233   4.155   6.541   6.555
 6764TIP3    H220234   4.251   6.632   6.481
 6765TIP3   OH220235   5.328   5.843   4.477
 6765TIP3    H120236   5.392   5.783   4.516
 6765TIP3    H220237   5.358   5.930   4.502
 6766TIP3   OH220238   8.325   0.498   0.195
 6766TIP3    H120239   8.267   0.462   0.127
 6766TIP3    H220240   8.265   0.534   0.261
 6767TIP3   OH220241   7.274   3.308   1.413
 6767TIP3    H120242   7.228   3.387   1.441
 6767TIP3    H220243   7.208   3.256   1.368
 6768TIP3   OH220244   3.102   5.670   1.861
 6768TIP3    H120245   3.125   5.662   1.953
 6768TIP3    H220246   3.012   5.638   1.856
 6769TIP3   OH220247   0.235   3.095   6.330
 6769TIP3    H120248   0.253   3.128   6.418
 6769TIP3    H220249   0.316   3.051   6.304
 6770TIP3   OH220250   1.806   5.388   4.936
 6770TIP3    H120251   1.890   5.347   4.915
 6770TIP3    H220252   1.767   5.330   5.001
 6771TIP3   OH220253   0.475   1.997   1.345
 6771TIP3    H120254   0.539   1.933   1.375
 6771TIP3    H220255   0.525   2.078   1.338
 6772TIP3   OH220256   4.038   0.774   0.790
 6772TIP3    H120257   3.983   0.700   0.816
 6772TIP3    H220258   3.977   0.835   0.748
 6773TIP3   OH220259   4.630   4.766   1.870
 6773TIP3    H120260   4.623   4.683   1.824
 6773TIP3    H220261   4.663   4.744   1.957
 6774TIP3   OH220262   7.328   4.236   3.153
 6774TIP3    H120263   7.392   4.169   3.179
 6774TIP3    H220264   7.312   4.219   3.060
 6775TIP3   OH220265   7.158   2.175   2.516
 6775TIP3    H120266   7.229   2.238   2.500
 6775TIP3    H220267   7.194   2.091   2.486
 6776TIP3   OH220268   1.204   0.201   0.863
 6776TIP3    H120269   1.150   0.169   0.791
 6776TIP3    H220270   1.152   0.187   0.942
 6777TIP3   OH220271   0.738   6.878   4.412
 6777TIP3    H120272   0.668   6.869   4.476
 6777TIP3    H220273   0.749   6.790   4.376
 6778TIP3   OH220274   3.842   0.252   0.668
 6778TIP3    H120275   3.920   0.205   0.697
 6778TIP3    H220276   3.793   0.189   0.616
 6779TIP3   OH220277   2.987   3.637   6.044
 6779TIP3    H120278   2.976   3.581   5.967
 6779TIP3    H220279   2.900   3.641   6.084
 6780TIP3   OH220280   1.611   0.155   1.005
 6780TIP3    H120281   1.557   0.208   0.947
 6780TIP3    H220282   1.683   0.124   0.949
 6781TIP3   OH220283   4.020   2.657   6.688
 6781TIP3    H120284   3.965   2.716   6.638
 6781TIP3    H220285   4.080   2.619   6.624
 6782TIP3   OH220286   2.402   5.441   2.283
 6782TIP3    H120287   2.331   5.423   2.344
 6782TIP3    H220288   2.357   5.466   2.202
 6783TIP3   OH220289   1.043   1.215   5.173
 6783TIP3    H120290   1.077   1.169   5.096
 6783TIP3    H220291   0.950   1.192   5.176
 6784TIP3   OH220292   1.304   5.284   6.466
 6784TIP3    H120293   1.285   5.272   6.559
 6784TIP3    H220294   1.388   5.330   6.465
 6785TIP3   OH220295   1.579   6.064   5.965
 6785TIP3    H120296   1.500   6.119   5.964
 6785TIP3    H220297   1.647   6.119   6.003
 6786TIP3   OH220298   2.321   1.334   1.106
 6786TIP3    H120299   2.336   1.392   1.032
 6786TIP3    H220300   2.245   1.282   1.081
 6787TIP3   OH220301   5.284   6.982   2.034
 6787TIP3    H120302   5.240   6.907   2.076
 6787TIP3    H220303   5.253   7.058   2.083
 6788TIP3   OH220304   6.582   0.382   2.858
 6788TIP3    H120305   6.660   0.383   2.803
 6788TIP3    H220306   6.615   0.391   2.947
 6789TIP3   OH220307   8.353   5.467   6.124
 6789TIP3    H120308   8.416   5.426   6.065
 6789TIP3    H220309   8.335   5.552   6.084
 6790TIP3   OH220310   5.833   3.551   5.575
 6790TIP3    H120311   5.794   3.555   5.662
 6790TIP3    H220312   5.763   3.516   5.520
 6791TIP3   OH220313   0.670   3.061   5.726
 6791TIP3    H120314   0.579   3.035   5.736
 6791TIP3    H220315   0.666   3.140   5.672
 6792TIP3   OH220316   6.950   5.148   1.962
 6792TIP3    H120317   7.042   5.168   1.979
 6792TIP3    H220318   6.943   5.053   1.973
 6793TIP3   OH220319   5.891   6.278   3.863
 6793TIP3    H120320   5.817   6.219   3.852
 6793TIP3    H220321   5.852   6.364   3.876
 6794TIP3   OH220322   4.068   5.609   0.373
 6794TIP3    H120323   4.077   5.694   0.416
 6794TIP3    H220324   3.987   5.615   0.323
 6795TIP3   OH220325   5.781   0.995   1.742
 6795TIP3    H120326   5.729   1.071   1.768
 6795TIP3    H220327   5.872   1.022   1.756
 6796TIP3   OH220328   5.568   6.607   3.631
 6796TIP3    H120329   5.594   6.681   3.577
 6796TIP3    H220330   5.535   6.646   3.712
 6797TIP3   OH220331   8.203   6.995   2.380
 6797TIP3    H120332   8.267   7.047   2.332
 6797TIP3    H220333   8.248   6.970   2.461
 6798TIP3   OH220334   0.086   2.366   0.559
 6798TIP3    H120335   0.037   2.300   0.607
 6798TIP3    H220336   0.136   2.316   0.494
 6799TIP3   OH220337   2.988   7.137   4.945
 6799TIP3    H120338   2.967   7.216   4.895
 6799TIP3    H220339   3.080   7.146   4.967
 6800TIP3   OH220340   0.668   1.904   4.219
 6800TIP3    H120341   0.645   1.960   4.293
 6800TIP3    H220342   0.760   1.922   4.202
 6801TIP3   OH220343   5.526   6.735   6.638
 6801TIP3    H120344   5.494   6.820   6.668
 6801TIP3    H220345   5.617   6.750   6.614
 6802TIP3   OH220346   5.700   1.742   4.494
 6802TIP3    H120347   5.790   1.748   4.524
 6802TIP3    H220348   5.685   1.822   4.444
 6803TIP3   OH220349   2.539   4.761   5.639
 6803TIP3    H120350   2.554   4.855   5.645
 6803TIP3    H220351   2.497   4.738   5.722
 6804TIP3   OH220352   4.847   4.763   0.544
 6804TIP3    H120353   4.824   4.688   0.599
 6804TIP3    H220354   4.781   4.829   0.566
 6805TIP3   OH220355   3.764   0.741   4.487
 6805TIP3    H120356   3.795   0.821   4.445
 6805TIP3    H220357   3.819   0.672   4.450
 6806TIP3   OH220358   7.878   6.453   2.798
 6806TIP3    H120359   7.901   6.515   2.729
 6806TIP3    H220360   7.945   6.384   2.792
 6807TIP3   OH220361   6.342   1.750   5.434
 6807TIP3    H120362   6.407   1.715   5.495
 6807TIP3    H220363   6.258   1.736   5.478
 6808TIP3   OH220364   8.311   1.970   0.355
 6808TIP3    H120365   8.263   1.947   0.276
 6808TIP3    H220366   8.331   2.063   0.345
 6809TIP3   OH220367   1.666   0.913   4.121
 6809TIP3    H120368   1.698   0.972   4.189
 6809TIP3    H220369   1.576   0.940   4.107
 6810TIP3   OH220370   4.569   4.450   1.033
 6810TIP3    H120371   4.651   4.418   1.070
 6810TIP3    H220372   4.501   4.407   1.085
 6811TIP3   OH220373   1.572   6.310   1.491
 6811TIP3    H120374   1.578   6.404   1.509
 6811TIP3    H220375   1.516   6.276   1.562
 6812TIP3   OH220376   6.746   1.470   0.620
 6812TIP3    H120377   6.767   1.561   0.639
 6812TIP3    H220378   6.657   1.473   0.584
 6813TIP3   OH220379   6.049   2.705   3.949
 6813TIP3    H120380   6.083   2.722   4.037
 6813TIP3    H220381   5.960   2.673   3.963
 6814TIP3   OH220382   1.371   3.621   1.321
 6814TIP3    H120383   1.411   3.667   1.247
 6814TIP3    H220384   1.371   3.529   1.294
 6815TIP3   OH220385   5.028   6.883   0.017
 6815TIP3    H120386   5.046   6.790   0.025
 6815TIP3    H220387   5.092   6.915  -0.047
 6816TIP3   OH220388   6.718   0.403   4.748
 6816TIP3    H120389   6.796   0.408   4.803
 6816TIP3    H220390   6.675   0.488   4.758
 6817TIP3   OH220391   2.630   5.133   4.511
 6817TIP3    H120392   2.711   5.184   4.516
 6817TIP3    H220393   2.580   5.161   4.588
 6818TIP3   OH220394   8.109   5.954   6.360
 6818TIP3    H120395   8.053   6.009   6.414
 6818TIP3    H220396   8.050   5.909   6.300
 6819TIP3   OH220397   6.097   3.196   2.239
 6819TIP3    H120398   6.055   3.189   2.153
 6819TIP3    H220399   6.158   3.269   2.231
 6820TIP3   OH220400   5.495   7.398   2.880
 6820TIP3    H120401   5.571   7.396   2.821
 6820TIP3    H220402   5.523   7.454   2.953
 6821TIP3   OH220403   5.855   0.420   1.236
 6821TIP3    H120404   5.760   0.414   1.225
 6821TIP3    H220405   5.868   0.492   1.298
 6822TIP3   OH220406   7.305   0.495   5.259
 6822TIP3    H120407   7.394   0.475   5.289
 6822TIP3    H220408   7.280   0.572   5.309
 6823TIP3   OH220409   4.840   7.097   5.197
 6823TIP3    H120410   4.825   7.051   5.279
 6823TIP3    H220411   4.778   7.171   5.199
 6824TIP3   OH220412   1.479   0.598   0.260
 6824TIP3    H120413   1.543   0.589   0.330
 6824TIP3    H220414   1.517   0.550   0.186
 6825TIP3   OH220415   2.379   1.888   3.189
 6825TIP3    H120416   2.288   1.914   3.184
 6825TIP3    H220417   2.412   1.927   3.270
 6826TIP3   OH220418   1.545   6.946   0.989
 6826TIP3    H120419   1.568   6.922   1.079
 6826TIP3    H220420   1.577   6.873   0.936
 6827TIP3   OH220421   6.111   2.783   4.549
 6827TIP3    H120422   6.192   2.830   4.571
 6827TIP3    H220423   6.129   2.692   4.572
 6828TIP3   OH220424   4.861   4.582   2.323
 6828TIP3    H120425   4.832   4.508   2.375
 6828TIP3    H220426   4.859   4.657   2.383
 6829TIP3   OH220427   4.560   7.623   3.171
 6829TIP3    H120428   4.633   7.582   3.217
 6829TIP3    H220429   4.503   7.549   3.146
 6830TIP3   OH220430   2.118   1.417   2.705
 6830TIP3    H120431   2.136   1.344   2.646
 6830TIP3    H220432   2.046   1.385   2.761
 6831TIP3   OH220433   5.878   0.633   1.412
 6831TIP3    H120434   5.941   0.704   1.430
 6831TIP3    H220435   5.795   0.667   1.444
 6832TIP3   OH220436   8.339   2.343   5.104
 6832TIP3    H120437   8.373   2.284   5.037
 6832TIP3    H220438   8.372   2.308   5.187
 6833TIP3   OH220439   1.762   6.843   5.678
 6833TIP3    H120440   1.836   6.844   5.739
 6833TIP3    H220441   1.772   6.924   5.628
 6834TIP3   OH220442   6.840   5.333   6.060
 6834TIP3    H120443   6.800   5.402   6.114
 6834TIP3    H220444   6.895   5.284   6.120
 6835TIP3   OH220445   1.319   2.972   4.333
 6835TIP3    H120446   1.232   2.936   4.354
 6835TIP3    H220447   1.381   2.910   4.370
 6836TIP3   OH220448   8.299   1.471   2.526
 6836TIP3    H120449   8.380   1.438   2.488
 6836TIP3    H220450   8.243   1.394   2.534
 6837TIP3   OH220451   1.696   5.389   5.839
 6837TIP3    H120452   1.646   5.410   5.760
 6837TIP3    H220453   1.778   5.438   5.829
 6838TIP3   OH220454   4.635   0.455   6.641
 6838TIP3    H120455   4.716   0.496   6.611
 6838TIP3    H220456   4.568   0.522   6.630
 6839TIP3   OH220457   6.969   3.583   0.749
 6839TIP3    H120458   6.928   3.509   0.702
 6839TIP3    H220459   6.901   3.612   0.810
 6840TIP3   OH220460   6.462   0.893   2.434
 6840TIP3    H120461   6.447   0.802   2.461
 6840TIP3    H220462   6.375   0.929   2.420
 6841TIP3   OH220463   8.292   1.064   1.571
 6841TIP3    H120464   8.328   1.142   1.612
 6841TIP3    H220465   8.290   1.084   1.478
 6842TIP3   OH220466   0.376   6.297   1.627
 6842TIP3    H120467   0.294   6.260   1.594
 6842TIP3    H220468   0.384   6.264   1.716
 6843TIP3   OH220469   1.648   2.166   2.175
 6843TIP3    H120470   1.721   2.205   2.127
 6843TIP3    H220471   1.674   2.074   2.186
 6844TIP3   OH220472   8.000   2.013   2.829
 6844TIP3    H120473   8.092   2.011   2.854
 6844TIP3    H220474   8.001   1.998   2.734
 6845TIP3   OH220475   7.083   0.408   0.635
 6845TIP3    H120476   7.127   0.340   0.686
 6845TIP3    H220477   6.996   0.415   0.673
 6846TIP3   OH220478   2.078   3.084   5.213
 6846TIP3    H120479   2.151   3.064   5.155
 6846TIP3    H220480   2.062   3.002   5.261
 6847TIP3   OH220481   6.984   7.089   0.620
 6847TIP3    H120482   7.040   7.042   0.682
 6847TIP3    H220483   7.002   7.048   0.535
 6848TIP3   OH220484   0.603   0.133   2.875
 6848TIP3    H120485   0.563   0.052   2.843
 6848TIP3    H220486   0.647   0.170   2.799
 6849TIP3   OH220487   3.127   0.072   3.225
 6849TIP3    H120488   3.066   0.145   3.212
 6849TIP3    H220489   3.101   0.008   3.159
 6850TIP3   OH220490   3.865   6.813   0.347
 6850TIP3    H120491   3.926   6.823   0.274
 6850TIP3    H220492   3.788   6.773   0.309
 6851TIP3   OH220493   2.580   6.228   1.149
 6851TIP3    H120494   2.659   6.259   1.193
 6851TIP3    H220495   2.557   6.298   1.089
 6852TIP3   OH220496   1.339   7.534   6.750
 6852TIP3    H120497   1.262   7.590   6.762
 6852TIP3    H220498   1.348   7.488   6.833
 6853TIP3   OH220499   5.897   4.150   1.111
 6853TIP3    H120500   5.991   4.137   1.124
 6853TIP3    H220501   5.892   4.230   1.058
 6854TIP3   OH220502   2.651   1.360   1.158
 6854TIP3    H120503   2.727   1.301   1.159
 6854TIP3    H220504   2.578   1.305   1.129
 6855TIP3   OH220505   3.101   1.945   0.534
 6855TIP3    H120506   3.042   1.984   0.599
 6855TIP3    H220507   3.189   1.973   0.561
 6856TIP3   OH220508   5.830   2.832   2.827
 6856TIP3    H120509   5.737   2.843   2.847
 6856TIP3    H220510   5.835   2.845   2.732
 6857TIP3   OH220511   0.736   2.215   3.327
 6857TIP3    H120512   0.747   2.212   3.422
 6857TIP3    H220513   0.743   2.308   3.306
 6858TIP3   OH220514   8.340   4.475   2.656
 6858TIP3    H120515   8.302   4.562   2.667
 6858TIP3    H220516   8.361   4.446   2.744
 6859TIP3   OH220517   3.019   4.174   1.581
 6859TIP3    H120518   2.926   4.178   1.600
 6859TIP3    H220519   3.036   4.254   1.531
 6860TIP3   OH220520   4.045   1.341   2.757
 6860TIP3    H120521   3.987   1.303   2.824
 6860TIP3    H220522   4.085   1.266   2.714
 6861TIP3   OH220523   5.195   4.241   5.029
 6861TIP3    H120524   5.182   4.250   5.124
 6861TIP3    H220525   5.108   4.254   4.992
 6862TIP3   OH220526   2.658   4.309   3.766
 6862TIP3    H120527   2.636   4.325   3.858
 6862TIP3    H220528   2.586   4.256   3.733
 6863TIP3   OH220529   1.346   5.415   3.136
 6863TIP3    H120530   1.376   5.382   3.221
 6863TIP3    H220531   1.281   5.482   3.158
 6864TIP3   OH220532   0.305   0.368   2.083
 6864TIP3    H120533   0.378   0.397   2.029
 6864TIP3    H220534   0.231   0.359   2.023
 6865TIP3   OH220535   8.211   7.202   4.944
 6865TIP3    H120536   8.224   7.243   4.859
 6865TIP3    H220537   8.231   7.110   4.929
 6866TIP3   OH220538   6.713   0.755   0.054
 6866TIP3    H120539   6.723   0.692  -0.018
 6866TIP3    H220540   6.637   0.723   0.103
 6867TIP3   OH220541   6.808   4.888   2.775
 6867TIP3    H120542   6.777   4.960   2.719
 6867TIP3    H220543   6.878   4.846   2.725
 6868TIP3   OH220544   2.142   4.722   4.217
 6868TIP3    H120545   2.219   4.670   4.240
 6868TIP3    H220546   2.070   4.660   4.217
 6869TIP3   OH220547   5.806   5.082   4.242
 6869TIP3    H120548   5.779   5.021   4.173
 6869TIP3    H220549   5.762   5.164   4.220
 6870TIP3   OH220550   2.119   1.315   5.056
 6870TIP3    H120551   2.105   1.222   5.041
 6870TIP3    H220552   2.213   1.328   5.039
 6871TIP3   OH220553   5.659   3.969   4.305
 6871TIP3    H120554   5.724   3.912   4.345
 6871TIP3    H220555   5.604   3.998   4.378
 6872TIP3   OH220556   7.154   4.830   4.616
 6872TIP3    H120557   7.126   4.807   4.705
 6872TIP3    H220558   7.162   4.746   4.572
 6873TIP3   OH220559   6.801   4.759   3.904
 6873TIP3    H120560   6.864   4.770   3.833
 6873TIP3    H220561   6.855   4.758   3.983
 6874TIP3   OH220562   2.070   5.066   0.753
 6874TIP3    H120563   2.084   5.138   0.814
 6874TIP3    H220564   2.137   5.002   0.776
 6875TIP3   OH220565   4.665   0.098   2.462
 6875TIP3    H120566   4.649   0.025   2.521
 6875TIP3    H220567   4.594   0.093   2.398
 6876TIP3   OH220568   3.449   3.959   3.294
 6876TIP3    H120569   3.545   3.969   3.299
 6876TIP3    H220570   3.420   4.036   3.246
 6877TIP3   OH220571   4.211   5.017   4.529
 6877TIP3    H120572   4.230   4.941   4.475
 6877TIP3    H220573   4.287   5.075   4.518
 6878TIP3   OH220574   5.750   5.502   5.897
 6878TIP3    H120575   5.714   5.414   5.903
 6878TIP3    H220576   5.702   5.553   5.963
 6879TIP3   OH220577   2.268   3.332   0.789
 6879TIP3    H120578   2.294   3.372   0.872
 6879TIP3    H220579   2.181   3.366   0.773
 6880TIP3   OH220580   6.670   2.799   3.253
 6880TIP3    H120581   6.582   2.827   3.277
 6880TIP3    H220582   6.698   2.864   3.188
 6881TIP3   OH220583   7.543   4.115   3.303
 6881TIP3    H120584   7.627   4.094   3.262
 6881TIP3    H220585   7.554   4.204   3.337
 6882TIP3   OH220586   2.202   5.125   2.035
 6882TIP3    H120587   2.183   5.216   2.013
 6882TIP3    H220588   2.298   5.120   2.035
 6883TIP3   OH220589   4.230   1.712   6.648
 6883TIP3    H120590   4.162   1.644   6.647
 6883TIP3    H220591   4.181   1.794   6.650
 6884TIP3   OH220592   2.542   4.976   2.638
 6884TIP3    H120593   2.495   4.952   2.558
 6884TIP3    H220594   2.604   5.044   2.610
 6885TIP3   OH220595   2.237   5.589   5.006
 6885TIP3    H120596   2.252   5.653   4.936
 6885TIP3    H220597   2.325   5.563   5.034
 6886TIP3   OH220598   5.634   6.683   1.488
 6886TIP3    H120599   5.621   6.709   1.579
 6886TIP3    H220600   5.563   6.726   1.440
 6887TIP3   OH220601   4.317   2.717   2.739
 6887TIP3    H120602   4.241   2.774   2.732
 6887TIP3    H220603   4.359   2.721   2.653
 6888TIP3   OH220604   4.232   5.462   3.072
 6888TIP3    H120605   4.228   5.368   3.056
 6888TIP3    H220606   4.232   5.501   2.984
 6889TIP3   OH220607   2.635   0.071   4.185
 6889TIP3    H120608   2.691   0.000   4.218
 6889TIP3    H220609   2.658   0.080   4.093
 6890TIP3   OH220610   0.206   2.538   5.111
 6890TIP3    H120611   0.194   2.511   5.020
 6890TIP3    H220612   0.122   2.520   5.153
 6891TIP3   OH220613   3.396   7.784   3.575
 6891TIP3    H120614   3.479   7.832   3.567
 6891TIP3    H220615   3.381   7.777   3.669
 6892TIP3   OH220616   5.917   6.101   4.913
 6892TIP3    H120617   5.902   6.153   4.992
 6892TIP3    H220618   5.962   6.022   4.943
 6893TIP3   OH220619   0.489   4.941   0.168
 6893TIP3    H120620   0.541   4.949   0.247
 6893TIP3    H220621   0.545   4.975   0.098
 6894TIP3   OH220622   0.414   4.483   5.104
 6894TIP3    H120623   0.371   4.404   5.138
 6894TIP3    H220624   0.383   4.553   5.161
 6895TIP3   OH220625   1.015   6.459   0.219
 6895TIP3    H120626   1.105   6.472   0.187
 6895TIP3    H220627   1.016   6.495   0.307
 6896TIP3   OH220628   7.889   5.352   0.571
 6896TIP3    H120629   7.939   5.432   0.556
 6896TIP3    H220630   7.799   5.374   0.545
 6897TIP3   OH220631   2.798   5.060   5.480
 6897TIP3    H120632   2.703   5.057   5.469
 6897TIP3    H220633   2.813   5.136   5.537
 6898TIP3   OH220634   7.840   2.209   5.112
 6898TIP3    H120635   7.836   2.275   5.181
 6898TIP3    H220636   7.769   2.149   5.133
 6899TIP3   OH220637   4.597   1.527   1.533
 6899TIP3    H120638   4.658   1.457   1.509
 6899TIP3    H220639   4.628   1.603   1.483
 6900TIP3   OH220640   3.084   3.529   1.772
 6900TIP3    H120641   3.037   3.447   1.757
 6900TIP3    H220642   3.015   3.593   1.792
 6901TIP3   OH220643   0.592   7.041   1.654
 6901TIP3    H120644   0.542   7.116   1.686
 6901TIP3    H220645   0.650   7.078   1.587
 6902TIP3   OH220646   4.874   3.682   0.169
 6902TIP3    H120647   4.958   3.690   0.214
 6902TIP3    H220648   4.887   3.729   0.086
 6903TIP3   OH220649   7.257   6.302   3.913
 6903TIP3    H120650   7.223   6.363   3.978
 6903TIP3    H220651   7.260   6.353   3.832
 6904TIP3   OH220652   7.300   1.085   3.075
 6904TIP3    H120653   7.366   1.033   3.121
 6904TIP3    H220654   7.218   1.035   3.087
 6905TIP3   OH220655   0.125   6.728   3.770
 6905TIP3    H120656   0.216   6.702   3.757
 6905TIP3    H220657   0.130   6.810   3.818
 6906TIP3   OH220658   3.944   3.115   0.106
 6906TIP3    H120659   3.910   3.188   0.054
 6906TIP3    H220660   3.967   3.154   0.190
 6907TIP3   OH220661   3.803   5.777   0.466
 6907TIP3    H120662   3.851   5.698   0.442
 6907TIP3    H220663   3.748   5.796   0.391
 6908TIP3   OH220664   4.147   3.170   2.545
 6908TIP3    H120665   4.237   3.148   2.568
 6908TIP3    H220666   4.139   3.263   2.563
 6909TIP3   OH220667   4.357   2.527   3.122
 6909TIP3    H120668   4.326   2.480   3.045
 6909TIP3    H220669   4.300   2.497   3.193
 6910TIP3   OH220670   4.894   1.712   4.521
 6910TIP3    H120671   4.924   1.707   4.612
 6910TIP3    H220672   4.870   1.623   4.498
 6911TIP3   OH220673   6.117   3.737   4.391
 6911TIP3    H120674   6.175   3.735   4.314
 6911TIP3    H220675   6.174   3.713   4.464
 6912TIP3   OH220676   7.991   3.513   5.975
 6912TIP3    H120677   7.974   3.578   6.044
 6912TIP3    H220678   7.918   3.523   5.914
 6913TIP3   OH220679   8.304   4.512   1.179
 6913TIP3    H120680   8.326   4.565   1.255
 6913TIP3    H220681   8.313   4.422   1.209
 6914TIP3   OH220682   0.184   3.892   3.956
 6914TIP3    H120683   0.089   3.905   3.947
 6914TIP3    H220684   0.195   3.858   4.045
 6915TIP3   OH220685   5.842   2.860   1.476
 6915TIP3    H120686   5.758   2.877   1.433
 6915TIP3    H220687   5.820   2.843   1.567
 6916TIP3   OH220688   0.453   7.662   3.667
 6916TIP3    H120689   0.388   7.693   3.604
 6916TIP3    H220690   0.525   7.630   3.612
 6917TIP3   OH220691   8.129   1.160   6.083
 6917TIP3    H120692   8.061   1.225   6.068
 6917TIP3    H220693   8.202   1.210   6.119
 6918TIP3   OH220694   4.203   2.626   1.184
 6918TIP3    H120695   4.279   2.581   1.220
 6918TIP3    H220696   4.131   2.563   1.192
 6919TIP3   OH220697   1.985   3.689   5.797
 6919TIP3    H120698   1.926   3.688   5.872
 6919TIP3    H220699   2.067   3.650   5.829
 6920TIP3   OH220700   0.515   4.013   1.882
 6920TIP3    H120701   0.519   3.917   1.884
 6920TIP3    H220702   0.466   4.037   1.961
 6921TIP3   OH220703   0.125   0.990   3.084
 6921TIP3    H120704   0.191   0.946   3.137
 6921TIP3    H220705   0.085   0.920   3.033
 6922TIP3   OH220706   0.871   3.842   2.969
 6922TIP3    H120707   0.900   3.754   2.995
 6922TIP3    H220708   0.849   3.885   3.051
 6923TIP3   OH220709   5.027   1.229   1.231
 6923TIP3    H120710   5.074   1.256   1.152
 6923TIP3    H220711   5.096   1.213   1.295
 6924TIP3   OH220712   2.291   4.797   0.562
 6924TIP3    H120713   2.290   4.705   0.535
 6924TIP3    H220714   2.384   4.818   0.571
 6925TIP3   OH220715   4.846   0.555   6.503
 6925TIP3    H120716   4.824   0.644   6.478
 6925TIP3    H220717   4.829   0.503   6.425
 6926TIP3   OH220718   4.188   7.092   1.952
 6926TIP3    H120719   4.134   7.143   1.892
 6926TIP3    H220720   4.200   7.008   1.907
 6927TIP3   OH220721   5.230   2.954   3.643
 6927TIP3    H120722   5.236   2.981   3.734
 6927TIP3    H220723   5.314   2.979   3.604
 6928TIP3   OH220724   6.852   7.405   5.061
 6928TIP3    H120725   6.899   7.389   5.143
 6928TIP3    H220726   6.789   7.333   5.055
 6929TIP3   OH220727   1.395   0.679   4.069
 6929TIP3    H120728   1.411   0.638   3.984
 6929TIP3    H220729   1.450   0.629   4.130
 6930TIP3   OH220730   1.464   4.003   6.345
 6930TIP3    H120731   1.546   3.955   6.360
 6930TIP3    H220732   1.492   4.084   6.303
 6931TIP3   OH220733   1.982   2.755   0.110
 6931TIP3    H120734   1.891   2.727   0.106
 6931TIP3    H220735   1.986   2.813   0.186
 6932TIP3   OH220736   7.563   4.987   6.174
 6932TIP3    H120737   7.513   5.050   6.226
 6932TIP3    H220738   7.629   5.040   6.129
 6933TIP3   OH220739   6.089   5.542   4.207
 6933TIP3    H120740   6.079   5.458   4.253
 6933TIP3    H220741   6.002   5.582   4.213
 6934TIP3   OH220742   1.415   4.214   6.819
 6934TIP3    H120743   1.392   4.125   6.847
 6934TIP3    H220744   1.450   4.202   6.731
 6935TIP3   OH220745   6.129   0.180   2.270
 6935TIP3    H120746   6.194   0.116   2.238
 6935TIP3    H220747   6.051   0.163   2.217
 6936TIP3   OH220748   5.706   6.910   2.397
 6936TIP3    H120749   5.709   6.990   2.449
 6936TIP3    H220750   5.798   6.881   2.393
 6937TIP3   OH220751   4.017   4.387   3.095
 6937TIP3    H120752   3.969   4.359   3.173
 6937TIP3    H220753   3.950   4.425   3.038
 6938TIP3   OH220754   6.088   3.975   0.287
 6938TIP3    H120755   6.060   3.949   0.375
 6938TIP3    H220756   6.080   3.895   0.235
 6939TIP3   OH220757   4.305   4.359   3.096
 6939TIP3    H120758   4.346   4.290   3.149
 6939TIP3    H220759   4.215   4.330   3.085
 6940TIP3   OH220760   8.003   3.620   5.615
 6940TIP3    H120761   7.925   3.597   5.564
 6940TIP3    H220762   7.982   3.705   5.655
 6941TIP3   OH220763   6.301   1.653   3.001
 6941TIP3    H120764   6.310   1.570   2.956
 6941TIP3    H220765   6.321   1.719   2.935
 6942TIP3   OH220766   0.941   0.307   5.877
 6942TIP3    H120767   0.865   0.314   5.820
 6942TIP3    H220768   0.906   0.320   5.965
 6943TIP3   OH220769   3.297   3.231   5.414
 6943TIP3    H120770   3.390   3.206   5.413
 6943TIP3    H220771   3.266   3.210   5.325
 6944TIP3   OH220772   0.865   5.390   6.157
 6944TIP3    H120773   0.889   5.352   6.072
 6944TIP3    H220774   0.857   5.484   6.140
 6945TIP3   OH220775   3.692   3.071   4.583
 6945TIP3    H120776   3.766   3.071   4.523
 6945TIP3    H220777   3.639   3.147   4.556
 6946TIP3   OH220778   6.740   1.334   5.307
 6946TIP3    H120779   6.645   1.324   5.314
 6946TIP3    H220780   6.769   1.352   5.397
 6947TIP3   OH220781   5.842   2.236   0.286
 6947TIP3    H120782   5.778   2.170   0.313
 6947TIP3    H220783   5.845   2.297   0.359
 6948TIP3   OH220784   6.732   1.936   5.036
 6948TIP3    H120785   6.740   1.941   5.132
 6948TIP3    H220786   6.675   1.861   5.021
 6949TIP3   OH220787   4.432   7.669   5.495
 6949TIP3    H120788   4.473   7.748   5.458
 6949TIP3    H220789   4.347   7.663   5.450
 6950TIP3   OH220790   0.787   1.288   0.176
 6950TIP3    H120791   0.714   1.326   0.127
 6950TIP3    H220792   0.831   1.363   0.216
 6951TIP3   OH220793   3.636   5.036   1.442
 6951TIP3    H120794   3.688   5.109   1.408
 6951TIP3    H220795   3.669   5.023   1.531
 6952TIP3   OH220796   1.337   6.480   5.803
 6952TIP3    H120797   1.377   6.563   5.829
 6952TIP3    H220798   1.301   6.497   5.716
 6953TIP3   OH220799   4.775   3.295   0.552
 6953TIP3    H120800   4.723   3.302   0.472
 6953TIP3    H220801   4.851   3.351   0.537
 6954TIP3   OH220802   1.882   6.707   4.602
 6954TIP3    H120803   1.866   6.706   4.508
 6954TIP3    H220804   1.922   6.792   4.618
 6955TIP3   OH220805   1.206   5.774   1.775
 6955TIP3    H120806   1.130   5.759   1.830
 6955TIP3    H220807   1.189   5.722   1.696
 6956TIP3   OH220808   2.580   3.160   0.245
 6956TIP3    H120809   2.598   3.108   0.323
 6956TIP3    H220810   2.658   3.150   0.191
 6957TIP3   OH220811   6.277   6.804   3.001
 6957TIP3    H120812   6.261   6.897   3.016
 6957TIP3    H220813   6.191   6.768   2.979
 6958TIP3   OH220814   1.677   4.734   2.685
 6958TIP3    H120815   1.747   4.757   2.624
 6958TIP3    H220816   1.719   4.736   2.771
 6959TIP3   OH220817   5.025   3.329   0.168
 6959TIP3    H120818   4.931   3.348   0.167
 6959TIP3    H220819   5.066   3.412   0.189
 6960TIP3   OH220820   5.378   0.663   2.343
 6960TIP3    H120821   5.362   0.569   2.351
 6960TIP3    H220822   5.309   0.703   2.395
 6961TIP3   OH220823   1.369   3.791   5.489
 6961TIP3    H120824   1.275   3.779   5.502
 6961TIP3    H220825   1.397   3.710   5.446
 6962TIP3   OH220826   7.748   3.545   5.530
 6962TIP3    H120827   7.714   3.524   5.443
 6962TIP3    H220828   7.724   3.469   5.583
 6963TIP3   OH220829   7.202   0.888   5.894
 6963TIP3    H120830   7.134   0.948   5.925
 6963TIP3    H220831   7.157   0.830   5.833
 6964TIP3   OH220832   1.154   0.154   3.186
 6964TIP3    H120833   1.243   0.150   3.222
 6964TIP3    H220834   1.162   0.211   3.110
 6965TIP3   OH220835   2.882   2.803   1.223
 6965TIP3    H120836   2.848   2.791   1.135
 6965TIP3    H220837   2.955   2.742   1.230
 6966TIP3   OH220838   4.435   7.225   0.869
 6966TIP3    H120839   4.491   7.208   0.945
 6966TIP3    H220840   4.461   7.311   0.838
 6967TIP3   OH220841   1.760   4.347   4.346
 6967TIP3    H120842   1.780   4.326   4.437
 6967TIP3    H220843   1.829   4.407   4.319
 6968TIP3   OH220844   3.859   3.477   6.149
 6968TIP3    H120845   3.777   3.473   6.100
 6968TIP3    H220846   3.915   3.412   6.108
 6969TIP3   OH220847   6.249   3.557   1.915
 6969TIP3    H120848   6.172   3.518   1.872
 6969TIP3    H220849   6.213   3.604   1.990
 6970TIP3   OH220850   1.430   1.802   1.952
 6970TIP3    H120851   1.431   1.729   2.015
 6970TIP3    H220852   1.376   1.869   1.993
 6971TIP3   OH220853   1.419   2.785   1.923
 6971TIP3    H120854   1.449   2.701   1.890
 6971TIP3    H220855   1.344   2.764   1.978
 6972TIP3   OH220856   2.672   0.452   0.263
 6972TIP3    H120857   2.719   0.534   0.247
 6972TIP3    H220858   2.739   0.384   0.255
 6973TIP3   OH220859   0.435   1.828   3.364
 6973TIP3    H120860   0.433   1.814   3.269
 6973TIP3    H220861   0.466   1.745   3.400
 6974TIP3   OH220862   2.629   6.104   1.954
 6974TIP3    H120863   2.656   6.021   1.915
 6974TIP3    H220864   2.631   6.166   1.881
 6975TIP3   OH220865   4.936   3.070   0.625
 6975TIP3    H120866   4.901   3.046   0.711
 6975TIP3    H220867   4.882   3.145   0.598
 6976TIP3   OH220868   6.373   7.374   4.069
 6976TIP3    H120869   6.406   7.329   3.991
 6976TIP3    H220870   6.449   7.384   4.125
 6977TIP3   OH220871   7.255   4.921   6.526
 6977TIP3    H120872   7.161   4.906   6.516
 6977TIP3    H220873   7.293   4.888   6.445
 6978TIP3   OH220874   7.455   7.314   2.035
 6978TIP3    H120875   7.388   7.371   1.998
 6978TIP3    H220876   7.408   7.235   2.060
 6979TIP3   OH220877   6.006   1.407   6.325
 6979TIP3    H120878   6.101   1.415   6.338
 6979TIP3    H220879   5.984   1.323   6.365
 6980TIP3   OH220880   4.430   4.008   4.299
 6980TIP3    H120881   4.454   3.948   4.369
 6980TIP3    H220882   4.407   3.952   4.225
 6981TIP3   OH220883   0.995   4.162   5.242
 6981TIP3    H120884   0.937   4.087   5.250
 6981TIP3    H220885   1.053   4.140   5.170
 6982TIP3   OH220886   6.666   5.053   4.083
 6982TIP3    H120887   6.583   5.009   4.065
 6982TIP3    H220888   6.641   5.136   4.123
 6983TIP3   OH220889   6.991   5.895   1.381
 6983TIP3    H120890   7.027   5.943   1.456
 6983TIP3    H220891   6.983   5.961   1.312
 6984TIP3   OH220892   0.794   1.098   2.208
 6984TIP3    H120893   0.729   1.077   2.276
 6984TIP3    H220894   0.815   1.190   2.222
 6985TIP3   OH220895   6.702   2.046   2.185
 6985TIP3    H120896   6.731   2.077   2.099
 6985TIP3    H220897   6.724   1.953   2.186
 6986TIP3   OH220898   6.983   3.686   2.454
 6986TIP3    H120899   6.976   3.639   2.371
 6986TIP3    H220900   7.061   3.740   2.446
 6987TIP3   OH220901   3.453   7.744   6.572
 6987TIP3    H120902   3.465   7.668   6.629
 6987TIP3    H220903   3.453   7.819   6.630
 6988TIP3   OH220904   3.408   0.770   0.929
 6988TIP3    H120905   3.470   0.705   0.962
 6988TIP3    H220906   3.326   0.722   0.921
 6989TIP3   OH220907   4.772   6.421   5.762
 6989TIP3    H120908   4.865   6.441   5.759
 6989TIP3    H220909   4.750   6.398   5.671
 6990TIP3   OH220910   1.033   6.611   0.841
 6990TIP3    H120911   1.118   6.600   0.884
 6990TIP3    H220912   1.047   6.682   0.778
 6991TIP3   OH220913   4.165   5.497   3.980
 6991TIP3    H120914   4.091   5.531   4.031
 6991TIP3    H220915   4.234   5.562   3.991
 6992TIP3   OH220916   3.877   3.786   3.253
 6992TIP3    H120917   3.796   3.786   3.202
 6992TIP3    H220918   3.946   3.796   3.188
 6993TIP3   OH220919   1.372   3.294   0.924
 6993TIP3    H120920   1.355   3.322   1.014
 6993TIP3    H220921   1.458   3.252   0.928
 6994TIP3   OH220922   3.031   6.023   2.033
 6994TIP3    H120923   3.053   5.987   2.119
 6994TIP3    H220924   2.966   5.962   1.998
 6995TIP3   OH220925   3.082   7.115   2.260
 6995TIP3    H120926   2.997   7.080   2.288
 6995TIP3    H220927   3.143   7.088   2.328
 6996TIP3   OH220928   4.450   6.841   0.159
 6996TIP3    H120929   4.516   6.788   0.203
 6996TIP3    H220930   4.395   6.777   0.112
 6997TIP3   OH220931   4.329   1.069   4.704
 6997TIP3    H120932   4.376   1.149   4.731
 6997TIP3    H220933   4.397   1.013   4.667
 6998TIP3   OH220934   0.932   7.201   6.046
 6998TIP3    H120935   0.949   7.152   5.965
 6998TIP3    H220936   1.017   7.237   6.069
 6999TIP3   OH220937   3.555   5.069   3.664
 6999TIP3    H120938   3.577   5.140   3.603
 6999TIP3    H220939   3.622   5.002   3.647
 7000TIP3   OH220940   7.868   4.079   3.484
 7000TIP3    H120941   7.805   4.125   3.538
 7000TIP3    H220942   7.948   4.131   3.491
 7001TIP3   OH220943   1.425   6.500   3.856
 7001TIP3    H120944   1.367   6.439   3.811
 7001TIP3    H220945   1.511   6.460   3.850
 7002TIP3   OH220946   4.421   4.907   1.154
 7002TIP3    H120947   4.410   4.823   1.199
 7002TIP3    H220948   4.335   4.926   1.116
 7003TIP3   OH220949   3.589   1.970   4.983
 7003TIP3    H120950   3.631   2.052   5.008
 7003TIP3    H220951   3.517   1.960   5.046
 7004TIP3   OH220952   0.044   6.122   5.655
 7004TIP3    H120953  -0.032   6.079   5.694
 7004TIP3    H220954   0.058   6.075   5.573
 7005TIP3   OH220955   3.978   5.058   5.532
 7005TIP3    H120956   4.037   5.108   5.589
 7005TIP3    H220957   4.037   5.006   5.477
 7006TIP3   OH220958   5.060   0.672   0.781
 7006TIP3    H120959   5.155   0.669   0.787
 7006TIP3    H220960   5.039   0.622   0.701
 7007TIP3   OH220961   1.677   2.162   5.589
 7007TIP3    H120962   1.657   2.128   5.676
 7007TIP3    H220963   1.699   2.085   5.537
 7008TIP3   OH220964   4.713   5.039   1.885
 7008TIP3    H120965   4.690   4.947   1.874
 7008TIP3    H220966   4.676   5.082   1.807
 7009TIP3   OH220967   1.929   6.603   0.882
 7009TIP3    H120968   1.995   6.638   0.822
 7009TIP3    H220969   1.953   6.639   0.967
 7010TIP3   OH220970   1.664   7.605   0.341
 7010TIP3    H120971   1.577   7.626   0.376
 7010TIP3    H220972   1.722   7.668   0.384
 7011TIP3   OH220973   6.587   6.147   3.553
 7011TIP3    H120974   6.540   6.067   3.530
 7011TIP3    H220975   6.559   6.166   3.642
 7012TIP3   OH220976   4.222   3.519   3.136
 7012TIP3    H120977   4.246   3.487   3.223
 7012TIP3    H220978   4.301   3.562   3.104
 7013TIP3   OH220979   3.088   0.599   4.881
 7013TIP3    H120980   3.088   0.559   4.968
 7013TIP3    H220981   3.101   0.526   4.821
 7014TIP3   OH220982   2.031   4.164   1.291
 7014TIP3    H120983   2.055   4.072   1.304
 7014TIP3    H220984   2.059   4.208   1.371
 7015TIP3   OH220985   4.792   6.247   1.597
 7015TIP3    H120986   4.721   6.228   1.536
 7015TIP3    H220987   4.770   6.197   1.676
 7016TIP3   OH220988   6.282   1.900   6.196
 7016TIP3    H120989   6.189   1.922   6.186
 7016TIP3    H220990   6.285   1.805   6.195
 7017TIP3   OH220991   6.722   3.237   3.408
 7017TIP3    H120992   6.799   3.275   3.449
 7017TIP3    H220993   6.676   3.193   3.479
 7018TIP3   OH220994   6.677   6.434   3.909
 7018TIP3    H120995   6.612   6.414   3.976
 7018TIP3    H220996   6.721   6.351   3.892
 7019TIP3   OH220997   6.570   0.577   3.940
 7019TIP3    H120998   6.595   0.622   4.021
 7019TIP3    H220999   6.652   0.548   3.901
 7020TIP3   OH221000   6.409   1.874   2.445
 7020TIP3    H121001   6.334   1.817   2.431
 7020TIP3    H221002   6.370   1.959   2.466
 7021TIP3   OH221003   0.991   3.354   1.158
 7021TIP3    H121004   0.977   3.281   1.098
 7021TIP3    H221005   1.015   3.427   1.101
 7022TIP3   OH221006   2.065   3.934   3.513
 7022TIP3    H121007   2.008   3.894   3.579
 7022TIP3    H221008   2.019   3.920   3.430
 7023TIP3   OH221009   1.368   3.569   6.325
 7023TIP3    H121010   1.335   3.653   6.358
 7023TIP3    H221011   1.390   3.519   6.404
 7024TIP3   OH221012   3.693   5.196   3.370
 7024TIP3    H121013   3.720   5.284   3.394
 7024TIP3    H221014   3.597   5.198   3.375
 7025TIP3   OH221015   7.549   3.713   0.138
 7025TIP3    H121016   7.521   3.624   0.117
 7025TIP3    H221017   7.561   3.755   0.054
 7026TIP3   OH221018   2.217   3.728   2.950
 7026TIP3    H121019   2.218   3.634   2.930
 7026TIP3    H221020   2.276   3.737   3.025
 7027TIP3   OH221021   6.069   4.763   6.210
 7027TIP3    H121022   6.002   4.710   6.251
 7027TIP3    H221023   6.021   4.834   6.167
 7028TIP3   OH221024   4.144   6.381   0.131
 7028TIP3    H121025   4.104   6.304   0.091
 7028TIP3    H221026   4.231   6.386   0.090
 7029TIP3   OH221027   2.570   1.021   5.489
 7029TIP3    H121028   2.504   0.954   5.474
 7029TIP3    H221029   2.649   0.973   5.513
 7030TIP3   OH221030   5.580   4.355   1.052
 7030TIP3    H121031   5.586   4.417   1.125
 7030TIP3    H221032   5.602   4.270   1.091
 7031TIP3   OH221033   2.627   4.143   2.999
 7031TIP3    H121034   2.629   4.064   3.053
 7031TIP3    H221035   2.719   4.166   2.988
 7032TIP3   OH221036   0.851   6.901   6.164
 7032TIP3    H121037   0.918   6.958   6.124
 7032TIP3    H221038   0.875   6.813   6.135
 7033TIP3   OH221039   3.914   4.526   5.845
 7033TIP3    H121040   3.845   4.468   5.811
 7033TIP3    H221041   3.995   4.485   5.816
 7034TIP3   OH221042   1.820   0.501   4.003
 7034TIP3    H121043   1.889   0.515   3.938
 7034TIP3    H221044   1.808   0.406   4.006
 7035TIP3   OH221045   5.208   6.985   2.398
 7035TIP3    H121046   5.272   6.916   2.418
 7035TIP3    H221047   5.213   7.044   2.473
 7036TIP3   OH221048   4.799   4.992   4.912
 7036TIP3    H121049   4.881   4.968   4.869
 7036TIP3    H221050   4.790   4.931   4.984
 7037TIP3   OH221051   5.790   7.504   3.326
 7037TIP3    H121052   5.784   7.576   3.389
 7037TIP3    H221053   5.734   7.435   3.363
 7038TIP3   OH221054   5.178   7.285   0.997
 7038TIP3    H121055   5.215   7.368   0.966
 7038TIP3    H221056   5.154   7.302   1.088
 7039TIP3   OH221057   7.562   0.602   1.623
 7039TIP3    H121058   7.531   0.689   1.649
 7039TIP3    H221059   7.629   0.619   1.557
 7040TIP3   OH221060   6.016   1.943   5.370
 7040TIP3    H121061   6.066   2.025   5.374
 7040TIP3    H221062   6.077   1.879   5.335
 7041TIP3   OH221063   3.685   0.057   2.916
 7041TIP3    H121064   3.658   0.042   2.825
 7041TIP3    H221065   3.697   0.152   2.922
 7042TIP3   OH221066   7.648   0.266   1.276
 7042TIP3    H121067   7.662   0.353   1.315
 7042TIP3    H221068   7.714   0.260   1.207
 7043TIP3   OH221069   5.657   3.379   4.480
 7043TIP3    H121070   5.666   3.324   4.402
 7043TIP3    H221071   5.683   3.466   4.452
 7044TIP3   OH221072   2.644   2.097   2.006
 7044TIP3    H121073   2.734   2.069   1.988
 7044TIP3    H221074   2.649   2.140   2.091
 7045TIP3   OH221075   6.526   2.810   4.145
 7045TIP3    H121076   6.445   2.838   4.187
 7045TIP3    H221077   6.560   2.889   4.102
 7046TIP3   OH221078   5.834   5.705   1.265
 7046TIP3    H121079   5.768   5.663   1.210
 7046TIP3    H221080   5.839   5.649   1.342
 7047TIP3   OH221081   6.231   2.774   5.626
 7047TIP3    H121082   6.232   2.688   5.669
 7047TIP3    H221083   6.314   2.778   5.578
 7048TIP3   OH221084   1.396   7.577   3.727
 7048TIP3    H121085   1.429   7.664   3.702
 7048TIP3    H221086   1.308   7.574   3.691
 7049TIP3   OH221087   5.501   4.518   2.032
 7049TIP3    H121088   5.421   4.477   1.999
 7049TIP3    H221089   5.506   4.491   2.124
 7050TIP3   OH221090   2.919   2.721   6.485
 7050TIP3    H121091   2.856   2.651   6.503
 7050TIP3    H221092   2.866   2.800   6.476
 7051TIP3   OH221093   4.180   6.102   3.173
 7051TIP3    H121094   4.113   6.164   3.144
 7051TIP3    H221095   4.183   6.113   3.268
 7052TIP3   OH221096   3.956   1.603   5.918
 7052TIP3    H121097   3.945   1.590   6.012
 7052TIP3    H221098   4.042   1.565   5.899
 7053TIP3   OH221099   0.048   5.333   6.575
 7053TIP3    H121100   0.132   5.302   6.608
 7053TIP3    H221101   0.065   5.359   6.485
 7054TIP3   OH221102   0.959   4.709   0.407
 7054TIP3    H121103   0.943   4.624   0.366
 7054TIP3    H221104   1.048   4.701   0.442
 7055TIP3   OH221105   6.394   6.716   3.421
 7055TIP3    H121106   6.343   6.635   3.426
 7055TIP3    H221107   6.362   6.769   3.495
 7056TIP3   OH221108   7.430   7.663   6.035
 7056TIP3    H121109   7.351   7.653   5.981
 7056TIP3    H221110   7.500   7.625   5.981
 7057TIP3   OH221111   7.862   0.842   3.374
 7057TIP3    H121112   7.887   0.865   3.284
 7057TIP3    H221113   7.942   0.853   3.425
 7058TIP3   OH221114   5.880   0.797   2.219
 7058TIP3    H121115   5.789   0.807   2.246
 7058TIP3    H221116   5.891   0.703   2.207
 7059TIP3   OH221117   5.118   6.195   2.218
 7059TIP3    H121118   5.149   6.178   2.307
 7059TIP3    H221119   5.162   6.129   2.164
 7060TIP3   OH221120   2.945   3.039   3.634
 7060TIP3    H121121   3.009   3.069   3.570
 7060TIP3    H221122   2.879   2.993   3.581
 7061TIP3   OH221123   7.581   2.607   5.425
 7061TIP3    H121124   7.647   2.673   5.405
 7061TIP3    H221125   7.528   2.600   5.345
 7062TIP3   OH221126   4.413   6.686   3.760
 7062TIP3    H121127   4.436   6.768   3.805
 7062TIP3    H221128   4.335   6.655   3.807
 7063TIP3   OH221129   5.508   0.347   1.438
 7063TIP3    H121130   5.597   0.314   1.445
 7063TIP3    H221131   5.473   0.343   1.527
 7064TIP3   OH221132   6.253   0.486   6.094
 7064TIP3    H121133   6.182   0.486   6.029
 7064TIP3    H221134   6.311   0.557   6.066
 7065TIP3   OH221135   7.132   2.095   3.335
 7065TIP3    H121136   7.066   2.102   3.266
 7065TIP3    H221137   7.171   2.182   3.340
 7066TIP3   OH221138   0.681   0.100   1.088
 7066TIP3    H121139   0.589   0.084   1.065
 7066TIP3    H221140   0.722   0.128   1.006
 7067TIP3   OH221141   7.179   3.477   3.433
 7067TIP3    H121142   7.149   3.559   3.472
 7067TIP3    H221143   7.101   3.423   3.425
 7068TIP3   OH221144   0.333   4.746   6.153
 7068TIP3    H121145   0.343   4.697   6.071
 7068TIP3    H221146   0.318   4.679   6.220
 7069TIP3   OH221147   5.366   5.068   6.561
 7069TIP3    H121148   5.307   5.002   6.599
 7069TIP3    H221149   5.342   5.149   6.606
 7070TIP3   OH221150   7.650   2.647   2.874
 7070TIP3    H121151   7.660   2.633   2.780
 7070TIP3    H221152   7.691   2.570   2.914
 7071TIP3   OH221153   2.461   0.621   2.918
 7071TIP3    H121154   2.556   0.615   2.921
 7071TIP3    H221155   2.442   0.678   2.844
 7072TIP3   OH221156   0.762   4.477   5.980
 7072TIP3    H121157   0.811   4.542   5.929
 7072TIP3    H221158   0.755   4.402   5.922
 7073TIP3   OH221159   7.773   7.763   3.642
 7073TIP3    H121160   7.728   7.685   3.675
 7073TIP3    H221161   7.722   7.836   3.676
 7074TIP3   OH221162   6.360   5.289   2.314
 7074TIP3    H121163   6.301   5.272   2.240
 7074TIP3    H221164   6.442   5.247   2.290
 7075TIP3   OH221165   1.437   6.827   3.531
 7075TIP3    H121166   1.407   6.763   3.466
 7075TIP3    H221167   1.361   6.840   3.588
 7076TIP3   OH221168   8.167   4.507   5.259
 7076TIP3    H121169   8.133   4.418   5.246
 7076TIP3    H221170   8.259   4.501   5.232
 7077TIP3   OH221171   1.714   0.627   2.547
 7077TIP3    H121172   1.689   0.581   2.467
 7077TIP3    H221173   1.678   0.574   2.618
 7078TIP3   OH221174   0.953   3.304   5.402
 7078TIP3    H121175   0.900   3.373   5.442
 7078TIP3    H221176   1.036   3.307   5.448
 7079TIP3   OH221177   0.667   6.072   5.281
 7079TIP3    H121178   0.667   6.100   5.372
 7079TIP3    H221179   0.759   6.074   5.255
 7080TIP3   OH221180   4.445   7.854   3.299
 7080TIP3    H121181   4.497   7.801   3.239
 7080TIP3    H221182   4.355   7.825   3.286
 7081TIP3   OH221183   3.496   4.915   3.157
 7081TIP3    H121184   3.452   4.902   3.240
 7081TIP3    H221185   3.489   5.009   3.140
 7082TIP3   OH221186   2.697   1.518   2.241
 7082TIP3    H121187   2.637   1.577   2.286
 7082TIP3    H221188   2.708   1.445   2.302
 7083TIP3   OH221189   1.108   6.490   1.585
 7083TIP3    H121190   1.190   6.529   1.613
 7083TIP3    H221191   1.121   6.474   1.491
 7084TIP3   OH221192   3.908   7.401   0.295
 7084TIP3    H121193   3.845   7.452   0.346
 7084TIP3    H221194   3.967   7.364   0.361
 7085TIP3   OH221195   7.782   4.027   3.228
 7085TIP3    H121196   7.843   4.038   3.302
 7085TIP3    H221197   7.823   3.959   3.174
 7086TIP3   OH221198   1.511   1.142   1.255
 7086TIP3    H121199   1.445   1.151   1.325
 7086TIP3    H221200   1.592   1.119   1.301
 7087TIP3   OH221201   4.628   6.782   0.390
 7087TIP3    H121202   4.687   6.780   0.465
 7087TIP3    H221203   4.637   6.870   0.354
 7088TIP3   OH221204   2.162   1.669   5.134
 7088TIP3    H121205   2.196   1.731   5.198
 7088TIP3    H221206   2.226   1.670   5.063
 7089TIP3   OH221207   7.962   1.724   6.036
 7089TIP3    H121208   7.870   1.742   6.017
 7089TIP3    H221209   7.962   1.697   6.128
 7090TIP3   OH221210   4.279   3.326   4.762
 7090TIP3    H121211   4.205   3.334   4.822
 7090TIP3    H221212   4.252   3.258   4.700
 7091TIP3   OH221213   8.050   6.333   5.124
 7091TIP3    H121214   8.018   6.422   5.111
 7091TIP3    H221215   8.012   6.306   5.208
 7092TIP3   OH221216   4.716   6.658   3.710
 7092TIP3    H121217   4.636   6.704   3.736
 7092TIP3    H221218   4.786   6.705   3.757
 7093TIP3   OH221219   0.796   1.358   5.643
 7093TIP3    H121220   0.776   1.267   5.623
 7093TIP3    H221221   0.892   1.362   5.642
 7094TIP3   OH221222   5.396   2.397   6.370
 7094TIP3    H121223   5.308   2.376   6.340
 7094TIP3    H221224   5.436   2.443   6.297
 7095TIP3   OH221225   6.891   7.164   2.001
 7095TIP3    H121226   6.937   7.123   1.927
 7095TIP3    H221227   6.892   7.257   1.981
 7096TIP3   OH221228   3.082   5.133   0.381
 7096TIP3    H121229   3.043   5.138   0.468
 7096TIP3    H221230   3.007   5.126   0.322
 7097TIP3   OH221231   1.883   2.676   5.118
 7097TIP3    H121232   1.954   2.720   5.071
 7097TIP3    H221233   1.852   2.740   5.181
 7098TIP3   OH221234   3.451   6.507   0.983
 7098TIP3    H121235   3.508   6.571   1.026
 7098TIP3    H221236   3.398   6.471   1.053
 7099TIP3   OH221237   5.482   0.013   0.619
 7099TIP3    H121238   5.403   0.051   0.658
 7099TIP3    H221239   5.476   0.035   0.526
 7100TIP3   OH221240   5.624   1.092   3.028
 7100TIP3    H121241   5.647   1.074   2.937
 7100TIP3    H221242   5.691   1.047   3.079
 7101TIP3   OH221243   7.591   6.598   5.106
 7101TIP3    H121244   7.554   6.648   5.179
 7101TIP3    H221245   7.653   6.538   5.148
 7102TIP3   OH221246   0.401   4.012   4.766
 7102TIP3    H121247   0.372   3.993   4.677
 7102TIP3    H221248   0.365   3.941   4.819
 7103TIP3   OH221249   5.359   3.800   4.487
 7103TIP3    H121250   5.302   3.798   4.564
 7103TIP3    H221251   5.331   3.877   4.438
 7104TIP3   OH221252   1.081   3.411   0.494
 7104TIP3    H121253   1.139   3.464   0.548
 7104TIP3    H221254   0.997   3.412   0.540
 7105TIP3   OH221255   6.303   5.289   6.498
 7105TIP3    H121256   6.369   5.312   6.564
 7105TIP3    H221257   6.293   5.194   6.507
 7106TIP3   OH221258   1.166   7.358   5.340
 7106TIP3    H121259   1.180   7.367   5.434
 7106TIP3    H221260   1.116   7.277   5.330
 7107TIP3   OH221261   4.581   0.972   4.245
 7107TIP3    H121262   4.566   0.998   4.154
 7107TIP3    H221263   4.503   0.921   4.268
 7108TIP3   OH221264   7.004   3.433   5.023
 7108TIP3    H121265   6.987   3.525   5.006
 7108TIP3    H221266   7.082   3.413   4.971
 7109TIP3   OH221267   1.230   3.406   3.179
 7109TIP3    H121268   1.303   3.351   3.149
 7109TIP3    H221269   1.228   3.393   3.274
 7110TIP3   OH221270   6.860   3.272   5.387
 7110TIP3    H121271   6.893   3.185   5.365
 7110TIP3    H221272   6.777   3.278   5.339
 7111TIP3   OH221273   7.640   2.892   2.411
 7111TIP3    H121274   7.610   2.965   2.357
 7111TIP3    H221275   7.559   2.853   2.447
 7112TIP3   OH221276   3.976   4.696   6.216
 7112TIP3    H121277   3.915   4.627   6.189
 7112TIP3    H221278   3.957   4.770   6.158
 7113TIP3   OH221279   7.772   3.678   5.064
 7113TIP3    H121280   7.712   3.727   5.008
 7113TIP3    H221281   7.839   3.742   5.089
 7114TIP3   OH221282   7.466   6.052   6.100
 7114TIP3    H121283   7.385   6.001   6.096
 7114TIP3    H221284   7.529   5.992   6.142
 7115TIP3   OH221285   2.334   2.690   2.941
 7115TIP3    H121286   2.272   2.619   2.950
 7115TIP3    H221287   2.381   2.692   3.025
 7116TIP3   OH221288   4.521   2.251   6.322
 7116TIP3    H121289   4.501   2.259   6.229
 7116TIP3    H221290   4.436   2.254   6.365
 7117TIP3   OH221291   2.990   1.756   6.796
 7117TIP3    H121292   2.933   1.806   6.854
 7117TIP3    H221293   2.954   1.667   6.798
 7118TIP3   OH221294   1.024   1.032   1.118
 7118TIP3    H121295   1.103   1.018   1.066
 7118TIP3    H221296   0.954   0.996   1.064
 7119TIP3   OH221297   5.357   6.951   6.784
 7119TIP3    H121298   5.375   7.039   6.751
 7119TIP3    H221299   5.264   6.937   6.767
 7120TIP3   OH221300   2.659   7.726   2.055
 7120TIP3    H121301   2.611   7.659   2.103
 7120TIP3    H221302   2.694   7.681   1.978
 7121TIP3   OH221303   7.274   2.057   0.314
 7121TIP3    H121304   7.251   2.145   0.283
 7121TIP3    H221305   7.214   1.999   0.268
 7122TIP3   OH221306   5.311   3.122   3.183
 7122TIP3    H121307   5.327   3.045   3.237
 7122TIP3    H221308   5.389   3.176   3.194
 7123TIP3   OH221309   1.690   2.190   5.962
 7123TIP3    H121310   1.696   2.099   5.933
 7123TIP3    H221311   1.596   2.208   5.965
 7124TIP3   OH221312   5.355   1.358   0.189
 7124TIP3    H121313   5.439   1.363   0.144
 7124TIP3    H221314   5.367   1.290   0.255
 7125TIP3   OH221315   7.148   1.820   1.098
 7125TIP3    H121316   7.061   1.822   1.139
 7125TIP3    H221317   7.153   1.902   1.049
 7126TIP3   OH221318   3.058   2.022   3.173
 7126TIP3    H121319   3.112   1.964   3.227
 7126TIP3    H221320   2.991   2.055   3.233
 7127TIP3   OH221321   1.928   0.613   6.144
 7127TIP3    H121322   1.874   0.647   6.215
 7127TIP3    H221323   1.982   0.687   6.116
 7128TIP3   OH221324   6.551   2.171   4.723
 7128TIP3    H121325   6.482   2.107   4.737
 7128TIP3    H221326   6.540   2.236   4.792
 7129TIP3   OH221327   5.828   2.108   4.448
 7129TIP3    H121328   5.815   2.117   4.543
 7129TIP3    H221329   5.912   2.062   4.440
 7130TIP3   OH221330   7.193   5.192   1.026
 7130TIP3    H121331   7.169   5.238   1.107
 7130TIP3    H221332   7.154   5.245   0.956
 7131TIP3   OH221333   5.143   7.625   2.711
 7131TIP3    H121334   5.153   7.612   2.617
 7131TIP3    H221335   5.141   7.721   2.722
 7132TIP3   OH221336   3.383   0.653   6.833
 7132TIP3    H121337   3.396   0.725   6.895
 7132TIP3    H221338   3.370   0.576   6.888
 7133TIP3   OH221339   5.584   7.411   3.466
 7133TIP3    H121340   5.641   7.432   3.540
 7133TIP3    H221341   5.508   7.369   3.507
 7134TIP3   OH221342   1.466   3.556   6.079
 7134TIP3    H121343   1.436   3.562   6.170
 7134TIP3    H221344   1.477   3.647   6.052
 7135TIP3   OH221345   0.974   3.668   1.286
 7135TIP3    H121346   0.896   3.640   1.333
 7135TIP3    H221347   1.045   3.615   1.323
 7136TIP3   OH221348   3.973   5.473   5.802
 7136TIP3    H121349   3.956   5.487   5.709
 7136TIP3    H221350   3.897   5.510   5.847
 7137TIP3   OH221351   3.601   6.471   0.738
 7137TIP3    H121352   3.535   6.471   0.807
 7137TIP3    H221353   3.641   6.384   0.744
 7138TIP3   OH221354   8.131   0.657   6.720
 7138TIP3    H121355   8.050   0.627   6.762
 7138TIP3    H221356   8.127   0.753   6.727
 7139TIP3   OH221357   6.443   1.934   5.096
 7139TIP3    H121358   6.480   1.932   5.184
 7139TIP3    H221359   6.491   1.866   5.049
 7140TIP3   OH221360   6.695   4.874   2.448
 7140TIP3    H121361   6.751   4.937   2.493
 7140TIP3    H221362   6.615   4.871   2.501
 7141TIP3   OH221363   4.001   1.907   3.354
 7141TIP3    H121364   3.908   1.928   3.356
 7141TIP3    H221365   4.034   1.935   3.439
 7142TIP3   OH221366   7.593   0.458   2.174
 7142TIP3    H121367   7.562   0.370   2.154
 7142TIP3    H221368   7.588   0.505   2.091
 7143TIP3   OH221369   6.390   3.791   2.968
 7143TIP3    H121370   6.458   3.752   2.913
 7143TIP3    H221371   6.425   3.787   3.057
 7144TIP3   OH221372   5.593   4.941   2.530
 7144TIP3    H121373   5.547   5.012   2.485
 7144TIP3    H221374   5.681   4.943   2.495
 7145TIP3   OH221375   3.634   0.109   6.170
 7145TIP3    H121376   3.644   0.203   6.183
 7145TIP3    H221377   3.630   0.073   6.259
 7146TIP3   OH221378   6.936   3.028   0.842
 7146TIP3    H121379   7.027   3.049   0.863
 7146TIP3    H221380   6.908   2.970   0.914
 7147TIP3   OH221381   1.118   1.018   3.619
 7147TIP3    H121382   1.092   1.076   3.691
 7147TIP3    H221383   1.161   1.076   3.556
 7148TIP3   OH221384   6.161   4.123   0.800
 7148TIP3    H121385   6.247   4.145   0.764
 7148TIP3    H221386   6.179   4.071   0.878
 7149TIP3   OH221387   0.588   6.234   6.481
 7149TIP3    H121388   0.625   6.150   6.509
 7149TIP3    H221389   0.662   6.294   6.480
 7150TIP3   OH221390   5.015   3.490   0.910
 7150TIP3    H121391   4.963   3.448   0.978
 7150TIP3    H221392   5.026   3.422   0.843
 7151TIP3   OH221393   7.139   6.134   3.626
 7151TIP3    H121394   7.190   6.127   3.545
 7151TIP3    H221395   7.082   6.210   3.612
 7152TIP3   OH221396   5.544   2.395   5.605
 7152TIP3    H121397   5.487   2.358   5.538
 7152TIP3    H221398   5.632   2.383   5.571
 7153TIP3   OH221399   0.215   1.509   3.035
 7153TIP3    H121400   0.261   1.429   3.011
 7153TIP3    H221401   0.253   1.534   3.119
 7154TIP3   OH221402   0.783   6.265   1.265
 7154TIP3    H121403   0.796   6.255   1.359
 7154TIP3    H221404   0.700   6.219   1.247
 7155TIP3   OH221405   3.884   1.325   4.446
 7155TIP3    H121406   3.928   1.286   4.370
 7155TIP3    H221407   3.913   1.416   4.445
 7156TIP3   OH221408   6.170   3.976   6.634
 7156TIP3    H121409   6.148   4.064   6.604
 7156TIP3    H221410   6.106   3.919   6.590
 7157TIP3   OH221411   6.742   6.388   0.307
 7157TIP3    H121412   6.798   6.463   0.286
 7157TIP3    H221413   6.786   6.345   0.380
 7158TIP3   OH221414   7.395   5.070   0.683
 7158TIP3    H121415   7.431   5.067   0.595
 7158TIP3    H221416   7.302   5.050   0.673
 7159TIP3   OH221417   3.741   2.741   1.810
 7159TIP3    H121418   3.710   2.680   1.877
 7159TIP3    H221419   3.768   2.819   1.859
 7160TIP3   OH221420   7.156   0.374   0.278
 7160TIP3    H121421   7.134   0.440   0.212
 7160TIP3    H221422   7.171   0.424   0.358
 7161TIP3   OH221423   0.674   2.005   4.574
 7161TIP3    H121424   0.753   1.975   4.620
 7161TIP3    H221425   0.663   2.096   4.602
 7162TIP3   OH221426   5.926   3.840   1.190
 7162TIP3    H121427   5.834   3.816   1.205
 7162TIP3    H221428   5.926   3.879   1.103
 7163TIP3   OH221429   2.487   4.617   6.732
 7163TIP3    H121430   2.464   4.525   6.717
 7163TIP3    H221431   2.582   4.619   6.721
 7164TIP3   OH221432   6.828   1.371   5.566
 7164TIP3    H121433   6.816   1.465   5.555
 7164TIP3    H221434   6.878   1.363   5.648
 7165TIP3   OH221435   7.656   0.993   6.529
 7165TIP3    H121436   7.741   0.979   6.488
 7165TIP3    H221437   7.604   0.917   6.503
 7166TIP3   OH221438   3.587   1.102   0.569
 7166TIP3    H121439   3.630   1.101   0.655
 7166TIP3    H221440   3.659   1.092   0.506
 7167TIP3   OH221441   5.625   3.111   5.355
 7167TIP3    H121442   5.648   3.063   5.435
 7167TIP3    H221443   5.654   3.054   5.284
 7168TIP3   OH221444   5.115   6.479   2.418
 7168TIP3    H121445   5.096   6.459   2.326
 7168TIP3    H221446   5.108   6.396   2.463
 7169TIP3   OH221447   7.639   0.630   2.372
 7169TIP3    H121448   7.554   0.657   2.407
 7169TIP3    H221449   7.617   0.573   2.298
 7170TIP3   OH221450   3.901   0.759   2.169
 7170TIP3    H121451   3.959   0.689   2.198
 7170TIP3    H221452   3.953   0.811   2.109
 7171TIP3   OH221453   6.278   6.772   2.636
 7171TIP3    H121454   6.340   6.834   2.597
 7171TIP3    H221455   6.227   6.824   2.697
 7172TIP3   OH221456   4.077   5.833   2.833
 7172TIP3    H121457   3.995   5.855   2.789
 7172TIP3    H221458   4.143   5.884   2.785
 7173TIP3   OH221459   6.666   6.768   3.457
 7173TIP3    H121460   6.700   6.740   3.542
 7173TIP3    H221461   6.576   6.734   3.455
 7174TIP3   OH221462   6.802   0.959   1.782
 7174TIP3    H121463   6.820   1.006   1.863
 7174TIP3    H221464   6.765   1.025   1.724
 7175TIP3   OH221465   8.268   2.240   0.270
 7175TIP3    H121466   8.215   2.258   0.192
 7175TIP3    H221467   8.356   2.271   0.246
 7176TIP3   OH221468   1.934   7.052   0.811
 7176TIP3    H121469   2.011   7.105   0.790
 7176TIP3    H221470   1.968   6.964   0.826
 7177TIP3   OH221471   4.774   4.467   5.735
 7177TIP3    H121472   4.860   4.501   5.710
 7177TIP3    H221473   4.761   4.497   5.825
 7178TIP3   OH221474   7.449   5.243   1.323
 7178TIP3    H121475   7.483   5.193   1.397
 7178TIP3    H221476   7.432   5.178   1.255
 7179TIP3   OH221477   5.908   0.799   2.709
 7179TIP3    H121478   5.957   0.759   2.638
 7179TIP3    H221479   5.974   0.834   2.768
 7180TIP3   OH221480   5.847   2.619   4.413
 7180TIP3    H121481   5.752   2.627   4.413
 7180TIP3    H221482   5.879   2.709   4.411
 7181TIP3   OH221483   5.427   4.732   3.984
 7181TIP3    H121484   5.336   4.738   4.014
 7181TIP3    H221485   5.468   4.812   4.016
 7182TIP3   OH221486   7.468   7.477   4.683
 7182TIP3    H121487   7.393   7.529   4.653
 7182TIP3    H221488   7.543   7.513   4.635
 7183TIP3   OH221489   1.734   0.982   5.259
 7183TIP3    H121490   1.715   1.048   5.192
 7183TIP3    H221491   1.673   0.911   5.240
 7184TIP3   OH221492   2.137   4.219   6.496
 7184TIP3    H121493   2.149   4.173   6.413
 7184TIP3    H221494   2.101   4.153   6.555
 7185TIP3   OH221495   5.983   6.209   6.403
 7185TIP3    H121496   5.992   6.124   6.445
 7185TIP3    H221497   6.072   6.243   6.400
 7186TIP3   OH221498   3.968   2.082   0.556
 7186TIP3    H121499   3.878   2.088   0.522
 7186TIP3    H221500   3.999   1.997   0.526
 7187TIP3   OH221501   4.545   2.826   6.150
 7187TIP3    H121502   4.526   2.898   6.210
 7187TIP3    H221503   4.502   2.851   6.068
 7188TIP3   OH221504   2.028   4.321   5.154
 7188TIP3    H121505   2.087   4.391   5.180
 7188TIP3    H221506   1.941   4.354   5.176
 7189TIP3   OH221507   1.961   5.271   4.675
 7189TIP3    H121508   1.996   5.290   4.587
 7189TIP3    H221509   1.869   5.249   4.660
 7190TIP3   OH221510   4.461   0.626   6.085
 7190TIP3    H121511   4.518   0.659   6.155
 7190TIP3    H221512   4.375   0.664   6.105
 7191TIP3   OH221513   5.166   7.371   5.380
 7191TIP3    H121514   5.102   7.310   5.343
 7191TIP3    H221515   5.244   7.360   5.326
 7192TIP3   OH221516   3.082   0.755   3.141
 7192TIP3    H121517   3.031   0.727   3.216
 7192TIP3    H221518   3.148   0.815   3.177
 7193TIP3   OH221519   4.770   3.009   3.010
 7193TIP3    H121520   4.853   3.051   3.033
 7193TIP3    H221521   4.776   2.921   3.045
 7194TIP3   OH221522   0.865   6.366   1.692
 7194TIP3    H121523   0.793   6.429   1.686
 7194TIP3    H221524   0.944   6.419   1.695
 7195TIP3   OH221525   0.121   1.042   5.463
 7195TIP3    H121526   0.150   1.114   5.518
 7195TIP3    H221527   0.033   1.067   5.435
 7196TIP3   OH221528   3.698   7.169   4.149
 7196TIP3    H121529   3.749   7.250   4.147
 7196TIP3    H221530   3.685   7.146   4.057
 7197TIP3   OH221531   4.978   7.268   4.774
 7197TIP3    H121532   4.908   7.214   4.812
 7197TIP3    H221533   5.036   7.286   4.848
 7198TIP3   OH221534   4.096   3.062   1.726
 7198TIP3    H121535   4.177   3.111   1.741
 7198TIP3    H221536   4.030   3.130   1.711
 7199TIP3   OH221537   8.193   4.070   0.077
 7199TIP3    H121538   8.277   4.060   0.033
 7199TIP3    H221539   8.184   4.164   0.093
 7200TIP3   OH221540   1.843   4.283   5.833
 7200TIP3    H121541   1.932   4.269   5.864
 7200TIP3    H221542   1.853   4.300   5.739
 7201TIP3   OH221543   4.233   4.206   1.412
 7201TIP3    H121544   4.287   4.195   1.490
 7201TIP3    H221545   4.145   4.184   1.441
 7202TIP3   OH221546   2.971   1.785   2.713
 7202TIP3    H121547   2.984   1.780   2.618
 7202TIP3    H221548   2.896   1.844   2.723
 7203TIP3   OH221549   3.271   7.855   4.918
 7203TIP3    H121550   3.261   7.905   4.837
 7203TIP3    H221551   3.349   7.893   4.959
 7204TIP3   OH221552   5.859   7.184   2.761
 7204TIP3    H121553   5.893   7.185   2.851
 7204TIP3    H221554   5.803   7.106   2.758
 7205TIP3   OH221555   3.691   4.858   0.265
 7205TIP3    H121556   3.630   4.827   0.198
 7205TIP3    H221557   3.646   4.932   0.305
 7206TIP3   OH221558   6.002   7.168   4.890
 7206TIP3    H121559   5.933   7.120   4.937
 7206TIP3    H221560   6.084   7.132   4.926
 7207TIP3   OH221561   6.773   0.064   3.870
 7207TIP3    H121562   6.725   0.108   3.800
 7207TIP3    H221563   6.865   0.086   3.853
 7208TIP3   OH221564   7.629   5.692   5.455
 7208TIP3    H121565   7.603   5.784   5.454
 7208TIP3    H221566   7.671   5.680   5.540
 7209TIP3   OH221567   0.828   4.960   2.024
 7209TIP3    H121568   0.848   4.879   1.978
 7209TIP3    H221569   0.864   5.029   1.967
 7210TIP3   OH221570   2.050   6.257   1.393
 7210TIP3    H121571   1.971   6.209   1.367
 7210TIP3    H221572   2.021   6.312   1.466
 7211TIP3   OH221573   0.500   2.024   0.386
 7211TIP3    H121574   0.508   2.070   0.469
 7211TIP3    H221575   0.516   1.932   0.407
 7212TIP3   OH221576   2.083   4.850   5.670
 7212TIP3    H121577   2.152   4.858   5.736
 7212TIP3    H221578   2.011   4.807   5.716
 7213TIP3   OH221579   5.070   6.628   1.917
 7213TIP3    H121580   4.986   6.599   1.951
 7213TIP3    H221581   5.055   6.717   1.886
 7214TIP3   OH221582   4.195   0.141   5.872
 7214TIP3    H121583   4.223   0.224   5.910
 7214TIP3    H221584   4.132   0.106   5.935
 7215TIP3   OH221585   3.522   5.246   2.169
 7215TIP3    H121586   3.436   5.277   2.140
 7215TIP3    H221587   3.507   5.213   2.258
 7216TIP3   OH221588   3.692   7.467   0.471
 7216TIP3    H121589   3.633   7.518   0.526
 7216TIP3    H221590   3.636   7.431   0.403
 7217TIP3   OH221591   0.034   4.338   0.779
 7217TIP3    H121592   0.020   4.371   0.690
 7217TIP3    H221593  -0.015   4.398   0.835
 7218TIP3   OH221594   5.317   7.353   6.446
 7218TIP3    H121595   5.311   7.395   6.360
 7218TIP3    H221596   5.409   7.327   6.453
 7219TIP3   OH221597   7.599   3.881   3.432
 7219TIP3    H121598   7.659   3.806   3.425
 7219TIP3    H221599   7.626   3.940   3.361
 7220TIP3   OH221600   6.569   5.305   5.926
 7220TIP3    H121601   6.659   5.284   5.949
 7220TIP3    H221602   6.517   5.267   5.997
 7221TIP3   OH221603   8.162   5.091   2.574
 7221TIP3    H121604   8.147   4.998   2.557
 7221TIP3    H221605   8.138   5.135   2.493
 7222TIP3   OH221606   6.425   4.718   3.953
 7222TIP3    H121607   6.482   4.784   3.915
 7222TIP3    H221608   6.338   4.758   3.954
 7223TIP3   OH221609   5.044   1.104   1.697
 7223TIP3    H121610   5.075   1.131   1.610
 7223TIP3    H221611   5.095   1.156   1.758
 7224TIP3   OH221612   5.984   6.607   0.441
 7224TIP3    H121613   6.017   6.674   0.381
 7224TIP3    H221614   5.968   6.531   0.385
 7225TIP3   OH221615   0.507   6.682   5.942
 7225TIP3    H121616   0.437   6.661   5.880
 7225TIP3    H221617   0.541   6.767   5.913
 7226TIP3   OH221618   3.991   3.646   2.792
 7226TIP3    H121619   3.946   3.711   2.737
 7226TIP3    H221620   4.007   3.573   2.733
 7227TIP3   OH221621   4.340   6.283   4.199
 7227TIP3    H121622   4.395   6.311   4.272
 7227TIP3    H221623   4.398   6.282   4.123
 7228TIP3   OH221624   5.467   1.189   3.221
 7228TIP3    H121625   5.386   1.139   3.232
 7228TIP3    H221626   5.497   1.168   3.132
 7229TIP3   OH221627   7.178   5.810   3.531
 7229TIP3    H121628   7.216   5.898   3.533
 7229TIP3    H221629   7.090   5.823   3.498
 7230TIP3   OH221630   5.648   0.281   5.077
 7230TIP3    H121631   5.713   0.220   5.112
 7230TIP3    H221632   5.699   0.355   5.044
 7231TIP3   OH221633   4.898   6.758   2.193
 7231TIP3    H121634   4.916   6.733   2.284
 7231TIP3    H221635   4.802   6.758   2.187
 7232TIP3   OH221636   2.297   1.844   1.800
 7232TIP3    H121637   2.236   1.891   1.857
 7232TIP3    H221638   2.367   1.907   1.783
 7233TIP3   OH221639   3.404   1.413   0.179
 7233TIP3    H121640   3.407   1.385   0.270
 7233TIP3    H221641   3.484   1.376   0.140
 7234TIP3   OH221642   1.975   2.350   6.232
 7234TIP3    H121643   1.919   2.427   6.243
 7234TIP3    H221644   1.987   2.315   6.320
 7235TIP3   OH221645   4.729   0.983   2.701
 7235TIP3    H121646   4.664   0.999   2.633
 7235TIP3    H221647   4.739   0.888   2.703
 7236TIP3   OH221648   1.775   2.971   3.974
 7236TIP3    H121649   1.716   2.949   3.902
 7236TIP3    H221650   1.716   2.980   4.050
 7237TIP3   OH221651   1.893   7.867   3.789
 7237TIP3    H121652   1.987   7.882   3.776
 7237TIP3    H221653   1.884   7.849   3.883
 7238TIP3   OH221654   0.969   7.828   6.656
 7238TIP3    H121655   0.880   7.816   6.690
 7238TIP3    H221656   0.970   7.779   6.574
 7239TIP3   OH221657   8.097   3.970   3.169
 7239TIP3    H121658   8.130   4.059   3.181
 7239TIP3    H221659   8.168   3.914   3.199
 7240TIP3   OH221660   7.972   4.455   1.111
 7240TIP3    H121661   7.923   4.373   1.107
 7240TIP3    H221662   8.061   4.428   1.133
 7241TIP3   OH221663   7.929   7.320   1.065
 7241TIP3    H121664   7.905   7.228   1.050
 7241TIP3    H221665   7.961   7.322   1.155
 7242TIP3   OH221666   1.133   7.673   6.846
 7242TIP3    H121667   1.090   7.667   6.931
 7242TIP3    H221668   1.079   7.734   6.796
 7243TIP3   OH221669   6.761   6.632   3.733
 7243TIP3    H121670   6.851   6.602   3.724
 7243TIP3    H221671   6.715   6.559   3.774
 7244TIP3   OH221672   6.860   5.569   4.833
 7244TIP3    H121673   6.847   5.484   4.789
 7244TIP3    H221674   6.775   5.613   4.825
 7245TIP3   OH221675   2.319   3.951   4.590
 7245TIP3    H121676   2.234   3.994   4.577
 7245TIP3    H221677   2.319   3.925   4.682
 7246TIP3   OH221678   5.505   1.955   4.352
 7246TIP3    H121679   5.557   2.023   4.309
 7246TIP3    H221680   5.473   1.901   4.280
 7247TIP3   OH221681   5.020   0.876   5.544
 7247TIP3    H121682   4.940   0.852   5.591
 7247TIP3    H221683   5.028   0.811   5.474
 7248TIP3   OH221684   0.960   3.368   5.908
 7248TIP3    H121685   0.924   3.297   5.962
 7248TIP3    H221686   0.948   3.447   5.961
 7249TIP3   OH221687   6.684   4.701   6.287
 7249TIP3    H121688   6.629   4.635   6.329
 7249TIP3    H221689   6.709   4.661   6.203
 7250TIP3   OH221690   7.498   3.137   2.708
 7250TIP3    H121691   7.461   3.140   2.796
 7250TIP3    H221692   7.566   3.204   2.708
 7251TIP3   OH221693   2.043   1.806   0.757
 7251TIP3    H121694   2.131   1.833   0.783
 7251TIP3    H221695   2.044   1.711   0.765
 7252TIP3   OH221696   0.005   4.101   2.017
 7252TIP3    H121697  -0.054   4.030   1.992
 7252TIP3    H221698   0.075   4.098   1.952
 7253TIP3   OH221699   8.185   6.693   0.718
 7253TIP3    H121700   8.143   6.759   0.774
 7253TIP3    H221701   8.245   6.744   0.663
 7254TIP3   OH221702   1.443   4.154   1.110
 7254TIP3    H121703   1.370   4.101   1.141
 7254TIP3    H221704   1.469   4.207   1.185
 7255TIP3   OH221705   1.745   6.014   3.859
 7255TIP3    H121706   1.825   5.983   3.817
 7255TIP3    H221707   1.675   5.984   3.802
 7256TIP3   OH221708   5.850   7.731   1.014
 7256TIP3    H121709   5.880   7.714   0.924
 7256TIP3    H221710   5.919   7.784   1.053
 7257TIP3   OH221711   0.692   1.116   2.666
 7257TIP3    H121712   0.640   1.156   2.736
 7257TIP3    H221713   0.693   1.023   2.687
 7258TIP3   OH221714   1.714   2.161   4.829
 7258TIP3    H121715   1.733   2.250   4.798
 7258TIP3    H221716   1.774   2.105   4.781
 7259TIP3   OH221717   5.906   1.485   2.152
 7259TIP3    H121718   5.867   1.557   2.202
 7259TIP3    H221719   5.969   1.446   2.213
 7260TIP3   OH221720   7.864   7.824   3.133
 7260TIP3    H121721   7.813   7.825   3.214
 7260TIP3    H221722   7.890   7.733   3.123
 7261TIP3   OH221723   1.811   0.914   5.724
 7261TIP3    H121724   1.781   0.935   5.635
 7261TIP3    H221725   1.817   0.998   5.768
 7262TIP3   OH221726   5.998   5.368   6.155
 7262TIP3    H121727   6.021   5.428   6.084
 7262TIP3    H221728   5.903   5.355   6.145
 7263TIP3   OH221729   5.719   4.063   1.291
 7263TIP3    H121730   5.761   4.063   1.377
 7263TIP3    H221731   5.786   4.096   1.232
 7264TIP3   OH221732   7.516   3.416   1.529
 7264TIP3    H121733   7.452   3.345   1.527
 7264TIP3    H221734   7.560   3.411   1.444
 7265TIP3   OH221735   5.193   6.245   4.691
 7265TIP3    H121736   5.272   6.298   4.709
 7265TIP3    H221737   5.201   6.170   4.749
 7266TIP3   OH221738   1.191   3.998   4.772
 7266TIP3    H121739   1.125   4.062   4.744
 7266TIP3    H221740   1.145   3.914   4.769
 7267TIP3   OH221741   5.335   6.332   5.667
 7267TIP3    H121742   5.242   6.312   5.658
 7267TIP3    H221743   5.379   6.264   5.616
 7268TIP3   OH221744   6.445   4.104   0.217
 7268TIP3    H121745   6.475   4.126   0.129
 7268TIP3    H221746   6.524   4.105   0.271
 7269TIP3   OH221747   3.218   7.488   0.500
 7269TIP3    H121748   3.135   7.518   0.461
 7269TIP3    H221749   3.243   7.413   0.447
 7270TIP3   OH221750   4.952   1.401   2.264
 7270TIP3    H121751   4.863   1.416   2.295
 7270TIP3    H221752   4.990   1.342   2.329
 7271TIP3   OH221753   2.581   4.764   3.880
 7271TIP3    H121754   2.558   4.813   3.959
 7271TIP3    H221755   2.637   4.693   3.911
 7272TIP3   OH221756   0.887   3.397   5.026
 7272TIP3    H121757   0.904   3.412   4.933
 7272TIP3    H221758   0.955   3.335   5.053
 7273TIP3   OH221759   5.615   2.966   0.716
 7273TIP3    H121760   5.651   2.935   0.632
 7273TIP3    H221761   5.521   2.948   0.710
 7274TIP3   OH221762   7.582   1.763   6.658
 7274TIP3    H121763   7.594   1.668   6.667
 7274TIP3    H221764   7.658   1.802   6.702
 7275TIP3   OH221765   6.488   5.534   4.174
 7275TIP3    H121766   6.407   5.580   4.192
 7275TIP3    H221767   6.528   5.581   4.101
 7276TIP3   OH221768   5.207   7.863   2.337
 7276TIP3    H121769   5.283   7.806   2.344
 7276TIP3    H221770   5.132   7.804   2.345
 7277TIP3   OH221771   6.351   2.907   4.653
 7277TIP3    H121772   6.426   2.847   4.657
 7277TIP3    H221773   6.343   2.942   4.741
 7278TIP3   OH221774   4.168   5.229   2.748
 7278TIP3    H121775   4.097   5.291   2.762
 7278TIP3    H221776   4.135   5.146   2.785
 7279TIP3   OH221777   2.842   2.664   5.080
 7279TIP3    H121778   2.753   2.634   5.100
 7279TIP3    H221779   2.841   2.681   4.985
 7280TIP3   OH221780   4.978   6.737   1.361
 7280TIP3    H121781   4.905   6.705   1.309
 7280TIP3    H221782   5.004   6.818   1.317
 7281TIP3   OH221783   6.598   3.098   3.165
 7281TIP3    H121784   6.674   3.152   3.188
 7281TIP3    H221785   6.622   3.059   3.081
 7282TIP3   OH221786   3.431   0.681   3.745
 7282TIP3    H121787   3.361   0.686   3.680
 7282TIP3    H221788   3.480   0.602   3.721
 7283TIP3   OH221789   4.239   2.150   0.524
 7283TIP3    H121790   4.144   2.142   0.526
 7283TIP3    H221791   4.256   2.219   0.459
 7284TIP3   OH221792   2.986   5.789   6.103
 7284TIP3    H121793   2.987   5.819   6.194
 7284TIP3    H221794   2.913   5.837   6.063
 7285TIP3   OH221795   4.234   7.407   6.232
 7285TIP3    H121796   4.293   7.475   6.265
 7285TIP3    H221797   4.252   7.330   6.285
 7286TIP3   OH221798   2.966   1.244   5.272
 7286TIP3    H121799   2.902   1.274   5.336
 7286TIP3    H221800   2.953   1.300   5.196
 7287TIP3   OH221801   0.945   7.587   5.926
 7287TIP3    H121802   0.945   7.683   5.928
 7287TIP3    H221803   0.869   7.565   5.872
 7288TIP3   OH221804   3.249   1.800   5.086
 7288TIP3    H121805   3.305   1.865   5.127
 7288TIP3    H221806   3.307   1.752   5.026
 7289TIP3   OH221807   6.223   7.120   3.052
 7289TIP3    H121808   6.211   7.209   3.086
 7289TIP3    H221809   6.312   7.121   3.016
 7290TIP3   OH221810   5.823   3.326   6.034
 7290TIP3    H121811   5.888   3.348   6.102
 7290TIP3    H221812   5.850   3.240   6.002
 7291TIP3   OH221813   5.729   2.564   4.698
 7291TIP3    H121814   5.647   2.557   4.747
 7291TIP3    H221815   5.707   2.619   4.623
 7292TIP3   OH221816   1.476   3.057   1.127
 7292TIP3    H121817   1.438   3.134   1.170
 7292TIP3    H221818   1.410   3.030   1.063
 7293TIP3   OH221819   8.152   7.556   6.526
 7293TIP3    H121820   8.086   7.584   6.463
 7293TIP3    H221821   8.236   7.573   6.483
 7294TIP3   OH221822   2.530   7.409   5.382
 7294TIP3    H121823   2.530   7.349   5.308
 7294TIP3    H221824   2.519   7.496   5.343
 7295TIP3   OH221825   5.409   4.740   0.186
 7295TIP3    H121826   5.410   4.812   0.122
 7295TIP3    H221827   5.403   4.661   0.134
 7296TIP3   OH221828   2.575   7.179   6.256
 7296TIP3    H121829   2.653   7.147   6.212
 7296TIP3    H221830   2.510   7.188   6.187
 7297TIP3   OH221831   2.662   1.255   1.683
 7297TIP3    H121832   2.650   1.317   1.756
 7297TIP3    H221833   2.594   1.189   1.696
 7298TIP3   OH221834   0.092   0.165   1.163
 7298TIP3    H121835   0.175   0.178   1.208
 7298TIP3    H221836   0.097   0.075   1.130
 7299TIP3   OH221837   3.940   0.877   5.423
 7299TIP3    H121838   3.886   0.942   5.378
 7299TIP3    H221839   3.884   0.800   5.431
 7300TIP3   OH221840   2.851   6.868   3.173
 7300TIP3    H121841   2.851   6.853   3.079
 7300TIP3    H221842   2.829   6.960   3.183
 7301TIP3   OH221843   2.265   7.732   4.323
 7301TIP3    H121844   2.207   7.806   4.341
 7301TIP3    H221845   2.217   7.656   4.356
 7302TIP3   OH221846   1.043   4.809   4.449
 7302TIP3    H121847   1.007   4.895   4.472
 7302TIP3    H221848   1.101   4.786   4.521
 7303TIP3   OH221849   7.195   3.420   5.685
 7303TIP3    H121850   7.170   3.467   5.765
 7303TIP3    H221851   7.120   3.363   5.667
 7304TIP3   OH221852   7.784   5.201   3.612
 7304TIP3    H121853   7.764   5.282   3.657
 7304TIP3    H221854   7.767   5.220   3.519
 7305TIP3   OH221855   7.596   6.496   2.758
 7305TIP3    H121856   7.679   6.490   2.804
 7305TIP3    H221857   7.576   6.589   2.755
 7306TIP3   OH221858   0.145   2.836   4.886
 7306TIP3    H121859   0.184   2.749   4.885
 7306TIP3    H221860   0.080   2.833   4.955
 7307TIP3   OH221861   7.848   1.818   4.021
 7307TIP3    H121862   7.818   1.856   3.939
 7307TIP3    H221863   7.814   1.876   4.089
 7308TIP3   OH221864   2.017   4.056   6.690
 7308TIP3    H121865   1.924   4.075   6.683
 7308TIP3    H221866   2.029   4.021   6.778
 7309TIP3   OH221867   6.010   1.863   6.303
 7309TIP3    H121868   5.954   1.796   6.342
 7309TIP3    H221869   5.950   1.935   6.284
 7310TIP3   OH221870   6.444   0.024   3.651
 7310TIP3    H121871   6.432   0.083   3.726
 7310TIP3    H221872   6.524   0.055   3.609
 7311TIP3   OH221873   5.860   1.323   0.060
 7311TIP3    H121874   5.883   1.311  -0.033
 7311TIP3    H221875   5.767   1.304   0.064
 7312TIP3   OH221876   4.946   3.346   5.266
 7312TIP3    H121877   4.983   3.258   5.280
 7312TIP3    H221878   4.860   3.342   5.308
 7313TIP3   OH221879   2.618   7.083   6.804
 7313TIP3    H121880   2.605   7.032   6.724
 7313TIP3    H221881   2.591   7.172   6.779
 7314TIP3   OH221882   6.458   6.268   0.526
 7314TIP3    H121883   6.507   6.187   0.541
 7314TIP3    H221884   6.408   6.252   0.447
 7315TIP3   OH221885   0.737   5.163   3.081
 7315TIP3    H121886   0.713   5.256   3.087
 7315TIP3    H221887   0.824   5.164   3.041
 7316TIP3   OH221888   1.769   1.544   6.840
 7316TIP3    H121889   1.794   1.511   6.754
 7316TIP3    H221890   1.728   1.468   6.884
 7317TIP3   OH221891   6.293   2.921   1.799
 7317TIP3    H121892   6.380   2.926   1.759
 7317TIP3    H221893   6.253   2.843   1.760
 7318TIP3   OH221894   2.495   4.660   6.466
 7318TIP3    H121895   2.482   4.651   6.560
 7318TIP3    H221896   2.565   4.599   6.445
 7319TIP3   OH221897   6.303   4.193   5.759
 7319TIP3    H121898   6.330   4.121   5.702
 7319TIP3    H221899   6.295   4.268   5.700
 7320TIP3   OH221900   1.139   7.288   1.804
 7320TIP3    H121901   1.105   7.363   1.754
 7320TIP3    H221902   1.193   7.328   1.872
 7321TIP3   OH221903   8.236   5.282   4.117
 7321TIP3    H121904   8.234   5.274   4.213
 7321TIP3    H221905   8.323   5.316   4.098
 7322TIP3   OH221906   7.269   0.294   6.001
 7322TIP3    H121907   7.261   0.334   5.914
 7322TIP3    H221908   7.309   0.208   5.984
 7323TIP3   OH221909   1.592   4.695   5.527
 7323TIP3    H121910   1.635   4.642   5.594
 7323TIP3    H221911   1.507   4.654   5.515
 7324TIP3   OH221912   8.107   2.028   6.684
 7324TIP3    H121913   8.199   2.030   6.712
 7324TIP3    H221914   8.088   1.935   6.671
 7325TIP3   OH221915   6.692   7.013   4.567
 7325TIP3    H121916   6.752   7.000   4.641
 7325TIP3    H221917   6.748   7.004   4.490
 7326TIP3   OH221918   1.515   1.518   1.739
 7326TIP3    H121919   1.550   1.605   1.718
 7326TIP3    H221920   1.545   1.462   1.667
 7327TIP3   OH221921   5.085   3.423   4.161
 7327TIP3    H121922   5.032   3.423   4.241
 7327TIP3    H221923   5.037   3.364   4.102
 7328TIP3   OH221924   4.649   4.221   1.409
 7328TIP3    H121925   4.742   4.237   1.390
 7328TIP3    H221926   4.645   4.216   1.504
 7329TIP3   OH221927   0.979   3.248   0.140
 7329TIP3    H121928   0.943   3.233   0.052
 7329TIP3    H221929   1.070   3.220   0.133
 7330TIP3   OH221930   1.374   0.542   4.571
 7330TIP3    H121931   1.456   0.533   4.618
 7330TIP3    H221932   1.379   0.628   4.529
 7331TIP3   OH221933   0.424   7.582   1.233
 7331TIP3    H121934   0.465   7.496   1.243
 7331TIP3    H221935   0.460   7.617   1.151
 7332TIP3   OH221936   1.666   1.864   2.201
 7332TIP3    H121937   1.642   1.877   2.110
 7332TIP3    H221938   1.732   1.794   2.198
 7333TIP3   OH221939   0.578   5.932   4.980
 7333TIP3    H121940   0.484   5.911   4.983
 7333TIP3    H221941   0.593   5.984   5.059
 7334TIP3   OH221942   3.627   6.614   5.116
 7334TIP3    H121943   3.682   6.668   5.059
 7334TIP3    H221944   3.541   6.655   5.111
 7335TIP3   OH221945   1.703   2.089   0.139
 7335TIP3    H121946   1.661   2.174   0.156
 7335TIP3    H221947   1.745   2.099   0.054
 7336TIP3   OH221948   3.988   3.611   1.017
 7336TIP3    H121949   4.078   3.631   0.993
 7336TIP3    H221950   3.950   3.696   1.043
 7337TIP3   OH221951   5.261   1.149   0.606
 7337TIP3    H121952   5.267   1.092   0.683
 7337TIP3    H221953   5.320   1.110   0.542
 7338TIP3   OH221954   7.544   7.291   4.045
 7338TIP3    H121955   7.618   7.350   4.063
 7338TIP3    H221956   7.554   7.267   3.953
 7339TIP3   OH221957   1.716   1.587   3.556
 7339TIP3    H121958   1.685   1.650   3.621
 7339TIP3    H221959   1.798   1.625   3.524
 7340TIP3   OH221960   8.030   3.353   5.702
 7340TIP3    H121961   8.125   3.345   5.707
 7340TIP3    H221962   8.012   3.441   5.734
 7341TIP3   OH221963   4.235   2.523   1.847
 7341TIP3    H121964   4.289   2.445   1.850
 7341TIP3    H221965   4.150   2.492   1.815
 7342TIP3   OH221966   2.080   5.384   3.952
 7342TIP3    H121967   2.149   5.383   4.018
 7342TIP3    H221968   2.126   5.376   3.869
 7343TIP3   OH221969   8.340   0.890   2.653
 7343TIP3    H121970   8.352   0.946   2.576
 7343TIP3    H221971   8.247   0.865   2.649
 7344TIP3   OH221972   6.603   3.747   5.794
 7344TIP3    H121973   6.560   3.719   5.714
 7344TIP3    H221974   6.678   3.690   5.803
 7345TIP3   OH221975   2.491   2.116   0.318
 7345TIP3    H121976   2.528   2.058   0.252
 7345TIP3    H221977   2.458   2.191   0.268
 7346TIP3   OH221978   0.155   5.465   2.199
 7346TIP3    H121979   0.198   5.383   2.173
 7346TIP3    H221980   0.125   5.448   2.288
 7347TIP3   OH221981   7.482   2.115   4.392
 7347TIP3    H121982   7.395   2.076   4.387
 7347TIP3    H221983   7.542   2.040   4.392
 7348TIP3   OH221984   5.505   4.661   1.805
 7348TIP3    H121985   5.428   4.625   1.761
 7348TIP3    H221986   5.518   4.605   1.882
 7349TIP3   OH221987   3.378   7.205   2.899
 7349TIP3    H121988   3.421   7.165   2.975
 7349TIP3    H221989   3.286   7.215   2.926
 7350TIP3   OH221990   4.011   7.558   5.656
 7350TIP3    H121991   3.937   7.552   5.596
 7350TIP3    H221992   4.043   7.468   5.665
 7351TIP3   OH221993   3.015   4.456   1.194
 7351TIP3    H121994   3.110   4.449   1.184
 7351TIP3    H221995   2.996   4.548   1.178
 7352TIP3   OH221996   1.888   4.794   2.519
 7352TIP3    H121997   1.861   4.722   2.462
 7352TIP3    H221998   1.904   4.868   2.460
 7353TIP3   OH221999   7.461   6.740   4.247
 7353TIP3    H122000   7.552   6.767   4.241
 7353TIP3    H222001   7.418   6.782   4.173
 7354TIP3   OH222002   4.041   7.274   0.503
 7354TIP3    H122003   4.130   7.249   0.477
 7354TIP3    H222004   4.044   7.277   0.599
 7355TIP3   OH222005   7.501   4.303   6.045
 7355TIP3    H122006   7.449   4.383   6.051
 7355TIP3    H222007   7.485   4.257   6.128
 7356TIP3   OH222008   1.314   4.693   5.726
 7356TIP3    H122009   1.297   4.599   5.731
 7356TIP3    H222010   1.409   4.700   5.720
 7357TIP3   OH222011   7.367   2.828   5.480
 7357TIP3    H122012   7.288   2.822   5.426
 7357TIP3    H222013   7.438   2.800   5.423
 7358TIP3   OH222014   6.337   3.936   5.640
 7358TIP3    H122015   6.307   3.869   5.701
 7358TIP3    H222016   6.367   3.887   5.563
 7359TIP3   OH222017   6.805   0.682   3.154
 7359TIP3    H122018   6.806   0.733   3.235
 7359TIP3    H222019   6.836   0.595   3.181
 7360TIP3   OH222020   2.282   1.646   1.393
 7360TIP3    H122021   2.316   1.557   1.386
 7360TIP3    H222022   2.344   1.691   1.450
 7361TIP3   OH222023   6.323   4.816   5.153
 7361TIP3    H122024   6.365   4.881   5.096
 7361TIP3    H222025   6.365   4.733   5.129
 7362TIP3   OH222026   0.287   4.989   5.756
 7362TIP3    H122027   0.376   5.006   5.727
 7362TIP3    H222028   0.236   5.063   5.723
 7363TIP3   OH222029   0.299   6.600   6.357
 7363TIP3    H122030   0.283   6.534   6.425
 7363TIP3    H222031   0.275   6.683   6.398
 7364TIP3   OH222032   1.426   3.501   0.227
 7364TIP3    H122033   1.472   3.585   0.238
 7364TIP3    H222034   1.336   3.526   0.206
 7365TIP3   OH222035   1.951   1.054   1.286
 7365TIP3    H122036   1.989   1.074   1.201
 7365TIP3    H222037   2.010   0.989   1.324
 7366TIP3   OH222038   5.709   6.438   4.437
 7366TIP3    H122039   5.633   6.496   4.431
 7366TIP3    H222040   5.673   6.354   4.465
 7367TIP3   OH222041   6.633   5.738   3.452
 7367TIP3    H122042   6.646   5.651   3.414
 7367TIP3    H222043   6.540   5.758   3.435
 7368TIP3   OH222044   3.921   7.404   3.761
 7368TIP3    H122045   3.909   7.435   3.851
 7368TIP3    H222046   3.845   7.438   3.714
 7369TIP3   OH222047   1.231   4.922   1.370
 7369TIP3    H122048   1.311   4.883   1.405
 7369TIP3    H222049   1.260   5.002   1.325
 7370TIP3   OH222050   5.201   1.501   1.913
 7370TIP3    H122051   5.267   1.569   1.902
 7370TIP3    H222052   5.155   1.498   1.829
 7371TIP3   OH222053   5.120   4.520   4.714
 7371TIP3    H122054   5.183   4.579   4.671
 7371TIP3    H222055   5.082   4.470   4.643
 7372TIP3   OH222056   2.708   1.585   3.605
 7372TIP3    H122057   2.799   1.615   3.614
 7372TIP3    H222058   2.711   1.493   3.630
 7373TIP3   OH222059   3.747   7.155   4.430
 7373TIP3    H122060   3.699   7.087   4.477
 7373TIP3    H222061   3.718   7.146   4.339
 7374TIP3   OH222062   4.213   6.243   0.954
 7374TIP3    H122063   4.181   6.328   0.924
 7374TIP3    H222064   4.190   6.239   1.047
 7375TIP3   OH222065   2.501   0.348   4.851
 7375TIP3    H122066   2.594   0.368   4.840
 7375TIP3    H222067   2.477   0.394   4.932
 7376TIP3   OH222068   5.755   4.923   4.039
 7376TIP3    H122069   5.781   4.924   3.946
 7376TIP3    H222070   5.818   4.864   4.080
 7377TIP3   OH222071   6.605   6.116   1.510
 7377TIP3    H122072   6.582   6.121   1.602
 7377TIP3    H222073   6.556   6.187   1.469
 7378TIP3   OH222074   6.517   5.526   5.758
 7378TIP3    H122075   6.570   5.502   5.683
 7378TIP3    H222076   6.548   5.469   5.829
 7379TIP3   OH222077   7.222   4.586   4.477
 7379TIP3    H122078   7.290   4.563   4.541
 7379TIP3    H222079   7.261   4.568   4.392
 7380TIP3   OH222080   5.948   4.529   2.521
 7380TIP3    H122081   6.012   4.461   2.502
 7380TIP3    H222082   6.000   4.608   2.538
 7381TIP3   OH222083   3.851   7.338   4.736
 7381TIP3    H122084   3.806   7.366   4.656
 7381TIP3    H222085   3.781   7.317   4.798
 7382TIP3   OH222086   0.852   0.757   6.471
 7382TIP3    H122087   0.793   0.813   6.522
 7382TIP3    H222088   0.940   0.784   6.499
 7383TIP3   OH222089   7.333   3.941   3.406
 7383TIP3    H122090   7.324   3.997   3.483
 7383TIP3    H222091   7.422   3.908   3.411
 7384TIP3   OH222092   4.805   0.783   5.708
 7384TIP3    H122093   4.779   0.751   5.795
 7384TIP3    H222094   4.731   0.762   5.652
 7385TIP3   OH222095   2.073   3.816   5.212
 7385TIP3    H122096   2.082   3.911   5.203
 7385TIP3    H222097   2.100   3.798   5.302
 7386TIP3   OH222098   5.043   3.652   4.429
 7386TIP3    H122099   5.026   3.712   4.357
 7386TIP3    H222100   4.963   3.600   4.438
 7387TIP3   OH222101   3.170   3.595   4.452
 7387TIP3    H122102   3.173   3.670   4.394
 7387TIP3    H222103   3.086   3.604   4.498
 7388TIP3   OH222104   1.332   3.448   4.316
 7388TIP3    H122105   1.314   3.378   4.379
 7388TIP3    H222106   1.283   3.424   4.238
 7389TIP3   OH222107   7.466   1.261   2.950
 7389TIP3    H122108   7.457   1.271   2.855
 7389TIP3    H222109   7.401   1.195   2.974
 7390TIP3   OH222110   7.593   6.524   2.224
 7390TIP3    H122111   7.655   6.460   2.258
 7390TIP3    H222112   7.507   6.483   2.238
 7391TIP3   OH222113   2.080   5.003   5.198
 7391TIP3    H122114   2.124   4.943   5.258
 7391TIP3    H222115   2.078   4.956   5.115
 7392TIP3   OH222116   8.004   7.055   0.801
 7392TIP3    H122117   7.977   6.976   0.848
 7392TIP3    H222118   8.078   7.089   0.851
 7393TIP3   OH222119   0.276   2.871   6.686
 7393TIP3    H122120   0.311   2.883   6.774
 7393TIP3    H222121   0.291   2.955   6.642
 7394TIP3   OH222122   5.525   1.038   3.895
 7394TIP3    H122123   5.557   1.060   3.982
 7394TIP3    H222124   5.434   1.012   3.908
 7395TIP3   OH222125   5.913   0.558   6.214
 7395TIP3    H122126   5.926   0.476   6.165
 7395TIP3    H222127   5.995   0.570   6.262
 7396TIP3   OH222128   4.333   0.495   0.848
 7396TIP3    H122129   4.296   0.536   0.770
 7396TIP3    H222130   4.259   0.449   0.888
 7397TIP3   OH222131   0.186   3.998   0.331
 7397TIP3    H122132   0.206   3.906   0.312
 7397TIP3    H222133   0.118   3.994   0.399
 7398TIP3   OH222134   3.093   4.420   4.788
 7398TIP3    H122135   3.088   4.487   4.720
 7398TIP3    H222136   3.137   4.463   4.861
 7399TIP3   OH222137   7.781   1.929   4.734
 7399TIP3    H122138   7.776   1.996   4.666
 7399TIP3    H222139   7.828   1.972   4.806
 7400TIP3   OH222140   7.478   4.508   4.722
 7400TIP3    H122141   7.489   4.594   4.681
 7400TIP3    H222142   7.538   4.451   4.675
 7401TIP3   OH222143   2.834   7.193   2.655
 7401TIP3    H122144   2.911   7.250   2.660
 7401TIP3    H222145   2.857   7.125   2.593
 7402TIP3   OH222146   2.637   2.857   2.302
 7402TIP3    H122147   2.570   2.856   2.234
 7402TIP3    H222148   2.717   2.829   2.258
 7403TIP3   OH222149   4.961   6.842   5.106
 7403TIP3    H122150   4.914   6.772   5.150
 7403TIP3    H222151   4.913   6.921   5.128
 7404TIP3   OH222152   0.371   7.524   0.622
 7404TIP3    H122153   0.331   7.538   0.708
 7404TIP3    H222154   0.318   7.455   0.583
 7405TIP3   OH222155   3.278   2.455   4.527
 7405TIP3    H122156   3.282   2.465   4.432
 7405TIP3    H222157   3.332   2.526   4.561
 7406TIP3   OH222158   1.469   6.813   1.525
 7406TIP3    H122159   1.406   6.872   1.483
 7406TIP3    H222160   1.554   6.854   1.508
 7407TIP3   OH222161   6.367   6.220   3.070
 7407TIP3    H122162   6.420   6.155   3.117
 7407TIP3    H222163   6.430   6.285   3.041
 7408TIP3   OH222164   3.198   5.293   0.180
 7408TIP3    H122165   3.230   5.382   0.192
 7408TIP3    H222166   3.197   5.255   0.268
 7409TIP3   OH222167   1.943   0.939   4.464
 7409TIP3    H122168   1.951   0.941   4.559
 7409TIP3    H222169   2.010   0.999   4.433
 7410TIP3   OH222170   8.264   1.121   2.148
 7410TIP3    H122171   8.293   1.118   2.056
 7410TIP3    H222172   8.170   1.108   2.143
 7411TIP3   OH222173   5.445   0.891   0.436
 7411TIP3    H122174   5.529   0.846   0.433
 7411TIP3    H222175   5.380   0.821   0.435
 7412TIP3   OH222176   0.890   1.072   5.595
 7412TIP3    H122177   0.971   1.100   5.553
 7412TIP3    H222178   0.848   1.014   5.531
 7413TIP3   OH222179   2.716   0.633   4.783
 7413TIP3    H122180   2.745   0.543   4.793
 7413TIP3    H222181   2.785   0.686   4.824
 7414TIP3   OH222182   5.923   2.332   1.484
 7414TIP3    H122183   5.858   2.333   1.555
 7414TIP3    H222184   5.872   2.342   1.404
 7415TIP3   OH222185   1.434   2.344   6.484
 7415TIP3    H122186   1.436   2.413   6.551
 7415TIP3    H222187   1.344   2.345   6.452
 7416TIP3   OH222188   6.867   1.797   4.048
 7416TIP3    H122189   6.867   1.788   4.143
 7416TIP3    H222190   6.777   1.778   4.022
 7417TIP3   OH222191   6.120   2.746   4.207
 7417TIP3    H122192   6.182   2.816   4.185
 7417TIP3    H222193   6.171   2.683   4.257
 7418TIP3   OH222194   6.935   5.509   1.138
 7418TIP3    H122195   6.888   5.529   1.219
 7418TIP3    H222196   7.027   5.523   1.160
 7419TIP3   OH222197   3.024   6.876   0.209
 7419TIP3    H122198   2.941   6.911   0.176
 7419TIP3    H222199   3.002   6.789   0.241
 7420TIP3   OH222200   4.539   1.898   1.257
 7420TIP3    H122201   4.620   1.848   1.271
 7420TIP3    H222202   4.512   1.875   1.168
 7421TIP3   OH222203   0.850   5.909   2.337
 7421TIP3    H122204   0.898   5.977   2.385
 7421TIP3    H222205   0.912   5.877   2.271
 7422TIP3   OH222206   0.196   1.779   6.456
 7422TIP3    H122207   0.240   1.741   6.532
 7422TIP3    H222208   0.103   1.764   6.473
 7423TIP3   OH222209   2.462   7.773   1.777
 7423TIP3    H122210   2.447   7.864   1.804
 7423TIP3    H222211   2.517   7.780   1.699
 7424TIP3   OH222212   2.063   2.928   0.306
 7424TIP3    H122213   2.120   2.985   0.256
 7424TIP3    H222214   2.117   2.899   0.380
 7425TIP3   OH222215   3.006   5.744   0.122
 7425TIP3    H122216   2.926   5.789   0.150
 7425TIP3    H222217   2.983   5.705   0.037
 7426TIP3   OH222218   0.744   4.467   0.044
 7426TIP3    H122219   0.759   4.412  -0.033
 7426TIP3    H222220   0.669   4.428   0.088
 7427TIP3   OH222221   6.921   5.030   6.021
 7427TIP3    H122222   6.885   5.055   5.936
 7427TIP3    H222223   6.849   5.045   6.083
 7428TIP3   OH222224   0.473   2.088   2.913
 7428TIP3    H122225   0.382   2.119   2.911
 7428TIP3    H222226   0.488   2.062   3.003
 7429TIP3   OH222227   1.209   2.095   0.573
 7429TIP3    H122228   1.273   2.109   0.503
 7429TIP3    H222229   1.129   2.136   0.541
 7430TIP3   OH222230   0.301   2.246   5.300
 7430TIP3    H122231   0.217   2.292   5.299
 7430TIP3    H222232   0.278   2.155   5.320
 7431TIP3   OH222233   0.423   6.625   3.794
 7431TIP3    H122234   0.503   6.658   3.753
 7431TIP3    H222235   0.454   6.558   3.855
 7432TIP3   OH222236   7.159   3.247   6.658
 7432TIP3    H122237   7.252   3.226   6.658
 7432TIP3    H222238   7.126   3.215   6.574
 7433TIP3   OH222239   1.061   0.794   1.271
 7433TIP3    H122240   1.071   0.867   1.210
 7433TIP3    H222241   1.145   0.748   1.267
 7434TIP3   OH222242   4.053   3.701   6.086
 7434TIP3    H122243   4.145   3.673   6.095
 7434TIP3    H222244   4.002   3.627   6.120
 7435TIP3   OH222245   1.292   1.980   4.118
 7435TIP3    H122246   1.245   2.006   4.039
 7435TIP3    H222247   1.336   2.060   4.146
 7436TIP3   OH222248   2.848   7.544   4.292
 7436TIP3    H122249   2.922   7.575   4.343
 7436TIP3    H222250   2.884   7.475   4.236
 7437TIP3   OH222251   2.233   0.205   0.577
 7437TIP3    H122252   2.163   0.202   0.643
 7437TIP3    H222253   2.187   0.205   0.493
 7438TIP3   OH222254   6.336   2.791   3.589
 7438TIP3    H122255   6.384   2.757   3.664
 7438TIP3    H222256   6.244   2.782   3.614
 7439TIP3   OH222257   7.583   5.456   0.192
 7439TIP3    H122258   7.507   5.407   0.164
 7439TIP3    H222259   7.656   5.394   0.187
 7440TIP3   OH222260   5.811   5.006   5.673
 7440TIP3    H122261   5.900   5.017   5.706
 7440TIP3    H222262   5.807   4.916   5.642
 7441TIP3   OH222263   6.017   6.353   0.831
 7441TIP3    H122264   6.062   6.377   0.750
 7441TIP3    H222265   5.937   6.405   0.830
 7442TIP3   OH222266   3.112   5.867   1.002
 7442TIP3    H122267   3.122   5.837   0.912
 7442TIP3    H222268   3.144   5.794   1.056
 7443TIP3   OH222269   6.427   1.572   5.958
 7443TIP3    H122270   6.365   1.596   5.889
 7443TIP3    H222271   6.375   1.572   6.039
 7444TIP3   OH222272   0.741   4.656   4.493
 7444TIP3    H122273   0.777   4.583   4.543
 7444TIP3    H222274   0.783   4.734   4.530
 7445TIP3   OH222275   3.723   5.912   5.528
 7445TIP3    H122276   3.654   5.962   5.483
 7445TIP3    H222277   3.744   5.964   5.605
 7446TIP3   OH222278   2.937   3.626   3.180
 7446TIP3    H122279   2.924   3.608   3.273
 7446TIP3    H222280   3.028   3.602   3.164
 7447TIP3   OH222281   1.821   5.933   1.189
 7447TIP3    H122282   1.904   5.936   1.141
 7447TIP3    H222283   1.773   6.010   1.158
 7448TIP3   OH222284   4.342   1.268   2.900
 7448TIP3    H122285   4.403   1.227   2.962
 7448TIP3    H222286   4.393   1.277   2.819
 7449TIP3   OH222287   5.701   0.706   2.969
 7449TIP3    H122288   5.748   0.752   2.899
 7449TIP3    H222289   5.750   0.726   3.049
 7450TIP3   OH222290   2.236   6.792   0.428
 7450TIP3    H122291   2.221   6.886   0.439
 7450TIP3    H222292   2.273   6.763   0.511
 7451TIP3   OH222293   0.420   4.474   3.049
 7451TIP3    H122294   0.414   4.547   2.988
 7451TIP3    H222295   0.493   4.497   3.107
 7452TIP3   OH222296   2.587   3.402   1.684
 7452TIP3    H122297   2.581   3.336   1.614
 7452TIP3    H222298   2.598   3.351   1.764
 7453TIP3   OH222299   1.542   1.395   3.733
 7453TIP3    H122300   1.556   1.324   3.670
 7453TIP3    H222301   1.612   1.458   3.714
 7454TIP3   OH222302   1.281   5.374   0.985
 7454TIP3    H122303   1.256   5.464   0.963
 7454TIP3    H222304   1.199   5.334   1.017
 7455TIP3   OH222305   6.704   4.557   0.186
 7455TIP3    H122306   6.709   4.480   0.131
 7455TIP3    H222307   6.793   4.570   0.218
 7456TIP3   OH222308   3.499   1.998   0.112
 7456TIP3    H122309   3.515   1.951   0.194
 7456TIP3    H222310   3.586   2.010   0.073
 7457TIP3   OH222311   7.552   1.033   5.071
 7457TIP3    H122312   7.561   1.102   5.137
 7457TIP3    H222313   7.599   0.958   5.107
 7458TIP3   OH222314   2.198   4.366   2.627
 7458TIP3    H122315   2.279   4.342   2.672
 7458TIP3    H222316   2.129   4.323   2.678
 7459TIP3   OH222317   8.224   7.679   2.879
 7459TIP3    H122318   8.167   7.665   2.955
 7459TIP3    H222319   8.184   7.753   2.833
 7460TIP3   OH222320   3.842   0.597   5.280
 7460TIP3    H122321   3.757   0.578   5.320
 7460TIP3    H222322   3.867   0.515   5.237
 7461TIP3   OH222323   7.180   2.200   5.242
 7461TIP3    H122324   7.194   2.243   5.326
 7461TIP3    H222325   7.088   2.174   5.244
 7462TIP3   OH222326   1.351   6.732   5.969
 7462TIP3    H122327   1.301   6.812   5.953
 7462TIP3    H222328   1.425   6.738   5.909
 7463TIP3   OH222329   0.168   1.608   1.955
 7463TIP3    H122330   0.219   1.642   2.028
 7463TIP3    H222331   0.168   1.513   1.968
 7464TIP3   OH222332   0.586   2.694   3.926
 7464TIP3    H122333   0.661   2.725   3.977
 7464TIP3    H222334   0.547   2.773   3.890
 7465TIP3   OH222335   7.645   7.066   5.179
 7465TIP3    H122336   7.714   7.133   5.180
 7465TIP3    H222337   7.693   6.984   5.189
 7466TIP3   OH222338   2.424   3.878   0.618
 7466TIP3    H122339   2.486   3.857   0.548
 7466TIP3    H222340   2.344   3.904   0.572
 7467TIP3   OH222341   4.211   2.867   5.273
 7467TIP3    H122342   4.185   2.775   5.279
 7467TIP3    H222343   4.252   2.875   5.187
 7468TIP3   OH222344   4.730   6.173   6.198
 7468TIP3    H122345   4.661   6.229   6.162
 7468TIP3    H222346   4.725   6.185   6.292
 7469TIP3   OH222347   2.828   4.836   3.270
 7469TIP3    H122348   2.777   4.829   3.189
 7469TIP3    H222349   2.835   4.746   3.302
 7470TIP3   OH222350   4.086   7.614   3.962
 7470TIP3    H122351   4.085   7.621   3.867
 7470TIP3    H222352   3.996   7.631   3.989
 7471TIP3   OH222353   4.103   2.500   4.390
 7471TIP3    H122354   4.194   2.474   4.406
 7471TIP3    H222355   4.103   2.535   4.301
 7472TIP3   OH222356   2.975   1.407   5.506
 7472TIP3    H122357   2.962   1.483   5.449
 7472TIP3    H222358   3.006   1.444   5.589
 7473TIP3   OH222359   3.464   1.834   1.585
 7473TIP3    H122360   3.471   1.820   1.490
 7473TIP3    H222361   3.541   1.886   1.607
 7474TIP3   OH222362   6.129   0.818   1.467
 7474TIP3    H122363   6.185   0.742   1.476
 7474TIP3    H222364   6.188   0.893   1.476
 7475TIP3   OH222365   0.587   4.522   6.410
 7475TIP3    H122366   0.653   4.476   6.359
 7475TIP3    H222367   0.608   4.501   6.501
 7476TIP3   OH222368   6.881   0.332   6.492
 7476TIP3    H122369   6.892   0.238   6.507
 7476TIP3    H222370   6.804   0.339   6.436
 7477TIP3   OH222371   7.445   6.878   1.449
 7477TIP3    H122372   7.429   6.858   1.357
 7477TIP3    H222373   7.540   6.875   1.458
 7478TIP3   OH222374   2.290   1.592   3.222
 7478TIP3    H122375   2.301   1.666   3.283
 7478TIP3    H222376   2.378   1.554   3.216
 7479TIP3   OH222377   8.162   4.347   2.199
 7479TIP3    H122378   8.148   4.263   2.244
 7479TIP3    H222379   8.252   4.371   2.220
 7480TIP3   OH222380   0.071   2.421   6.485
 7480TIP3    H122381  -0.006   2.478   6.495
 7480TIP3    H222382   0.034   2.334   6.470
 7481TIP3   OH222383   1.640   6.073   5.064
 7481TIP3    H122384   1.608   6.161   5.085
 7481TIP3    H222385   1.720   6.065   5.116
 7482TIP3   OH222386   8.315   0.564   5.693
 7482TIP3    H122387   8.264   0.531   5.619
 7482TIP3    H222388   8.365   0.638   5.658
 7483TIP3   OH222389   1.873   6.270   3.754
 7483TIP3    H122390   1.887   6.271   3.659
 7483TIP3    H222391   1.879   6.177   3.779
 7484TIP3   OH222392   4.467   2.546   1.612
 7484TIP3    H122393   4.481   2.640   1.624
 7484TIP3    H222394   4.384   2.528   1.654
 7485TIP3   OH222395   4.968   3.096   5.330
 7485TIP3    H122396   4.899   3.030   5.333
 7485TIP3    H222397   5.006   3.095   5.418
 7486TIP3   OH222398   1.675   1.344   6.183
 7486TIP3    H122399   1.639   1.409   6.124
 7486TIP3    H222400   1.760   1.379   6.209
 7487TIP3   OH222401   0.202   6.417   2.079
 7487TIP3    H122402   0.114   6.419   2.116
 7487TIP3    H222403   0.198   6.348   2.013
 7488TIP3   OH222404   0.077   4.875   2.569
 7488TIP3    H122405   0.087   4.952   2.512
 7488TIP3    H222406   0.157   4.824   2.554
 7489TIP3   OH222407   8.164   4.095   5.142
 7489TIP3    H122408   8.127   4.062   5.059
 7489TIP3    H222409   8.111   4.053   5.210
 7490TIP3   OH222410   4.132   0.108   5.134
 7490TIP3    H122411   4.160   0.119   5.044
 7490TIP3    H222412   4.178   0.030   5.165
 7491TIP3   OH222413   2.002   1.680   3.094
 7491TIP3    H122414   1.908   1.674   3.114
 7491TIP3    H222415   2.006   1.680   2.998
 7492TIP3   OH222416   5.716   3.618   4.261
 7492TIP3    H122417   5.739   3.619   4.354
 7492TIP3    H222418   5.787   3.667   4.218
 7493TIP3   OH222419   6.493   1.413   0.444
 7493TIP3    H122420   6.423   1.380   0.389
 7493TIP3    H222421   6.571   1.412   0.388
 7494TIP3   OH222422   4.892   1.377   1.957
 7494TIP3    H122423   4.963   1.351   2.016
 7494TIP3    H222424   4.870   1.466   1.983
 7495TIP3   OH222425   1.406   5.004   1.929
 7495TIP3    H122426   1.412   5.095   1.901
 7495TIP3    H222427   1.328   4.970   1.885
 7496TIP3   OH222428   4.244   6.827   1.879
 7496TIP3    H122429   4.308   6.773   1.831
 7496TIP3    H222430   4.171   6.768   1.895
 7497TIP3   OH222431   2.466   7.351   1.422
 7497TIP3    H122432   2.493   7.334   1.512
 7497TIP3    H222433   2.513   7.286   1.370
 7498TIP3   OH222434   1.062   3.523   6.303
 7498TIP3    H122435   1.136   3.582   6.308
 7498TIP3    H222436   1.096   3.445   6.260
 7499TIP3   OH222437   7.952   0.178   1.353
 7499TIP3    H122438   7.902   0.202   1.274
 7499TIP3    H222439   7.978   0.087   1.338
 7500TIP3   OH222440   6.806   1.543   6.172
 7500TIP3    H122441   6.820   1.450   6.151
 7500TIP3    H222442   6.892   1.574   6.200
 7501TIP3   OH222443   4.767   3.889   3.004
 7501TIP3    H122444   4.735   3.883   3.094
 7501TIP3    H222445   4.694   3.859   2.951
 7502TIP3   OH222446   7.318   7.412   5.701
 7502TIP3    H122447   7.271   7.481   5.653
 7502TIP3    H222448   7.390   7.387   5.643
 7503TIP3   OH222449   4.115   6.060   5.923
 7503TIP3    H122450   4.049   6.063   5.991
 7503TIP3    H222451   4.194   6.097   5.964
 7504TIP3   OH222452   5.437   6.957   1.516
 7504TIP3    H122453   5.366   7.022   1.519
 7504TIP3    H222454   5.517   7.010   1.517
 7505TIP3   OH222455   1.660   7.563   4.247
 7505TIP3    H122456   1.731   7.499   4.256
 7505TIP3    H222457   1.617   7.540   4.165
 7506TIP3   OH222458   7.509   1.672   5.045
 7506TIP3    H122459   7.563   1.644   4.970
 7506TIP3    H222460   7.549   1.629   5.120
 7507TIP3   OH222461   2.222   0.112   5.020
 7507TIP3    H122462   2.150   0.176   5.025
 7507TIP3    H222463   2.204   0.062   4.941
 7508TIP3   OH222464   5.250   2.295   4.923
 7508TIP3    H122465   5.234   2.384   4.953
 7508TIP3    H222466   5.195   2.286   4.845
 7509TIP3   OH222467   5.973   6.360   3.530
 7509TIP3    H122468   6.018   6.434   3.571
 7509TIP3    H222469   5.885   6.362   3.569
 7510TIP3   OH222470   2.758   1.321   2.432
 7510TIP3    H122471   2.804   1.359   2.507
 7510TIP3    H222472   2.737   1.232   2.459
 7511TIP3   OH222473   2.569   4.053   0.067
 7511TIP3    H122474   2.566   4.066  -0.028
 7511TIP3    H222475   2.609   4.133   0.100
 7512TIP3   OH222476   1.152   1.457   0.604
 7512TIP3    H122477   1.176   1.536   0.654
 7512TIP3    H222478   1.216   1.391   0.631
 7513TIP3   OH222479   1.988   5.641   2.780
 7513TIP3    H122480   1.923   5.623   2.849
 7513TIP3    H222481   1.954   5.596   2.703
 7514TIP3   OH222482   0.755   3.903   0.984
 7514TIP3    H122483   0.850   3.910   0.976
 7514TIP3    H222484   0.728   3.983   1.030
 7515TIP3   OH222485   3.983   2.929   4.865
 7515TIP3    H122486   3.934   3.011   4.862
 7515TIP3    H222487   4.018   2.919   4.776
 7516TIP3   OH222488   1.971   2.032   0.381
 7516TIP3    H122489   1.942   2.124   0.385
 7516TIP3    H222490   1.890   1.982   0.373
 7517TIP3   OH222491   7.122   2.579   2.407
 7517TIP3    H122492   7.178   2.582   2.484
 7517TIP3    H222493   7.181   2.595   2.334
 7518TIP3   OH222494   4.060   4.037   4.209
 7518TIP3    H122495   4.013   4.118   4.193
 7518TIP3    H222496   4.098   4.048   4.296
 7519TIP3   OH222497   6.156   1.406   2.668
 7519TIP3    H122498   6.223   1.349   2.629
 7519TIP3    H222499   6.201   1.489   2.683
 7520TIP3   OH222500   2.579   2.064   1.302
 7520TIP3    H122501   2.659   2.012   1.302
 7520TIP3    H222502   2.609   2.154   1.292
 7521TIP3   OH222503   5.166   3.255   6.526
 7521TIP3    H122504   5.257   3.239   6.548
 7521TIP3    H222505   5.125   3.168   6.526
 7522TIP3   OH222506   5.483   4.855   5.727
 7522TIP3    H122507   5.416   4.901   5.778
 7522TIP3    H222508   5.471   4.889   5.638
 7523TIP3   OH222509   1.723   7.751   3.592
 7523TIP3    H122510   1.762   7.800   3.664
 7523TIP3    H222511   1.748   7.660   3.608
 7524TIP3   OH222512   1.831   6.517   1.845
 7524TIP3    H122513   1.884   6.448   1.884
 7524TIP3    H222514   1.892   6.590   1.832
 7525TIP3   OH222515   3.741   0.049   0.529
 7525TIP3    H122516   3.815   0.021   0.476
 7525TIP3    H222517   3.677  -0.022   0.519
 7526TIP3   OH222518   6.238   0.015   0.073
 7526TIP3    H122519   6.204  -0.075   0.079
 7526TIP3    H222520   6.283   0.018  -0.011
 7527TIP3   OH222521   2.098   2.432   4.430
 7527TIP3    H122522   2.026   2.495   4.428
 7527TIP3    H222523   2.056   2.347   4.418
 7528TIP3   OH222524   4.005   4.245   3.767
 7528TIP3    H122525   4.055   4.322   3.740
 7528TIP3    H222526   3.928   4.280   3.812
 7529TIP3   OH222527   8.178   3.650   0.026
 7529TIP3    H122528   8.184   3.724  -0.035
 7529TIP3    H222529   8.269   3.630   0.049
 7530TIP3   OH222530   1.603   1.415   4.868
 7530TIP3    H122531   1.579   1.496   4.824
 7530TIP3    H222532   1.636   1.444   4.954
 7531TIP3   OH222533   8.185   0.685   1.834
 7531TIP3    H122534   8.199   0.641   1.751
 7531TIP3    H222535   8.121   0.754   1.814
 7532TIP3   OH222536   2.741   4.180   6.758
 7532TIP3    H122537   2.740   4.090   6.727
 7532TIP3    H222538   2.825   4.215   6.727
 7533TIP3   OH222539   3.848   3.262   3.764
 7533TIP3    H122540   3.866   3.267   3.671
 7533TIP3    H222541   3.762   3.303   3.774
 7534TIP3   OH222542   0.863   2.065   3.714
 7534TIP3    H122543   0.824   2.003   3.652
 7534TIP3    H222544   0.837   2.151   3.682
 7535TIP3   OH222545   6.274   3.149   3.968
 7535TIP3    H122546   6.288   3.081   3.902
 7535TIP3    H222547   6.357   3.195   3.973
 7536TIP3   OH222548   0.690   3.332   0.067
 7536TIP3    H122549   0.733   3.352  -0.017
 7536TIP3    H222550   0.677   3.237   0.065
 7537TIP3   OH222551   7.356   4.243   3.872
 7537TIP3    H122552   7.281   4.286   3.913
 7537TIP3    H222553   7.348   4.151   3.898
 7538TIP3   OH222554   2.815   5.315   3.355
 7538TIP3    H122555   2.809   5.410   3.344
 7538TIP3    H222556   2.757   5.296   3.428
 7539TIP3   OH222557   3.401   0.449   0.952
 7539TIP3    H122558   3.363   0.368   0.918
 7539TIP3    H222559   3.495   0.434   0.950
 7540TIP3   OH222560   8.012   1.505   5.481
 7540TIP3    H122561   8.024   1.521   5.388
 7540TIP3    H222562   8.001   1.410   5.489
 7541TIP3   OH222563   0.166   2.532   0.769
 7541TIP3    H122564   0.125   2.483   0.840
 7541TIP3    H222565   0.133   2.490   0.689
 7542TIP3   OH222566   5.795   3.233   1.343
 7542TIP3    H122567   5.840   3.313   1.319
 7542TIP3    H222568   5.842   3.201   1.420
 7543TIP3   OH222569   3.937   5.321   6.198
 7543TIP3    H122570   3.914   5.335   6.290
 7543TIP3    H222571   4.008   5.383   6.181
 7544TIP3   OH222572   4.206   0.617   4.464
 7544TIP3    H122573   4.172   0.670   4.537
 7544TIP3    H222574   4.248   0.542   4.506
 7545TIP3   OH222575   2.789   3.517   2.678
 7545TIP3    H122576   2.766   3.482   2.592
 7545TIP3    H222577   2.885   3.521   2.678
 7546TIP3   OH222578   4.180   4.838   2.597
 7546TIP3    H122579   4.091   4.821   2.567
 7546TIP3    H222580   4.218   4.893   2.527
 7547TIP3   OH222581   4.547   6.425   5.014
 7547TIP3    H122582   4.608   6.425   4.941
 7547TIP3    H222583   4.531   6.518   5.032
 7548TIP3   OH222584   2.437   0.478   5.082
 7548TIP3    H122585   2.346   0.497   5.058
 7548TIP3    H222586   2.482   0.562   5.074
 7549TIP3   OH222587   3.007   3.571   6.572
 7549TIP3    H122588   2.914   3.547   6.573
 7549TIP3    H222589   3.024   3.598   6.482
 7550TIP3   OH222590   8.083   2.328   3.355
 7550TIP3    H122591   8.127   2.356   3.275
 7550TIP3    H222592   8.098   2.399   3.417
 7551TIP3   OH222593   0.614   0.139   5.006
 7551TIP3    H122594   0.584   0.127   5.096
 7551TIP3    H222595   0.681   0.207   5.012
 7552TIP3   OH222596   8.214   4.694   3.842
 7552TIP3    H122597   8.285   4.688   3.906
 7552TIP3    H222598   8.204   4.788   3.826
 7553TIP3   OH222599   6.743   4.570   5.421
 7553TIP3    H122600   6.712   4.636   5.483
 7553TIP3    H222601   6.685   4.495   5.435
 7554TIP3   OH222602   2.302   3.002   5.040
 7554TIP3    H122603   2.334   3.012   4.950
 7554TIP3    H222604   2.378   2.969   5.089
 7555TIP3   OH222605   4.004   0.334   1.741
 7555TIP3    H122606   3.969   0.423   1.737
 7555TIP3    H222607   3.967   0.290   1.664
 7556TIP3   OH222608   5.320   1.563   5.519
 7556TIP3    H122609   5.327   1.568   5.615
 7556TIP3    H222610   5.349   1.474   5.498
 7557TIP3   OH222611   3.545   7.483   0.762
 7557TIP3    H122612   3.522   7.575   0.777
 7557TIP3    H222613   3.463   7.435   0.779
 7558TIP3   OH222614   3.795   1.412   3.309
 7558TIP3    H122615   3.771   1.352   3.238
 7558TIP3    H222616   3.839   1.485   3.264
 7559TIP3   OH222617   1.913   6.493   2.471
 7559TIP3    H122618   1.840   6.551   2.491
 7559TIP3    H222619   1.877   6.428   2.411
 7560TIP3   OH222620   1.372   4.976   0.147
 7560TIP3    H122621   1.385   5.032   0.071
 7560TIP3    H222622   1.411   4.892   0.122
 7561TIP3   OH222623   6.300   1.516   3.741
 7561TIP3    H122624   6.292   1.489   3.650
 7561TIP3    H222625   6.367   1.585   3.739
 7562TIP3   OH222626   6.187   4.693   6.693
 7562TIP3    H122627   6.219   4.637   6.763
 7562TIP3    H222628   6.205   4.782   6.724
 7563TIP3   OH222629   6.087   0.339   1.647
 7563TIP3    H122630   6.168   0.389   1.640
 7563TIP3    H222631   6.106   0.269   1.709
 7564TIP3   OH222632   0.053   0.761   2.932
 7564TIP3    H122633   0.074   0.681   2.981
 7564TIP3    H222634   0.128   0.772   2.873
 7565TIP3   OH222635   7.353   5.119   6.709
 7565TIP3    H122636   7.322   5.081   6.627
 7565TIP3    H222637   7.398   5.047   6.753
 7566TIP3   OH222638   7.147   2.287   4.902
 7566TIP3    H122639   7.172   2.212   4.956
 7566TIP3    H222640   7.128   2.249   4.816
 7567TIP3   OH222641   2.292   0.590   3.349
 7567TIP3    H122642   2.351   0.634   3.411
 7567TIP3    H222643   2.300   0.643   3.269
 7568TIP3   OH222644   1.174   1.106   3.290
 7568TIP3    H122645   1.253   1.161   3.298
 7568TIP3    H222646   1.207   1.017   3.282
 7569TIP3   OH222647   2.479   3.169   2.124
 7569TIP3    H122648   2.467   3.076   2.106
 7569TIP3    H222649   2.478   3.175   2.219
 7570TIP3   OH222650   3.693   0.290   3.768
 7570TIP3    H122651   3.759   0.353   3.740
 7570TIP3    H222652   3.665   0.247   3.688
 7571TIP3   OH222653   7.806   2.799   3.392
 7571TIP3    H122654   7.847   2.837   3.470
 7571TIP3    H222655   7.772   2.715   3.422
 7572TIP3   OH222656   0.886   4.419   1.553
 7572TIP3    H122657   0.910   4.367   1.476
 7572TIP3    H222658   0.957   4.406   1.615
 7573TIP3   OH222659   0.693   0.601   0.557
 7573TIP3    H122660   0.633   0.587   0.483
 7573TIP3    H222661   0.755   0.667   0.524
 7574TIP3   OH222662   5.306   3.356   0.698
 7574TIP3    H122663   5.243   3.285   0.688
 7574TIP3    H222664   5.389   3.313   0.714
 7575TIP3   OH222665   5.997   0.581   5.644
 7575TIP3    H122666   6.004   0.610   5.553
 7575TIP3    H222667   6.036   0.493   5.644
 7576TIP3   OH222668   4.805   1.891   0.214
 7576TIP3    H122669   4.744   1.858   0.149
 7576TIP3    H222670   4.761   1.876   0.298
 7577TIP3   OH222671   7.067   4.750   2.104
 7577TIP3    H122672   7.086   4.659   2.081
 7577TIP3    H222673   6.985   4.769   2.059
 7578TIP3   OH222674   7.250   6.221   6.525
 7578TIP3    H122675   7.308   6.293   6.501
 7578TIP3    H222676   7.275   6.198   6.615
 7579TIP3   OH222677   1.916   0.362   3.347
 7579TIP3    H122678   1.970   0.293   3.386
 7579TIP3    H222679   1.836   0.316   3.318
 7580TIP3   OH222680   8.140   0.574   0.655
 7580TIP3    H122681   8.219   0.521   0.668
 7580TIP3    H222682   8.173   0.663   0.643
 7581TIP3   OH222683   3.780   6.297   0.444
 7581TIP3    H122684   3.721   6.239   0.397
 7581TIP3    H222685   3.867   6.276   0.409
 7582TIP3   OH222686   7.735   5.154   1.011
 7582TIP3    H122687   7.662   5.213   0.990
 7582TIP3    H222688   7.790   5.157   0.933
 7583TIP3   OH222689   5.728   3.670   6.119
 7583TIP3    H122690   5.791   3.599   6.108
 7583TIP3    H222691   5.644   3.632   6.095
 7584TIP3   OH222692   3.387   4.534   2.832
 7584TIP3    H122693   3.367   4.505   2.743
 7584TIP3    H222694   3.472   4.495   2.851
 7585TIP3   OH222695   1.474   7.328   5.803
 7585TIP3    H122696   1.548   7.383   5.830
 7585TIP3    H222697   1.421   7.319   5.882
 7586TIP3   OH222698   5.344   3.126   1.626
 7586TIP3    H122699   5.344   3.220   1.606
 7586TIP3    H222700   5.346   3.122   1.721
 7587TIP3   OH222701   3.685   2.702   3.158
 7587TIP3    H122702   3.720   2.791   3.168
 7587TIP3    H222703   3.755   2.655   3.112
 7588TIP3   OH222704   4.644   0.909   0.085
 7588TIP3    H122705   4.670   0.996   0.114
 7588TIP3    H222706   4.553   0.900   0.113
 7589TIP3   OH222707   1.390   1.875   2.239
 7589TIP3    H122708   1.472   1.826   2.239
 7589TIP3    H222709   1.357   1.869   2.329
 7590TIP3   OH222710   3.980   2.985   5.599
 7590TIP3    H122711   3.993   2.891   5.611
 7590TIP3    H222712   3.887   2.999   5.616
 7591TIP3   OH222713   3.405   7.595   4.542
 7591TIP3    H122714   3.441   7.602   4.631
 7591TIP3    H222715   3.326   7.649   4.544
 7592TIP3   OH222716   2.078   2.497   1.683
 7592TIP3    H122717   2.082   2.523   1.591
 7592TIP3    H222718   2.130   2.417   1.687
 7593TIP3   OH222719   8.200   0.082   2.939
 7593TIP3    H122720   8.202   0.154   2.877
 7593TIP3    H222721   8.108   0.069   2.959
 7594TIP3   OH222722   2.223   3.312   4.113
 7594TIP3    H122723   2.229   3.323   4.018
 7594TIP3    H222724   2.194   3.222   4.125
 7595TIP3   OH222725   4.814   1.524   6.199
 7595TIP3    H122726   4.772   1.609   6.191
 7595TIP3    H222727   4.890   1.539   6.255
 7596TIP3   OH222728   2.712   3.799   5.885
 7596TIP3    H122729   2.797   3.830   5.855
 7596TIP3    H222730   2.732   3.721   5.936
 7597TIP3   OH222731   1.128   0.368   5.679
 7597TIP3    H122732   1.064   0.393   5.612
 7597TIP3    H222733   1.078   0.314   5.741
 7598TIP3   OH222734   2.757   4.951   1.798
 7598TIP3    H122735   2.842   4.979   1.833
 7598TIP3    H222736   2.762   4.856   1.798
 7599TIP3   OH222737   4.130   0.487   6.191
 7599TIP3    H122738   4.118   0.581   6.201
 7599TIP3    H222739   4.041   0.451   6.200
 7600TIP3   OH222740   1.869   5.995   3.164
 7600TIP3    H122741   1.797   6.059   3.160
 7600TIP3    H222742   1.827   5.910   3.150
 7601TIP3   OH222743   0.700   4.758   5.580
 7601TIP3    H122744   0.622   4.743   5.526
 7601TIP3    H222745   0.763   4.692   5.550
 7602TIP3   OH222746   1.203   2.223   2.423
 7602TIP3    H122747   1.294   2.204   2.399
 7602TIP3    H222748   1.155   2.218   2.340
 7603TIP3   OH222749   5.173   3.451   2.303
 7603TIP3    H122750   5.172   3.356   2.319
 7603TIP3    H222751   5.082   3.474   2.290
 7604TIP3   OH222752   7.105   7.660   3.210
 7604TIP3    H122753   7.090   7.577   3.255
 7604TIP3    H222754   7.180   7.699   3.255
 7605TIP3   OH222755   1.593   1.171   3.617
 7605TIP3    H122756   1.685   1.160   3.592
 7605TIP3    H222757   1.563   1.082   3.636
 7606TIP3   OH222758   7.596   2.401   4.813
 7606TIP3    H122759   7.551   2.323   4.781
 7606TIP3    H222760   7.547   2.425   4.893
 7607TIP3   OH222761   4.031   5.686   3.721
 7607TIP3    H122762   4.017   5.753   3.788
 7607TIP3    H222763   3.979   5.611   3.751
 7608TIP3   OH222764   3.946   0.263   2.666
 7608TIP3    H122765   3.925   0.209   2.590
 7608TIP3    H222766   3.964   0.201   2.736
 7609TIP3   OH222767   1.738   4.095   6.711
 7609TIP3    H122768   1.721   4.096   6.805
 7609TIP3    H222769   1.675   4.032   6.677
 7610TIP3   OH222770   1.837   3.471   1.026
 7610TIP3    H122771   1.862   3.435   0.941
 7610TIP3    H222772   1.776   3.542   1.005
 7611TIP3   OH222773   4.114   7.337   5.327
 7611TIP3    H122774   4.183   7.387   5.282
 7611TIP3    H222775   4.160   7.293   5.399
 7612TIP3   OH222776   0.832   2.672   0.499
 7612TIP3    H122777   0.758   2.641   0.447
 7612TIP3    H222778   0.909   2.656   0.444
 7613TIP3   OH222779   6.365   6.206   5.093
 7613TIP3    H122780   6.281   6.230   5.132
 7613TIP3    H222781   6.342   6.153   5.017
 7614TIP3   OH222782   3.811   5.980   0.986
 7614TIP3    H122783   3.783   6.072   0.987
 7614TIP3    H222784   3.732   5.931   1.009
 7615TIP3   OH222785   0.407   5.718   6.240
 7615TIP3    H122786   0.366   5.804   6.228
 7615TIP3    H222787   0.345   5.670   6.295
 7616TIP3   OH222788   4.777   1.361   1.359
 7616TIP3    H122789   4.863   1.328   1.334
 7616TIP3    H222790   4.764   1.439   1.305
 7617TIP3   OH222791   0.646   1.435   1.367
 7617TIP3    H122792   0.706   1.452   1.440
 7617TIP3    H222793   0.605   1.351   1.389
 7618TIP3   OH222794   7.021   0.063   1.177
 7618TIP3    H122795   6.957   0.052   1.247
 7618TIP3    H222796   6.987   0.009   1.105
 7619TIP3   OH222797   1.358   2.089   2.941
 7619TIP3    H122798   1.337   1.996   2.928
 7619TIP3    H222799   1.452   2.089   2.961
 7620TIP3   OH222800   1.415   7.677   6.475
 7620TIP3    H122801   1.461   7.704   6.555
 7620TIP3    H222802   1.343   7.738   6.467
 7621TIP3   OH222803   2.616   4.988   3.086
 7621TIP3    H122804   2.567   5.006   3.007
 7621TIP3    H222805   2.623   4.892   3.089
 7622TIP3   OH222806   2.553   5.248   5.895
 7622TIP3    H122807   2.489   5.275   5.961
 7622TIP3    H222808   2.637   5.278   5.930
 7623TIP3   OH222809   3.258   4.619   4.937
 7623TIP3    H122810   3.229   4.658   5.020
 7623TIP3    H222811   3.236   4.684   4.871
 7624TIP3   OH222812   6.524   7.225   5.304
 7624TIP3    H122813   6.442   7.249   5.349
 7624TIP3    H222814   6.580   7.301   5.314
 7625TIP3   OH222815   8.154   7.299   4.579
 7625TIP3    H122816   8.095   7.370   4.554
 7625TIP3    H222817   8.136   7.229   4.516
 7626TIP3   OH222818   1.039   3.630   3.308
 7626TIP3    H122819   1.002   3.552   3.351
 7626TIP3    H222820   1.045   3.695   3.378
 7627TIP3   OH222821   1.362   1.745   0.318
 7627TIP3    H122822   1.331   1.778   0.233
 7627TIP3    H222823   1.285   1.750   0.375
 7628TIP3   OH222824   6.593   2.507   5.173
 7628TIP3    H122825   6.668   2.565   5.193
 7628TIP3    H222826   6.611   2.428   5.223
 7629TIP3   OH222827   7.370   2.645   2.274
 7629TIP3    H122828   7.439   2.598   2.226
 7629TIP3    H222829   7.378   2.736   2.244
 7630TIP3   OH222830   7.762   3.055   0.400
 7630TIP3    H122831   7.813   3.000   0.460
 7630TIP3    H222832   7.812   3.053   0.318
 7631TIP3   OH222833   3.083   2.399   5.738
 7631TIP3    H122834   3.060   2.377   5.828
 7631TIP3    H222835   3.173   2.433   5.744
 7632TIP3   OH222836   7.959   0.226   4.730
 7632TIP3    H122837   7.899   0.178   4.673
 7632TIP3    H222838   8.033   0.166   4.742
 7633TIP3   OH222839   0.591   6.365   4.189
 7633TIP3    H122840   0.660   6.359   4.255
 7633TIP3    H222841   0.524   6.303   4.219
 7634TIP3   OH222842   7.259   0.600   2.232
 7634TIP3    H122843   7.223   0.604   2.321
 7634TIP3    H222844   7.275   0.507   2.217
 7635TIP3   OH222845   7.858   0.758   0.763
 7635TIP3    H122846   7.809   0.727   0.687
 7635TIP3    H222847   7.880   0.848   0.742
 7636TIP3   OH222848   0.381   0.311   6.025
 7636TIP3    H122849   0.447   0.279   6.086
 7636TIP3    H222850   0.305   0.254   6.039
 7637TIP3   OH222851   4.032   7.640   5.064
 7637TIP3    H122852   3.938   7.658   5.070
 7637TIP3    H222853   4.073   7.725   5.082
 7638TIP3   OH222854   1.572   4.548   4.605
 7638TIP3    H122855   1.651   4.495   4.606
 7638TIP3    H222856   1.585   4.609   4.532
 7639TIP3   OH222857   6.940   4.341   4.622
 7639TIP3    H122858   6.870   4.276   4.624
 7639TIP3    H222859   6.997   4.313   4.551
 7640TIP3   OH222860   5.140   2.005   3.339
 7640TIP3    H122861   5.210   2.003   3.404
 7640TIP3    H222862   5.080   2.074   3.369
 7641TIP3   OH222863   2.449   3.605   3.102
 7641TIP3    H122864   2.482   3.550   3.031
 7641TIP3    H222865   2.451   3.549   3.180
 7642TIP3   OH222866   5.280   4.973   3.452
 7642TIP3    H122867   5.257   4.908   3.385
 7642TIP3    H222868   5.228   5.050   3.428
 7643TIP3   OH222869   6.833   4.097   0.535
 7643TIP3    H122870   6.901   4.161   0.560
 7643TIP3    H222871   6.856   4.073   0.445
 7644TIP3   OH222872   8.311   2.032   1.214
 7644TIP3    H122873   8.350   1.980   1.144
 7644TIP3    H222874   8.229   2.065   1.176
 7645TIP3   OH222875   5.921   2.866   1.103
 7645TIP3    H122876   5.941   2.794   1.163
 7645TIP3    H222877   5.826   2.865   1.095
 7646TIP3   OH222878   7.553   1.098   3.209
 7646TIP3    H122879   7.644   1.120   3.187
 7646TIP3    H222880   7.510   1.183   3.217
 7647TIP3   OH222881   2.448   0.446   6.296
 7647TIP3    H122882   2.422   0.372   6.240
 7647TIP3    H222883   2.400   0.520   6.259
 7648TIP3   OH222884   5.544   0.489   1.190
 7648TIP3    H122885   5.511   0.428   1.257
 7648TIP3    H222886   5.482   0.562   1.192
 7649TIP3   OH222887   0.686   2.701   0.219
 7649TIP3    H122888   0.658   2.755   0.294
 7649TIP3    H222889   0.615   2.638   0.208
 7650TIP3   OH222890   1.182   5.915   2.377
 7650TIP3    H122891   1.145   5.827   2.379
 7650TIP3    H222892   1.148   5.953   2.296
 7651TIP3   OH222893   1.880   6.480   5.192
 7651TIP3    H122894   1.834   6.446   5.268
 7651TIP3    H222895   1.897   6.572   5.213
 7652TIP3   OH222896   5.212   1.864   2.943
 7652TIP3    H122897   5.247   1.894   3.027
 7652TIP3    H222898   5.290   1.853   2.888
 7653TIP3   OH222899   5.097   2.539   2.160
 7653TIP3    H122900   5.010   2.513   2.189
 7653TIP3    H222901   5.081   2.608   2.096
 7654TIP3   OH222902   3.607   5.651   2.414
 7654TIP3    H122903   3.632   5.593   2.342
 7654TIP3    H222904   3.629   5.601   2.493
 7655TIP3   OH222905   6.084   2.810   3.700
 7655TIP3    H122906   6.025   2.884   3.686
 7655TIP3    H222907   6.063   2.778   3.788
 7656TIP3   OH222908   6.600   6.034   4.998
 7656TIP3    H122909   6.557   6.116   5.026
 7656TIP3    H222910   6.557   6.012   4.915
 7657TIP3   OH222911   2.010   0.597   1.824
 7657TIP3    H122912   2.042   0.543   1.751
 7657TIP3    H222913   1.999   0.535   1.896
 7658TIP3   OH222914   4.840   2.659   3.473
 7658TIP3    H122915   4.785   2.737   3.480
 7658TIP3    H222916   4.918   2.680   3.525
 7659TIP3   OH222917   5.345   1.537   5.815
 7659TIP3    H122918   5.282   1.478   5.857
 7659TIP3    H222919   5.410   1.554   5.883
 7660TIP3   OH222920   3.626   4.317   3.819
 7660TIP3    H122921   3.642   4.289   3.909
 7660TIP3    H222922   3.595   4.239   3.774
 7661TIP3   OH222923   3.874   3.385   2.336
 7661TIP3    H122924   3.901   3.398   2.245
 7661TIP3    H222925   3.921   3.454   2.384
 7662TIP3   OH222926   2.113   4.052   4.916
 7662TIP3    H122927   2.062   4.040   4.836
 7662TIP3    H222928   2.130   4.146   4.920
 7663TIP3   OH222929   4.592   1.934   1.742
 7663TIP3    H122930   4.521   1.927   1.806
 7663TIP3    H222931   4.547   1.936   1.657
 7664TIP3   OH222932   1.650   0.408   3.184
 7664TIP3    H122933   1.668   0.319   3.154
 7664TIP3    H222934   1.562   0.403   3.221
 7665TIP3   OH222935   1.353   0.876   2.896
 7665TIP3    H122936   1.370   0.826   2.816
 7665TIP3    H222937   1.296   0.948   2.869
 7666TIP3   OH222938   5.786   5.576   0.742
 7666TIP3    H122939   5.858   5.602   0.798
 7666TIP3    H222940   5.803   5.621   0.659
 7667TIP3   OH222941   5.144   4.662   0.703
 7667TIP3    H122942   5.196   4.732   0.743
 7667TIP3    H222943   5.085   4.634   0.773
 7668TIP3   OH222944   3.696   1.234   5.000
 7668TIP3    H122945   3.784   1.264   4.976
 7668TIP3    H222946   3.709   1.180   5.078
 7669TIP3   OH222947   3.567   1.628   1.102
 7669TIP3    H122948   3.575   1.554   1.042
 7669TIP3    H222949   3.533   1.590   1.183
 7670TIP3   OH222950   7.249   7.627   4.619
 7670TIP3    H122951   7.278   7.667   4.537
 7670TIP3    H222952   7.197   7.552   4.592
 7671TIP3   OH222953   4.422   1.147   5.633
 7671TIP3    H122954   4.411   1.239   5.655
 7671TIP3    H222955   4.341   1.106   5.661
 7672TIP3   OH222956   4.709   6.010   1.061
 7672TIP3    H122957   4.723   6.026   0.968
 7672TIP3    H222958   4.717   5.915   1.071
 7673TIP3   OH222959   6.159   5.453   1.707
 7673TIP3    H122960   6.087   5.413   1.756
 7673TIP3    H222961   6.116   5.499   1.635
 7674TIP3   OH222962   0.543   6.168   2.385
 7674TIP3    H122963   0.492   6.248   2.370
 7674TIP3    H222964   0.494   6.099   2.341
 7675TIP3   OH222965   4.704   3.553   3.437
 7675TIP3    H122966   4.729   3.467   3.402
 7675TIP3    H222967   4.781   3.608   3.421
 7676TIP3   OH222968   5.456   6.790   4.118
 7676TIP3    H122969   5.549   6.807   4.103
 7676TIP3    H222970   5.434   6.844   4.194
 7677TIP3   OH222971   3.260   7.697   0.701
 7677TIP3    H122972   3.355   7.710   0.695
 7677TIP3    H222973   3.244   7.619   0.648
 7678TIP3   OH222974   7.512  -0.002   0.357
 7678TIP3    H122975   7.421   0.009   0.384
 7678TIP3    H222976   7.561   0.061   0.410
 7679TIP3   OH222977   1.967   5.148   4.033
 7679TIP3    H122978   2.053   5.109   4.045
 7679TIP3    H222979   1.980   5.242   4.047
 7680TIP3   OH222980   1.023   6.171   1.831
 7680TIP3    H122981   0.976   6.241   1.786
 7680TIP3    H222982   1.107   6.210   1.855
 7681TIP3   OH222983   5.793   5.614   4.873
 7681TIP3    H122984   5.740   5.582   4.945
 7681TIP3    H222985   5.880   5.579   4.889
 7682TIP3   OH222986   4.638   4.677   0.331
 7682TIP3    H122987   4.708   4.692   0.395
 7682TIP3    H222988   4.596   4.763   0.322
 7683TIP3   OH222989   7.389   0.885   4.239
 7683TIP3    H122990   7.357   0.799   4.266
 7683TIP3    H222991   7.311   0.940   4.235
 7684TIP3   OH222992   4.941   4.362   4.955
 7684TIP3    H122993   4.933   4.412   5.036
 7684TIP3    H222994   4.975   4.426   4.892
 7685TIP3   OH222995   7.611   1.730   4.562
 7685TIP3    H122996   7.612   1.784   4.484
 7685TIP3    H222997   7.685   1.761   4.614
 7686TIP3   OH222998   3.487   0.423   5.902
 7686TIP3    H122999   3.463   0.336   5.933
 7686TIP3    H223000   3.426   0.440   5.831
 7687TIP3   OH223001   3.530   7.077   3.099
 7687TIP3    H123002   3.580   7.116   3.027
 7687TIP3    H223003   3.597   7.048   3.161
 7688TIP3   OH223004   0.028   7.661   6.464
 7688TIP3    H123005   0.098   7.702   6.516
 7688TIP3    H223006   0.074   7.603   6.404
 7689TIP3   OH223007   2.074   4.383   4.218
 7689TIP3    H123008   2.103   4.292   4.210
 7689TIP3    H223009   2.001   4.391   4.156
 7690TIP3   OH223010   1.858   1.982   1.291
 7690TIP3    H123011   1.919   1.910   1.275
 7690TIP3    H223012   1.908   2.044   1.343
 7691TIP3   OH223013   6.584   7.732   5.713
 7691TIP3    H123014   6.648   7.798   5.737
 7691TIP3    H223015   6.500   7.769   5.741
 7692TIP3   OH223016   3.396   1.722   0.050
 7692TIP3    H123017   3.416   1.810   0.081
 7692TIP3    H223018   3.421   1.664   0.122
 7693TIP3   OH223019   6.869   4.698   0.971
 7693TIP3    H123020   6.953   4.673   0.934
 7693TIP3    H223021   6.807   4.688   0.898
 7694TIP3   OH223022   5.423   7.600   4.667
 7694TIP3    H123023   5.357   7.616   4.599
 7694TIP3    H223024   5.496   7.657   4.644
 7695TIP3   OH223025   4.157   3.509   0.483
 7695TIP3    H123026   4.128   3.519   0.574
 7695TIP3    H223027   4.231   3.569   0.475
 7696TIP3   OH223028   0.160   6.156   0.222
 7696TIP3    H123029   0.138   6.226   0.283
 7696TIP3    H223030   0.228   6.193   0.166
 7697TIP3   OH223031   5.440   4.989   0.940
 7697TIP3    H123032   5.403   4.911   0.982
 7697TIP3    H223033   5.425   5.060   1.002
 7698TIP3   OH223034   1.444   5.010   3.934
 7698TIP3    H123035   1.530   5.051   3.925
 7698TIP3    H223036   1.463   4.918   3.951
 7699TIP3   OH223037   5.848   1.036   0.444
 7699TIP3    H123038   5.820   1.128   0.450
 7699TIP3    H223039   5.935   1.041   0.403
 7700TIP3   OH223040   6.605   4.399   5.170
 7700TIP3    H123041   6.695   4.428   5.178
 7700TIP3    H223042   6.578   4.429   5.083
 7701TIP3   OH223043   7.529   5.717   1.939
 7701TIP3    H123044   7.570   5.653   1.882
 7701TIP3    H223045   7.437   5.717   1.913
 7702TIP3   OH223046   6.129   1.406   5.325
 7702TIP3    H123047   6.069   1.348   5.370
 7702TIP3    H223048   6.213   1.394   5.369
 7703TIP3   OH223049   1.199   0.641   2.989
 7703TIP3    H123050   1.235   0.728   3.003
 7703TIP3    H223051   1.105   0.654   2.981
 7704TIP3   OH223052   5.520   3.796   3.484
 7704TIP3    H123053   5.563   3.778   3.568
 7704TIP3    H223054   5.558   3.734   3.423
 7705TIP3   OH223055   5.522   1.622   3.493
 7705TIP3    H123056   5.602   1.569   3.499
 7705TIP3    H223057   5.489   1.624   3.583
 7706TIP3   OH223058   3.917   7.213   5.545
 7706TIP3    H123059   3.996   7.171   5.513
 7706TIP3    H223060   3.918   7.197   5.639
 7707TIP3   OH223061   3.641   3.231   6.629
 7707TIP3    H123062   3.676   3.318   6.649
 7707TIP3    H223063   3.580   3.213   6.700
 7708TIP3   OH223064   6.529   7.648   5.446
 7708TIP3    H123065   6.533   7.670   5.539
 7708TIP3    H223066   6.518   7.733   5.402
 7709TIP3   OH223067   0.118   0.309   1.569
 7709TIP3    H123068   0.102   0.402   1.556
 7709TIP3    H223069   0.186   0.288   1.505
 7710TIP3   OH223070   7.477   5.702   5.805
 7710TIP3    H123071   7.568   5.706   5.774
 7710TIP3    H223072   7.467   5.613   5.839
 7711TIP3   OH223073   5.823   4.661   0.590
 7711TIP3    H123074   5.856   4.640   0.503
 7711TIP3    H223075   5.774   4.583   0.617
 7712TIP3   OH223076   0.893   1.917   6.613
 7712TIP3    H123077   0.907   1.992   6.555
 7712TIP3    H223078   0.970   1.863   6.602
 7713TIP3   OH223079   7.939   5.625   5.413
 7713TIP3    H123080   7.891   5.646   5.332
 7713TIP3    H223081   7.876   5.576   5.466
 7714TIP3   OH223082   1.059   1.903   6.038
 7714TIP3    H123083   0.973   1.943   6.050
 7714TIP3    H223084   1.095   1.895   6.126
 7715TIP3   OH223085   8.087   3.203   3.761
 7715TIP3    H123086   8.106   3.140   3.692
 7715TIP3    H223087   8.097   3.288   3.719
 7716TIP3   OH223088   3.045   4.167   2.188
 7716TIP3    H123089   2.994   4.243   2.216
 7716TIP3    H223090   3.008   4.143   2.103
 7717TIP3   OH223091   1.926   2.045   2.439
 7717TIP3    H123092   1.968   2.087   2.364
 7717TIP3    H223093   1.923   2.113   2.506
 7718TIP3   OH223094   0.258   3.327   1.447
 7718TIP3    H123095   0.257   3.231   1.447
 7718TIP3    H223096   0.292   3.352   1.533
 7719TIP3   OH223097   4.633   2.859   3.496
 7719TIP3    H123098   4.590   2.881   3.579
 7719TIP3    H223099   4.561   2.841   3.436
 7720TIP3   OH223100   1.260   7.096   3.438
 7720TIP3    H123101   1.236   7.052   3.356
 7720TIP3    H223102   1.209   7.051   3.505
 7721TIP3   OH223103   0.352   6.144   4.531
 7721TIP3    H123104   0.303   6.099   4.600
 7721TIP3    H223105   0.295   6.216   4.504
 7722TIP3   OH223106   5.150   7.003   2.841
 7722TIP3    H123107   5.149   6.913   2.810
 7722TIP3    H223108   5.100   7.002   2.923
 7723TIP3   OH223109   6.723   1.276   0.171
 7723TIP3    H123110   6.744   1.367   0.195
 7723TIP3    H223111   6.807   1.230   0.177
 7724TIP3   OH223112   4.364   6.337   3.781
 7724TIP3    H123113   4.385   6.271   3.715
 7724TIP3    H223114   4.279   6.372   3.755
 7725TIP3   OH223115   0.739   3.981   3.238
 7725TIP3    H123116   0.655   4.020   3.213
 7725TIP3    H223117   0.768   4.033   3.313
 7726TIP3   OH223118   3.277   1.315   6.025
 7726TIP3    H123119   3.312   1.352   5.944
 7726TIP3    H223120   3.302   1.378   6.092
 7727TIP3   OH223121   8.054   0.508   6.161
 7727TIP3    H123122   8.009   0.515   6.245
 7727TIP3    H223123   8.078   0.415   6.155
 7728TIP3   OH223124   2.187   5.817   0.981
 7728TIP3    H123125   2.142   5.851   1.058
 7728TIP3    H223126   2.151   5.866   0.908
 7729TIP3   OH223127   0.295   6.401   5.221
 7729TIP3    H123128   0.344   6.381   5.300
 7729TIP3    H223129   0.342   6.355   5.151
 7730TIP3   OH223130   6.920   4.965   6.575
 7730TIP3    H123131   6.828   4.943   6.590
 7730TIP3    H223132   6.943   4.917   6.495
 7731TIP3   OH223133   8.203   3.595   6.760
 7731TIP3    H123134   8.234   3.583   6.850
 7731TIP3    H223135   8.150   3.518   6.742
 7732TIP3   OH223136   7.987   6.186   5.587
 7732TIP3    H123137   8.075   6.183   5.548
 7732TIP3    H223138   7.932   6.139   5.525
 7733TIP3   OH223139   1.850   5.762   2.019
 7733TIP3    H123140   1.816   5.712   1.945
 7733TIP3    H223141   1.778   5.763   2.082
 7734TIP3   OH223142   4.797   2.609   6.011
 7734TIP3    H123143   4.788   2.517   6.035
 7734TIP3    H223144   4.873   2.640   6.061
 7735TIP3   OH223145   3.386   2.356   3.853
 7735TIP3    H123146   3.432   2.350   3.937
 7735TIP3    H223147   3.295   2.374   3.878
 7736TIP3   OH223148   3.952   3.753   2.086
 7736TIP3    H123149   3.922   3.843   2.070
 7736TIP3    H223150   3.901   3.700   2.024
 7737TIP3   OH223151   0.576   6.877   5.491
 7737TIP3    H123152   0.628   6.952   5.461
 7737TIP3    H223153   0.524   6.852   5.415
 7738TIP3   OH223154   7.430   1.900   5.920
 7738TIP3    H123155   7.365   1.895   5.850
 7738TIP3    H223156   7.441   1.994   5.936
 7739TIP3   OH223157   0.822   0.849   0.989
 7739TIP3    H123158   0.788   0.769   1.029
 7739TIP3    H223159   0.745   0.905   0.980
 7740TIP3   OH223160   7.247   1.184   6.605
 7740TIP3    H123161   7.175   1.228   6.559
 7740TIP3    H223162   7.285   1.126   6.539
 7741TIP3   OH223163   7.107   2.240   0.769
 7741TIP3    H123164   7.181   2.192   0.731
 7741TIP3    H223165   7.043   2.245   0.698
 7742TIP3   OH223166   5.268   2.465   1.045
 7742TIP3    H123167   5.322   2.544   1.042
 7742TIP3    H223168   5.326   2.395   1.014
 7743TIP3   OH223169   6.351   1.443   4.723
 7743TIP3    H123170   6.257   1.422   4.722
 7743TIP3    H223171   6.362   1.498   4.801
 7744TIP3   OH223172   2.840   4.930   1.512
 7744TIP3    H123173   2.834   4.838   1.488
 7744TIP3    H223174   2.814   4.932   1.604
 7745TIP3   OH223175   6.050   1.748   1.047
 7745TIP3    H123176   6.097   1.723   0.967
 7745TIP3    H223177   5.983   1.810   1.018
 7746TIP3   OH223178   6.892   3.779   0.949
 7746TIP3    H123179   6.855   3.860   0.913
 7746TIP3    H223180   6.823   3.745   1.006
 7747TIP3   OH223181   2.632   5.308   1.304
 7747TIP3    H123182   2.696   5.335   1.238
 7747TIP3    H223183   2.646   5.214   1.315
 7748TIP3   OH223184   7.230   7.855   5.444
 7748TIP3    H123185   7.196   7.893   5.525
 7748TIP3    H223186   7.272   7.929   5.399
 7749TIP3   OH223187   7.484   6.618   5.655
 7749TIP3    H123188   7.401   6.649   5.619
 7749TIP3    H223189   7.485   6.524   5.634
 7750TIP3   OH223190   2.388   1.495   0.870
 7750TIP3    H123191   2.428   1.504   0.784
 7750TIP3    H223192   2.439   1.551   0.928
 7751TIP3   OH223193   1.997   6.738   3.614
 7751TIP3    H123194   1.941   6.793   3.557
 7751TIP3    H223195   1.939   6.667   3.642
 7752TIP3   OH223196   7.972   6.699   4.598
 7752TIP3    H123197   7.926   6.617   4.578
 7752TIP3    H223198   7.938   6.725   4.684
 7753TIP3   OH223199   4.774   2.530   1.684
 7753TIP3    H123200   4.686   2.513   1.650
 7753TIP3    H223201   4.777   2.625   1.696
 7754TIP3   OH223202   0.513   3.604   1.475
 7754TIP3    H123203   0.583   3.658   1.511
 7754TIP3    H223204   0.522   3.613   1.380
 7755TIP3   OH223205   1.058   1.416   4.810
 7755TIP3    H123206   0.993   1.451   4.872
 7755TIP3    H223207   1.135   1.399   4.864
 7756TIP3   OH223208   4.336   7.594   3.512
 7756TIP3    H123209   4.411   7.634   3.555
 7756TIP3    H223210   4.312   7.655   3.442
 7757TIP3   OH223211   1.079   3.950   0.050
 7757TIP3    H123212   1.013   3.946  -0.020
 7757TIP3    H223213   1.151   3.999   0.011
 7758TIP3   OH223214   5.547   4.390   1.513
 7758TIP3    H123215   5.536   4.318   1.451
 7758TIP3    H223216   5.462   4.400   1.554
 7759TIP3   OH223217   6.933   5.729   4.291
 7759TIP3    H123218   6.967   5.664   4.230
 7759TIP3    H223219   6.878   5.678   4.351
 7760TIP3   OH223220   6.704   3.380   4.956
 7760TIP3    H123221   6.715   3.366   5.050
 7760TIP3    H223222   6.770   3.323   4.916
 7761TIP3   OH223223   6.115   6.433   2.954
 7761TIP3    H123224   6.161   6.466   2.877
 7761TIP3    H223225   6.035   6.485   2.958
 7762TIP3   OH223226   4.325   7.057   2.590
 7762TIP3    H123227   4.395   7.090   2.647
 7762TIP3    H223228   4.368   6.994   2.533
 7763TIP3   OH223229   4.186   6.116   3.437
 7763TIP3    H123230   4.231   6.031   3.434
 7763TIP3    H223231   4.109   6.100   3.491
 7764TIP3   OH223232   4.817   4.911   6.304
 7764TIP3    H123233   4.867   4.988   6.331
 7764TIP3    H223234   4.849   4.891   6.216
 7765TIP3   OH223235   2.434   6.185   3.976
 7765TIP3    H123236   2.343   6.170   3.949
 7765TIP3    H223237   2.427   6.239   4.054
 7766TIP3   OH223238   2.239   5.203   5.036
 7766TIP3    H123239   2.181   5.277   5.021
 7766TIP3    H223240   2.182   5.133   5.068
 7767TIP3   OH223241   1.420   1.229   3.403
 7767TIP3    H123242   1.485   1.207   3.470
 7767TIP3    H223243   1.340   1.248   3.452
 7768TIP3   OH223244   7.721   3.216   1.787
 7768TIP3    H123245   7.756   3.263   1.711
 7768TIP3    H223246   7.657   3.155   1.750
 7769TIP3   OH223247   4.802   6.353   0.807
 7769TIP3    H123248   4.708   6.348   0.823
 7769TIP3    H223249   4.832   6.426   0.861
 7770TIP3   OH223250   2.969   5.683   1.546
 7770TIP3    H123251   2.991   5.706   1.456
 7770TIP3    H223252   3.000   5.593   1.557
 7771TIP3   OH223253   4.579   6.203   1.412
 7771TIP3    H123254   4.570   6.174   1.321
 7771TIP3    H223255   4.517   6.276   1.421
 7772TIP3   OH223256   4.421   0.826   5.028
 7772TIP3    H123257   4.456   0.765   5.093
 7772TIP3    H223258   4.375   0.892   5.080
 7773TIP3   OH223259   6.585   3.005   3.953
 7773TIP3    H123260   6.639   3.019   3.876
 7773TIP3    H223261   6.560   3.092   3.982
 7774TIP3   OH223262   7.218   2.035   0.566
 7774TIP3    H123263   7.144   1.974   0.561
 7774TIP3    H223264   7.247   2.045   0.476
 7775TIP3   OH223265   5.245   2.544   3.494
 7775TIP3    H123266   5.218   2.453   3.497
 7775TIP3    H223267   5.329   2.546   3.540
 7776TIP3   OH223268   0.279   4.840   2.229
 7776TIP3    H123269   0.370   4.867   2.218
 7776TIP3    H223270   0.284   4.746   2.249
 7777TIP3   OH223271   1.426   2.247   5.843
 7777TIP3    H123272   1.440   2.304   5.767
 7777TIP3    H223273   1.333   2.224   5.839
 7778TIP3   OH223274   8.192   1.677   2.710
 7778TIP3    H123275   8.257   1.636   2.652
 7778TIP3    H223276   8.112   1.627   2.694
 7779TIP3   OH223277   7.985   5.770   6.168
 7779TIP3    H123278   8.052   5.710   6.203
 7779TIP3    H223279   7.930   5.715   6.113
 7780TIP3   OH223280   7.041   1.179   6.793
 7780TIP3    H123281   7.082   1.245   6.849
 7780TIP3    H223282   7.114   1.126   6.761
 7781TIP3   OH223283   7.689   0.034   5.107
 7781TIP3    H123284   7.627   0.090   5.153
 7781TIP3    H223285   7.775   0.066   5.135
 7782TIP3   OH223286   6.405   4.307   2.939
 7782TIP3    H123287   6.319   4.269   2.954
 7782TIP3    H223288   6.427   4.282   2.849
 7783TIP3   OH223289   0.710   4.998   0.018
 7783TIP3    H123290   0.709   5.062  -0.053
 7783TIP3    H223291   0.802   4.977   0.031
 7784TIP3   OH223292   3.725   1.051   1.997
 7784TIP3    H123293   3.776   1.124   1.962
 7784TIP3    H223294   3.750   1.047   2.089
 7785TIP3   OH223295   3.533   1.790   4.415
 7785TIP3    H123296   3.490   1.819   4.335
 7785TIP3    H223297   3.538   1.695   4.407
 7786TIP3   OH223298   7.408   6.818   6.284
 7786TIP3    H123299   7.340   6.771   6.237
 7786TIP3    H223300   7.490   6.785   6.247
 7787TIP3   OH223301   5.888   6.358   6.611
 7787TIP3    H123302   5.903   6.280   6.557
 7787TIP3    H223303   5.916   6.431   6.557
 7788TIP3   OH223304   4.782   4.852   3.212
 7788TIP3    H123305   4.803   4.931   3.261
 7788TIP3    H223306   4.728   4.801   3.272
 7789TIP3   OH223307   7.028   3.067   3.197
 7789TIP3    H123308   7.091   3.001   3.168
 7789TIP3    H223309   7.042   3.141   3.138
 7790TIP3   OH223310   1.937   2.560   1.194
 7790TIP3    H123311   1.998   2.547   1.121
 7790TIP3    H223312   1.868   2.496   1.180
 7791TIP3   OH223313   2.880   3.846   0.110
 7791TIP3    H123314   2.890   3.783   0.182
 7791TIP3    H223315   2.969   3.864   0.082
 7792TIP3   OH223316   5.510   1.595   3.751
 7792TIP3    H123317   5.569   1.600   3.826
 7792TIP3    H223318   5.483   1.503   3.748
 7793TIP3   OH223319   0.083   4.088   3.743
 7793TIP3    H123320   0.147   4.017   3.742
 7793TIP3    H223321   0.014   4.057   3.801
 7794TIP3   OH223322   5.273   1.427   6.167
 7794TIP3    H123323   5.280   1.423   6.263
 7794TIP3    H223324   5.332   1.498   6.142
 7795TIP3   OH223325   5.257   0.447   3.116
 7795TIP3    H123326   5.291   0.475   3.031
 7795TIP3    H223327   5.245   0.528   3.165
 7796TIP3   OH223328   7.813   2.006   0.705
 7796TIP3    H123329   7.837   1.968   0.789
 7796TIP3    H223330   7.744   2.069   0.726
 7797TIP3   OH223331   5.788   2.232   6.148
 7797TIP3    H123332   5.774   2.300   6.213
 7797TIP3    H223333   5.865   2.184   6.179
 7798TIP3   OH223334   6.080   0.727   3.412
 7798TIP3    H123335   6.099   0.675   3.490
 7798TIP3    H223336   6.095   0.817   3.440
 7799TIP3   OH223337   5.958   3.203   6.485
 7799TIP3    H123338   5.872   3.232   6.455
 7799TIP3    H223339   5.970   3.247   6.569
 7800TIP3   OH223340   3.767   4.640   2.676
 7800TIP3    H123341   3.762   4.545   2.667
 7800TIP3    H223342   3.788   4.654   2.768
 7801TIP3   OH223343  -0.001   0.380   1.045
 7801TIP3    H123344   0.022   0.300   1.092
 7801TIP3    H223345   0.021   0.451   1.106
 7802TIP3   OH223346   3.029   3.670   2.655
 7802TIP3    H123347   3.072   3.645   2.573
 7802TIP3    H223348   2.960   3.731   2.628
 7803TIP3   OH223349   1.980   4.869   4.419
 7803TIP3    H123350   1.932   4.911   4.348
 7803TIP3    H223351   2.053   4.824   4.376
 7804TIP3   OH223352   8.376   3.896   6.090
 7804TIP3    H123353   8.420   3.829   6.037
 7804TIP3    H223354   8.325   3.946   6.027
 7805TIP3   OH223355   0.775   1.871   3.539
 7805TIP3    H123356   0.832   1.794   3.545
 7805TIP3    H223357   0.785   1.901   3.448
 7806TIP3   OH223358   5.506   2.496   3.634
 7806TIP3    H123359   5.470   2.508   3.722
 7806TIP3    H223360   5.519   2.401   3.627
 7807TIP3   OH223361   3.891   1.837   3.652
 7807TIP3    H123362   3.962   1.901   3.660
 7807TIP3    H223363   3.826   1.880   3.597
 7808TIP3   OH223364   5.904   4.768   0.838
 7808TIP3    H123365   5.910   4.690   0.893
 7808TIP3    H223366   5.851   4.740   0.763
 7809TIP3   OH223367   1.098   0.845   5.326
 7809TIP3    H123368   1.054   0.772   5.284
 7809TIP3    H223369   1.186   0.846   5.288
 7810TIP3   OH223370   3.816   2.661   2.424
 7810TIP3    H123371   3.862   2.591   2.378
 7810TIP3    H223372   3.784   2.719   2.355
 7811TIP3   OH223373   2.390   5.659   0.398
 7811TIP3    H123374   2.320   5.624   0.452
 7811TIP3    H223375   2.444   5.710   0.459
 7812TIP3   OH223376   3.517   6.090   1.419
 7812TIP3    H123377   3.534   5.997   1.433
 7812TIP3    H223378   3.514   6.100   1.324
 7813TIP3   OH223379   3.626   3.128   6.010
 7813TIP3    H123380   3.534   3.113   5.987
 7813TIP3    H223381   3.629   3.118   6.105
 7814TIP3   OH223382   1.258   0.586   0.961
 7814TIP3    H123383   1.346   0.622   0.974
 7814TIP3    H223384   1.201   0.663   0.958
 7815TIP3   OH223385   0.873   2.914   5.120
 7815TIP3    H123386   0.959   2.948   5.143
 7815TIP3    H223387   0.813   2.986   5.138
 7816TIP3   OH223388   2.493   2.933   5.706
 7816TIP3    H123389   2.410   2.904   5.671
 7816TIP3    H223390   2.536   2.977   5.633
 7817TIP3   OH223391   3.408   0.468   4.499
 7817TIP3    H123392   3.337   0.403   4.497
 7817TIP3    H223393   3.483   0.421   4.463
 7818TIP3   OH223394   5.270   3.716   5.714
 7818TIP3    H123395   5.297   3.624   5.713
 7818TIP3    H223396   5.175   3.712   5.724
 7819TIP3   OH223397   4.274   2.725   6.369
 7819TIP3    H123398   4.257   2.643   6.415
 7819TIP3    H223399   4.307   2.698   6.283
 7820TIP3   OH223400   2.270   3.598   4.899
 7820TIP3    H123401   2.295   3.690   4.891
 7820TIP3    H223402   2.243   3.572   4.811
 7821TIP3   OH223403   2.179   0.911   1.304
 7821TIP3    H123404   2.221   0.984   1.349
 7821TIP3    H223405   2.210   0.918   1.214
 7822TIP3   OH223406   2.470   7.738   2.450
 7822TIP3    H123407   2.478   7.758   2.356
 7822TIP3    H223408   2.558   7.754   2.485
 7823TIP3   OH223409   6.741   7.092   0.756
 7823TIP3    H123410   6.820   7.083   0.703
 7823TIP3    H223411   6.756   7.169   0.810
 7824TIP3   OH223412   2.019   6.711   1.489
 7824TIP3    H123413   2.051   6.787   1.439
 7824TIP3    H223414   2.099   6.668   1.521
 7825TIP3   OH223415   2.565   1.981   6.305
 7825TIP3    H123416   2.611   1.903   6.274
 7825TIP3    H223417   2.621   2.014   6.376
 7826TIP3   OH223418   5.682   5.814   6.175
 7826TIP3    H123419   5.705   5.867   6.251
 7826TIP3    H223420   5.765   5.796   6.132
 7827TIP3   OH223421   6.341   2.965   1.466
 7827TIP3    H123422   6.396   2.968   1.388
 7827TIP3    H223423   6.402   2.973   1.539
 7828TIP3   OH223424   3.912   7.137   5.005
 7828TIP3    H123425   3.910   7.091   5.089
 7828TIP3    H223426   3.974   7.087   4.952
 7829TIP3   OH223427   1.818   6.086   0.446
 7829TIP3    H123428   1.769   6.038   0.513
 7829TIP3    H223429   1.850   6.164   0.492
 7830TIP3   OH223430   5.910   4.041   1.917
 7830TIP3    H123431   5.866   3.960   1.943
 7830TIP3    H223432   5.937   4.081   2.000
 7831TIP3   OH223433   4.321   0.134   4.426
 7831TIP3    H123434   4.234   0.144   4.386
 7831TIP3    H223435   4.351   0.048   4.398
 7832TIP3   OH223436   7.940   3.948   5.979
 7832TIP3    H123437   7.976   4.036   5.977
 7832TIP3    H223438   7.979   3.907   6.056
 7833TIP3   OH223439   3.447   0.385   5.085
 7833TIP3    H123440   3.531   0.374   5.042
 7833TIP3    H223441   3.385   0.337   5.029
 7834TIP3   OH223442   6.891   5.195   4.747
 7834TIP3    H123443   6.859   5.114   4.788
 7834TIP3    H223444   6.814   5.252   4.744
 7835TIP3   OH223445   6.442   0.178   0.203
 7835TIP3    H123446   6.514   0.153   0.260
 7835TIP3    H223447   6.379   0.106   0.209
 7836TIP3   OH223448   2.950   7.701   5.010
 7836TIP3    H123449   2.930   7.756   5.086
 7836TIP3    H223450   2.864   7.671   4.979
 7837TIP3   OH223451   5.832   0.774   0.153
 7837TIP3    H123452   5.905   0.713   0.141
 7837TIP3    H223453   5.758   0.730   0.110
 7838TIP3   OH223454   1.003   5.292   0.048
 7838TIP3    H123455   1.006   5.282  -0.048
 7838TIP3    H223456   1.007   5.203   0.081
 7839TIP3   OH223457   1.947   2.438   4.903
 7839TIP3    H123458   1.872   2.451   4.962
 7839TIP3    H223459   1.993   2.363   4.940
 7840TIP3   OH223460   0.392   6.604   2.149
 7840TIP3    H123461   0.467   6.565   2.104
 7840TIP3    H223462   0.316   6.573   2.101
 7841TIP3   OH223463   2.543   2.455   1.454
 7841TIP3    H123464   2.582   2.367   1.457
 7841TIP3    H223465   2.498   2.458   1.370
 7842TIP3   OH223466   6.046   3.962   0.564
 7842TIP3    H123467   6.067   4.022   0.635
 7842TIP3    H223468   5.950   3.956   0.566
 7843TIP3   OH223469   5.349   5.064   0.418
 7843TIP3    H123470   5.368   5.141   0.472
 7843TIP3    H223471   5.354   5.096   0.328
 7844TIP3   OH223472   6.195   3.268   3.348
 7844TIP3    H123473   6.289   3.281   3.337
 7844TIP3    H223474   6.177   3.184   3.306
 7845TIP3   OH223475   4.857   4.525   3.323
 7845TIP3    H123476   4.910   4.589   3.372
 7845TIP3    H223477   4.773   4.569   3.309
 7846TIP3   OH223478   4.171   5.606   5.486
 7846TIP3    H123479   4.102   5.598   5.552
 7846TIP3    H223480   4.213   5.519   5.486
 7847TIP3   OH223481   0.944   7.112   1.884
 7847TIP3    H123482   0.931   7.159   1.967
 7847TIP3    H223483   0.939   7.180   1.817
 7848TIP3   OH223484   7.747   1.124   2.357
 7848TIP3    H123485   7.699   1.050   2.394
 7848TIP3    H223486   7.838   1.109   2.383
 7849TIP3   OH223487   5.955   6.189   3.325
 7849TIP3    H123488   5.946   6.261   3.387
 7849TIP3    H223489   6.019   6.220   3.261
 7850TIP3   OH223490   6.462   6.650   3.153
 7850TIP3    H123491   6.406   6.708   3.101
 7850TIP3    H223492   6.437   6.668   3.244
 7851TIP3   OH223493   0.928   5.036   0.404
 7851TIP3    H123494   0.922   4.943   0.426
 7851TIP3    H223495   0.974   5.038   0.320
 7852TIP3   OH223496   5.003   0.698   3.980
 7852TIP3    H123497   5.015   0.675   4.073
 7852TIP3    H223498   5.042   0.784   3.971
 7853TIP3   OH223499   0.477   2.321   1.401
 7853TIP3    H123500   0.560   2.283   1.370
 7853TIP3    H223501   0.450   2.263   1.472
 7854TIP3   OH223502   5.862   7.757   2.835
 7854TIP3    H123503   5.821   7.761   2.921
 7854TIP3    H223504   5.876   7.663   2.820
 7855TIP3   OH223505   0.720   2.800   4.510
 7855TIP3    H123506   0.658   2.853   4.560
 7855TIP3    H223507   0.677   2.788   4.424
 7856TIP3   OH223508   6.553   1.305   3.068
 7856TIP3    H123509   6.491   1.357   3.017
 7856TIP3    H223510   6.589   1.243   3.005
 7857TIP3   OH223511   0.920   1.041   3.376
 7857TIP3    H123512   1.001   1.063   3.330
 7857TIP3    H223513   0.949   0.988   3.450
 7858TIP3   OH223514   0.935   5.367   5.662
 7858TIP3    H123515   0.903   5.294   5.608
 7858TIP3    H223516   0.889   5.444   5.628
 7859TIP3   OH223517   1.776   2.919   5.250
 7859TIP3    H123518   1.681   2.912   5.241
 7859TIP3    H223519   1.795   2.876   5.333
 7860TIP3   OH223520   0.136   2.068   4.244
 7860TIP3    H123521   0.230   2.049   4.241
 7860TIP3    H223522   0.128   2.156   4.206
 7861TIP3   OH223523   6.807   3.884   6.293
 7861TIP3    H123524   6.753   3.866   6.216
 7861TIP3    H223525   6.755   3.852   6.367
 7862TIP3   OH223526   1.138   3.595   5.570
 7862TIP3    H123527   1.130   3.605   5.665
 7862TIP3    H223528   1.107   3.506   5.553
 7863TIP3   OH223529   1.796   2.574   3.340
 7863TIP3    H123530   1.819   2.488   3.306
 7863TIP3    H223531   1.872   2.629   3.319
 7864TIP3   OH223532   5.086   1.923   2.700
 7864TIP3    H123533   5.029   1.975   2.758
 7864TIP3    H223534   5.126   1.859   2.759
 7865TIP3   OH223535   7.912   2.944   0.601
 7865TIP3    H123536   7.960   3.012   0.648
 7865TIP3    H223537   7.962   2.864   0.617
 7866TIP3   OH223538   5.389   1.808   5.383
 7866TIP3    H123539   5.317   1.869   5.402
 7866TIP3    H223540   5.385   1.744   5.455
 7867TIP3   OH223541   0.371   4.377   1.710
 7867TIP3    H123542   0.358   4.467   1.679
 7867TIP3    H223543   0.407   4.331   1.634
 7868TIP3   OH223544   4.368   7.638   0.258
 7868TIP3    H123545   4.400   7.548   0.268
 7868TIP3    H223546   4.442   7.686   0.222
 7869TIP3   OH223547   6.238   5.977   4.535
 7869TIP3    H123548   6.222   5.886   4.509
 7869TIP3    H223549   6.164   5.999   4.592
 7870TIP3   OH223550   2.361   5.851   2.211
 7870TIP3    H123551   2.326   5.939   2.226
 7870TIP3    H223552   2.324   5.799   2.283
 7871TIP3   OH223553   8.164   1.750   5.796
 7871TIP3    H123554   8.163   1.675   5.737
 7871TIP3    H223555   8.104   1.725   5.867
 7872TIP3   OH223556   1.681   6.138   2.610
 7872TIP3    H123557   1.715   6.049   2.612
 7872TIP3    H223558   1.695   6.167   2.520
 7873TIP3   OH223559   6.593   2.318   1.503
 7873TIP3    H123560   6.591   2.257   1.429
 7873TIP3    H223561   6.510   2.303   1.549
 7874TIP3   OH223562   7.979   2.472   0.544
 7874TIP3    H123563   8.009   2.454   0.633
 7874TIP3    H223564   8.004   2.395   0.493
 7875TIP3   OH223565   0.043   6.268   5.311
 7875TIP3    H123566   0.048   6.185   5.263
 7875TIP3    H223567   0.131   6.306   5.301
 7876TIP3   OH223568   5.248   3.649   6.033
 7876TIP3    H123569   5.192   3.572   6.041
 7876TIP3    H223570   5.336   3.615   6.023
 7877TIP3   OH223571   6.291   3.922   3.303
 7877TIP3    H123572   6.297   3.940   3.397
 7877TIP3    H223573   6.351   3.985   3.263
 7878TIP3   OH223574   0.882   2.624   0.757
 7878TIP3    H123575   0.876   2.633   0.662
 7878TIP3    H223576   0.943   2.692   0.784
 7879TIP3   OH223577   0.144   7.781   2.342
 7879TIP3    H123578   0.124   7.775   2.435
 7879TIP3    H223579   0.125   7.694   2.308
 7880TIP3   OH223580   8.309   0.780   0.532
 7880TIP3    H123581   8.376   0.715   0.510
 7880TIP3    H223582   8.356   0.845   0.586
 7881TIP3   OH223583   0.868   3.747   4.544
 7881TIP3    H123584   0.867   3.842   4.553
 7881TIP3    H223585   0.776   3.722   4.542
 7882TIP3   OH223586   1.424   1.876   6.082
 7882TIP3    H123587   1.417   1.915   6.169
 7882TIP3    H223588   1.401   1.784   6.096
 7883TIP3   OH223589   0.193   1.685   3.637
 7883TIP3    H123590   0.161   1.598   3.615
 7883TIP3    H223591   0.186   1.690   3.733
 7884TIP3   OH223592   5.754   1.186   6.665
 7884TIP3    H123593   5.763   1.272   6.705
 7884TIP3    H223594   5.728   1.203   6.575
 7885TIP3   OH223595   0.602   2.443   0.625
 7885TIP3    H123596   0.637   2.446   0.536
 7885TIP3    H223597   0.601   2.534   0.653
 7886TIP3   OH223598   3.641   4.183   2.009
 7886TIP3    H123599   3.552   4.191   1.976
 7886TIP3    H223600   3.638   4.109   2.069
 7887TIP3   OH223601   0.883   7.755   0.041
 7887TIP3    H123602   0.798   7.722   0.010
 7887TIP3    H223603   0.938   7.759  -0.037
 7888TIP3   OH223604   2.714   1.073   1.974
 7888TIP3    H123605   2.700   1.163   2.002
 7888TIP3    H223606   2.634   1.050   1.926
 7889TIP3   OH223607   6.627   4.815   0.191
 7889TIP3    H123608   6.586   4.827   0.277
 7889TIP3    H223609   6.642   4.720   0.185
 7890TIP3   OH223610   6.714   4.214   1.896
 7890TIP3    H123611   6.779   4.156   1.855
 7890TIP3    H223612   6.761   4.297   1.906
 7891TIP3   OH223613   2.614   7.460   3.061
 7891TIP3    H123614   2.656   7.401   2.998
 7891TIP3    H223615   2.555   7.514   3.009
 7892TIP3   OH223616   0.239   2.200   0.403
 7892TIP3    H123617   0.315   2.208   0.460
 7892TIP3    H223618   0.230   2.106   0.388
 7893TIP3   OH223619   7.871   0.584   5.039
 7893TIP3    H123620   7.964   0.566   5.049
 7893TIP3    H223621   7.843   0.528   4.966
 7894TIP3   OH223622   6.803   5.340   0.959
 7894TIP3    H123623   6.831   5.396   1.031
 7894TIP3    H223624   6.884   5.300   0.926
 7895TIP3   OH223625   2.115   2.568   6.484
 7895TIP3    H123626   2.109   2.573   6.580
 7895TIP3    H223627   2.024   2.571   6.455
 7896TIP3   OH223628   3.126   3.025   5.777
 7896TIP3    H123629   3.039   2.991   5.754
 7896TIP3    H223630   3.116   3.058   5.866
 7897TIP3   OH223631   7.106   4.405   1.696
 7897TIP3    H123632   7.121   4.445   1.610
 7897TIP3    H223633   7.160   4.326   1.694
 7898TIP3   OH223634   0.125   5.261   4.411
 7898TIP3    H123635   0.099   5.169   4.412
 7898TIP3    H223636   0.062   5.304   4.470
 7899TIP3   OH223637   7.948   5.350   3.864
 7899TIP3    H123638   7.976   5.431   3.907
 7899TIP3    H223639   7.863   5.371   3.827
 7900TIP3   OH223640   5.006   0.052   0.639
 7900TIP3    H123641   4.972   0.120   0.697
 7900TIP3    H223642   4.944  -0.020   0.647
 7901TIP3   OH223643   0.339   5.185   1.072
 7901TIP3    H123644   0.409   5.138   1.027
 7901TIP3    H223645   0.264   5.126   1.067
 7902TIP3   OH223646   3.739   6.414   5.518
 7902TIP3    H123647   3.804   6.368   5.465
 7902TIP3    H223648   3.786   6.438   5.598
 7903TIP3   OH223649   8.051   1.626   4.396
 7903TIP3    H123650   7.965   1.667   4.409
 7903TIP3    H223651   8.100   1.645   4.475
 7904TIP3   OH223652   7.524   2.724   4.456
 7904TIP3    H123653   7.468   2.653   4.486
 7904TIP3    H223654   7.476   2.804   4.478
 7905TIP3   OH223655   0.603   5.034   0.720
 7905TIP3    H123656   0.624   4.943   0.699
 7905TIP3    H223657   0.524   5.053   0.670
 7906TIP3   OH223658   6.514   0.062   5.025
 7906TIP3    H123659   6.421   0.040   5.026
 7906TIP3    H223660   6.554  -0.008   4.973
 7907TIP3   OH223661   1.647   5.691   2.480
 7907TIP3    H123662   1.653   5.623   2.547
 7907TIP3    H223663   1.562   5.677   2.439
 7908TIP3   OH223664   8.295   5.485   0.211
 7908TIP3    H123665   8.274   5.447   0.296
 7908TIP3    H223666   8.220   5.540   0.189
 7909TIP3   OH223667   2.898   2.765   4.419
 7909TIP3    H123668   2.908   2.828   4.347
 7909TIP3    H223669   2.960   2.695   4.399
 7910TIP3   OH223670   6.023   0.890   5.513
 7910TIP3    H123671   6.100   0.881   5.457
 7910TIP3    H223672   6.017   0.806   5.559
 7911TIP3   OH223673   2.165   4.754   3.326
 7911TIP3    H123674   2.144   4.842   3.355
 7911TIP3    H223675   2.212   4.715   3.400
 7912TIP3   OH223676   1.289   4.134   1.861
 7912TIP3    H123677   1.325   4.047   1.849
 7912TIP3    H223678   1.262   4.137   1.953
 7913TIP3   OH223679   6.351   7.849   6.471
 7913TIP3    H123680   6.412   7.909   6.429
 7913TIP3    H223681   6.354   7.770   6.416
 7914TIP3   OH223682   0.599   1.156   1.441
 7914TIP3    H123683   0.585   1.100   1.517
 7914TIP3    H223684   0.666   1.111   1.390
 7915TIP3   OH223685   1.440   3.567   0.815
 7915TIP3    H123686   1.494   3.489   0.804
 7915TIP3    H223687   1.379   3.564   0.741
 7916TIP3   OH223688   2.158   4.840   1.062
 7916TIP3    H123689   2.115   4.756   1.050
 7916TIP3    H223690   2.174   4.873   0.974
 7917TIP3   OH223691   6.008   3.403   1.853
 7917TIP3    H123692   6.025   3.318   1.894
 7917TIP3    H223693   5.947   3.383   1.783
 7918TIP3   OH223694   6.823   4.047   0.006
 7918TIP3    H123695   6.843   4.057   0.099
 7918TIP3    H223696   6.886   3.981  -0.025
 7919TIP3   OH223697   6.176   3.955   4.785
 7919TIP3    H123698   6.164   3.871   4.742
 7919TIP3    H223699   6.268   3.956   4.812
 7920TIP3   OH223700   5.298   3.928   3.671
 7920TIP3    H123701   5.334   4.009   3.635
 7920TIP3    H223702   5.272   3.877   3.594
 7921TIP3   OH223703   4.159   6.953   5.372
 7921TIP3    H123704   4.252   6.933   5.361
 7921TIP3    H223705   4.144   6.942   5.466
 7922TIP3   OH223706   6.150   5.931   0.154
 7922TIP3    H123707   6.222   5.873   0.179
 7922TIP3    H223708   6.106   5.887   0.082
 7923TIP3   OH223709   1.234   7.817   0.040
 7923TIP3    H123710   1.188   7.737   0.018
 7923TIP3    H223711   1.168   7.886   0.033
 7924TIP3   OH223712   6.837   6.178   3.872
 7924TIP3    H123713   6.868   6.168   3.782
 7924TIP3    H223714   6.916   6.170   3.925
 7925TIP3   OH223715   0.609   0.221   4.728
 7925TIP3    H123716   0.602   0.217   4.823
 7925TIP3    H223717   0.588   0.133   4.698
 7926TIP3   OH223718   7.861   0.638   4.155
 7926TIP3    H123719   7.925   0.618   4.223
 7926TIP3    H223720   7.781   0.596   4.184
 7927TIP3   OH223721   2.028   5.905   5.000
 7927TIP3    H123722   1.953   5.856   4.968
 7927TIP3    H223723   2.072   5.936   4.921
 7928TIP3   OH223724   2.568   3.737   6.494
 7928TIP3    H123725   2.551   3.672   6.562
 7928TIP3    H223726   2.564   3.687   6.412
 7929TIP3   OH223727   6.621   6.041   0.526
 7929TIP3    H123728   6.644   6.056   0.618
 7929TIP3    H223729   6.548   5.979   0.530
 7930TIP3   OH223730   3.078   0.972   6.221
 7930TIP3    H123731   3.078   0.993   6.315
 7930TIP3    H223732   3.169   0.984   6.194
 7931TIP3   OH223733   2.453   4.747   6.203
 7931TIP3    H123734   2.465   4.684   6.274
 7931TIP3    H223735   2.540   4.781   6.186
 7932TIP3   OH223736   2.974   0.112   1.635
 7932TIP3    H123737   3.011   0.195   1.605
 7932TIP3    H223738   2.923   0.080   1.561
 7933TIP3   OH223739   7.454   7.023   1.205
 7933TIP3    H123740   7.407   7.060   1.130
 7933TIP3    H223741   7.490   6.940   1.172
 7934TIP3   OH223742   2.498   4.939   6.516
 7934TIP3    H123743   2.501   4.844   6.525
 7934TIP3    H223744   2.558   4.959   6.445
 7935TIP3   OH223745   6.391   0.729   3.721
 7935TIP3    H123746   6.326   0.791   3.756
 7935TIP3    H223747   6.467   0.739   3.778
 7936TIP3   OH223748   3.580   0.334   2.211
 7936TIP3    H123749   3.613   0.412   2.167
 7936TIP3    H223750   3.544   0.366   2.294
 7937TIP3   OH223751   1.888   1.993   0.884
 7937TIP3    H123752   1.942   2.028   0.955
 7937TIP3    H223753   1.949   1.942   0.831
 7938TIP3   OH223754   0.978   4.261   0.770
 7938TIP3    H123755   0.946   4.186   0.820
 7938TIP3    H223756   1.039   4.224   0.707
 7939TIP3   OH223757   8.009   1.972   0.057
 7939TIP3    H123758   7.945   1.979   0.127
 7939TIP3    H223759   8.079   1.918   0.093
 7940TIP3   OH223760   4.642   4.040   0.879
 7940TIP3    H123761   4.569   4.094   0.910
 7940TIP3    H223762   4.620   4.020   0.788
 7941TIP3   OH223763   7.740   0.967   5.979
 7941TIP3    H123764   7.678   0.894   5.978
 7941TIP3    H223765   7.704   1.029   6.042
 7942TIP3   OH223766   1.110   4.705   6.090
 7942TIP3    H123767   1.089   4.787   6.136
 7942TIP3    H223768   1.126   4.642   6.161
 7943TIP3   OH223769   8.096   4.674   2.205
 7943TIP3    H123770   8.170   4.708   2.256
 7943TIP3    H223771   8.096   4.580   2.224
 7944TIP3   OH223772   0.181   5.571   0.144
 7944TIP3    H123773   0.086   5.562   0.154
 7944TIP3    H223774   0.197   5.556   0.051
 7945TIP3   OH223775   1.001   3.609   6.055
 7945TIP3    H123776   1.016   3.588   6.147
 7945TIP3    H223777   0.955   3.693   6.057
 7946TIP3   OH223778   2.929   6.661   5.233
 7946TIP3    H123779   3.022   6.640   5.237
 7946TIP3    H223780   2.911   6.673   5.140
 7947TIP3   OH223781   1.054   7.070   2.808
 7947TIP3    H123782   1.012   7.083   2.892
 7947TIP3    H223783   1.065   7.159   2.773
 7948TIP3   OH223784   4.161   2.897   1.173
 7948TIP3    H123785   4.076   2.901   1.217
 7948TIP3    H223786   4.173   2.805   1.153
 7949TIP3   OH223787   6.184   5.178   6.245
 7949TIP3    H123788   6.213   5.214   6.329
 7949TIP3    H223789   6.118   5.241   6.213
 7950TIP3   OH223790   7.564   7.375   1.350
 7950TIP3    H123791   7.629   7.413   1.291
 7950TIP3    H223792   7.584   7.281   1.349
 7951TIP3   OH223793   6.294   0.841   5.382
 7951TIP3    H123794   6.266   0.816   5.294
 7951TIP3    H223795   6.353   0.771   5.410
 7952TIP3   OH223796   2.735   5.844   3.459
 7952TIP3    H123797   2.786   5.906   3.406
 7952TIP3    H223798   2.644   5.869   3.445
 7953TIP3   OH223799   7.200   4.863   0.294
 7953TIP3    H123800   7.274   4.876   0.235
 7953TIP3    H223801   7.175   4.951   0.322
 7954TIP3   OH223802   7.448   5.286   5.187
 7954TIP3    H123803   7.456   5.314   5.278
 7954TIP3    H223804   7.495   5.353   5.137
 7955TIP3   OH223805   6.720   7.811   2.879
 7955TIP3    H123806   6.785   7.867   2.838
 7955TIP3    H223807   6.771   7.744   2.925
 7956TIP3   OH223808   0.519   0.519   5.537
 7956TIP3    H123809   0.470   0.595   5.567
 7956TIP3    H223810   0.507   0.454   5.606
 7957TIP3   OH223811   0.137   7.275   6.139
 7957TIP3    H123812   0.069   7.210   6.119
 7957TIP3    H223813   0.206   7.224   6.182
 7958TIP3   OH223814   0.941   6.052   5.245
 7958TIP3    H123815   1.010   6.081   5.185
 7958TIP3    H223816   0.964   5.962   5.266
 7959TIP3   OH223817   3.620   0.393   6.163
 7959TIP3    H123818   3.553   0.412   6.098
 7959TIP3    H223819   3.703   0.396   6.114
 7960TIP3   OH223820   6.678   1.863   2.515
 7960TIP3    H123821   6.590   1.852   2.480
 7960TIP3    H223822   6.666   1.914   2.595
 7961TIP3   OH223823   3.850   5.413   6.471
 7961TIP3    H123824   3.922   5.460   6.513
 7961TIP3    H223825   3.786   5.481   6.450
 7962TIP3   OH223826   4.187   5.915   2.451
 7962TIP3    H123827   4.132   5.837   2.451
 7962TIP3    H223828   4.209   5.930   2.543
 7963TIP3   OH223829   0.398   7.142   1.369
 7963TIP3    H123830   0.315   7.108   1.338
 7963TIP3    H223831   0.459   7.068   1.361
 7964TIP3   OH223832   5.318   5.691   6.807
 7964TIP3    H123833   5.398   5.642   6.795
 7964TIP3    H223834   5.318   5.756   6.737
 7965TIP3   OH223835   4.621   4.496   1.612
 7965TIP3    H123836   4.631   4.527   1.522
 7965TIP3    H223837   4.692   4.433   1.624
 7966TIP3   OH223838   4.280   3.438   3.391
 7966TIP3    H123839   4.327   3.356   3.404
 7966TIP3    H223840   4.193   3.422   3.428
 7967TIP3   OH223841   7.440   1.475   1.284
 7967TIP3    H123842   7.411   1.388   1.309
 7967TIP3    H223843   7.359   1.525   1.272
 7968TIP3   OH223844   7.343   2.358   4.463
 7968TIP3    H123845   7.379   2.405   4.538
 7968TIP3    H223846   7.248   2.367   4.471
 7969TIP3   OH223847   6.136   4.803   2.978
 7969TIP3    H123848   6.196   4.863   3.022
 7969TIP3    H223849   6.160   4.716   3.011
 7970TIP3   OH223850   4.186   7.621   0.054
 7970TIP3    H123851   4.240   7.605  -0.024
 7970TIP3    H223852   4.249   7.620   0.127
 7971TIP3   OH223853   7.423   6.427   0.739
 7971TIP3    H123854   7.454   6.483   0.810
 7971TIP3    H223855   7.369   6.485   0.685
 7972TIP3   OH223856   7.788   1.318   0.656
 7972TIP3    H123857   7.694   1.333   0.665
 7972TIP3    H223858   7.794   1.235   0.608
 7973TIP3   OH223859   3.136   4.943   6.411
 7973TIP3    H123860   3.231   4.940   6.422
 7973TIP3    H223861   3.123   4.941   6.316
 7974TIP3   OH223862   2.855   5.303   2.263
 7974TIP3    H123863   2.871   5.374   2.325
 7974TIP3    H223864   2.793   5.339   2.200
 7975TIP3   OH223865   4.041   2.518   3.699
 7975TIP3    H123866   4.108   2.574   3.738
 7975TIP3    H223867   4.039   2.441   3.756
 7976TIP3   OH223868   0.815   0.463   1.023
 7976TIP3    H123869   0.904   0.441   1.050
 7976TIP3    H223870   0.779   0.515   1.095
 7977TIP3   OH223871   7.894   0.446   0.216
 7977TIP3    H123872   7.915   0.514   0.281
 7977TIP3    H223873   7.979   0.418   0.182
 7978TIP3   OH223874   3.288   6.655   1.727
 7978TIP3    H123875   3.245   6.572   1.749
 7978TIP3    H223876   3.224   6.702   1.674
 7979TIP3   OH223877   3.130   6.305   3.539
 7979TIP3    H123878   3.114   6.390   3.498
 7979TIP3    H223879   3.061   6.298   3.606
 7980TIP3   OH223880   5.829   6.564   4.907
 7980TIP3    H123881   5.793   6.555   4.995
 7980TIP3    H223882   5.754   6.550   4.849
 7981TIP3   OH223883   4.925   0.654   0.045
 7981TIP3    H123884   4.901   0.726   0.104
 7981TIP3    H223885   4.856   0.589   0.058
 7982TIP3   OH223886   0.848   5.247   3.443
 7982TIP3    H123887   0.821   5.338   3.453
 7982TIP3    H223888   0.935   5.252   3.403
 7983TIP3   OH223889   2.257   4.030   1.619
 7983TIP3    H123890   2.316   4.007   1.548
 7983TIP3    H223891   2.314   4.056   1.691
 7984TIP3   OH223892   1.891   4.578   0.735
 7984TIP3    H123893   1.922   4.656   0.689
 7984TIP3    H223894   1.924   4.588   0.825
 7985TIP3   OH223895   2.769   1.458   4.343
 7985TIP3    H123896   2.706   1.418   4.404
 7985TIP3    H223897   2.721   1.530   4.303
 7986TIP3   OH223898   7.327   5.588   4.387
 7986TIP3    H123899   7.421   5.577   4.377
 7986TIP3    H223900   7.298   5.629   4.305
 7987TIP3   OH223901   4.160   7.522   1.675
 7987TIP3    H123902   4.175   7.460   1.605
 7987TIP3    H223903   4.067   7.514   1.695
 7988TIP3   OH223904   0.388   3.262   4.084
 7988TIP3    H123905   0.294   3.248   4.084
 7988TIP3    H223906   0.416   3.236   3.996
 7989TIP3   OH223907   0.466   6.033   0.433
 7989TIP3    H123908   0.470   6.076   0.347
 7989TIP3    H223909   0.375   6.008   0.443
 7990TIP3   OH223910   2.238   1.517   6.034
 7990TIP3    H123911   2.197   1.443   6.080
 7990TIP3    H223912   2.306   1.477   5.980
 7991TIP3   OH223913   2.507   1.705   3.853
 7991TIP3    H123914   2.462   1.658   3.783
 7991TIP3    H223915   2.486   1.797   3.836
 7992TIP3   OH223916   2.422   1.102   3.615
 7992TIP3    H123917   2.516   1.083   3.610
 7992TIP3    H223918   2.398   1.126   3.525
 7993TIP3   OH223919   7.735   7.372   2.584
 7993TIP3    H123920   7.782   7.323   2.517
 7993TIP3    H223921   7.694   7.444   2.536
 7994TIP3   OH223922   1.497   6.045   1.417
 7994TIP3    H123923   1.570   6.041   1.479
 7994TIP3    H223924   1.436   6.107   1.456
 7995TIP3   OH223925   6.439   1.229   3.745
 7995TIP3    H123926   6.355   1.263   3.774
 7995TIP3    H223927   6.471   1.294   3.682
 7996TIP3   OH223928   1.204   2.953   0.605
 7996TIP3    H123929   1.247   3.033   0.634
 7996TIP3    H223930   1.238   2.938   0.516
 7997TIP3   OH223931   7.789   7.440   1.802
 7997TIP3    H123932   7.870   7.490   1.811
 7997TIP3    H223933   7.722   7.506   1.781
 7998TIP3   OH223934   5.391   6.873   4.405
 7998TIP3    H123935   5.446   6.931   4.458
 7998TIP3    H223936   5.301   6.899   4.425
 7999TIP3   OH223937   5.487   4.485   4.674
 7999TIP3    H123938   5.436   4.562   4.700
 7999TIP3    H223939   5.568   4.492   4.726
 8000TIP3   OH223940   5.154   3.193   2.667
 8000TIP3    H123941   5.185   3.197   2.758
 8000TIP3    H223942   5.064   3.225   2.671
 8001TIP3   OH223943   4.518   3.933   3.883
 8001TIP3    H123944   4.587   3.868   3.873
 8001TIP3    H223945   4.552   3.995   3.947
 8002TIP3   OH223946   6.635   3.755   2.847
 8002TIP3    H123947   6.727   3.755   2.873
 8002TIP3    H223948   6.635   3.711   2.762
 8003TIP3   OH223949   4.138   6.110   3.859
 8003TIP3    H123950   4.149   6.197   3.899
 8003TIP3    H223951   4.216   6.062   3.887
 8004TIP3   OH223952   6.849   0.915   0.778
 8004TIP3    H123953   6.766   0.882   0.743
 8004TIP3    H223954   6.829   1.002   0.810
 8005TIP3   OH223955   2.405   5.824   1.663
 8005TIP3    H123956   2.435   5.842   1.752
 8005TIP3    H223957   2.483   5.792   1.617
 8006TIP3   OH223958   7.496   5.734   2.793
 8006TIP3    H123959   7.576   5.737   2.740
 8006TIP3    H223960   7.523   5.766   2.879
 8007TIP3   OH223961   2.542   6.307   6.760
 8007TIP3    H123962   2.601   6.377   6.729
 8007TIP3    H223963   2.505   6.270   6.680
 8008TIP3   OH223964   0.074   6.006   1.396
 8008TIP3    H123965   0.108   5.947   1.463
 8008TIP3    H223966  -0.017   6.021   1.422
 8009TIP3   OH223967   0.803   0.869   5.069
 8009TIP3    H123968   0.718   0.841   5.104
 8009TIP3    H223969   0.781   0.919   4.991
 8010TIP3   OH223970   3.593   3.068   2.582
 8010TIP3    H123971   3.595   2.981   2.621
 8010TIP3    H223972   3.685   3.094   2.577
 8011TIP3   OH223973   1.539   1.667   2.363
 8011TIP3    H123974   1.634   1.659   2.357
 8011TIP3    H223975   1.515   1.607   2.434
 8012TIP3   OH223976   7.030   7.303   1.617
 8012TIP3    H123977   6.944   7.341   1.634
 8012TIP3    H223978   7.091   7.375   1.635
 8013TIP3   OH223979   5.275   5.758   2.949
 8013TIP3    H123980   5.187   5.740   2.983
 8013TIP3    H223981   5.280   5.853   2.945
 8014TIP3   OH223982   7.917   2.150   6.222
 8014TIP3    H123983   7.922   2.246   6.226
 8014TIP3    H223984   7.985   2.126   6.159
 8015TIP3   OH223985   4.643   7.771   4.290
 8015TIP3    H123986   4.709   7.834   4.262
 8015TIP3    H223987   4.669   7.689   4.248
 8016TIP3   OH223988   2.094   2.384   5.686
 8016TIP3    H123989   2.117   2.470   5.719
 8016TIP3    H223990   2.010   2.364   5.726
 8017TIP3   OH223991   5.445   0.005   1.339
 8017TIP3    H123992   5.531   0.047   1.330
 8017TIP3    H223993   5.400   0.025   1.257
 8018TIP3   OH223994   4.062   2.363   1.198
 8018TIP3    H123995   3.977   2.331   1.228
 8018TIP3    H223996   4.126   2.311   1.247
 8019TIP3   OH223997   0.399   1.733   5.847
 8019TIP3    H123998   0.344   1.671   5.800
 8019TIP3    H223999   0.393   1.814   5.797
 8020TIP3   OH224000   3.885   1.466   0.895
 8020TIP3    H124001   3.934   1.518   0.831
 8020TIP3    H224002   3.892   1.376   0.863
 8021TIP3   OH224003   6.049   1.171   0.202
 8021TIP3    H124004   6.034   1.083   0.167
 8021TIP3    H224005   5.986   1.226   0.155
 8022TIP3   OH224006   5.885   1.509   4.106
 8022TIP3    H124007   5.884   1.513   4.201
 8022TIP3    H224008   5.957   1.449   4.085
 8023TIP3   OH224009   5.230   6.172   5.143
 8023TIP3    H124010   5.143   6.139   5.164
 8023TIP3    H224011   5.215   6.261   5.112
 8024TIP3   OH224012   3.082   5.889   6.615
 8024TIP3    H124013   3.066   5.898   6.709
 8024TIP3    H224014   3.177   5.883   6.607
 8025TIP3   OH224015   7.039   5.052   5.606
 8025TIP3    H124016   7.119   5.076   5.560
 8025TIP3    H224017   7.033   4.957   5.596
 8026TIP3   OH224018   2.089   2.823   4.969
 8026TIP3    H124019   2.180   2.833   4.996
 8026TIP3    H224020   2.060   2.911   4.949
 8027TIP3   OH224021   5.176   7.044   4.171
 8027TIP3    H124022   5.181   7.031   4.266
 8027TIP3    H224023   5.085   7.068   4.155
 8028TIP3   OH224024   6.748   7.361   3.584
 8028TIP3    H124025   6.727   7.361   3.677
 8028TIP3    H224026   6.840   7.389   3.579
 8029TIP3   OH224027   0.084   3.832   2.209
 8029TIP3    H124028  -0.004   3.869   2.213
 8029TIP3    H224029   0.119   3.844   2.298
 8030TIP3   OH224030   4.080   3.341   6.081
 8030TIP3    H124031   4.144   3.360   6.150
 8030TIP3    H224032   4.131   3.298   6.013
 8031TIP3   OH224033   4.127   3.144   5.823
 8031TIP3    H124034   4.131   3.085   5.747
 8031TIP3    H224035   4.185   3.216   5.800
 8032TIP3   OH224036   1.733   3.719   0.629
 8032TIP3    H124037   1.824   3.749   0.629
 8032TIP3    H224038   1.733   3.645   0.568
 8033TIP3   OH224039   0.299   4.788   4.681
 8033TIP3    H124040   0.306   4.723   4.610
 8033TIP3    H224041   0.210   4.822   4.673
 8034TIP3   OH224042   6.020   1.812   1.593
 8034TIP3    H124043   5.955   1.769   1.648
 8034TIP3    H224044   6.037   1.749   1.523
 8035TIP3   OH224045   5.330   1.312   5.406
 8035TIP3    H124046   5.326   1.305   5.311
 8035TIP3    H224047   5.239   1.306   5.434
 8036TIP3   OH224048   6.157   6.512   1.932
 8036TIP3    H124049   6.170   6.496   2.025
 8036TIP3    H224050   6.151   6.607   1.924
 8037TIP3   OH224051   6.060   5.357   3.402
 8037TIP3    H124052   6.087   5.375   3.311
 8037TIP3    H224053   6.128   5.398   3.455
 8038TIP3   OH224054   1.385   4.299   3.003
 8038TIP3    H124055   1.377   4.254   2.919
 8038TIP3    H224056   1.403   4.230   3.067
 8039TIP3   OH224057   0.128   3.718   0.318
 8039TIP3    H124058   0.214   3.678   0.318
 8039TIP3    H224059   0.094   3.704   0.230
 8040TIP3   OH224060   2.199   7.714   6.152
 8040TIP3    H124061   2.288   7.723   6.186
 8040TIP3    H224062   2.192   7.782   6.084
 8041TIP3   OH224063   4.330   4.808   5.606
 8041TIP3    H124064   4.303   4.719   5.583
 8041TIP3    H224065   4.263   4.839   5.667
 8042TIP3   OH224066   6.209   0.864   3.114
 8042TIP3    H124067   6.185   0.812   3.037
 8042TIP3    H224068   6.262   0.805   3.167
 8043TIP3   OH224069   5.659   2.939   0.986
 8043TIP3    H124070   5.584   2.989   1.018
 8043TIP3    H224071   5.656   2.949   0.891
 8044TIP3   OH224072   6.992   5.983   4.953
 8044TIP3    H124073   6.936   6.021   4.885
 8044TIP3    H224074   7.013   5.896   4.920
 8045TIP3   OH224075   4.351   4.260   3.558
 8045TIP3    H124076   4.412   4.300   3.496
 8045TIP3    H224077   4.304   4.195   3.507
 8046TIP3   OH224078   8.328   6.288   2.459
 8046TIP3    H124079   8.258   6.245   2.410
 8046TIP3    H224080   8.407   6.239   2.435
 8047TIP3   OH224081   5.335   3.827   2.836
 8047TIP3    H124082   5.371   3.844   2.923
 8047TIP3    H224083   5.240   3.821   2.850
 8048TIP3   OH224084   5.944   0.901   6.074
 8048TIP3    H124085   5.869   0.844   6.092
 8048TIP3    H224086   5.977   0.871   5.989
 8049TIP3   OH224087   4.458   7.275   3.487
 8049TIP3    H124088   4.393   7.323   3.435
 8049TIP3    H224089   4.497   7.342   3.544
 8050TIP3   OH224090   1.937   4.763   6.506
 8050TIP3    H124091   1.865   4.701   6.506
 8050TIP3    H224092   1.964   4.769   6.597
 8051TIP3   OH224093   6.457   2.713   5.956
 8051TIP3    H124094   6.441   2.669   5.872
 8051TIP3    H224095   6.369   2.732   5.989
 8052TIP3   OH224096   2.958   6.886   0.948
 8052TIP3    H124097   2.871   6.912   0.979
 8052TIP3    H224098   3.000   6.847   1.025
 8053TIP3   OH224099   0.384   0.173   2.409
 8053TIP3    H124100   0.307   0.193   2.461
 8053TIP3    H224101   0.379   0.078   2.395
 8054TIP3   OH224102   7.084   0.850   2.273
 8054TIP3    H124103   7.151   0.918   2.275
 8054TIP3    H224104   7.118   0.784   2.212
 8055TIP3   OH224105   2.849   2.027   5.818
 8055TIP3    H124106   2.928   2.073   5.788
 8055TIP3    H224107   2.784   2.096   5.829
 8056TIP3   OH224108   7.177   3.792   3.210
 8056TIP3    H124109   7.116   3.731   3.252
 8056TIP3    H224110   7.223   3.833   3.282
 8057TIP3   OH224111   2.187   3.627   0.146
 8057TIP3    H124112   2.266   3.585   0.111
 8057TIP3    H224113   2.201   3.720   0.130
 8058TIP3   OH224114   0.551   0.129   0.717
 8058TIP3    H124115   0.614   0.183   0.765
 8058TIP3    H224116   0.500   0.085   0.785
 8059TIP3   OH224117   4.617   1.759   0.920
 8059TIP3    H124118   4.542   1.716   0.960
 8059TIP3    H224119   4.650   1.696   0.856
 8060TIP3   OH224120   7.690   3.146   2.056
 8060TIP3    H124121   7.715   3.186   1.973
 8060TIP3    H224122   7.623   3.082   2.033
 8061TIP3   OH224123   2.742   4.654   2.083
 8061TIP3    H124124   2.755   4.596   2.158
 8061TIP3    H224125   2.715   4.738   2.123
 8062TIP3   OH224126   6.785   4.619   6.748
 8062TIP3    H124127   6.775   4.556   6.676
 8062TIP3    H224128   6.868   4.594   6.790
 8063TIP3   OH224129   8.190   2.491   3.144
 8063TIP3    H124130   8.150   2.531   3.221
 8063TIP3    H224131   8.132   2.517   3.072
 8064TIP3   OH224132   3.168   1.400   0.731
 8064TIP3    H124133   3.085   1.365   0.765
 8064TIP3    H224134   3.229   1.327   0.738
 8065TIP3   OH224135   4.473   5.332   3.502
 8065TIP3    H124136   4.525   5.251   3.504
 8065TIP3    H224137   4.499   5.374   3.420
 8066TIP3   OH224138   0.298   6.272   0.005
 8066TIP3    H124139   0.390   6.292  -0.016
 8066TIP3    H224140   0.254   6.357   0.001
 8067TIP3   OH224141   1.760   6.108   1.495
 8067TIP3    H124142   1.836   6.068   1.537
 8067TIP3    H224143   1.767   6.201   1.516
 8068TIP3   OH224144   0.884   2.680   1.630
 8068TIP3    H124145   0.909   2.639   1.713
 8068TIP3    H224146   0.958   2.662   1.571
 8069TIP3   OH224147   2.694   3.806   4.231
 8069TIP3    H124148   2.631   3.837   4.296
 8069TIP3    H224149   2.743   3.736   4.275
 8070TIP3   OH224150   1.658   1.999   2.447
 8070TIP3    H124151   1.747   2.031   2.433
 8070TIP3    H224152   1.643   1.937   2.375
 8071TIP3   OH224153   0.869   1.323   6.165
 8071TIP3    H124154   0.963   1.316   6.182
 8071TIP3    H224155   0.847   1.414   6.187
 8072TIP3   OH224156   4.389   1.913   0.012
 8072TIP3    H124157   4.315   1.974   0.014
 8072TIP3    H224158   4.357   1.835   0.057
 8073TIP3   OH224159   3.359   3.856   0.352
 8073TIP3    H124160   3.312   3.814   0.424
 8073TIP3    H224161   3.446   3.817   0.353
 8074TIP3   OH224162   5.092   5.388   5.274
 8074TIP3    H124163   5.009   5.434   5.260
 8074TIP3    H224164   5.102   5.334   5.195
 8075TIP3   OH224165   3.828   4.771   3.654
 8075TIP3    H124166   3.851   4.862   3.669
 8075TIP3    H224167   3.752   4.775   3.596
 8076TIP3   OH224168   6.941   4.065   1.772
 8076TIP3    H124169   6.929   4.109   1.687
 8076TIP3    H224170   7.007   3.998   1.755
 8077TIP3   OH224171   1.899   5.671   4.965
 8077TIP3    H124172   1.857   5.586   4.977
 8077TIP3    H224173   1.967   5.655   4.900
 8078TIP3   OH224174   5.451   6.823   2.815
 8078TIP3    H124175   5.461   6.728   2.817
 8078TIP3    H224176   5.395   6.842   2.891
 8079TIP3   OH224177   7.543   3.435   0.455
 8079TIP3    H124178   7.598   3.415   0.379
 8079TIP3    H224179   7.519   3.527   0.444
 8080TIP3   OH224180   1.020   2.581   2.784
 8080TIP3    H124181   1.084   2.526   2.739
 8080TIP3    H224182   1.073   2.653   2.820
 8081TIP3   OH224183   7.506   6.411   1.388
 8081TIP3    H124184   7.503   6.344   1.456
 8081TIP3    H224185   7.481   6.365   1.308
 8082TIP3   OH224186   1.628   2.084   4.331
 8082TIP3    H124187   1.575   2.116   4.258
 8082TIP3    H224188   1.565   2.056   4.397
 8083TIP3   OH224189   8.361   2.737   2.974
 8083TIP3    H124190   8.266   2.749   2.980
 8083TIP3    H224191   8.397   2.825   2.988
 8084TIP3   OH224192   3.713   2.966   5.515
 8084TIP3    H124193   3.699   2.913   5.593
 8084TIP3    H224194   3.683   2.911   5.442
 8085TIP3   OH224195   6.460   6.627   1.364
 8085TIP3    H124196   6.375   6.587   1.382
 8085TIP3    H224197   6.443   6.688   1.292
 8086TIP3   OH224198   1.939   1.589   0.996
 8086TIP3    H124199   2.013   1.603   0.938
 8086TIP3    H224200   1.946   1.497   1.023
 8087TIP3   OH224201   4.489   2.533   3.976
 8087TIP3    H124202   4.562   2.594   3.960
 8087TIP3    H224203   4.525   2.447   3.954
 8088TIP3   OH224204   0.536   0.211   3.922
 8088TIP3    H124205   0.572   0.146   3.861
 8088TIP3    H224206   0.592   0.204   3.999
 8089TIP3   OH224207   7.864   6.152   2.140
 8089TIP3    H124208   7.804   6.224   2.160
 8089TIP3    H224209   7.940   6.194   2.102
 8090TIP3   OH224210   7.939   4.892   0.562
 8090TIP3    H124211   7.978   4.808   0.540
 8090TIP3    H224212   8.012   4.945   0.594
 8091TIP3   OH224213   0.124   5.229   0.148
 8091TIP3    H124214   0.138   5.324   0.145
 8091TIP3    H224215   0.197   5.192   0.099
 8092TIP3   OH224216   1.157   2.198   6.606
 8092TIP3    H124217   1.193   2.239   6.528
 8092TIP3    H224218   1.182   2.106   6.597
 8093TIP3   OH224219   7.793   2.785   4.572
 8093TIP3    H124220   7.702   2.805   4.598
 8093TIP3    H224221   7.829   2.737   4.646
 8094TIP3   OH224222   3.009   7.305   1.376
 8094TIP3    H124223   2.978   7.388   1.412
 8094TIP3    H224224   3.072   7.273   1.441
 8095TIP3   OH224225   8.327   1.658   3.474
 8095TIP3    H124226   8.346   1.738   3.523
 8095TIP3    H224227   8.272   1.606   3.532
 8096TIP3   OH224228   1.246   6.403   0.821
 8096TIP3    H124229   1.267   6.324   0.771
 8096TIP3    H224230   1.318   6.463   0.800
 8097TIP3   OH224231   3.846   6.355   2.509
 8097TIP3    H124232   3.858   6.320   2.597
 8097TIP3    H224233   3.808   6.282   2.459
 8098TIP3   OH224234   8.026   2.730   3.949
 8098TIP3    H124235   8.034   2.635   3.955
 8098TIP3    H224236   8.052   2.763   4.035
 8099TIP3   OH224237   1.933   0.421   1.996
 8099TIP3    H124238   1.851   0.430   2.044
 8099TIP3    H224239   1.972   0.340   2.030
 8100TIP3   OH224240   5.602   2.932   3.091
 8100TIP3    H124241   5.563   2.933   3.004
 8100TIP3    H224242   5.529   2.911   3.150
 8101TIP3   OH224243   3.816   3.160   4.834
 8101TIP3    H124244   3.767   3.189   4.758
 8101TIP3    H224245   3.872   3.234   4.857
 8102TIP3   OH224246   7.255   6.424   3.597
 8102TIP3    H124247   7.339   6.467   3.577
 8102TIP3    H224248   7.231   6.381   3.515
 8103TIP3   OH224249   6.161   3.806   2.065
 8103TIP3    H124250   6.144   3.819   1.971
 8103TIP3    H224251   6.223   3.875   2.088
 8104TIP3   OH224252   3.507   7.212   6.262
 8104TIP3    H124253   3.421   7.196   6.225
 8104TIP3    H224254   3.491   7.257   6.344
 8105TIP3   OH224255   1.965   5.704   5.247
 8105TIP3    H124256   1.952   5.723   5.154
 8105TIP3    H224257   2.029   5.769   5.276
 8106TIP3   OH224258   0.590   6.267   2.776
 8106TIP3    H124259   0.526   6.309   2.833
 8106TIP3    H224260   0.607   6.182   2.817
 8107TIP3   OH224261   0.698   6.783   1.695
 8107TIP3    H124262   0.719   6.784   1.788
 8107TIP3    H224263   0.652   6.865   1.680
 8108TIP3   OH224264   6.689   6.489   4.583
 8108TIP3    H124265   6.776   6.523   4.562
 8108TIP3    H224266   6.665   6.535   4.664
 8109TIP3   OH224267   1.157   4.728   3.303
 8109TIP3    H124268   1.210   4.650   3.321
 8109TIP3    H224269   1.213   4.801   3.327
 8110TIP3   OH224270   5.426   3.256   5.901
 8110TIP3    H124271   5.489   3.270   5.830
 8110TIP3    H224272   5.341   3.271   5.860
 8111TIP3   OH224273   7.410   5.836   0.467
 8111TIP3    H124274   7.383   5.747   0.444
 8111TIP3    H224275   7.397   5.887   0.387
 8112TIP3   OH224276   4.118   6.384   2.848
 8112TIP3    H124277   4.188   6.446   2.829
 8112TIP3    H224278   4.038   6.437   2.852
 8113TIP3   OH224279   0.317   1.250   5.159
 8113TIP3    H124280   0.293   1.171   5.110
 8113TIP3    H224281   0.401   1.228   5.200
 8114TIP3   OH224282   6.830   0.788   3.432
 8114TIP3    H124283   6.778   0.813   3.509
 8114TIP3    H224284   6.909   0.748   3.469
 8115TIP3   OH224285   4.494   7.870   6.653
 8115TIP3    H124286   4.534   7.785   6.631
 8115TIP3    H224287   4.566   7.922   6.689
 8116TIP3   OH224288   0.576   5.599   3.851
 8116TIP3    H124289   0.604   5.521   3.898
 8116TIP3    H224290   0.568   5.571   3.760
 8117TIP3   OH224291   5.680   4.347   6.139
 8117TIP3    H124292   5.680   4.443   6.135
 8117TIP3    H224293   5.587   4.324   6.141
 8118TIP3   OH224294   6.466   6.071   6.260
 8118TIP3    H124295   6.551   6.051   6.222
 8118TIP3    H224296   6.445   6.158   6.227
 8119TIP3   OH224297   2.495   2.610   6.347
 8119TIP3    H124298   2.433   2.672   6.307
 8119TIP3    H224299   2.550   2.581   6.274
 8120TIP3   OH224300   6.476   3.831   0.168
 8120TIP3    H124301   6.449   3.918   0.198
 8120TIP3    H224302   6.548   3.806   0.227
 8121TIP3   OH224303   3.369   4.598   2.230
 8121TIP3    H124304   3.414   4.628   2.309
 8121TIP3    H224305   3.300   4.663   2.215
 8122TIP3   OH224306   7.491   4.336   1.515
 8122TIP3    H124307   7.542   4.261   1.545
 8122TIP3    H224308   7.538   4.367   1.438
 8123TIP3   OH224309   4.251   3.107   0.461
 8123TIP3    H124310   4.330   3.161   0.460
 8123TIP3    H224311   4.255   3.058   0.543
 8124TIP3   OH224312   8.185   6.848   1.508
 8124TIP3    H124313   8.101   6.802   1.511
 8124TIP3    H224314   8.164   6.938   1.532
 8125TIP3   OH224315   3.475   0.680   5.137
 8125TIP3    H124316   3.491   0.697   5.230
 8125TIP3    H224317   3.460   0.586   5.132
 8126TIP3   OH224318   6.868   6.262   1.552
 8126TIP3    H124319   6.791   6.216   1.517
 8126TIP3    H224320   6.903   6.309   1.477
 8127TIP3   OH224321   4.937   4.268   4.635
 8127TIP3    H124322   5.008   4.207   4.659
 8127TIP3    H224323   4.870   4.254   4.702
 8128TIP3   OH224324   4.517   5.660   5.307
 8128TIP3    H124325   4.559   5.630   5.225
 8128TIP3    H224326   4.424   5.656   5.289
 8129TIP3   OH224327   5.364   7.305   2.538
 8129TIP3    H124328   5.443   7.257   2.563
 8129TIP3    H224329   5.292   7.256   2.577
 8130TIP3   OH224330   5.592   1.872   6.081
 8130TIP3    H124331   5.642   1.880   6.000
 8130TIP3    H224332   5.550   1.957   6.092
 8131TIP3   OH224333   2.561   7.109   1.288
 8131TIP3    H124334   2.609   7.037   1.329
 8131TIP3    H224335   2.629   7.166   1.252
 8132TIP3   OH224336   6.716   6.883   1.511
 8132TIP3    H124337   6.773   6.876   1.434
 8132TIP3    H224338   6.712   6.976   1.530
 8133TIP3   OH224339   7.389   5.423   5.784
 8133TIP3    H124340   7.349   5.338   5.768
 8133TIP3    H224341   7.483   5.404   5.794
 8134TIP3   OH224342   1.060   3.685   4.749
 8134TIP3    H124343   1.149   3.650   4.739
 8134TIP3    H224344   1.038   3.719   4.663
 8135TIP3   OH224345   0.252   5.014   6.499
 8135TIP3    H124346   0.158   5.035   6.496
 8135TIP3    H224347   0.254   4.920   6.520
 8136TIP3   OH224348   0.504   6.534   4.403
 8136TIP3    H124349   0.489   6.627   4.422
 8136TIP3    H224350   0.437   6.512   4.339
 8137TIP3   OH224351   0.094   2.640   3.950
 8137TIP3    H124352   0.138   2.717   3.914
 8137TIP3    H224353   0.163   2.596   4.001
 8138TIP3   OH224354   3.859   2.208   4.723
 8138TIP3    H124355   3.881   2.264   4.798
 8138TIP3    H224356   3.902   2.251   4.648
 8139TIP3   OH224357   2.868   7.203   0.790
 8139TIP3    H124358   2.795   7.141   0.783
 8139TIP3    H224359   2.838   7.268   0.854
 8140TIP3   OH224360   6.895   0.203   3.547
 8140TIP3    H124361   6.934   0.221   3.632
 8140TIP3    H224362   6.826   0.269   3.538
 8141TIP3   OH224363   1.453   0.309   0.857
 8141TIP3    H124364   1.468   0.359   0.778
 8141TIP3    H224365   1.358   0.311   0.870
 8142TIP3   OH224366   5.443   2.960   4.482
 8142TIP3    H124367   5.479   2.948   4.394
 8142TIP3    H224368   5.488   3.038   4.516
 8143TIP3   OH224369   1.948   6.539   0.447
 8143TIP3    H124370   1.961   6.567   0.537
 8143TIP3    H224371   1.899   6.611   0.406
 8144TIP3   OH224372   3.307   2.248   2.193
 8144TIP3    H124373   3.251   2.322   2.171
 8144TIP3    H224374   3.356   2.230   2.113
 8145TIP3   OH224375   5.293   6.813   3.054
 8145TIP3    H124376   5.198   6.815   3.050
 8145TIP3    H224377   5.314   6.815   3.147
 8146TIP3   OH224378   4.321   0.314   6.317
 8146TIP3    H124379   4.337   0.375   6.389
 8146TIP3    H224380   4.265   0.363   6.256
 8147TIP3   OH224381   5.312   4.516   1.623
 8147TIP3    H124382   5.219   4.525   1.644
 8147TIP3    H224383   5.318   4.538   1.530
 8148TIP3   OH224384   4.634   0.747   1.332
 8148TIP3    H124385   4.667   0.717   1.417
 8148TIP3    H224386   4.685   0.826   1.314
 8149TIP3   OH224387   0.698   7.085   5.326
 8149TIP3    H124388   0.723   7.175   5.302
 8149TIP3    H224389   0.614   7.072   5.281
 8150TIP3   OH224390   0.036   2.011   0.623
 8150TIP3    H124391   0.124   1.976   0.605
 8150TIP3    H224392  -0.015   1.990   0.545
 8151TIP3   OH224393   5.830   4.662   6.343
 8151TIP3    H124394   5.772   4.658   6.267
 8151TIP3    H224395   5.779   4.622   6.414
 8152TIP3   OH224396   4.873   5.191   1.691
 8152TIP3    H124397   4.799   5.239   1.727
 8152TIP3    H224398   4.839   5.147   1.614
 8153TIP3   OH224399   7.932   7.273   6.072
 8153TIP3    H124400   7.931   7.233   5.985
 8153TIP3    H224401   7.915   7.366   6.055
 8154TIP3   OH224402   3.371   6.282   3.398
 8154TIP3    H124403   3.304   6.280   3.466
 8154TIP3    H224404   3.323   6.265   3.317
 8155TIP3   OH224405   3.959   7.155   3.457
 8155TIP3    H124406   3.896   7.136   3.526
 8155TIP3    H224407   4.034   7.194   3.502
 8156TIP3   OH224408   7.400   5.744   1.272
 8156TIP3    H124409   7.455   5.667   1.259
 8156TIP3    H224410   7.460   5.811   1.304
 8157TIP3   OH224411   0.447   4.698   4.175
 8157TIP3    H124412   0.479   4.623   4.124
 8157TIP3    H224413   0.522   4.757   4.180
 8158TIP3   OH224414   3.218   4.399   3.752
 8158TIP3    H124415   3.271   4.349   3.815
 8158TIP3    H224416   3.265   4.482   3.742
 8159TIP3   OH224417   4.094   2.129   5.222
 8159TIP3    H124418   4.109   2.203   5.163
 8159TIP3    H224419   4.181   2.105   5.253
 8160TIP3   OH224420   5.295   5.287   4.088
 8160TIP3    H124421   5.384   5.297   4.053
 8160TIP3    H224422   5.243   5.350   4.038
 8161TIP3   OH224423   3.858   5.188   1.352
 8161TIP3    H124424   3.846   5.283   1.353
 8161TIP3    H224425   3.904   5.171   1.270
 8162TIP3   OH224426   1.652   7.401   3.841
 8162TIP3    H124427   1.590   7.365   3.905
 8162TIP3    H224428   1.701   7.467   3.889
 8163TIP3   OH224429   0.507   4.547   4.420
 8163TIP3    H124430   0.588   4.581   4.457
 8163TIP3    H224431   0.496   4.596   4.338
 8164TIP3   OH224432   2.109   0.581   3.560
 8164TIP3    H124433   2.037   0.627   3.517
 8164TIP3    H224434   2.178   0.577   3.494
 8165TIP3   OH224435   7.719   1.670   0.696
 8165TIP3    H124436   7.775   1.687   0.620
 8165TIP3    H224437   7.771   1.614   0.753
 8166TIP3   OH224438   4.197   5.644   2.656
 8166TIP3    H124439   4.280   5.665   2.699
 8166TIP3    H224440   4.130   5.672   2.718
 8167TIP3   OH224441   7.414   3.007   6.195
 8167TIP3    H124442   7.442   3.091   6.159
 8167TIP3    H224443   7.324   2.996   6.164
 8168TIP3   OH224444   6.887   0.445   0.166
 8168TIP3    H124445   6.950   0.375   0.152
 8168TIP3    H224446   6.851   0.428   0.254
 8169TIP3   OH224447   7.140   4.254   5.529
 8169TIP3    H124448   7.119   4.164   5.505
 8169TIP3    H224449   7.162   4.250   5.622
 8170TIP3   OH224450   0.874   5.312   1.740
 8170TIP3    H124451   0.870   5.217   1.749
 8170TIP3    H224452   0.894   5.343   1.828
 8171TIP3   OH224453   2.520   1.458   3.155
 8171TIP3    H124454   2.613   1.461   3.177
 8171TIP3    H224455   2.505   1.369   3.124
 8172TIP3   OH224456   5.671   0.723   4.505
 8172TIP3    H124457   5.660   0.744   4.412
 8172TIP3    H224458   5.603   0.773   4.549
 8173TIP3   OH224459   4.670   6.855   2.506
 8173TIP3    H124460   4.757   6.826   2.534
 8173TIP3    H224461   4.614   6.840   2.582
 8174TIP3   OH224462   3.475   3.172   4.239
 8174TIP3    H124463   3.549   3.183   4.180
 8174TIP3    H224464   3.409   3.233   4.206
 8175TIP3   OH224465   0.336   0.569   0.191
 8175TIP3    H124466   0.421   0.609   0.210
 8175TIP3    H224467   0.350   0.475   0.202
 8176TIP3   OH224468   5.617   1.476   2.130
 8176TIP3    H124469   5.567   1.540   2.080
 8176TIP3    H224470   5.666   1.528   2.194
 8177TIP3   OH224471   0.269   6.772   0.112
 8177TIP3    H124472   0.356   6.791   0.148
 8177TIP3    H224473   0.281   6.693   0.059
 8178TIP3   OH224474   1.663   2.854   5.919
 8178TIP3    H124475   1.612   2.818   5.991
 8178TIP3    H224476   1.679   2.779   5.862
 8179TIP3   OH224477   1.394   0.002   0.774
 8179TIP3    H124478   1.362   0.069   0.834
 8179TIP3    H224479   1.366  -0.081   0.813
 8180TIP3   OH224480   8.067   7.208   2.482
 8180TIP3    H124481   8.112   7.156   2.415
 8180TIP3    H224482   7.989   7.242   2.438
 8181TIP3   OH224483   1.096   4.346   3.213
 8181TIP3    H124484   1.003   4.362   3.203
 8181TIP3    H224485   1.115   4.275   3.151
 8182TIP3   OH224486   4.144   3.902   3.973
 8182TIP3    H124487   4.101   3.960   4.036
 8182TIP3    H224488   4.088   3.825   3.970
 8183TIP3   OH224489   0.079   3.679   3.743
 8183TIP3    H124490   0.044   3.664   3.831
 8183TIP3    H224491   0.083   3.591   3.704
 8184TIP3   OH224492   3.071   5.780   3.529
 8184TIP3    H124493   3.081   5.869   3.497
 8184TIP3    H224494   3.129   5.775   3.605
 8185TIP3   OH224495   4.284   3.445   0.751
 8185TIP3    H124496   4.261   3.533   0.780
 8185TIP3    H224497   4.307   3.399   0.832
 8186TIP3   OH224498   2.000   6.938   4.690
 8186TIP3    H124499   2.092   6.942   4.665
 8186TIP3    H224500   1.995   6.989   4.771
 8187TIP3   OH224501   0.952   7.498   1.268
 8187TIP3    H124502   0.945   7.404   1.254
 8187TIP3    H224503   0.944   7.508   1.363
 8188TIP3   OH224504   5.598   4.480   5.298
 8188TIP3    H124505   5.615   4.443   5.211
 8188TIP3    H224506   5.603   4.575   5.286
 8189TIP3   OH224507   0.925   5.461   6.432
 8189TIP3    H124508   0.938   5.554   6.412
 8189TIP3    H224509   0.869   5.429   6.362
 8190TIP3   OH224510   6.918   5.814   3.423
 8190TIP3    H124511   6.835   5.845   3.457
 8190TIP3    H224512   6.895   5.757   3.349
 8191TIP3   OH224513   3.858   0.671   3.653
 8191TIP3    H124514   3.880   0.581   3.629
 8191TIP3    H224515   3.902   0.725   3.587
 8192TIP3   OH224516   7.039   2.448   4.524
 8192TIP3    H124517   6.958   2.404   4.550
 8192TIP3    H224518   7.069   2.491   4.604
 8193TIP3   OH224519   1.104   3.863   5.414
 8193TIP3    H124520   1.011   3.866   5.390
 8193TIP3    H224521   1.145   3.812   5.345
 8194TIP3   OH224522   2.682   3.829   6.250
 8194TIP3    H124523   2.757   3.826   6.309
 8194TIP3    H224524   2.666   3.922   6.234
 8195TIP3   OH224525   4.432   4.901   0.313
 8195TIP3    H124526   4.383   4.947   0.382
 8195TIP3    H224527   4.495   4.966   0.282
 8196TIP3   OH224528   6.234   0.152   1.216
 8196TIP3    H124529   6.187   0.172   1.134
 8196TIP3    H224530   6.326   0.168   1.195
 8197TIP3   OH224531   2.406   5.024   6.851
 8197TIP3    H124532   2.434   4.935   6.870
 8197TIP3    H224533   2.353   5.017   6.772
 8198TIP3   OH224534   0.243   4.100   2.847
 8198TIP3    H124535   0.240   4.191   2.820
 8198TIP3    H224536   0.153   4.068   2.837
 8199TIP3   OH224537   3.562   2.070   3.268
 8199TIP3    H124538   3.486   2.018   3.240
 8199TIP3    H224539   3.620   2.070   3.193
 8200TIP3   OH224540   1.966   5.844   2.386
 8200TIP3    H124541   1.945   5.759   2.348
 8200TIP3    H224542   1.905   5.905   2.344
 8201TIP3   OH224543   0.574   6.404   0.475
 8201TIP3    H124544   0.482   6.390   0.496
 8201TIP3    H224545   0.620   6.395   0.558
 8202TIP3   OH224546   7.666   7.445   1.121
 8202TIP3    H124547   7.753   7.421   1.091
 8202TIP3    H224548   7.636   7.512   1.059
 8203TIP3   OH224549   4.104   1.187   0.762
 8203TIP3    H124550   4.128   1.270   0.803
 8203TIP3    H224551   4.009   1.183   0.769
 8204TIP3   OH224552   4.867   7.507   0.276
 8204TIP3    H124553   4.778   7.510   0.312
 8204TIP3    H224554   4.913   7.579   0.319
 8205TIP3   OH224555   3.298   7.010   5.941
 8205TIP3    H124556   3.349   6.982   5.866
 8205TIP3    H224557   3.216   6.961   5.935
 8206TIP3   OH224558   7.625   3.348   5.663
 8206TIP3    H124559   7.672   3.272   5.696
 8206TIP3    H224560   7.571   3.313   5.591
 8207TIP3   OH224561   5.302   4.306   3.382
 8207TIP3    H124562   5.293   4.350   3.298
 8207TIP3    H224563   5.396   4.290   3.391
 8208TIP3   OH224564   5.048   0.702   6.243
 8208TIP3    H124565   5.021   0.773   6.185
 8208TIP3    H224566   5.110   0.651   6.191
 8209TIP3   OH224567   1.029   2.435   4.917
 8209TIP3    H124568   0.995   2.503   4.974
 8209TIP3    H224569   1.092   2.387   4.971
 8210TIP3   OH224570   2.637   5.105   2.028
 8210TIP3    H124571   2.621   5.183   1.975
 8210TIP3    H224572   2.691   5.049   1.972
 8211TIP3   OH224573   0.096   5.705   0.593
 8211TIP3    H124574   0.118   5.698   0.686
 8211TIP3    H224575   0.028   5.639   0.580
 8212TIP3   OH224576   5.230   5.312   5.922
 8212TIP3    H124577   5.229   5.397   5.877
 8212TIP3    H224578   5.172   5.325   5.997
 8213TIP3   OH224579   0.860   7.866   5.739
 8213TIP3    H124580   0.801   7.845   5.811
 8213TIP3    H224581   0.816   7.833   5.661
 8214TIP3   OH224582   0.597   4.735   1.077
 8214TIP3    H124583   0.680   4.689   1.091
 8214TIP3    H224584   0.532   4.665   1.066
 8215TIP3   OH224585   6.670   3.728   1.099
 8215TIP3    H124586   6.685   3.764   1.186
 8215TIP3    H224587   6.604   3.660   1.111
 8216TIP3   OH224588   5.219   0.947   0.822
 8216TIP3    H124589   5.262   0.866   0.792
 8216TIP3    H224590   5.126   0.934   0.801
 8217TIP3   OH224591   3.339   4.413   4.584
 8217TIP3    H124592   3.265   4.454   4.538
 8217TIP3    H224593   3.412   4.473   4.569
 8218TIP3   OH224594   2.064   3.862   1.289
 8218TIP3    H124595   1.994   3.798   1.301
 8218TIP3    H224596   2.142   3.810   1.269
 8219TIP3   OH224597   8.008   7.750   0.689
 8219TIP3    H124598   7.946   7.699   0.740
 8219TIP3    H224599   7.958   7.781   0.614
 8220TIP3   OH224600   2.022   6.246   1.790
 8220TIP3    H124601   1.994   6.212   1.876
 8220TIP3    H224602   2.084   6.315   1.811
 8221TIP3   OH224603   4.912   3.796   1.695
 8221TIP3    H124604   4.969   3.865   1.728
 8221TIP3    H224605   4.827   3.838   1.683
 8222TIP3   OH224606   8.141   4.201   1.557
 8222TIP3    H124607   8.058   4.239   1.529
 8222TIP3    H224608   8.160   4.133   1.492
 8223TIP3   OH224609   3.849   7.892   5.263
 8223TIP3    H124610   3.859   7.975   5.310
 8223TIP3    H224611   3.846   7.917   5.171
 8224TIP3   OH224612   2.899   3.572   4.777
 8224TIP3    H124613   2.884   3.617   4.694
 8224TIP3    H224614   2.944   3.491   4.753
 8225TIP3   OH224615   6.095   5.886   0.414
 8225TIP3    H124616   6.109   5.908   0.322
 8225TIP3    H224617   6.183   5.864   0.446
 8226TIP3   OH224618   2.569   7.014   5.647
 8226TIP3    H124619   2.662   6.999   5.662
 8226TIP3    H224620   2.526   6.941   5.692
 8227TIP3   OH224621   3.547   5.755   3.937
 8227TIP3    H124622   3.508   5.842   3.928
 8227TIP3    H224623   3.609   5.763   4.009
 8228TIP3   OH224624   6.861   3.186   4.728
 8228TIP3    H124625   6.928   3.235   4.681
 8228TIP3    H224626   6.907   3.144   4.801
 8229TIP3   OH224627   1.975   4.169   1.935
 8229TIP3    H124628   2.044   4.230   1.909
 8229TIP3    H224629   2.001   4.138   2.022
 8230TIP3   OH224630   5.197   2.903   4.643
 8230TIP3    H124631   5.289   2.900   4.619
 8230TIP3    H224632   5.195   2.939   4.732
 8231TIP3   OH224633   6.703   3.226   6.652
 8231TIP3    H124634   6.791   3.189   6.662
 8231TIP3    H224635   6.647   3.151   6.633
 8232TIP3   OH224636   5.303   1.831   5.837
 8232TIP3    H124637   5.298   1.759   5.899
 8232TIP3    H224638   5.397   1.841   5.820
 8233TIP3   OH224639   5.810   7.641   5.072
 8233TIP3    H124640   5.784   7.587   4.997
 8233TIP3    H224641   5.905   7.628   5.079
 8234TIP3   OH224642   2.118   2.259   5.012
 8234TIP3    H124643   2.209   2.232   5.000
 8234TIP3    H224644   2.119   2.311   5.093
 8235TIP3   OH224645   2.826   6.373   5.274
 8235TIP3    H124646   2.800   6.352   5.184
 8235TIP3    H224647   2.864   6.460   5.269
 8236TIP3   OH224648   7.730   2.043   2.211
 8236TIP3    H124649   7.775   2.047   2.127
 8236TIP3    H224650   7.742   1.953   2.240
 8237TIP3   OH224651   5.310   4.518   5.668
 8237TIP3    H124652   5.296   4.610   5.646
 8237TIP3    H224653   5.306   4.472   5.584
 8238TIP3   OH224654   2.316   3.992   5.544
 8238TIP3    H124655   2.379   3.920   5.540
 8238TIP3    H224656   2.321   4.034   5.458
 8239TIP3   OH224657   3.123   7.168   0.893
 8239TIP3    H124658   3.038   7.178   0.851
 8239TIP3    H224659   3.102   7.140   0.982
 8240TIP3   OH224660   1.889   7.321   3.449
 8240TIP3    H124661   1.807   7.362   3.475
 8240TIP3    H224662   1.877   7.229   3.470
 8241TIP3   OH224663   5.907   6.935   1.298
 8241TIP3    H124664   5.999   6.908   1.288
 8241TIP3    H224665   5.905   7.024   1.264
 8242TIP3   OH224666   3.860   0.025   1.390
 8242TIP3    H124667   3.766   0.022   1.407
 8242TIP3    H224668   3.866   0.031   1.294
 8243TIP3   OH224669   3.826   1.522   6.187
 8243TIP3    H124670   3.826   1.431   6.160
 8243TIP3    H224671   3.832   1.519   6.283
 8244TIP3   OH224672   3.314   6.634   2.257
 8244TIP3    H124673   3.349   6.561   2.205
 8244TIP3    H224674   3.321   6.710   2.198
 8245TIP3   OH224675   7.143   5.532   0.135
 8245TIP3    H124676   7.131   5.482   0.054
 8245TIP3    H224677   7.092   5.612   0.122
 8246TIP3   OH224678   4.995   2.035   2.950
 8246TIP3    H124679   5.036   2.116   2.980
 8246TIP3    H224680   5.065   1.970   2.951
 8247TIP3   OH224681   6.644   6.614   2.526
 8247TIP3    H124682   6.648   6.523   2.556
 8247TIP3    H224683   6.735   6.641   2.516
 8248TIP3   OH224684   4.438   6.679   2.578
 8248TIP3    H124685   4.350   6.669   2.541
 8248TIP3    H224686   4.495   6.641   2.511
 8249TIP3   OH224687   5.949   7.409   4.788
 8249TIP3    H124688   5.976   7.320   4.812
 8249TIP3    H224689   5.877   7.396   4.726
 8250TIP3   OH224690   6.465   3.501   3.014
 8250TIP3    H124691   6.539   3.557   3.033
 8250TIP3    H224692   6.415   3.497   3.096
 8251TIP3   OH224693   7.511   0.672   0.031
 8251TIP3    H124694   7.562   0.688   0.110
 8251TIP3    H224695   7.502   0.757  -0.011
 8252TIP3   OH224696   4.965   3.032   5.623
 8252TIP3    H124697   4.946   2.942   5.596
 8252TIP3    H224698   5.036   3.024   5.687
 8253TIP3   OH224699   4.208   0.404   3.757
 8253TIP3    H124700   4.201   0.377   3.848
 8253TIP3    H224701   4.299   0.387   3.733
 8254TIP3   OH224702   6.256   5.294   4.923
 8254TIP3    H124703   6.166   5.290   4.893
 8254TIP3    H224704   6.260   5.233   4.997
 8255TIP3   OH224705   6.005   2.565   6.576
 8255TIP3    H124706   5.967   2.510   6.507
 8255TIP3    H224707   6.092   2.587   6.544
 8256TIP3   OH224708   6.052   0.575   5.935
 8256TIP3    H124709   5.971   0.620   5.960
 8256TIP3    H224710   6.051   0.575   5.839
 8257TIP3   OH224711   3.644   5.567   4.888
 8257TIP3    H124712   3.641   5.603   4.977
 8257TIP3    H224713   3.561   5.595   4.849
 8258TIP3   OH224714   4.946   4.764   1.554
 8258TIP3    H124715   4.981   4.723   1.475
 8258TIP3    H224716   4.904   4.844   1.522
 8259TIP3   OH224717   4.573   6.679   4.644
 8259TIP3    H124718   4.592   6.652   4.554
 8259TIP3    H224719   4.479   6.665   4.654
 8260TIP3   OH224720   0.387   7.177   1.751
 8260TIP3    H124721   0.322   7.209   1.688
 8260TIP3    H224722   0.347   7.192   1.836
 8261TIP3   OH224723   3.295   2.552   1.208
 8261TIP3    H124724   3.366   2.520   1.152
 8261TIP3    H224725   3.263   2.474   1.253
 8262TIP3   OH224726   1.196   2.354   0.265
 8262TIP3    H124727   1.195   2.318   0.177
 8262TIP3    H224728   1.106   2.344   0.297
 8263TIP3   OH224729   2.693   0.300   4.568
 8263TIP3    H124730   2.736   0.371   4.520
 8263TIP3    H224731   2.744   0.293   4.649
 8264TIP3   OH224732   4.221   7.113   1.520
 8264TIP3    H124733   4.255   7.043   1.576
 8264TIP3    H224734   4.174   7.068   1.450
 8265TIP3   OH224735   6.723   4.350   2.934
 8265TIP3    H124736   6.654   4.386   2.878
 8265TIP3    H224737   6.743   4.264   2.897
 8266TIP3   OH224738   7.618   5.550   4.035
 8266TIP3    H124739   7.573   5.466   4.037
 8266TIP3    H224740   7.547   5.615   4.030
 8267TIP3   OH224741   8.348   2.837   1.464
 8267TIP3    H124742   8.264   2.862   1.427
 8267TIP3    H224743   8.326   2.783   1.540
 8268TIP3   OH224744   6.156   6.064   3.583
 8268TIP3    H124745   6.171   6.157   3.601
 8268TIP3    H224746   6.061   6.056   3.573
 8269TIP3   OH224747   0.891   3.992   4.311
 8269TIP3    H124748   0.982   3.994   4.282
 8269TIP3    H224749   0.896   4.006   4.406
 8270TIP3   OH224750   4.711   7.818   2.234
 8270TIP3    H124751   4.634   7.856   2.192
 8270TIP3    H224752   4.776   7.813   2.163
 8271TIP3   OH224753   6.545   7.302   6.139
 8271TIP3    H124754   6.528   7.361   6.065
 8271TIP3    H224755   6.637   7.277   6.128
 8272TIP3   OH224756   7.208   7.405   6.263
 8272TIP3    H124757   7.238   7.403   6.354
 8272TIP3    H224758   7.128   7.351   6.263
 8273TIP3   OH224759   3.486   3.689   1.456
 8273TIP3    H124760   3.507   3.624   1.523
 8273TIP3    H224761   3.409   3.735   1.491
 8274TIP3   OH224762   6.259   1.303   3.431
 8274TIP3    H124763   6.276   1.396   3.445
 8274TIP3    H224764   6.169   1.299   3.399
 8275TIP3   OH224765   7.676   0.531   3.816
 8275TIP3    H124766   7.763   0.558   3.845
 8275TIP3    H224767   7.692   0.481   3.737
 8276TIP3   OH224768   4.891   7.445   2.317
 8276TIP3    H124769   4.830   7.481   2.253
 8276TIP3    H224770   4.869   7.352   2.322
 8277TIP3   OH224771   7.678   7.859   1.994
 8277TIP3    H124772   7.675   7.952   2.018
 8277TIP3    H224773   7.732   7.857   1.915
 8278TIP3   OH224774   4.181   2.830   0.378
 8278TIP3    H124775   4.170   2.925   0.373
 8278TIP3    H224776   4.118   2.801   0.445
 8279TIP3   OH224777   7.066   6.575   2.316
 8279TIP3    H124778   7.004   6.589   2.245
 8279TIP3    H224779   7.035   6.632   2.387
 8280TIP3   OH224780   4.796   0.027   5.579
 8280TIP3    H124781   4.702   0.013   5.582
 8280TIP3    H224782   4.820   0.049   5.669
 8281TIP3   OH224783   3.938   6.657   3.348
 8281TIP3    H124784   3.850   6.669   3.383
 8281TIP3    H224785   3.951   6.733   3.290
 8282TIP3   OH224786   5.558   1.840   0.894
 8282TIP3    H124787   5.515   1.755   0.905
 8282TIP3    H224788   5.493   1.904   0.924
 8283TIP3   OH224789   8.393   6.137   4.500
 8283TIP3    H124790   8.320   6.078   4.519
 8283TIP3    H224791   8.351   6.221   4.478
 8284TIP3   OH224792   7.038   2.993   2.127
 8284TIP3    H124793   7.005   2.957   2.209
 8284TIP3    H224794   7.111   2.935   2.103
 8285TIP3   OH224795   7.403   2.954   5.705
 8285TIP3    H124796   7.387   2.901   5.627
 8285TIP3    H224797   7.368   2.901   5.777
 8286TIP3   OH224798   5.818   1.342   1.774
 8286TIP3    H124799   5.734   1.384   1.758
 8286TIP3    H224800   5.867   1.356   1.693
 8287TIP3   OH224801   2.421   2.477   3.677
 8287TIP3    H124802   2.432   2.547   3.742
 8287TIP3    H224803   2.471   2.507   3.601
 8288TIP3   OH224804   5.673   6.749   5.515
 8288TIP3    H124805   5.747   6.717   5.464
 8288TIP3    H224806   5.610   6.677   5.513
 8289TIP3   OH224807   3.888   2.066   0.828
 8289TIP3    H124808   3.946   2.134   0.862
 8289TIP3    H224809   3.910   2.061   0.735
 8290TIP3   OH224810   1.179   3.739   0.374
 8290TIP3    H124811   1.146   3.675   0.311
 8290TIP3    H224812   1.189   3.689   0.455
 8291TIP3   OH224813   0.332   6.783   0.941
 8291TIP3    H124814   0.280   6.864   0.937
 8291TIP3    H224815   0.328   6.758   1.033
 8292TIP3   OH224816   2.246   7.156   1.389
 8292TIP3    H124817   2.183   7.216   1.430
 8292TIP3    H224818   2.324   7.209   1.374
 8293TIP3   OH224819   4.282   1.862   2.121
 8293TIP3    H124820   4.189   1.837   2.116
 8293TIP3    H224821   4.301   1.866   2.215
 8294TIP3   OH224822   7.331   1.239   4.966
 8294TIP3    H124823   7.405   1.199   4.920
 8294TIP3    H224824   7.274   1.271   4.896
 8295TIP3   OH224825   6.932   2.283   0.572
 8295TIP3    H124826   6.872   2.229   0.624
 8295TIP3    H224827   6.877   2.355   0.539
 8296TIP3   OH224828   0.296   6.192   0.738
 8296TIP3    H124829   0.322   6.236   0.657
 8296TIP3    H224830   0.237   6.253   0.782
 8297TIP3   OH224831   1.590   3.816   5.235
 8297TIP3    H124832   1.570   3.873   5.309
 8297TIP3    H224833   1.649   3.867   5.180
 8298TIP3   OH224834   6.823   4.759   4.198
 8298TIP3    H124835   6.871   4.686   4.236
 8298TIP3    H224836   6.732   4.731   4.197
 8299TIP3   OH224837   5.448   2.850   5.450
 8299TIP3    H124838   5.426   2.890   5.366
 8299TIP3    H224839   5.498   2.772   5.426
 8300TIP3   OH224840   5.339   0.338   0.145
 8300TIP3    H124841   5.430   0.339   0.175
 8300TIP3    H224842   5.344   0.308   0.054
 8301TIP3   OH224843   4.730   0.703   1.583
 8301TIP3    H124844   4.781   0.636   1.627
 8301TIP3    H224845   4.768   0.786   1.613
 8302TIP3   OH224846   6.856   6.205   1.900
 8302TIP3    H124847   6.948   6.205   1.873
 8302TIP3    H224848   6.845   6.122   1.947
 8303TIP3   OH224849   1.124   3.780   6.667
 8303TIP3    H124850   1.029   3.781   6.654
 8303TIP3    H224851   1.155   3.859   6.623
 8304TIP3   OH224852   5.306   1.082   1.060
 8304TIP3    H124853   5.288   1.055   0.970
 8304TIP3    H224854   5.331   1.002   1.105
 8305TIP3   OH224855   0.588   3.271   4.984
 8305TIP3    H124856   0.520   3.203   4.979
 8305TIP3    H224857   0.647   3.250   4.911
 8306TIP3   OH224858   5.004   1.030   3.313
 8306TIP3    H124859   5.032   1.111   3.271
 8306TIP3    H224860   4.951   0.986   3.248
 8307TIP3   OH224861   7.158   1.550   1.160
 8307TIP3    H124862   7.128   1.640   1.146
 8307TIP3    H224863   7.184   1.520   1.072
 8308TIP3   OH224864   0.573   0.731   2.347
 8308TIP3    H124865   0.623   0.703   2.270
 8308TIP3    H224866   0.569   0.653   2.403
 8309TIP3   OH224867   4.064   1.626   6.414
 8309TIP3    H124868   4.091   1.586   6.331
 8309TIP3    H224869   4.057   1.553   6.475
 8310TIP3   OH224870   6.626   3.976   3.753
 8310TIP3    H124871   6.662   4.029   3.825
 8310TIP3    H224872   6.628   4.034   3.677
 8311TIP3   OH224873   1.376   6.796   5.396
 8311TIP3    H124874   1.323   6.818   5.472
 8311TIP3    H224875   1.450   6.747   5.432
 8312TIP3   OH224876   7.391   0.243   5.568
 8312TIP3    H124877   7.319   0.279   5.515
 8312TIP3    H224878   7.453   0.315   5.575
 8313TIP3   OH224879   5.554   2.120   2.613
 8313TIP3    H124880   5.591   2.158   2.534
 8313TIP3    H224881   5.480   2.068   2.583
 8314TIP3   OH224882   4.173   2.316   4.759
 8314TIP3    H124883   4.194   2.250   4.693
 8314TIP3    H224884   4.163   2.266   4.841
 8315TIP3   OH224885   3.449   2.611   6.365
 8315TIP3    H124886   3.473   2.624   6.457
 8315TIP3    H224887   3.501   2.536   6.337
 8316TIP3   OH224888   8.366   5.370   1.985
 8316TIP3    H124889   8.435   5.319   1.942
 8316TIP3    H224890   8.393   5.374   2.077
 8317TIP3   OH224891   5.088   5.864   3.419
 8317TIP3    H124892   5.119   5.814   3.495
 8317TIP3    H224893   5.025   5.925   3.456
 8318TIP3   OH224894   2.586   2.553   5.093
 8318TIP3    H124895   2.532   2.587   5.022
 8318TIP3    H224896   2.526   2.543   5.167
 8319TIP3   OH224897   4.951   6.322   6.205
 8319TIP3    H124898   4.884   6.260   6.177
 8319TIP3    H224899   4.959   6.307   6.300
 8320TIP3   OH224900   2.435   1.336   3.813
 8320TIP3    H124901   2.434   1.412   3.755
 8320TIP3    H224902   2.387   1.269   3.764
 8321TIP3   OH224903   6.550   7.664   4.678
 8321TIP3    H124904   6.611   7.597   4.708
 8321TIP3    H224905   6.601   7.716   4.615
 8322TIP3   OH224906   6.308   2.567   1.060
 8322TIP3    H124907   6.401   2.574   1.040
 8322TIP3    H224908   6.305   2.552   1.154
 8323TIP3   OH224909   0.449   6.118   3.626
 8323TIP3    H124910   0.405   6.154   3.703
 8323TIP3    H224911   0.417   6.171   3.553
 8324TIP3   OH224912   1.022   2.785   1.187
 8324TIP3    H124913   1.103   2.762   1.142
 8324TIP3    H224914   1.002   2.873   1.156
 8325TIP3   OH224915   0.421   3.098   3.587
 8325TIP3    H124916   0.478   3.137   3.521
 8325TIP3    H224917   0.449   3.006   3.592
 8326TIP3   OH224918   2.573   1.362   4.546
 8326TIP3    H124919   2.491   1.399   4.514
 8326TIP3    H224920   2.546   1.293   4.606
 8327TIP3   OH224921   1.781   4.083   1.182
 8327TIP3    H124922   1.728   4.061   1.259
 8327TIP3    H224923   1.870   4.095   1.216
 8328TIP3   OH224924   1.435   5.896   1.193
 8328TIP3    H124925   1.482   5.940   1.263
 8328TIP3    H224926   1.447   5.952   1.116
 8329TIP3   OH224927   7.051   2.685   5.023
 8329TIP3    H124928   6.972   2.729   5.054
 8329TIP3    H224929   7.042   2.595   5.055
 8330TIP3   OH224930   4.131   1.748   5.763
 8330TIP3    H124931   4.069   1.725   5.832
 8330TIP3    H224932   4.096   1.707   5.684
 8331TIP3   OH224933   1.406   5.929   2.687
 8331TIP3    H124934   1.433   5.963   2.602
 8331TIP3    H224935   1.401   6.007   2.743
 8332TIP3   OH224936   1.188   3.798   2.762
 8332TIP3    H124937   1.208   3.866   2.825
 8332TIP3    H224938   1.201   3.716   2.810
 8333TIP3   OH224939   5.204   4.582   4.291
 8333TIP3    H124940   5.237   4.532   4.217
 8333TIP3    H224941   5.122   4.539   4.315
 8334TIP3   OH224942   1.711   2.594   5.864
 8334TIP3    H124943   1.702   2.554   5.951
 8334TIP3    H224944   1.775   2.540   5.819
 8335TIP3   OH224945   1.190   2.411   5.438
 8335TIP3    H124946   1.191   2.502   5.466
 8335TIP3    H224947   1.256   2.407   5.368
 8336TIP3   OH224948   0.731   0.546   4.323
 8336TIP3    H124949   0.659   0.493   4.358
 8336TIP3    H224950   0.693   0.590   4.247
 8337TIP3   OH224951   0.685   3.880   4.786
 8337TIP3    H124952   0.640   3.831   4.717
 8337TIP3    H224953   0.635   3.962   4.792
 8338TIP3   OH224954   7.340   1.759   0.427
 8338TIP3    H124955   7.316   1.838   0.378
 8338TIP3    H224956   7.339   1.787   0.519
 8339TIP3   OH224957   8.319   3.360   5.143
 8339TIP3    H124958   8.288   3.290   5.201
 8339TIP3    H224959   8.252   3.366   5.075
 8340TIP3   OH224960   6.168   6.613   5.166
 8340TIP3    H124961   6.216   6.653   5.238
 8340TIP3    H224962   6.168   6.519   5.186
 8341TIP3   OH224963   2.561   2.391   4.692
 8341TIP3    H124964   2.486   2.397   4.633
 8341TIP3    H224965   2.621   2.459   4.662
 8342TIP3   OH224966   7.574   6.164   1.848
 8342TIP3    H124967   7.557   6.078   1.887
 8342TIP3    H224968   7.514   6.223   1.894
 8343TIP3   OH224969   2.553   5.761   1.427
 8343TIP3    H124970   2.492   5.703   1.382
 8343TIP3    H224971   2.554   5.840   1.374
 8344TIP3   OH224972   4.387   4.175   5.057
 8344TIP3    H124973   4.424   4.190   4.970
 8344TIP3    H224974   4.459   4.196   5.117
 8345TIP3   OH224975   5.385   0.001   2.237
 8345TIP3    H124976   5.327   0.062   2.192
 8345TIP3    H224977   5.420  -0.055   2.168
 8346TIP3   OH224978   4.961   2.315   5.416
 8346TIP3    H124979   4.887   2.356   5.462
 8346TIP3    H224980   5.032   2.378   5.425
 8347TIP3   OH224981   1.643   1.369   4.061
 8347TIP3    H124982   1.588   1.335   3.990
 8347TIP3    H224983   1.583   1.417   4.117
 8348TIP3   OH224984   2.813   1.322   4.751
 8348TIP3    H124985   2.804   1.295   4.659
 8348TIP3    H224986   2.774   1.251   4.801
 8349TIP3   OH224987   1.543   4.439   5.412
 8349TIP3    H124988   1.469   4.497   5.390
 8349TIP3    H224989   1.572   4.406   5.327
 8350TIP3   OH224990   2.075   4.080   2.599
 8350TIP3    H124991   2.100   4.031   2.677
 8350TIP3    H224992   2.129   4.042   2.529
 8351TIP3   OH224993   3.871   4.935   0.814
 8351TIP3    H124994   3.791   4.963   0.859
 8351TIP3    H224995   3.918   4.881   0.878
 8352TIP3   OH224996   4.090   0.361   5.510
 8352TIP3    H124997   4.053   0.348   5.422
 8352TIP3    H224998   4.090   0.274   5.549
 8353TIP3   OH224999   2.960   0.925   5.798
 8353TIP3    H125000   2.872   0.962   5.811
 8353TIP3    H225001   3.019   0.998   5.814
 8354TIP3   OH225002   4.348   1.734   2.586
 8354TIP3    H125003   4.288   1.659   2.594
 8354TIP3    H225004   4.415   1.718   2.652
 8355TIP3   OH225005   6.648   1.902   6.834
 8355TIP3    H125006   6.678   1.811   6.834
 8355TIP3    H225007   6.589   1.908   6.909
 8356TIP3   OH225008   5.877   1.505   0.273
 8356TIP3    H125009   5.786   1.515   0.300
 8356TIP3    H225010   5.874   1.455   0.192
 8357TIP3   OH225011   0.829   3.339   4.176
 8357TIP3    H125012   0.790   3.426   4.180
 8357TIP3    H225013   0.756   3.280   4.196
 8358TIP3   OH225014   2.021   2.145   1.424
 8358TIP3    H125015   2.050   2.107   1.507
 8358TIP3    H225016   2.102   2.158   1.374
 8359TIP3   OH225017   7.796   4.333   1.797
 8359TIP3    H125018   7.770   4.416   1.758
 8359TIP3    H225019   7.808   4.352   1.890
 8360TIP3   OH225020   1.084   3.763   1.044
 8360TIP3    H125021   1.038   3.729   1.120
 8360TIP3    H225022   1.142   3.692   1.016
 8361TIP3   OH225023   0.762   5.526   4.757
 8361TIP3    H125024   0.734   5.606   4.713
 8361TIP3    H225025   0.815   5.556   4.831
 8362TIP3   OH225026   4.787   2.410   5.615
 8362TIP3    H125027   4.722   2.339   5.610
 8362TIP3    H225028   4.737   2.486   5.646
 8363TIP3   OH225029   7.885   5.355   2.154
 8363TIP3    H125030   7.835   5.437   2.156
 8363TIP3    H225031   7.948   5.367   2.084
 8364TIP3   OH225032   0.402   1.292   3.398
 8364TIP3    H125033   0.390   1.284   3.493
 8364TIP3    H225034   0.314   1.287   3.362
 8365TIP3   OH225035   8.176   2.876   0.145
 8365TIP3    H125036   8.163   2.802   0.086
 8365TIP3    H225037   8.207   2.947   0.088
 8366TIP3   OH225038   1.370   0.767   3.579
 8366TIP3    H125039   1.287   0.799   3.544
 8366TIP3    H225040   1.411   0.721   3.506
 8367TIP3   OH225041   3.380   1.913   2.090
 8367TIP3    H125042   3.422   1.849   2.148
 8367TIP3    H225043   3.366   1.990   2.145
 8368TIP3   OH225044   0.257   0.654   5.478
 8368TIP3    H125045   0.201   0.587   5.438
 8368TIP3    H225046   0.273   0.716   5.407
 8369TIP3   OH225047   0.936   0.680   6.106
 8369TIP3    H125048   0.914   0.596   6.067
 8369TIP3    H225049   0.855   0.709   6.148
 8370TIP3   OH225050   4.213   6.718   5.119
 8370TIP3    H125051   4.195   6.627   5.144
 8370TIP3    H225052   4.150   6.770   5.169
 8371TIP3   OH225053   2.403   2.633   1.871
 8371TIP3    H125054   2.417   2.559   1.811
 8371TIP3    H225055   2.310   2.653   1.862
 8372TIP3   OH225056   1.593   3.780   3.563
 8372TIP3    H125057   1.653   3.705   3.564
 8372TIP3    H225058   1.609   3.823   3.480
 8373TIP3   OH225059   4.045   7.205   2.801
 8373TIP3    H125060   4.024   7.112   2.793
 8373TIP3    H225061   4.125   7.207   2.855
 8374TIP3   OH225062   2.640   5.385   5.605
 8374TIP3    H125063   2.605   5.358   5.520
 8374TIP3    H225064   2.730   5.410   5.587
 8375TIP3   OH225065   0.842   4.145   3.443
 8375TIP3    H125066   0.897   4.221   3.461
 8375TIP3    H225067   0.778   4.143   3.514
 8376TIP3   OH225068   7.297   5.846   1.037
 8376TIP3    H125069   7.324   5.817   1.124
 8376TIP3    H225070   7.250   5.771   1.000
 8377TIP3   OH225071   6.650   0.610   1.349
 8377TIP3    H125072   6.640   0.694   1.394
 8377TIP3    H225073   6.733   0.618   1.302
 8378TIP3   OH225074   8.111   0.170   6.635
 8378TIP3    H125075   8.126   0.259   6.602
 8378TIP3    H225076   8.067   0.124   6.564
 8379TIP3   OH225077   3.067   7.574   4.492
 8379TIP3    H125078   3.093   7.605   4.579
 8379TIP3    H225079   3.136   7.513   4.466
 8380TIP3   OH225080   4.554   6.810   4.149
 8380TIP3    H125081   4.564   6.726   4.195
 8380TIP3    H225082   4.637   6.855   4.164
 8381TIP3   OH225083   6.740   6.955   0.291
 8381TIP3    H125084   6.734   7.031   0.233
 8381TIP3    H225085   6.832   6.929   0.286
 8382TIP3   OH225086   3.338   5.522   3.680
 8382TIP3    H125087   3.418   5.544   3.632
 8382TIP3    H225088   3.311   5.604   3.720
 8383TIP3   OH225089   7.088   7.861   5.768
 8383TIP3    H125090   7.015   7.813   5.808
 8383TIP3    H225091   7.049   7.944   5.740
 8384TIP3   OH225092   7.047   1.676   0.047
 8384TIP3    H125093   6.999   1.593   0.040
 8384TIP3    H225094   7.013   1.730  -0.024
 8385TIP3   OH225095   6.412   1.125   5.480
 8385TIP3    H125096   6.322   1.155   5.473
 8385TIP3    H225097   6.414   1.075   5.562
 8386TIP3   OH225098   7.449   6.212   0.921
 8386TIP3    H125099   7.393   6.262   0.862
 8386TIP3    H225100   7.530   6.197   0.871
 8387TIP3   OH225101   4.836   4.284   3.467
 8387TIP3    H125102   4.899   4.238   3.412
 8387TIP3    H225103   4.826   4.370   3.426
 8388TIP3   OH225104   2.980   3.891   5.837
 8388TIP3    H125105   3.036   3.818   5.865
 8388TIP3    H225106   3.027   3.931   5.765
 8389TIP3   OH225107   4.753   0.467   2.711
 8389TIP3    H125108   4.778   0.382   2.674
 8389TIP3    H225109   4.734   0.448   2.803
 8390TIP3   OH225110   2.398  -0.003   3.411
 8390TIP3    H125111   2.387  -0.017   3.316
 8390TIP3    H225112   2.367   0.086   3.426
 8391TIP3   OH225113   3.344   4.630   0.636
 8391TIP3    H125114   3.404   4.556   0.642
 8391TIP3    H225115   3.299   4.618   0.552
 8392TIP3   OH225116   1.408   1.498   4.117
 8392TIP3    H125117   1.433   1.584   4.081
 8392TIP3    H225118   1.314   1.506   4.133
 8393TIP3   OH225119   0.139   6.999   3.884
 8393TIP3    H125120   0.071   7.065   3.876
 8393TIP3    H225121   0.220   7.044   3.860
 8394TIP3   OH225122   0.421   1.901   4.779
 8394TIP3    H125123   0.451   1.904   4.870
 8394TIP3    H225124   0.501   1.914   4.727
 8395TIP3   OH225125   5.215   4.408   4.065
 8395TIP3    H125126   5.283   4.365   4.014
 8395TIP3    H225127   5.168   4.463   4.002
 8396TIP3   OH225128   0.417   4.637   0.728
 8396TIP3    H125129   0.362   4.676   0.660
 8396TIP3    H225130   0.441   4.551   0.693
 8397TIP3   OH225131   7.387   4.919   0.119
 8397TIP3    H125132   7.345   4.990   0.072
 8397TIP3    H225133   7.476   4.949   0.134
 8398TIP3   OH225134   3.228   4.432   2.621
 8398TIP3    H125135   3.184   4.348   2.624
 8398TIP3    H225136   3.308   4.416   2.571
 8399TIP3   OH225137   7.418   6.475   6.622
 8399TIP3    H125138   7.402   6.503   6.712
 8399TIP3    H225139   7.513   6.466   6.617
 8400TIP3   OH225140   2.158   3.966   2.838
 8400TIP3    H125141   2.186   3.883   2.877
 8400TIP3    H225142   2.179   4.031   2.905
 8401TIP3   OH225143   5.386   5.965   1.235
 8401TIP3    H125144   5.399   6.056   1.260
 8401TIP3    H225145   5.291   5.958   1.221
 8402TIP3   OH225146   1.656   7.112   1.687
 8402TIP3    H125147   1.696   7.189   1.727
 8402TIP3    H225148   1.562   7.124   1.700
 8403TIP3   OH225149   5.845   6.969   5.005
 8403TIP3    H125150   5.809   6.939   5.089
 8403TIP3    H225151   5.921   6.913   4.990
 8404TIP3   OH225152   1.182   1.088   1.613
 8404TIP3    H125153   1.178   1.040   1.696
 8404TIP3    H225154   1.094   1.078   1.575
 8405TIP3   OH225155   4.994   2.475   1.557
 8405TIP3    H125156   4.908   2.487   1.597
 8405TIP3    H225157   5.056   2.486   1.630
 8406TIP3   OH225158   6.823   2.248   1.679
 8406TIP3    H125159   6.852   2.157   1.672
 8406TIP3    H225160   6.765   2.261   1.603
 8407TIP3   OH225161   7.330   1.414   4.691
 8407TIP3    H125162   7.395   1.449   4.630
 8407TIP3    H225163   7.293   1.339   4.645
 8408TIP3   OH225164   2.332   6.109   5.092
 8408TIP3    H125165   2.379   6.054   5.029
 8408TIP3    H225166   2.299   6.182   5.040
 8409TIP3   OH225167   0.829   4.687   1.602
 8409TIP3    H125168   0.835   4.592   1.616
 8409TIP3    H225169   0.917   4.713   1.575
 8410TIP3   OH225170   7.885   4.320   1.536
 8410TIP3    H125171   7.896   4.415   1.529
 8410TIP3    H225172   7.830   4.308   1.614
 8411TIP3   OH225173   1.698   4.331   2.931
 8411TIP3    H125174   1.653   4.260   2.884
 8411TIP3    H225175   1.657   4.411   2.899
 8412TIP3   OH225176   0.286   4.472   4.870
 8412TIP3    H125177   0.266   4.379   4.855
 8412TIP3    H225178   0.346   4.472   4.945
 8413TIP3   OH225179   5.085   2.459   5.795
 8413TIP3    H125180   5.179   2.457   5.777
 8413TIP3    H225181   5.079   2.461   5.890
 8414TIP3   OH225182   6.476   6.071   3.785
 8414TIP3    H125183   6.463   6.046   3.876
 8414TIP3    H225184   6.388   6.079   3.749
 8415TIP3   OH225185   6.761   4.680   1.441
 8415TIP3    H125186   6.798   4.708   1.525
 8415TIP3    H225187   6.710   4.755   1.410
 8416TIP3   OH225188   8.042   5.317   1.023
 8416TIP3    H125189   7.994   5.237   1.001
 8416TIP3    H225190   7.985   5.388   0.995
 8417TIP3   OH225191   0.971   5.693   1.136
 8417TIP3    H125192   1.035   5.760   1.160
 8417TIP3    H225193   0.930   5.727   1.056
 8418TIP3   OH225194   7.927   2.518   5.534
 8418TIP3    H125195   7.895   2.582   5.597
 8418TIP3    H225196   7.932   2.436   5.582
 8419TIP3   OH225197   3.041   5.173   1.293
 8419TIP3    H125198   2.983   5.247   1.309
 8419TIP3    H225199   2.992   5.118   1.232
 8420TIP3   OH225200   2.573   0.864   3.303
 8420TIP3    H125201   2.645   0.802   3.293
 8420TIP3    H225202   2.563   0.874   3.397
 8421TIP3   OH225203   6.917   6.576   4.019
 8421TIP3    H125204   6.975   6.507   4.051
 8421TIP3    H225205   6.833   6.533   4.006
 8422TIP3   OH225206   7.388   4.217   1.870
 8422TIP3    H125207   7.398   4.151   1.801
 8422TIP3    H225208   7.437   4.182   1.944
 8423TIP3   OH225209   7.467   0.290   4.507
 8423TIP3    H125210   7.438   0.259   4.422
 8423TIP3    H225211   7.451   0.385   4.505
 8424TIP3   OH225212   0.856   7.321   6.272
 8424TIP3    H125213   0.902   7.281   6.198
 8424TIP3    H225214   0.925   7.359   6.326
 8425TIP3   OH225215   0.564   0.172   3.450
 8425TIP3    H125216   0.511   0.092   3.448
 8425TIP3    H225217   0.578   0.193   3.357
 8426TIP3   OH225218   3.796   7.562   0.992
 8426TIP3    H125219   3.795   7.638   1.050
 8426TIP3    H225220   3.752   7.591   0.913
 8427TIP3   OH225221   3.374   6.413   2.102
 8427TIP3    H125222   3.427   6.335   2.084
 8427TIP3    H225223   3.410   6.480   2.043
 8428TIP3   OH225224   7.153   5.622   5.178
 8428TIP3    H125225   7.224   5.686   5.191
 8428TIP3    H225226   7.073   5.674   5.183
 8429TIP3   OH225227   4.362   5.663   3.790
 8429TIP3    H125228   4.432   5.598   3.794
 8429TIP3    H225229   4.322   5.651   3.704
 8430TIP3   OH225230   5.251   6.859   5.321
 8430TIP3    H125231   5.330   6.901   5.356
 8430TIP3    H225232   5.240   6.898   5.234
 8431TIP3   OH225233   6.257   2.065   2.694
 8431TIP3    H125234   6.186   2.129   2.693
 8431TIP3    H225235   6.215   1.984   2.723
 8432TIP3   OH225236   6.218   2.700   1.408
 8432TIP3    H125237   6.285   2.635   1.387
 8432TIP3    H225238   6.264   2.784   1.410
 8433TIP3   OH225239   7.535   3.414   4.398
 8433TIP3    H125240   7.499   3.385   4.314
 8433TIP3    H225241   7.564   3.504   4.382
 8434TIP3   OH225242   6.923   2.092   3.997
 8434TIP3    H125243   6.862   2.113   3.926
 8434TIP3    H225244   6.911   1.998   4.012
 8435TIP3   OH225245   1.242   2.353   4.412
 8435TIP3    H125246   1.278   2.365   4.500
 8435TIP3    H225247   1.155   2.393   4.416
 8436TIP3   OH225248   3.572   7.511   6.065
 8436TIP3    H125249   3.639   7.533   5.999
 8436TIP3    H225250   3.498   7.479   6.013
 8437TIP3   OH225251   1.020   2.244   1.475
 8437TIP3    H125252   1.000   2.157   1.510
 8437TIP3    H225253   1.014   2.233   1.380
 8438TIP3   OH225254   5.393   3.577   2.108
 8438TIP3    H125255   5.331   3.557   2.178
 8438TIP3    H225256   5.457   3.637   2.149
 8439TIP3   OH225257   3.520   3.156   3.891
 8439TIP3    H125258   3.561   3.232   3.848
 8439TIP3    H225259   3.569   3.147   3.973
 8440TIP3   OH225260   4.487   5.657   1.705
 8440TIP3    H125261   4.455   5.626   1.620
 8440TIP3    H225262   4.434   5.611   1.769
 8441TIP3   OH225263   2.786   7.023   3.921
 8441TIP3    H125264   2.843   7.029   3.998
 8441TIP3    H225265   2.760   6.931   3.917
 8442TIP3   OH225266   5.427   6.116   6.421
 8442TIP3    H125267   5.480   6.098   6.344
 8442TIP3    H225268   5.367   6.186   6.393
 8443TIP3   OH225269   0.453   5.273   0.477
 8443TIP3    H125270   0.419   5.304   0.561
 8443TIP3    H225271   0.442   5.177   0.481
 8444TIP3   OH225272   7.984   3.324   5.359
 8444TIP3    H125273   8.033   3.406   5.358
 8444TIP3    H225274   7.998   3.288   5.446
 8445TIP3   OH225275   6.148   3.302   2.529
 8445TIP3    H125276   6.213   3.246   2.486
 8445TIP3    H225277   6.136   3.262   2.615
 8446TIP3   OH225278   1.018   3.437   6.569
 8446TIP3    H125279   1.023   3.492   6.491
 8446TIP3    H225280   0.990   3.496   6.639
 8447TIP3   OH225281   2.202   6.673   0.169
 8447TIP3    H125282   2.200   6.700   0.260
 8447TIP3    H225283   2.296   6.669   0.147
 8448TIP3   OH225284   6.200   7.065   5.071
 8448TIP3    H125285   6.174   7.038   5.159
 8448TIP3    H225286   6.234   7.154   5.082
 8449TIP3   OH225287   0.624   3.240   3.466
 8449TIP3    H125288   0.638   3.295   3.389
 8449TIP3    H225289   0.681   3.164   3.452
 8450TIP3   OH225290   0.497   3.120   0.932
 8450TIP3    H125291   0.435   3.125   1.004
 8450TIP3    H225292   0.579   3.153   0.969
 8451TIP3   OH225293   3.864   7.042   0.582
 8451TIP3    H125294   3.936   7.098   0.553
 8451TIP3    H225295   3.820   7.093   0.650
 8452TIP3   OH225296   0.232   7.478   5.722
 8452TIP3    H125297   0.145   7.449   5.694
 8452TIP3    H225298   0.246   7.434   5.806
 8453TIP3   OH225299   7.037   5.261   4.164
 8453TIP3    H125300   6.983   5.211   4.104
 8453TIP3    H225301   7.008   5.233   4.251
 8454TIP3   OH225302   6.815   1.811   0.943
 8454TIP3    H125303   6.815   1.900   0.979
 8454TIP3    H225304   6.730   1.802   0.901
 8455TIP3   OH225305   8.355   0.347   6.292
 8455TIP3    H125306   8.263   0.321   6.284
 8455TIP3    H225307   8.351   0.440   6.315
 8456TIP3   OH225308   3.368   7.153   3.512
 8456TIP3    H125309   3.439   7.092   3.531
 8456TIP3    H225310   3.367   7.161   3.417
 8457TIP3   OH225311   4.561   4.989   6.237
 8457TIP3    H125312   4.651   5.002   6.265
 8457TIP3    H225313   4.566   4.923   6.168
 8458TIP3   OH225314   8.236   0.362   4.473
 8458TIP3    H125315   8.174   0.389   4.405
 8458TIP3    H225316   8.318   0.345   4.425
 8459TIP3   OH225317   3.864   6.014   3.225
 8459TIP3    H125318   3.851   6.089   3.167
 8459TIP3    H225319   3.936   5.965   3.185
 8460TIP3   OH225320   4.717   0.179   2.760
 8460TIP3    H125321   4.626   0.150   2.764
 8460TIP3    H225322   4.758   0.119   2.698
 8461TIP3   OH225323   1.863   7.784   2.615
 8461TIP3    H125324   1.947   7.829   2.621
 8461TIP3    H225325   1.884   7.691   2.612
 8462TIP3   OH225326   4.574   3.883   5.474
 8462TIP3    H125327   4.529   3.835   5.544
 8462TIP3    H225328   4.514   3.953   5.451
 8463TIP3   OH225329   5.066   5.331   2.289
 8463TIP3    H125330   4.972   5.321   2.275
 8463TIP3    H225331   5.086   5.420   2.259
 8464TIP3   OH225332   0.731   7.551   5.759
 8464TIP3    H125333   0.660   7.499   5.797
 8464TIP3    H225334   0.775   7.491   5.699
 8465TIP3   OH225335   5.120   2.699   3.325
 8465TIP3    H125336   5.094   2.642   3.253
 8465TIP3    H225337   5.170   2.642   3.384
 8466TIP3   OH225338   4.168   7.796   2.675
 8466TIP3    H125339   4.256   7.821   2.702
 8466TIP3    H225340   4.118   7.878   2.678
 8467TIP3   OH225341   3.914   2.662   4.527
 8467TIP3    H125342   3.868   2.703   4.453
 8467TIP3    H225343   3.982   2.609   4.486
 8468TIP3   OH225344   5.133   5.700   5.204
 8468TIP3    H125345   5.157   5.609   5.184
 8468TIP3    H225346   5.059   5.718   5.146
 8469TIP3   OH225347   2.359   5.112   4.237
 8469TIP3    H125348   2.422   5.069   4.294
 8469TIP3    H225349   2.299   5.042   4.210
 8470TIP3   OH225350   0.681   4.625   3.926
 8470TIP3    H125351   0.621   4.699   3.912
 8470TIP3    H225352   0.715   4.605   3.839
 8471TIP3   OH225353   2.120   7.502   5.886
 8471TIP3    H125354   2.151   7.591   5.906
 8471TIP3    H225355   2.085   7.508   5.798
 8472TIP3   OH225356   4.257   6.342   1.778
 8472TIP3    H125357   4.192   6.292   1.730
 8472TIP3    H225358   4.305   6.277   1.828
 8473TIP3   OH225359   2.823   0.111   3.468
 8473TIP3    H125360   2.915   0.139   3.460
 8473TIP3    H225361   2.820   0.066   3.552
 8474TIP3   OH225362   1.664   7.276   1.045
 8474TIP3    H125363   1.718   7.330   0.988
 8474TIP3    H225364   1.588   7.331   1.066
 8475TIP3   OH225365   0.017   6.991   5.589
 8475TIP3    H125366   0.019   6.911   5.538
 8475TIP3    H225367   0.103   6.994   5.632
 8476TIP3   OH225368   4.063   1.600   3.472
 8476TIP3    H125369   3.983   1.644   3.442
 8476TIP3    H225370   4.086   1.541   3.401
 8477TIP3   OH225371   4.680   0.282   1.983
 8477TIP3    H125372   4.623   0.312   2.053
 8477TIP3    H225373   4.767   0.277   2.023
 8478TIP3   OH225374   6.225   2.493   4.850
 8478TIP3    H125375   6.136   2.526   4.864
 8478TIP3    H225376   6.282   2.560   4.888
 8479TIP3   OH225377   7.880   3.645   6.728
 8479TIP3    H125378   7.854   3.671   6.640
 8479TIP3    H225379   7.860   3.721   6.782
 8480TIP3   OH225380   7.743   0.026   2.120
 8480TIP3    H125381   7.740  -0.060   2.078
 8480TIP3    H225382   7.775   0.085   2.052
 8481TIP3   OH225383   4.307   6.194   4.563
 8481TIP3    H125384   4.352   6.113   4.586
 8481TIP3    H225385   4.262   6.175   4.481
 8482TIP3   OH225386   3.425   1.314   5.807
 8482TIP3    H125387   3.436   1.400   5.768
 8482TIP3    H225388   3.469   1.254   5.747
 8483TIP3   OH225389   5.302   7.014   5.992
 8483TIP3    H125390   5.375   7.042   6.047
 8483TIP3    H225391   5.321   6.923   5.971
 8484TIP3   OH225392   0.413   1.374   0.911
 8484TIP3    H125393   0.335   1.382   0.966
 8484TIP3    H225394   0.486   1.386   0.972
 8485TIP3   OH225395   7.978   0.505   4.638
 8485TIP3    H125396   7.992   0.430   4.580
 8485TIP3    H225397   7.968   0.466   4.725
 8486TIP3   OH225398   3.552   2.635   5.909
 8486TIP3    H125399   3.564   2.672   5.997
 8486TIP3    H225400   3.519   2.708   5.857
 8487TIP3   OH225401   7.634   5.368   6.192
 8487TIP3    H125402   7.552   5.326   6.219
 8487TIP3    H225403   7.686   5.374   6.273
 8488TIP3   OH225404   6.212   4.886   3.799
 8488TIP3    H125405   6.130   4.858   3.758
 8488TIP3    H225406   6.185   4.932   3.878
 8489TIP3   OH225407   1.459   1.547   1.263
 8489TIP3    H125408   1.429   1.588   1.344
 8489TIP3    H225409   1.506   1.616   1.217
 8490TIP3   OH225410   1.539   3.604   6.682
 8490TIP3    H125411   1.629   3.574   6.685
 8490TIP3    H225412   1.490   3.529   6.649
 8491TIP3   OH225413   4.532   1.640   3.118
 8491TIP3    H125414   4.579   1.693   3.054
 8491TIP3    H225415   4.440   1.648   3.092
 8492TIP3   OH225416   0.858   7.086   3.004
 8492TIP3    H125417   0.849   7.002   3.047
 8492TIP3    H225418   0.770   7.105   2.969
 8493TIP3   OH225419   1.078   4.454   5.332
 8493TIP3    H125420   1.109   4.365   5.347
 8493TIP3    H225421   1.032   4.449   5.249
 8494TIP3   OH225422   6.027   6.700   6.257
 8494TIP3    H125423   5.978   6.670   6.333
 8494TIP3    H225424   5.960   6.722   6.192
 8495TIP3   OH225425   4.150   7.816   0.929
 8495TIP3    H125426   4.125   7.731   0.964
 8495TIP3    H225427   4.167   7.800   0.836
 8496TIP3   OH225428   1.308   6.723   4.260
 8496TIP3    H125429   1.338   6.765   4.341
 8496TIP3    H225430   1.375   6.657   4.241
 8497TIP3   OH225431   2.382   4.082   5.265
 8497TIP3    H125432   2.400   4.170   5.233
 8497TIP3    H225433   2.466   4.037   5.259
 8498TIP3   OH225434   1.994   6.754   5.887
 8498TIP3    H125435   2.021   6.842   5.861
 8498TIP3    H225436   1.991   6.758   5.983
 8499TIP3   OH225437   3.456   6.982   1.707
 8499TIP3    H125438   3.430   7.073   1.722
 8499TIP3    H225439   3.550   6.980   1.724
 8500TIP3   OH225440   3.623   1.391   1.690
 8500TIP3    H125441   3.615   1.344   1.773
 8500TIP3    H225442   3.585   1.477   1.708
 8501TIP3   OH225443   2.505   6.274   5.914
 8501TIP3    H125444   2.481   6.205   5.852
 8501TIP3    H225445   2.445   6.346   5.893
 8502TIP3   OH225446   8.276   4.346   0.098
 8502TIP3    H125447   8.366   4.380   0.098
 8502TIP3    H225448   8.236   4.385   0.020
 8503TIP3   OH225449   4.031   2.183   2.048
 8503TIP3    H125450   3.978   2.260   2.067
 8503TIP3    H225451   4.118   2.205   2.080
 8504TIP3   OH225452   2.924   1.139   0.169
 8504TIP3    H125453   2.964   1.053   0.158
 8504TIP3    H225454   2.968   1.176   0.247
 8505TIP3   OH225455   4.704   2.907   4.417
 8505TIP3    H125456   4.611   2.885   4.420
 8505TIP3    H225457   4.749   2.822   4.417
 8506TIP3   OH225458   4.903   3.276   2.718
 8506TIP3    H125459   4.854   3.200   2.687
 8506TIP3    H225460   4.872   3.289   2.808
 8507TIP3   OH225461   2.180   7.275   0.474
 8507TIP3    H125462   2.156   7.348   0.417
 8507TIP3    H225463   2.263   7.243   0.439
 8508TIP3   OH225464   1.713   0.249   0.079
 8508TIP3    H125465   1.774   0.206   0.138
 8508TIP3    H225466   1.765   0.269   0.001
 8509TIP3   OH225467   8.075   0.784   4.932
 8509TIP3    H125468   7.980   0.775   4.933
 8509TIP3    H225469   8.095   0.824   4.847
 8510TIP3   OH225470   5.308   0.750   4.595
 8510TIP3    H125471   5.335   0.707   4.676
 8510TIP3    H225472   5.250   0.820   4.623
 8511TIP3   OH225473   1.633   4.971   5.654
 8511TIP3    H125474   1.582   4.907   5.604
 8511TIP3    H225475   1.717   4.975   5.608
 8512TIP3   OH225476   6.365   3.365   2.183
 8512TIP3    H125477   6.346   3.303   2.112
 8512TIP3    H225478   6.457   3.348   2.206
 8513TIP3   OH225479   0.379   4.326   2.767
 8513TIP3    H125480   0.466   4.360   2.744
 8513TIP3    H225481   0.377   4.329   2.863
 8514TIP3   OH225482   0.744   7.862   2.011
 8514TIP3    H125483   0.694   7.906   1.943
 8514TIP3    H225484   0.708   7.896   2.093
 8515TIP3   OH225485   7.586   1.173   6.139
 8515TIP3    H125486   7.528   1.104   6.109
 8515TIP3    H225487   7.603   1.153   6.231
 8516TIP3   OH225488   5.072   2.687   6.551
 8516TIP3    H125489   5.064   2.652   6.462
 8516TIP3    H225490   4.982   2.701   6.580
 8517TIP3   OH225491   6.727   3.650   6.716
 8517TIP3    H125492   6.809   3.615   6.682
 8517TIP3    H225493   6.681   3.573   6.750
 8518TIP3   OH225494   6.063   1.019   4.565
 8518TIP3    H125495   6.119   1.012   4.642
 8518TIP3    H225496   6.110   1.078   4.506
 8519TIP3   OH225497   0.895   5.243   2.816
 8519TIP3    H125498   0.806   5.219   2.790
 8519TIP3    H225499   0.932   5.162   2.851
 8520TIP3   OH225500   7.823   5.329   0.164
 8520TIP3    H125501   7.838   5.280   0.084
 8520TIP3    H225502   7.904   5.319   0.214
 8521TIP3   OH225503   1.606   1.340   0.654
 8521TIP3    H125504   1.693   1.367   0.685
 8521TIP3    H225505   1.546   1.407   0.686
 8522TIP3   OH225506   6.588   4.827   4.949
 8522TIP3    H125507   6.600   4.751   5.006
 8522TIP3    H225508   6.677   4.859   4.931
 8523TIP3   OH225509   6.270   0.107   0.819
 8523TIP3    H125510   6.303   0.165   0.887
 8523TIP3    H225511   6.183   0.141   0.798
 8524TIP3   OH225512   4.098   4.192   0.555
 8524TIP3    H125513   4.092   4.237   0.470
 8524TIP3    H225514   4.035   4.121   0.549
 8525TIP3   OH225515   7.841   6.939   5.486
 8525TIP3    H125516   7.871   6.995   5.558
 8525TIP3    H225517   7.787   6.872   5.528
 8526TIP3   OH225518   1.583   3.809   5.683
 8526TIP3    H125519   1.503   3.804   5.630
 8526TIP3    H225520   1.554   3.787   5.772
 8527TIP3   OH225521   6.236   6.110   4.885
 8527TIP3    H125522   6.150   6.111   4.929
 8527TIP3    H225523   6.221   6.155   4.802
 8528TIP3   OH225524   7.250   7.140   4.477
 8528TIP3    H125525   7.271   7.115   4.387
 8528TIP3    H225526   7.334   7.164   4.515
 8529TIP3   OH225527   3.550   0.553   6.647
 8529TIP3    H125528   3.583   0.638   6.618
 8529TIP3    H225529   3.486   0.574   6.715
 8530TIP3   OH225530   6.069   7.907   4.584
 8530TIP3    H125531   6.035   7.826   4.545
 8530TIP3    H225532   6.163   7.905   4.565
 8531TIP3   OH225533   7.799   4.114   3.922
 8531TIP3    H125534   7.755   4.029   3.922
 8531TIP3    H225535   7.873   4.103   3.981
 8532TIP3   OH225536   4.262   0.500   4.234
 8532TIP3    H125537   4.236   0.512   4.325
 8532TIP3    H225538   4.257   0.588   4.196
 8533TIP3   OH225539   7.122   3.076   4.820
 8533TIP3    H125540   7.146   3.067   4.912
 8533TIP3    H225541   7.200   3.111   4.778
 8534TIP3   OH225542   1.318   3.225   4.515
 8534TIP3    H125543   1.294   3.138   4.481
 8534TIP3    H225544   1.301   3.219   4.609
 8535TIP3   OH225545   2.181   5.139   4.779
 8535TIP3    H125546   2.224   5.167   4.860
 8535TIP3    H225547   2.097   5.185   4.780
 8536TIP3   OH225548   3.959   6.228   3.084
 8536TIP3    H125549   3.924   6.309   3.121
 8536TIP3    H225550   3.912   6.216   3.001
 8537TIP3   OH225551   8.321   4.866   5.760
 8537TIP3    H125552   8.306   4.824   5.675
 8537TIP3    H225553   8.399   4.823   5.795
 8538TIP3   OH225554   7.119   5.646   0.847
 8538TIP3    H125555   7.051   5.619   0.908
 8538TIP3    H225556   7.087   5.618   0.761
 8539TIP3   OH225557   0.321   6.906   2.592
 8539TIP3    H125558   0.283   6.819   2.600
 8539TIP3    H225559   0.347   6.912   2.500
 8540TIP3   OH225560   1.400   0.721   1.554
 8540TIP3    H125561   1.337   0.762   1.613
 8540TIP3    H225562   1.486   0.745   1.589
 8541TIP3   OH225563   3.386   3.669   0.764
 8541TIP3    H125564   3.468   3.710   0.736
 8541TIP3    H225565   3.320   3.708   0.707
 8542TIP3   OH225566   8.331   2.772   1.906
 8542TIP3    H125567   8.415   2.783   1.951
 8542TIP3    H225568   8.292   2.695   1.946
 8543TIP3   OH225569   6.552   0.818   5.147
 8543TIP3    H125570   6.619   0.778   5.092
 8543TIP3    H225571   6.570   0.786   5.235
 8544TIP3   OH225572   2.624   4.388   6.486
 8544TIP3    H125573   2.625   4.415   6.578
 8544TIP3    H225574   2.540   4.345   6.475
 8545TIP3   OH225575   3.405   6.812   0.987
 8545TIP3    H125576   3.460   6.861   1.048
 8545TIP3    H225577   3.323   6.799   1.034
 8546TIP3   OH225578   7.893   6.322   3.394
 8546TIP3    H125579   7.932   6.376   3.326
 8546TIP3    H225580   7.967   6.298   3.450
 8547TIP3   OH225581   3.156   1.197   6.809
 8547TIP3    H125582   3.170   1.243   6.892
 8547TIP3    H225583   3.225   1.132   6.806
 8548TIP3   OH225584   7.945   6.555   0.679
 8548TIP3    H125585   7.930   6.623   0.613
 8548TIP3    H225586   8.036   6.568   0.707
 8549TIP3   OH225587   4.772   0.116   0.875
 8549TIP3    H125588   4.712   0.189   0.862
 8549TIP3    H225589   4.738   0.046   0.820
 8550TIP3   OH225590   1.966   2.847   3.393
 8550TIP3    H125591   2.019   2.880   3.320
 8550TIP3    H225592   1.882   2.892   3.384
 8551TIP3   OH225593   6.327   3.208   2.877
 8551TIP3    H125594   6.351   3.168   2.960
 8551TIP3    H225595   6.406   3.253   2.847
 8552TIP3   OH225596   1.513   1.366   3.185
 8552TIP3    H125597   1.512   1.299   3.117
 8552TIP3    H225598   1.487   1.321   3.265
 8553TIP3   OH225599   1.568   3.010   5.622
 8553TIP3    H125600   1.565   2.914   5.622
 8553TIP3    H225601   1.532   3.035   5.707
 8554TIP3   OH225602   2.412   6.292   6.499
 8554TIP3    H125603   2.404   6.198   6.481
 8554TIP3    H225604   2.444   6.330   6.417
 8555TIP3   OH225605   4.144   3.957   4.725
 8555TIP3    H125606   4.076   3.890   4.716
 8555TIP3    H225607   4.223   3.909   4.750
 8556TIP3   OH225608   0.220   0.109   5.007
 8556TIP3    H125609   0.235   0.017   4.986
 8556TIP3    H225610   0.231   0.155   4.924
 8557TIP3   OH225611   2.167   7.812   4.785
 8557TIP3    H125612   2.138   7.893   4.743
 8557TIP3    H225613   2.238   7.840   4.844
 8558TIP3   OH225614   5.102   0.918   2.885
 8558TIP3    H125615   5.101   1.005   2.925
 8558TIP3    H225616   5.083   0.935   2.792
 8559TIP3   OH225617   1.850   7.409   2.302
 8559TIP3    H125618   1.815   7.497   2.293
 8559TIP3    H225619   1.786   7.352   2.260
 8560TIP3   OH225620   4.603   3.537   1.631
 8560TIP3    H125621   4.687   3.527   1.676
 8560TIP3    H225622   4.620   3.600   1.562
 8561TIP3   OH225623   5.640   5.514   4.230
 8561TIP3    H125624   5.607   5.472   4.309
 8561TIP3    H225625   5.576   5.584   4.212
 8562TIP3   OH225626   6.811   4.331   2.158
 8562TIP3    H125627   6.895   4.373   2.177
 8562TIP3    H225628   6.753   4.404   2.136
 8563TIP3   OH225629   7.491   3.107   1.404
 8563TIP3    H125630   7.423   3.175   1.412
 8563TIP3    H225631   7.473   3.064   1.321
 8564TIP3   OH225632   7.026   3.154   0.277
 8564TIP3    H125633   6.954   3.213   0.301
 8564TIP3    H225634   7.012   3.077   0.332
 8565TIP3   OH225635   6.725   3.647   2.156
 8565TIP3    H125636   6.645   3.618   2.111
 8565TIP3    H225637   6.768   3.705   2.093
 8566TIP3   OH225638   7.247   2.035   6.223
 8566TIP3    H125639   7.296   1.967   6.177
 8566TIP3    H225640   7.157   2.004   6.223
 8567TIP3   OH225641   8.057   2.231   0.477
 8567TIP3    H125642   8.114   2.249   0.402
 8567TIP3    H225643   8.044   2.136   0.474
 8568TIP3   OH225644   3.058   0.089   2.914
 8568TIP3    H125645   3.014   0.102   2.830
 8568TIP3    H225646   2.999   0.031   2.964
 8569TIP3   OH225647   0.550   1.769   4.468
 8569TIP3    H125648   0.613   1.709   4.430
 8569TIP3    H225649   0.603   1.833   4.516
 8570TIP3   OH225650   1.889   2.689   1.443
 8570TIP3    H125651   1.916   2.675   1.352
 8570TIP3    H225652   1.803   2.729   1.436
 8571TIP3   OH225653   7.993   6.499   2.108
 8571TIP3    H125654   8.059   6.561   2.077
 8571TIP3    H225655   7.993   6.511   2.203
 8572TIP3   OH225656   5.664   5.239   4.758
 8572TIP3    H125657   5.594   5.210   4.699
 8572TIP3    H225658   5.742   5.195   4.725
 8573TIP3   OH225659   3.292   5.831   4.113
 8573TIP3    H125660   3.254   5.743   4.102
 8573TIP3    H225661   3.351   5.823   4.187
 8574TIP3   OH225662   5.962   2.767   1.867
 8574TIP3    H125663   5.888   2.721   1.828
 8574TIP3    H225664   6.023   2.780   1.794
 8575TIP3   OH225665   0.047   1.019   6.000
 8575TIP3    H125666  -0.030   1.007   5.944
 8575TIP3    H225667   0.047   1.113   6.021
 8576TIP3   OH225668   5.388   3.222   5.410
 8576TIP3    H125669   5.393   3.303   5.359
 8576TIP3    H225670   5.466   3.172   5.384
 8577TIP3   OH225671   4.016   5.775   5.738
 8577TIP3    H125672   3.949   5.706   5.734
 8577TIP3    H225673   3.994   5.834   5.667
 8578TIP3   OH225674   0.126   6.595   5.136
 8578TIP3    H125675   0.179   6.520   5.164
 8578TIP3    H225676   0.177   6.635   5.066
 8579TIP3   OH225677   4.812   7.387   2.966
 8579TIP3    H125678   4.732   7.336   2.979
 8579TIP3    H225679   4.826   7.385   2.871
 8580TIP3   OH225680   4.499   6.334   0.856
 8580TIP3    H125681   4.510   6.242   0.831
 8580TIP3    H225682   4.411   6.338   0.894
 8581TIP3   OH225683   6.084   4.710   2.204
 8581TIP3    H125684   6.090   4.748   2.291
 8581TIP3    H225685   6.167   4.665   2.191
 8582TIP3   OH225686   1.366   5.883   6.013
 8582TIP3    H125687   1.370   5.808   5.953
 8582TIP3    H225688   1.454   5.920   6.011
 8583TIP3   OH225689   5.309   7.431   5.607
 8583TIP3    H125690   5.236   7.398   5.555
 8583TIP3    H225691   5.356   7.490   5.549
 8584TIP3   OH225692   4.520   3.517   5.612
 8584TIP3    H125693   4.452   3.510   5.545
 8584TIP3    H225694   4.513   3.607   5.643
 8585TIP3   OH225695   5.380   7.438   4.958
 8585TIP3    H125696   5.376   7.350   4.995
 8585TIP3    H225697   5.292   7.474   4.972
 8586TIP3   OH225698   2.183   0.272   4.094
 8586TIP3    H125699   2.129   0.308   4.165
 8586TIP3    H225700   2.268   0.312   4.107
 8587TIP3   OH225701   1.940   6.169   4.714
 8587TIP3    H125702   1.889   6.193   4.637
 8587TIP3    H225703   1.992   6.246   4.735
 8588TIP3   OH225704   6.067   1.882   3.323
 8588TIP3    H125705   5.988   1.924   3.356
 8588TIP3    H225706   6.060   1.888   3.228
 8589TIP3   OH225707   0.626   3.063   6.560
 8589TIP3    H125708   0.615   3.128   6.490
 8589TIP3    H225709   0.721   3.047   6.562
 8590TIP3   OH225710   5.813   6.555   0.835
 8590TIP3    H125711   5.833   6.625   0.773
 8590TIP3    H225712   5.728   6.521   0.807
 8591TIP3   OH225713   5.196   0.887   4.839
 8591TIP3    H125714   5.180   0.938   4.918
 8591TIP3    H225715   5.259   0.821   4.866
 8592TIP3   OH225716   6.455   0.228   0.586
 8592TIP3    H125717   6.530   0.197   0.536
 8592TIP3    H225718   6.384   0.168   0.563
 8593TIP3   OH225719   0.684   2.458   5.018
 8593TIP3    H125720   0.613   2.471   5.081
 8593TIP3    H225721   0.676   2.367   4.990
 8594TIP3   OH225722   2.489   5.065   4.997
 8594TIP3    H125723   2.453   5.153   5.005
 8594TIP3    H225724   2.412   5.007   5.004
 8595TIP3   OH225725   3.919   4.490   2.231
 8595TIP3    H125726   3.826   4.508   2.224
 8595TIP3    H225727   3.943   4.451   2.147
 8596TIP3   OH225728   2.825   7.071   2.358
 8596TIP3    H125729   2.802   7.115   2.276
 8596TIP3    H225730   2.745   7.026   2.385
 8597TIP3   OH225731   7.831   6.877   5.212
 8597TIP3    H125732   7.886   6.897   5.287
 8597TIP3    H225733   7.769   6.812   5.244
 8598TIP3   OH225734   2.821   5.583   3.369
 8598TIP3    H125735   2.780   5.665   3.396
 8598TIP3    H225736   2.867   5.553   3.448
 8599TIP3   OH225737   1.096   2.048   3.917
 8599TIP3    H125738   1.038   2.063   3.842
 8599TIP3    H225739   1.045   2.074   3.993
 8600TIP3   OH225740   7.250   0.587   3.044
 8600TIP3    H125741   7.334   0.592   3.088
 8600TIP3    H225742   7.222   0.496   3.058
 8601TIP3   OH225743   4.584   4.732   0.642
 8601TIP3    H125744   4.545   4.651   0.674
 8601TIP3    H225745   4.528   4.801   0.677
 8602TIP3   OH225746   1.729   2.449   6.117
 8602TIP3    H125747   1.636   2.442   6.140
 8602TIP3    H225748   1.753   2.360   6.091
 8603TIP3   OH225749   6.335   1.630   0.572
 8603TIP3    H125750   6.415   1.579   0.564
 8603TIP3    H225751   6.271   1.582   0.519
 8604TIP3   OH225752   8.155   7.047   1.204
 8604TIP3    H125753   8.072   7.024   1.162
 8604TIP3    H225754   8.202   6.964   1.211
 8605TIP3   OH225755   2.547   2.914   0.994
 8605TIP3    H125756   2.540   2.841   0.932
 8605TIP3    H225757   2.641   2.925   1.006
 8606TIP3   OH225758   2.157   3.130   6.515
 8606TIP3    H125759   2.189   3.053   6.469
 8606TIP3    H225760   2.084   3.098   6.568
 8607TIP3   OH225761   7.972   5.442   4.341
 8607TIP3    H125762   7.931   5.462   4.425
 8607TIP3    H225763   7.921   5.368   4.307
 8608TIP3   OH225764   4.866   5.030   2.624
 8608TIP3    H125765   4.804   5.091   2.584
 8608TIP3    H225766   4.952   5.067   2.605
 8609TIP3   OH225767   0.653   6.290   4.845
 8609TIP3    H125768   0.745   6.267   4.835
 8609TIP3    H225769   0.627   6.319   4.757
 8610TIP3   OH225770   0.225   0.444   0.624
 8610TIP3    H125771   0.284   0.448   0.699
 8610TIP3    H225772   0.239   0.357   0.588
 8611TIP3   OH225773   8.225   0.237   1.609
 8611TIP3    H125774   8.219   0.290   1.529
 8611TIP3    H225775   8.319   0.234   1.627
 8612TIP3   OH225776   7.563   3.051   4.073
 8612TIP3    H125777   7.604   3.048   4.159
 8612TIP3    H225778   7.626   3.099   4.019
 8613TIP3   OH225779   3.167   2.826   4.591
 8613TIP3    H125780   3.209   2.902   4.549
 8613TIP3    H225781   3.171   2.757   4.524
 8614TIP3   OH225782   4.334   0.190   6.653
 8614TIP3    H125783   4.419   0.155   6.624
 8614TIP3    H225784   4.272   0.121   6.631
 8615TIP3   OH225785   6.179   7.763   4.007
 8615TIP3    H125786   6.246   7.831   4.006
 8615TIP3    H225787   6.104   7.803   4.051
 8616TIP3   OH225788   0.525   5.093   5.298
 8616TIP3    H125789   0.525   5.000   5.320
 8616TIP3    H225790   0.579   5.099   5.219
 8617TIP3   OH225791   3.493   6.612   6.762
 8617TIP3    H125792   3.513   6.629   6.854
 8617TIP3    H225793   3.432   6.539   6.764
 8618TIP3   OH225794   2.818   3.679   0.799
 8618TIP3    H125795   2.734   3.634   0.812
 8618TIP3    H225796   2.878   3.609   0.774
 8619TIP3   OH225797   4.840   3.964   4.134
 8619TIP3    H125798   4.783   3.923   4.069
 8619TIP3    H225799   4.926   3.965   4.092
 8620TIP3   OH225800   0.638   1.063   1.052
 8620TIP3    H125801   0.634   1.071   0.957
 8620TIP3    H225802   0.652   1.152   1.083
 8621TIP3   OH225803   4.574   2.920   5.097
 8621TIP3    H125804   4.596   2.926   5.004
 8621TIP3    H225805   4.487   2.881   5.099
 8622TIP3   OH225806   3.525   0.234   1.221
 8622TIP3    H125807   3.467   0.179   1.169
 8622TIP3    H225808   3.477   0.316   1.233
 8623TIP3   OH225809   7.847   4.834   4.342
 8623TIP3    H125810   7.809   4.773   4.406
 8623TIP3    H225811   7.788   4.909   4.343
 8624TIP3   OH225812   7.134   5.582   4.581
 8624TIP3    H125813   7.170   5.516   4.640
 8624TIP3    H225814   7.198   5.589   4.510
 8625TIP3   OH225815   5.091   6.523   3.661
 8625TIP3    H125816   5.042   6.604   3.679
 8625TIP3    H225817   5.158   6.549   3.598
 8626TIP3   OH225818   0.569   6.323   6.788
 8626TIP3    H125819   0.589   6.365   6.705
 8626TIP3    H225820   0.655   6.299   6.824
 8627TIP3   OH225821   6.374   3.135   2.503
 8627TIP3    H125822   6.441   3.201   2.488
 8627TIP3    H225823   6.380   3.076   2.427
 8628TIP3   OH225824   3.809   0.844   1.805
 8628TIP3    H125825   3.764   0.882   1.881
 8628TIP3    H225826   3.759   0.876   1.729
 8629TIP3   OH225827   2.401   0.309   2.811
 8629TIP3    H125828   2.405   0.360   2.892
 8629TIP3    H225829   2.344   0.235   2.832
 8630TIP3   OH225830   3.954   4.745   5.523
 8630TIP3    H125831   3.981   4.809   5.456
 8630TIP3    H225832   3.860   4.735   5.509
 8631TIP3   OH225833   2.045   3.915   4.359
 8631TIP3    H125834   1.955   3.923   4.328
 8631TIP3    H225835   2.051   3.826   4.394
 8632TIP3   OH225836   0.607   4.541   1.812
 8632TIP3    H125837   0.527   4.555   1.761
 8632TIP3    H225838   0.611   4.446   1.826
 8633TIP3   OH225839   7.587   4.167   6.777
 8633TIP3    H125840   7.633   4.250   6.790
 8633TIP3    H225841   7.528   4.182   6.704
 8634TIP3   OH225842   6.970   4.595   6.358
 8634TIP3    H125843   6.984   4.690   6.352
 8634TIP3    H225844   6.884   4.580   6.320
 8635TIP3   OH225845   2.472   2.247   5.255
 8635TIP3    H125846   2.543   2.258   5.319
 8635TIP3    H225847   2.426   2.331   5.256
 8636TIP3   OH225848   5.419   6.527   0.346
 8636TIP3    H125849   5.441   6.598   0.286
 8636TIP3    H225850   5.330   6.502   0.323
 8637TIP3   OH225851   0.699   7.805   6.627
 8637TIP3    H125852   0.657   7.772   6.547
 8637TIP3    H225853   0.632   7.795   6.695
 8638TIP3   OH225854   5.444   1.905   6.694
 8638TIP3    H125855   5.362   1.896   6.744
 8638TIP3    H225856   5.426   1.860   6.612
 8639TIP3   OH225857   1.188   4.363   0.404
 8639TIP3    H125858   1.272   4.336   0.440
 8639TIP3    H225859   1.192   4.459   0.405
 8640TIP3   OH225860   6.114   2.663   5.849
 8640TIP3    H125861   6.031   2.617   5.862
 8640TIP3    H225862   6.139   2.692   5.937
 8641TIP3   OH225863   0.365   0.955   1.098
 8641TIP3    H125864   0.325   1.042   1.109
 8641TIP3    H225865   0.437   0.969   1.037
 8642TIP3   OH225866   5.382   3.976   6.186
 8642TIP3    H125867   5.456   3.947   6.239
 8642TIP3    H225868   5.420   4.000   6.102
 8643TIP3   OH225869   4.692   3.950   1.627
 8643TIP3    H125870   4.667   3.919   1.541
 8643TIP3    H225871   4.675   4.044   1.625
 8644TIP3   OH225872   1.254   6.990   2.628
 8644TIP3    H125873   1.218   7.003   2.540
 8644TIP3    H225874   1.181   7.011   2.687
 8645TIP3   OH225875   3.218   0.867   2.543
 8645TIP3    H125876   3.299   0.914   2.528
 8645TIP3    H225877   3.195   0.887   2.634
 8646TIP3   OH225878   1.330   4.986   4.241
 8646TIP3    H125879   1.346   4.893   4.257
 8646TIP3    H225880   1.347   4.998   4.147
 8647TIP3   OH225881   1.008   6.797   0.629
 8647TIP3    H125882   0.981   6.885   0.655
 8647TIP3    H225883   1.104   6.802   0.626
 8648TIP3   OH225884   5.047   4.905   4.801
 8648TIP3    H125885   5.076   4.835   4.742
 8648TIP3    H225886   5.078   4.985   4.760
 8649TIP3   OH225887   6.395   5.287   3.791
 8649TIP3    H125888   6.390   5.377   3.825
 8649TIP3    H225889   6.432   5.237   3.864
 8650TIP3   OH225890   1.110   4.738   0.987
 8650TIP3    H125891   1.077   4.828   0.984
 8650TIP3    H225892   1.197   4.745   1.027
 8651TIP3   OH225893   1.854   5.534   4.110
 8651TIP3    H125894   1.825   5.446   4.130
 8651TIP3    H225895   1.929   5.522   4.051
 8652TIP3   OH225896   1.833   0.873   0.261
 8652TIP3    H125897   1.811   0.871   0.354
 8652TIP3    H225898   1.792   0.953   0.228
 8653TIP3   OH225899   0.345   4.726   0.452
 8653TIP3    H125900   0.409   4.670   0.407
 8653TIP3    H225901   0.306   4.779   0.382
 8654TIP3   OH225902   2.714   2.537   6.495
 8654TIP3    H125903   2.675   2.473   6.554
 8654TIP3    H225904   2.640   2.592   6.467
 8655TIP3   OH225905   1.977   5.890   4.587
 8655TIP3    H125906   1.933   5.940   4.518
 8655TIP3    H225907   1.996   5.954   4.655
 8656TIP3   OH225908   4.756   4.377   0.094
 8656TIP3    H125909   4.688   4.426   0.140
 8656TIP3    H225910   4.740   4.393   0.001
 8657TIP3   OH225911   5.806   1.541   0.885
 8657TIP3    H125912   5.759   1.608   0.935
 8657TIP3    H225913   5.763   1.541   0.800
 8658TIP3   OH225914   3.082   5.989   2.556
 8658TIP3    H125915   3.151   5.969   2.619
 8658TIP3    H225916   3.038   5.906   2.540
 8659TIP3   OH225917   6.575   2.127   0.305
 8659TIP3    H125918   6.520   2.087   0.237
 8659TIP3    H225919   6.640   2.060   0.324
 8660TIP3   OH225920   2.634   4.910   2.195
 8660TIP3    H125921   2.644   4.981   2.132
 8660TIP3    H225922   2.567   4.941   2.256
 8661TIP3   OH225923   0.457   2.049   3.940
 8661TIP3    H125924   0.536   2.099   3.961
 8661TIP3    H225925   0.484   1.990   3.869
 8662TIP3   OH225926   4.527   4.466   2.707
 8662TIP3    H125927   4.604   4.521   2.724
 8662TIP3    H225928   4.564   4.387   2.666
 8663TIP3   OH225929   2.898   7.131   0.522
 8663TIP3    H125930   2.920   7.050   0.568
 8663TIP3    H225931   2.887   7.196   0.592
 8664TIP3   OH225932   5.720   2.322   4.305
 8664TIP3    H125933   5.756   2.243   4.346
 8664TIP3    H225934   5.653   2.352   4.367
 8665TIP3   OH225935   1.236   0.027   0.082
 8665TIP3    H125936   1.247   0.009   0.176
 8665TIP3    H225937   1.266   0.117   0.072
 8666TIP3   OH225938   7.376   4.339   5.425
 8666TIP3    H125939   7.297   4.306   5.467
 8666TIP3    H225940   7.405   4.411   5.481
 8667TIP3   OH225941   6.267   3.420   6.496
 8667TIP3    H125942   6.249   3.403   6.588
 8667TIP3    H225943   6.204   3.489   6.472
 8668TIP3   OH225944   6.736   5.713   1.077
 8668TIP3    H125945   6.678   5.697   1.151
 8668TIP3    H225946   6.807   5.649   1.088
 8669TIP3   OH225947   2.213   3.812   2.506
 8669TIP3    H125948   2.136   3.760   2.485
 8669TIP3    H225949   2.272   3.752   2.552
 8670TIP3   OH225950   5.034   6.008   5.945
 8670TIP3    H125951   5.099   6.065   5.985
 8670TIP3    H225952   4.957   6.064   5.934
 8671TIP3   OH225953   1.296   1.988   2.553
 8671TIP3    H125954   1.269   2.077   2.529
 8671TIP3    H225955   1.238   1.965   2.625
 8672TIP3   OH225956   4.610   3.293   2.536
 8672TIP3    H125957   4.612   3.307   2.631
 8672TIP3    H225958   4.645   3.204   2.525
 8673TIP3   OH225959   8.292   5.163   0.308
 8673TIP3    H125960   8.309   5.070   0.322
 8673TIP3    H225961   8.371   5.196   0.264
 8674TIP3   OH225962   0.041   7.818   5.826
 8674TIP3    H125963  -0.054   7.819   5.840
 8674TIP3    H225964   0.059   7.899   5.778
 8675TIP3   OH225965   7.424   2.175   5.090
 8675TIP3    H125966   7.412   2.259   5.046
 8675TIP3    H225967   7.359   2.174   5.160
 8676TIP3   OH225968   7.719   4.763   0.715
 8676TIP3    H125969   7.771   4.825   0.664
 8676TIP3    H225970   7.692   4.812   0.792
 8677TIP3   OH225971   1.740   4.407   2.442
 8677TIP3    H125972   1.709   4.327   2.485
 8677TIP3    H225973   1.797   4.448   2.507
 8678TIP3   OH225974   7.485   2.787   3.052
 8678TIP3    H125975   7.568   2.814   3.090
 8678TIP3    H225976   7.508   2.755   2.965
 8679TIP3   OH225977   1.788   6.119   5.453
 8679TIP3    H125978   1.817   6.072   5.375
 8679TIP3    H225979   1.749   6.052   5.509
 8680TIP3   OH225980   0.735   0.256   0.873
 8680TIP3    H125981   0.800   0.284   0.808
 8680TIP3    H225982   0.742   0.321   0.942
 8681TIP3   OH225983   4.153   1.606   1.849
 8681TIP3    H125984   4.130   1.687   1.804
 8681TIP3    H225985   4.185   1.634   1.935
 8682TIP3   OH225986   5.136   7.152   0.117
 8682TIP3    H125987   5.072   7.089   0.085
 8682TIP3    H225988   5.213   7.099   0.140
 8683TIP3   OH225989   5.612   0.106   1.080
 8683TIP3    H125990   5.633   0.126   1.171
 8683TIP3    H225991   5.697   0.092   1.038
 8684TIP3   OH225992   3.358   0.810   0.646
 8684TIP3    H125993   3.275   0.762   0.651
 8684TIP3    H225994   3.400   0.793   0.730
 8685TIP3   OH225995   2.455   2.832   3.190
 8685TIP3    H125996   2.368   2.873   3.195
 8685TIP3    H225997   2.515   2.899   3.223
 8686TIP3   OH225998   5.384   0.715   1.177
 8686TIP3    H125999   5.316   0.767   1.221
 8686TIP3    H226000   5.448   0.779   1.148
 8687TIP3   OH226001   1.926   0.502   0.457
 8687TIP3    H126002   2.016   0.494   0.488
 8687TIP3    H226003   1.893   0.412   0.459
 8688TIP3   OH226004   4.042   5.124   1.147
 8688TIP3    H126005   4.129   5.143   1.180
 8688TIP3    H226006   4.029   5.186   1.075
 8689TIP3   OH226007   6.254   0.557   4.675
 8689TIP3    H126008   6.297   0.516   4.600
 8689TIP3    H226009   6.161   0.536   4.663
 8690TIP3   OH226010   4.741   2.712   6.305
 8690TIP3    H126011   4.726   2.622   6.278
 8690TIP3    H226012   4.699   2.765   6.237
 8691TIP3   OH226013   2.742   2.989   4.522
 8691TIP3    H126014   2.647   2.972   4.520
 8691TIP3    H226015   2.781   2.912   4.481
 8692TIP3   OH226016   5.996   5.185   0.634
 8692TIP3    H126017   6.022   5.130   0.708
 8692TIP3    H226018   6.038   5.269   0.651
 8693TIP3   OH226019   0.716   1.995   0.188
 8693TIP3    H126020   0.636   2.013   0.236
 8693TIP3    H226021   0.686   1.973   0.099
 8694TIP3   OH226022   2.955   2.386   6.456
 8694TIP3    H126023   3.042   2.397   6.495
 8694TIP3    H226024   2.898   2.441   6.510
 8695TIP3   OH226025   5.009   3.570   5.763
 8695TIP3    H126026   4.935   3.552   5.705
 8695TIP3    H226027   4.974   3.627   5.831
 8696TIP3   OH226028   3.080   1.613   4.844
 8696TIP3    H126029   3.175   1.623   4.846
 8696TIP3    H226030   3.063   1.554   4.771
 8697TIP3   OH226031   8.250   2.513   6.039
 8697TIP3    H126032   8.228   2.534   6.130
 8697TIP3    H226033   8.332   2.464   6.045
 8698TIP3   OH226034   3.481   3.083   1.424
 8698TIP3    H126035   3.405   3.132   1.454
 8698TIP3    H226036   3.499   3.021   1.494
 8699TIP3   OH226037   0.799   1.844   6.275
 8699TIP3    H126038   0.792   1.907   6.348
 8699TIP3    H226039   0.790   1.898   6.197
 8700TIP3   OH226040   3.122   0.423   5.887
 8700TIP3    H126041   3.203   0.435   5.837
 8700TIP3    H226042   3.151   0.403   5.976
 8701TIP3   OH226043   3.703   0.994   3.932
 8701TIP3    H126044   3.704   0.899   3.938
 8701TIP3    H226045   3.632   1.021   3.991
 8702TIP3   OH226046   4.110   3.183   6.481
 8702TIP3    H126047   4.118   3.122   6.554
 8702TIP3    H226048   4.032   3.153   6.434
 8703TIP3   OH226049   3.888   0.743   6.605
 8703TIP3    H126050   3.864   0.650   6.601
 8703TIP3    H226051   3.935   0.759   6.524
 8704TIP3   OH226052   2.804   0.408   0.537
 8704TIP3    H126053   2.806   0.339   0.603
 8704TIP3    H226054   2.862   0.476   0.572
 8705TIP3   OH226055   3.231   5.992   6.092
 8705TIP3    H126056   3.204   5.921   6.034
 8705TIP3    H226057   3.184   5.975   6.174
 8706TIP3   OH226058   0.664   4.274   1.772
 8706TIP3    H126059   0.638   4.314   1.689
 8706TIP3    H226060   0.589   4.220   1.797
 8707TIP3   OH226061   5.902   0.530   1.725
 8707TIP3    H126062   5.966   0.471   1.686
 8707TIP3    H226063   5.934   0.618   1.704
 8708TIP3   OH226064   8.291   1.625   6.519
 8708TIP3    H126065   8.221   1.624   6.454
 8708TIP3    H226066   8.317   1.534   6.529
 8709TIP3   OH226067   2.708   7.532   5.865
 8709TIP3    H126068   2.754   7.614   5.845
 8709TIP3    H226069   2.725   7.476   5.790
 8710TIP3   OH226070   3.467   4.338   1.315
 8710TIP3    H126071   3.428   4.352   1.401
 8710TIP3    H226072   3.468   4.243   1.305
 8711TIP3   OH226073   3.910   2.762   1.286
 8711TIP3    H126074   3.873   2.706   1.217
 8711TIP3    H226075   3.989   2.716   1.314
 8712TIP3   OH226076   3.697   6.839   5.298
 8712TIP3    H126077   3.709   6.840   5.393
 8712TIP3    H226078   3.608   6.807   5.286
 8713TIP3   OH226079   1.505   6.124   4.607
 8713TIP3    H126080   1.565   6.191   4.575
 8713TIP3    H226081   1.430   6.172   4.642
 8714TIP3   OH226082   5.235   1.132   6.543
 8714TIP3    H126083   5.206   1.073   6.473
 8714TIP3    H226084   5.324   1.105   6.562
 8715TIP3   OH226085   6.431   4.750   0.969
 8715TIP3    H126086   6.371   4.777   1.039
 8715TIP3    H226087   6.391   4.785   0.889
 8716TIP3   OH226088   7.043   4.562   0.633
 8716TIP3    H126089   7.072   4.532   0.719
 8716TIP3    H226090   7.075   4.652   0.627
 8717TIP3   OH226091   2.744   3.578   0.462
 8717TIP3    H126092   2.678   3.546   0.400
 8717TIP3    H226093   2.737   3.518   0.537
 8718TIP3   OH226094   5.012   6.184   3.141
 8718TIP3    H126095   5.091   6.177   3.195
 8718TIP3    H226096   4.945   6.220   3.200
 8719TIP3   OH226097   6.818   6.499   5.602
 8719TIP3    H126098   6.835   6.593   5.598
 8719TIP3    H226099   6.883   6.465   5.664
 8720TIP3   OH226100   2.626   3.955   5.199
 8720TIP3    H126101   2.589   3.873   5.165
 8720TIP3    H226102   2.720   3.937   5.206
 8721TIP3   OH226103   3.279   0.636   6.508
 8721TIP3    H126104   3.336   0.567   6.474
 8721TIP3    H226105   3.337   0.691   6.561
 8722TIP3   OH226106   4.179   1.871   0.230
 8722TIP3    H126107   4.259   1.900   0.275
 8722TIP3    H226108   4.134   1.952   0.206
 8723TIP3   OH226109   2.889   2.751   0.395
 8723TIP3    H126110   2.980   2.748   0.364
 8723TIP3    H226111   2.847   2.815   0.338
 8724TIP3   OH226112   7.559   7.904   4.541
 8724TIP3    H126113   7.483   7.914   4.598
 8724TIP3    H226114   7.597   7.991   4.536
 8725TIP3   OH226115   2.326   3.487   3.864
 8725TIP3    H126116   2.386   3.492   3.938
 8725TIP3    H226117   2.375   3.443   3.795
 8726TIP3   OH226118   4.458   0.960   3.688
 8726TIP3    H126119   4.453   0.869   3.659
 8726TIP3    H226120   4.498   1.006   3.614
 8727TIP3   OH226121   4.273   4.739   0.795
 8727TIP3    H126122   4.311   4.657   0.826
 8727TIP3    H226123   4.210   4.712   0.728
 8728TIP3   OH226124   1.103   5.947   4.519
 8728TIP3    H126125   1.078   5.953   4.611
 8728TIP3    H226126   1.026   5.976   4.471
 8729TIP3   OH226127   7.357   5.955   0.222
 8729TIP3    H126128   7.424   6.002   0.172
 8729TIP3    H226129   7.279   6.010   0.214
 8730TIP3   OH226130   7.301   7.900   3.884
 8730TIP3    H126131   7.381   7.869   3.927
 8730TIP3    H226132   7.316   7.883   3.791
 8731TIP3   OH226133   7.482   2.463   6.457
 8731TIP3    H126134   7.447   2.374   6.464
 8731TIP3    H226135   7.572   2.451   6.429
 8732TIP3   OH226136   1.895   2.828   1.683
 8732TIP3    H126137   1.928   2.794   1.600
 8732TIP3    H226138   1.807   2.860   1.662
 8733TIP3   OH226139   1.540   4.636   5.122
 8733TIP3    H126140   1.597   4.673   5.189
 8733TIP3    H226141   1.458   4.618   5.168
 8734TIP3   OH226142   7.424   0.604   5.891
 8734TIP3    H126143   7.498   0.547   5.913
 8734TIP3    H226144   7.387   0.628   5.976
 8735TIP3   OH226145   7.609   1.565   1.095
 8735TIP3    H126146   7.568   1.541   1.179
 8735TIP3    H226147   7.541   1.548   1.030
 8736TIP3   OH226148   5.939   3.154   1.998
 8736TIP3    H126149   5.944   3.111   1.912
 8736TIP3    H226150   5.857   3.122   2.036
 8737TIP3   OH226151   7.462   2.177   5.527
 8737TIP3    H126152   7.369   2.157   5.533
 8737TIP3    H226153   7.502   2.095   5.497
 8738TIP3   OH226154   0.779   3.170   4.816
 8738TIP3    H126155   0.825   3.252   4.797
 8738TIP3    H226156   0.806   3.111   4.745
 8739TIP3   OH226157   6.632   0.227   2.076
 8739TIP3    H126158   6.650   0.177   2.156
 8739TIP3    H226159   6.560   0.285   2.100
 8740TIP3   OH226160   7.748   5.595   1.159
 8740TIP3    H126161   7.658   5.566   1.141
 8740TIP3    H226162   7.774   5.546   1.237
 8741TIP3   OH226163   4.627   6.580   0.833
 8741TIP3    H126164   4.575   6.507   0.867
 8741TIP3    H226165   4.574   6.657   0.848
 8742TIP3   OH226166   5.951   5.292   1.413
 8742TIP3    H126167   5.978   5.229   1.479
 8742TIP3    H226168   5.959   5.245   1.329
 8743TIP3   OH226169   6.233   3.974   6.165
 8743TIP3    H126170   6.308   3.927   6.199
 8743TIP3    H226171   6.240   4.062   6.203
 8744TIP3   OH226172   6.131   5.747   2.002
 8744TIP3    H126173   6.172   5.697   1.931
 8744TIP3    H226174   6.038   5.745   1.982
 8745TIP3   OH226175   6.090   7.680   3.284
 8745TIP3    H126176   6.133   7.723   3.210
 8745TIP3    H226177   6.055   7.752   3.336
 8746TIP3   OH226178   6.979   5.575   6.199
 8746TIP3    H126179   7.008   5.650   6.146
 8746TIP3    H226180   6.884   5.588   6.209
 8747TIP3   OH226181   3.945   2.187   1.428
 8747TIP3    H126182   3.938   2.104   1.380
 8747TIP3    H226183   4.019   2.174   1.488
 8748TIP3   OH226184   7.216   6.259   0.432
 8748TIP3    H126185   7.186   6.189   0.374
 8748TIP3    H226186   7.290   6.219   0.480
 8749TIP3   OH226187   1.030   6.131   6.637
 8749TIP3    H126188   1.024   6.191   6.712
 8749TIP3    H226189   0.952   6.151   6.584
 8750TIP3   OH226190   5.871   5.699   1.898
 8750TIP3    H126191   5.841   5.738   1.816
 8750TIP3    H226192   5.794   5.703   1.956
 8751TIP3   OH226193   0.714   1.463   0.482
 8751TIP3    H126194   0.789   1.406   0.491
 8751TIP3    H226195   0.749   1.552   0.493
 8752TIP3   OH226196   7.221   7.347   2.839
 8752TIP3    H126197   7.217   7.436   2.874
 8752TIP3    H226198   7.134   7.330   2.805
 8753TIP3   OH226199   3.332   5.686   1.110
 8753TIP3    H126200   3.378   5.608   1.078
 8753TIP3    H226201   3.384   5.714   1.186
 8754TIP3   OH226202   7.730   0.261   6.270
 8754TIP3    H126203   7.712   0.233   6.180
 8754TIP3    H226204   7.776   0.188   6.310
 8755TIP3   OH226205   0.160   0.679   4.082
 8755TIP3    H126206   0.143   0.611   4.148
 8755TIP3    H226207   0.240   0.722   4.112
 8756TIP3   OH226208   5.345   4.382   5.442
 8756TIP3    H126209   5.383   4.296   5.458
 8756TIP3    H226210   5.413   4.430   5.396
 8757TIP3   OH226211   1.107   5.593   0.008
 8757TIP3    H126212   1.041   5.551   0.063
 8757TIP3    H226213   1.095   5.554  -0.078
 8758TIP3   OH226214   7.447   4.094   0.228
 8758TIP3    H126215   7.383   4.027   0.203
 8758TIP3    H226216   7.446   4.156   0.155
 8759TIP3   OH226217   7.777   2.692   4.313
 8759TIP3    H126218   7.834   2.620   4.342
 8759TIP3    H226219   7.734   2.723   4.392
 8760TIP3   OH226220   6.840   5.929   5.844
 8760TIP3    H126221   6.891   6.009   5.857
 8760TIP3    H226222   6.758   5.959   5.804
 8761TIP3   OH226223   7.227   6.633   5.531
 8761TIP3    H126224   7.263   6.548   5.505
 8761TIP3    H226225   7.201   6.675   5.448
 8762TIP3   OH226226   0.579   0.750   5.720
 8762TIP3    H126227   0.553   0.692   5.792
 8762TIP3    H226228   0.662   0.788   5.748
 8763TIP3   OH226229   6.768   1.085   3.348
 8763TIP3    H126230   6.699   1.058   3.288
 8763TIP3    H226231   6.799   1.004   3.388
 8764TIP3   OH226232   1.697   4.114   5.255
 8764TIP3    H126233   1.770   4.112   5.317
 8764TIP3    H226234   1.623   4.079   5.305
 8765TIP3   OH226235   4.719   1.867   2.379
 8765TIP3    H126236   4.703   1.876   2.285
 8765TIP3    H226237   4.814   1.872   2.387
 8766TIP3   OH226238   5.648   6.634   6.229
 8766TIP3    H126239   5.608   6.558   6.187
 8766TIP3    H226240   5.704   6.673   6.162
 8767TIP3   OH226241   0.780   5.183   6.540
 8767TIP3    H126242   0.699   5.139   6.514
 8767TIP3    H226243   0.752   5.252   6.600
 8768TIP3   OH226244   8.229   5.539   0.976
 8768TIP3    H126245   8.162   5.470   0.980
 8768TIP3    H226246   8.241   5.565   1.067
 8769TIP3   OH226247   6.878   7.461   1.147
 8769TIP3    H126248   6.963   7.498   1.172
 8769TIP3    H226249   6.848   7.518   1.076
 8770TIP3   OH226250   3.992   4.467   0.463
 8770TIP3    H126251   3.910   4.448   0.417
 8770TIP3    H226252   4.060   4.438   0.403
 8771TIP3   OH226253   4.623   2.599   0.041
 8771TIP3    H126254   4.636   2.690   0.065
 8771TIP3    H226255   4.701   2.554   0.074
 8772TIP3   OH226256   4.632   4.465   6.279
 8772TIP3    H126257   4.605   4.417   6.357
 8772TIP3    H226258   4.593   4.552   6.289
 8773TIP3   OH226259   2.942   3.252   3.437
 8773TIP3    H126260   2.866   3.206   3.402
 8773TIP3    H226261   3.012   3.234   3.374
 8774TIP3   OH226262   0.626   1.446   3.885
 8774TIP3    H126263   0.534   1.469   3.870
 8774TIP3    H226264   0.662   1.522   3.931
 8775TIP3   OH226265   4.251   1.802   3.188
 8775TIP3    H126266   4.238   1.822   3.095
 8775TIP3    H226267   4.174   1.839   3.231
 8776TIP3   OH226268   6.872   3.183   2.677
 8776TIP3    H126269   6.876   3.277   2.660
 8776TIP3    H226270   6.952   3.163   2.726
 8777TIP3   OH226271   0.031   1.795   4.402
 8777TIP3    H126272   0.119   1.781   4.438
 8777TIP3    H226273  -0.004   1.869   4.453
 8778TIP3   OH226274   1.844   7.800   3.310
 8778TIP3    H126275   1.780   7.734   3.283
 8778TIP3    H226276   1.869   7.774   3.399
 8779TIP3   OH226277   0.650   5.268   4.761
 8779TIP3    H126278   0.612   5.257   4.674
 8779TIP3    H226279   0.683   5.358   4.762
 8780TIP3   OH226280   3.883   1.241   2.396
 8780TIP3    H126281   3.964   1.289   2.378
 8780TIP3    H226282   3.867   1.256   2.489
 8781TIP3   OH226283   7.450   3.279   6.126
 8781TIP3    H126284   7.458   3.374   6.118
 8781TIP3    H226285   7.373   3.257   6.073
 8782TIP3   OH226286   2.808   2.293   1.709
 8782TIP3    H126287   2.871   2.224   1.726
 8782TIP3    H226288   2.774   2.274   1.622
 8783TIP3   OH226289   6.645   5.897   5.268
 8783TIP3    H126290   6.622   5.945   5.189
 8783TIP3    H226291   6.663   5.808   5.238
 8784TIP3   OH226292   1.487   3.534   5.400
 8784TIP3    H126293   1.515   3.528   5.491
 8784TIP3    H226294   1.557   3.584   5.357
 8785TIP3   OH226295   4.078   4.407   2.568
 8785TIP3    H126296   4.136   4.332   2.583
 8785TIP3    H226297   4.109   4.445   2.486
 8786TIP3   OH226298   2.158   6.895   5.546
 8786TIP3    H126299   2.230   6.951   5.576
 8786TIP3    H226300   2.163   6.818   5.601
 8787TIP3   OH226301   3.471   1.493   3.739
 8787TIP3    H126302   3.497   1.585   3.742
 8787TIP3    H226303   3.472   1.471   3.645
 8788TIP3   OH226304   4.365   7.109   3.262
 8788TIP3    H126305   4.413   7.027   3.275
 8788TIP3    H226306   4.394   7.166   3.333
 8789TIP3   OH226307   3.004   6.787   2.228
 8789TIP3    H126308   2.998   6.813   2.320
 8789TIP3    H226309   2.988   6.868   2.179
 8790TIP3   OH226310   1.640   6.479   3.499
 8790TIP3    H126311   1.627   6.527   3.417
 8790TIP3    H226312   1.553   6.447   3.523
 8791TIP3   OH226313   1.511   6.089   5.696
 8791TIP3    H126314   1.451   6.142   5.748
 8791TIP3    H226315   1.574   6.054   5.760
 8792TIP3   OH226316   4.685   0.862   5.264
 8792TIP3    H126317   4.677   0.774   5.301
 8792TIP3    H226318   4.719   0.915   5.336
 8793TIP3   OH226319   3.889   5.445   4.926
 8793TIP3    H126320   3.929   5.504   4.991
 8793TIP3    H226321   3.800   5.479   4.915
 8794TIP3   OH226322   3.923   3.352   0.929
 8794TIP3    H126323   3.955   3.435   0.965
 8794TIP3    H226324   3.844   3.333   0.979
 8795TIP3   OH226325   2.552   3.208   3.418
 8795TIP3    H126326   2.481   3.144   3.426
 8795TIP3    H226327   2.627   3.165   3.459
 8796TIP3   OH226328   0.107   7.505   3.702
 8796TIP3    H126329   0.113   7.561   3.625
 8796TIP3    H226330   0.158   7.427   3.679
 8797TIP3   OH226331   6.490   5.393   5.387
 8797TIP3    H126332   6.549   5.437   5.448
 8797TIP3    H226333   6.445   5.464   5.342
 8798TIP3   OH226334   2.091   7.254   6.340
 8798TIP3    H126335   2.146   7.223   6.412
 8798TIP3    H226336   2.142   7.325   6.300
 8799TIP3   OH226337   4.927   0.755   2.329
 8799TIP3    H126338   4.878   0.691   2.278
 8799TIP3    H226339   4.967   0.705   2.400
 8800TIP3   OH226340   3.127   6.461   6.093
 8800TIP3    H126341   3.082   6.530   6.044
 8800TIP3    H226342   3.074   6.383   6.078
 8801TIP3   OH226343   3.641   2.748   4.962
 8801TIP3    H126344   3.688   2.830   4.980
 8801TIP3    H226345   3.606   2.759   4.874
 8802TIP3   OH226346   1.965   3.092   0.554
 8802TIP3    H126347   1.999   3.059   0.636
 8802TIP3    H226348   2.032   3.154   0.523
 8803TIP3   OH226349   1.472   4.239   6.546
 8803TIP3    H126350   1.546   4.209   6.492
 8803TIP3    H226351   1.456   4.329   6.515
 8804TIP3   OH226352   3.305   2.700   4.006
 8804TIP3    H126353   3.342   2.755   3.936
 8804TIP3    H226354   3.297   2.613   3.966
 8805TIP3   OH226355   3.246   3.224   4.522
 8805TIP3    H126356   3.218   3.253   4.609
 8805TIP3    H226357   3.165   3.215   4.472
 8806TIP3   OH226358   8.132   2.615   6.264
 8806TIP3    H126359   8.192   2.591   6.334
 8806TIP3    H226360   8.069   2.674   6.305
 8807TIP3   OH226361   5.826   2.750   3.407
 8807TIP3    H126362   5.839   2.838   3.441
 8807TIP3    H226363   5.899   2.699   3.441
 8808TIP3   OH226364   2.489   5.938   2.779
 8808TIP3    H126365   2.415   5.882   2.757
 8808TIP3    H226366   2.453   6.003   2.840
 8809TIP3   OH226367   8.145   0.433   6.519
 8809TIP3    H126368   8.117   0.516   6.558
 8809TIP3    H226369   8.237   0.446   6.498
 8810TIP3   OH226370   4.679   1.572   6.685
 8810TIP3    H126371   4.626   1.493   6.685
 8810TIP3    H226372   4.615   1.643   6.695
 8811TIP3   OH226373   8.250   3.490   5.922
 8811TIP3    H126374   8.278   3.466   6.010
 8811TIP3    H226375   8.155   3.495   5.928
 8812TIP3   OH226376   4.906   1.938   1.339
 8812TIP3    H126377   4.845   2.006   1.367
 8812TIP3    H226378   4.851   1.861   1.323
 8813TIP3   OH226379   7.126   7.672   5.227
 8813TIP3    H126380   7.111   7.718   5.145
 8813TIP3    H226381   7.184   7.729   5.277
 8814TIP3   OH226382   5.643   7.177   2.478
 8814TIP3    H126383   5.574   7.142   2.534
 8814TIP3    H226384   5.604   7.182   2.391
 8815TIP3   OH226385   4.812   3.143   0.026
 8815TIP3    H126386   4.815   3.077  -0.043
 8815TIP3    H226387   4.788   3.224  -0.018
 8816TIP3   OH226388   2.229   1.246   5.560
 8816TIP3    H126389   2.181   1.238   5.477
 8816TIP3    H226390   2.321   1.244   5.534
 8817TIP3   OH226391   0.607   3.220   6.330
 8817TIP3    H126392   0.670   3.267   6.275
 8817TIP3    H226393   0.525   3.267   6.317
 8818TIP3   OH226394   4.845   7.297   6.444
 8818TIP3    H126395   4.780   7.340   6.388
 8818TIP3    H226396   4.837   7.342   6.528
 8819TIP3   OH226397   8.086   3.918   3.731
 8819TIP3    H126398   8.018   3.973   3.692
 8819TIP3    H226399   8.037   3.850   3.778
 8820TIP3   OH226400   6.511   2.476   6.408
 8820TIP3    H126401   6.466   2.554   6.443
 8820TIP3    H226402   6.443   2.430   6.360
 8821TIP3   OH226403   5.532   5.589   3.799
 8821TIP3    H126404   5.614   5.597   3.847
 8821TIP3    H226405   5.465   5.581   3.866
 8822TIP3   OH226406   2.715   3.798   1.376
 8822TIP3    H126407   2.715   3.864   1.307
 8822TIP3    H226408   2.664   3.837   1.447
 8823TIP3   OH226409   4.138   3.020   2.276
 8823TIP3    H126410   4.131   2.932   2.313
 8823TIP3    H226411   4.097   3.077   2.341
 8824TIP3   OH226412   7.858   6.719   0.485
 8824TIP3    H126413   7.856   6.810   0.513
 8824TIP3    H226414   7.819   6.720   0.397
 8825TIP3   OH226415   7.927   6.475   5.672
 8825TIP3    H126416   7.956   6.527   5.597
 8825TIP3    H226417   7.919   6.386   5.638
 8826TIP3   OH226418   1.765   5.243   2.747
 8826TIP3    H126419   1.763   5.259   2.841
 8826TIP3    H226420   1.706   5.169   2.733
 8827TIP3   OH226421   2.333   4.576   5.980
 8827TIP3    H126422   2.374   4.633   6.045
 8827TIP3    H226423   2.399   4.570   5.910
 8828TIP3   OH226424   6.728   6.794   3.156
 8828TIP3    H126425   6.678   6.729   3.106
 8828TIP3    H226426   6.687   6.795   3.243
 8829TIP3   OH226427   0.933   6.605   0.445
 8829TIP3    H126428   0.982   6.673   0.491
 8829TIP3    H226429   0.843   6.615   0.476
 8830TIP3   OH226430   0.182   1.380   4.645
 8830TIP3    H126431   0.137   1.299   4.619
 8830TIP3    H226432   0.266   1.350   4.680
 8831TIP3   OH226433   2.211   7.249   4.865
 8831TIP3    H126434   2.128   7.240   4.913
 8831TIP3    H226435   2.259   7.169   4.884
 8832TIP3   OH226436   1.602   5.046   2.820
 8832TIP3    H126437   1.510   5.064   2.842
 8832TIP3    H226438   1.600   5.025   2.727
 8833TIP3   OH226439   4.242   0.543   1.755
 8833TIP3    H126440   4.253   0.449   1.769
 8833TIP3    H226441   4.331   0.575   1.741
 8834TIP3   OH226442   6.859   1.983   1.633
 8834TIP3    H126443   6.850   1.914   1.699
 8834TIP3    H226444   6.929   1.951   1.575
 8835TIP3   OH226445   4.272   4.842   6.234
 8835TIP3    H126446   4.177   4.831   6.241
 8835TIP3    H226447   4.285   4.881   6.148
 8836TIP3   OH226448   1.870   2.694   0.379
 8836TIP3    H126449   1.959   2.663   0.392
 8836TIP3    H226450   1.876   2.789   0.380
 8837TIP3   OH226451   3.171   7.788   4.286
 8837TIP3    H126452   3.170   7.878   4.318
 8837TIP3    H226453   3.123   7.739   4.353
 8838TIP3   OH226454   7.348   6.058   4.269
 8838TIP3    H126455   7.287   5.987   4.249
 8838TIP3    H226456   7.330   6.081   4.360
 8839TIP3   OH226457   7.826   0.906   0.331
 8839TIP3    H126458   7.830   1.001   0.318
 8839TIP3    H226459   7.914   0.875   0.310
 8840TIP3   OH226460   4.393   5.362   0.183
 8840TIP3    H126461   4.303   5.368   0.152
 8840TIP3    H226462   4.389   5.393   0.274
 8841TIP3   OH226463   6.378   6.716   4.081
 8841TIP3    H126464   6.437   6.774   4.032
 8841TIP3    H226465   6.422   6.631   4.080
 8842TIP3   OH226466   6.030   2.813   4.955
 8842TIP3    H126467   6.058   2.878   4.891
 8842TIP3    H226468   6.017   2.863   5.036
 8843TIP3   OH226469   3.820   4.872   6.091
 8843TIP3    H126470   3.763   4.924   6.149
 8843TIP3    H226471   3.841   4.931   6.019
 8844TIP3   OH226472   6.694   3.722   0.324
 8844TIP3    H126473   6.686   3.770   0.406
 8844TIP3    H226474   6.775   3.672   0.333
 8845TIP3   OH226475   5.521   4.836   0.572
 8845TIP3    H126476   5.457   4.789   0.519
 8845TIP3    H226477   5.483   4.923   0.583
 8846TIP3   OH226478   0.657   6.663   3.651
 8846TIP3    H126479   0.722   6.694   3.713
 8846TIP3    H226480   0.688   6.577   3.623
 8847TIP3   OH226481   7.973   1.755   5.239
 8847TIP3    H126482   7.954   1.808   5.162
 8847TIP3    H226483   7.985   1.666   5.205
 8848TIP3   OH226484   4.612   2.638   2.779
 8848TIP3    H126485   4.562   2.719   2.771
 8848TIP3    H226486   4.559   2.573   2.734
 8849TIP3   OH226487   1.239   2.424   1.476
 8849TIP3    H126488   1.186   2.344   1.476
 8849TIP3    H226489   1.318   2.401   1.525
 8850TIP3   OH226490   3.278   7.331   3.705
 8850TIP3    H126491   3.212   7.278   3.748
 8850TIP3    H226492   3.299   7.284   3.624
 8851TIP3   OH226493   0.241   4.487   4.480
 8851TIP3    H126494   0.335   4.497   4.462
 8851TIP3    H226495   0.198   4.531   4.406
 8852TIP3   OH226496   2.841   6.990   2.090
 8852TIP3    H126497   2.849   7.026   2.001
 8852TIP3    H226498   2.812   6.900   2.076
 8853TIP3   OH226499   2.273   5.365   2.914
 8853TIP3    H126500   2.253   5.287   2.967
 8853TIP3    H226501   2.187   5.401   2.893
 8854TIP3   OH226502   2.417   1.957   5.813
 8854TIP3    H126503   2.334   1.956   5.860
 8854TIP3    H226504   2.478   2.001   5.873
 8855TIP3   OH226505   3.596   7.533   5.687
 8855TIP3    H126506   3.620   7.471   5.755
 8855TIP3    H226507   3.564   7.478   5.615
 8856TIP3   OH226508   3.905   4.097   0.386
 8856TIP3    H126509   3.976   4.082   0.322
 8856TIP3    H226510   3.825   4.096   0.333
 8857TIP3   OH226511   6.467   3.944   4.740
 8857TIP3    H126512   6.513   3.865   4.766
 8857TIP3    H226513   6.510   3.971   4.659
 8858TIP3   OH226514   0.933   7.074   5.798
 8858TIP3    H126515   0.845   7.077   5.760
 8858TIP3    H226516   0.957   6.982   5.794
 8859TIP3   OH226517   1.120   4.574   0.142
 8859TIP3    H126518   1.048   4.534   0.191
 8859TIP3    H226519   1.183   4.503   0.132
 8860TIP3   OH226520   1.392   4.318   4.472
 8860TIP3    H126521   1.318   4.378   4.480
 8860TIP3    H226522   1.428   4.336   4.385
 8861TIP3   OH226523   0.681   6.698   6.508
 8861TIP3    H126524   0.749   6.687   6.574
 8861TIP3    H226525   0.664   6.792   6.506
 8862TIP3   OH226526   0.081   5.965   6.549
 8862TIP3    H126527   0.102   5.947   6.640
 8862TIP3    H226528   0.148   6.027   6.520
 8863TIP3   OH226529   4.773   3.554   4.485
 8863TIP3    H126530   4.732   3.534   4.570
 8863TIP3    H226531   4.702   3.590   4.432
 8864TIP3   OH226532   2.575   7.551   1.105
 8864TIP3    H126533   2.632   7.478   1.082
 8864TIP3    H226534   2.627   7.629   1.088
 8865TIP3   OH226535   3.486   7.507   4.830
 8865TIP3    H126536   3.479   7.501   4.925
 8865TIP3    H226537   3.509   7.598   4.813
 8866TIP3   OH226538   0.938   7.814   3.886
 8866TIP3    H126539   0.892   7.737   3.920
 8866TIP3    H226540   1.024   7.781   3.860
 8867TIP3   OH226541   3.027   4.972   3.899
 8867TIP3    H126542   3.051   4.933   3.815
 8867TIP3    H226543   3.040   5.066   3.886
 8868TIP3   OH226544   7.358   0.440   0.018
 8868TIP3    H126545   7.415   0.392   0.078
 8868TIP3    H226546   7.397   0.527   0.012
 8869TIP3   OH226547   2.294   6.667   0.925
 8869TIP3    H126548   2.279   6.582   0.966
 8869TIP3    H226549   2.370   6.703   0.971
 8870TIP3   OH226550   7.566   3.851   1.650
 8870TIP3    H126551   7.646   3.901   1.671
 8870TIP3    H226552   7.569   3.776   1.709
 8871TIP3   OH226553   2.368   5.385   1.170
 8871TIP3    H126554   2.343   5.325   1.100
 8871TIP3    H226555   2.439   5.341   1.216
 8872TIP3   OH226556   8.329   2.595   0.537
 8872TIP3    H126557   8.276   2.560   0.608
 8872TIP3    H226558   8.394   2.527   0.519
 8873TIP3   OH226559   1.474   3.770   0.546
 8873TIP3    H126560   1.543   3.751   0.610
 8873TIP3    H226561   1.404   3.810   0.597
 8874TIP3   OH226562   3.340   0.476   5.689
 8874TIP3    H126563   3.274   0.479   5.619
 8874TIP3    H226564   3.422   0.455   5.644
 8875TIP3   OH226565   5.531   5.538   6.645
 8875TIP3    H126566   5.596   5.590   6.692
 8875TIP3    H226567   5.581   5.489   6.580
 8876TIP3   OH226568   3.309   6.589   3.170
 8876TIP3    H126569   3.285   6.564   3.081
 8876TIP3    H226570   3.333   6.681   3.164
 8877TIP3   OH226571   0.139   6.247   3.213
 8877TIP3    H126572   0.114   6.227   3.303
 8877TIP3    H226573   0.129   6.342   3.205
 8878TIP3   OH226574   7.962   6.820   6.275
 8878TIP3    H126575   7.925   6.797   6.190
 8878TIP3    H226576   7.943   6.913   6.284
 8879TIP3   OH226577   3.157   4.674   6.211
 8879TIP3    H126578   3.118   4.612   6.150
 8879TIP3    H226579   3.236   4.705   6.166
 8880TIP3   OH226580   8.224   7.456   6.223
 8880TIP3    H126581   8.238   7.398   6.148
 8880TIP3    H226582   8.305   7.507   6.229
 8881TIP3   OH226583   2.025   4.205   2.234
 8881TIP3    H126584   2.084   4.240   2.300
 8881TIP3    H226585   1.972   4.279   2.207
 8882TIP3   OH226586   1.160   7.896   3.292
 8882TIP3    H126587   1.224   7.968   3.297
 8882TIP3    H226588   1.209   7.819   3.320
 8883TIP3   OH226589   7.221   5.445   6.146
 8883TIP3    H126590   7.278   5.521   6.135
 8883TIP3    H226591   7.136   5.482   6.169
 8884TIP3   OH226592   5.737   7.696   6.440
 8884TIP3    H126593   5.689   7.685   6.358
 8884TIP3    H226594   5.687   7.644   6.503
 8885TIP3   OH226595   7.665   0.592   3.340
 8885TIP3    H126596   7.727   0.563   3.273
 8885TIP3    H226597   7.715   0.652   3.395
 8886TIP3   OH226598   6.514   4.849   1.364
 8886TIP3    H126599   6.546   4.902   1.437
 8886TIP3    H226600   6.419   4.846   1.376
 8887TIP3   OH226601   0.984   0.430   5.442
 8887TIP3    H126602   0.898   0.471   5.438
 8887TIP3    H226603   0.996   0.389   5.356
 8888TIP3   OH226604   7.033   4.095   2.271
 8888TIP3    H126605   6.989   4.178   2.253
 8888TIP3    H226606   6.969   4.028   2.247
 8889TIP3   OH226607   7.464   4.492   5.639
 8889TIP3    H126608   7.517   4.419   5.670
 8889TIP3    H226609   7.393   4.499   5.703
 8890TIP3   OH226610   0.289   7.384   0.936
 8890TIP3    H126611   0.199   7.363   0.963
 8890TIP3    H226612   0.331   7.299   0.922
 8891TIP3   OH226613   1.796   1.616   1.237
 8891TIP3    H126614   1.760   1.704   1.247
 8891TIP3    H226615   1.850   1.621   1.158
 8892TIP3   OH226616   0.786   3.389   1.334
 8892TIP3    H126617   0.716   3.441   1.293
 8892TIP3    H226618   0.853   3.382   1.266
 8893TIP3   OH226619   6.942   7.567   2.937
 8893TIP3    H126620   6.926   7.501   3.005
 8893TIP3    H226621   7.037   7.581   2.939
 8894TIP3   OH226622   3.052   5.679   1.280
 8894TIP3    H126623   3.063   5.611   1.213
 8894TIP3    H226624   2.959   5.703   1.275
 8895TIP3   OH226625   7.976   6.154   4.912
 8895TIP3    H126626   7.933   6.210   4.847
 8895TIP3    H226627   7.991   6.211   4.987
 8896TIP3   OH226628   3.565   6.108   5.342
 8896TIP3    H126629   3.588   6.075   5.255
 8896TIP3    H226630   3.540   6.199   5.328
 8897TIP3   OH226631   6.823   6.581   2.186
 8897TIP3    H126632   6.742   6.627   2.210
 8897TIP3    H226633   6.821   6.577   2.091
 8898TIP3   OH226634   4.137   1.143   0.489
 8898TIP3    H126635   4.133   1.049   0.472
 8898TIP3    H226636   4.139   1.150   0.585
 8899TIP3   OH226637   4.447   4.550   2.015
 8899TIP3    H126638   4.400   4.501   2.083
 8899TIP3    H226639   4.378   4.592   1.964
 8900TIP3   OH226640   3.216   6.131   0.992
 8900TIP3    H126641   3.188   6.039   0.995
 8900TIP3    H226642   3.167   6.169   0.919
 8901TIP3   OH226643   2.785   1.255   6.771
 8901TIP3    H126644   2.718   1.323   6.779
 8901TIP3    H226645   2.801   1.226   6.860
 8902TIP3   OH226646   4.194   7.105   0.855
 8902TIP3    H126647   4.278   7.131   0.892
 8902TIP3    H226648   4.216   7.042   0.787
 8903TIP3   OH226649   2.839   1.152   3.674
 8903TIP3    H126650   2.878   1.209   3.607
 8903TIP3    H226651   2.779   1.209   3.722
 8904TIP3   OH226652   0.382   6.383   2.378
 8904TIP3    H126653   0.349   6.452   2.321
 8904TIP3    H226654   0.428   6.430   2.448
 8905TIP3   OH226655   7.579   4.588   6.457
 8905TIP3    H126656   7.594   4.640   6.378
 8905TIP3    H226657   7.591   4.649   6.529
 8906TIP3   OH226658   0.915   1.632   3.511
 8906TIP3    H126659   0.984   1.668   3.455
 8906TIP3    H226660   0.936   1.539   3.517
 8907TIP3   OH226661   5.120   4.242   2.439
 8907TIP3    H126662   5.131   4.284   2.353
 8907TIP3    H226663   5.102   4.150   2.418
 8908TIP3   OH226664   0.138   2.918   3.981
 8908TIP3    H126665   0.098   2.871   4.054
 8908TIP3    H226666   0.071   2.979   3.951
 8909TIP3   OH226667   7.557   4.910   2.202
 8909TIP3    H126668   7.493   4.846   2.172
 8909TIP3    H226669   7.640   4.862   2.202
 8910TIP3   OH226670   5.874   2.672   0.525
 8910TIP3    H126671   5.898   2.759   0.558
 8910TIP3    H226672   5.818   2.691   0.449
 8911TIP3   OH226673   7.632   5.551   1.594
 8911TIP3    H126674   7.663   5.622   1.649
 8911TIP3    H226675   7.622   5.477   1.654
 8912TIP3   OH226676   7.869   0.606   6.832
 8912TIP3    H126677   7.840   0.605   6.740
 8912TIP3    H226678   7.814   0.673   6.873
 8913TIP3   OH226679   0.255   6.718   4.928
 8913TIP3    H126680   0.241   6.638   4.877
 8913TIP3    H226681   0.254   6.788   4.864
 8914TIP3   OH226682   3.813   6.644   3.922
 8914TIP3    H126683   3.805   6.556   3.887
 8914TIP3    H226684   3.893   6.642   3.974
 8915TIP3   OH226685   8.008   2.348   2.596
 8915TIP3    H126686   8.013   2.430   2.546
 8915TIP3    H226687   8.073   2.291   2.554
 8916TIP3   OH226688   6.748   3.441   4.685
 8916TIP3    H126689   6.836   3.405   4.689
 8916TIP3    H226690   6.705   3.407   4.764
 8917TIP3   OH226691   1.342   2.835   3.907
 8917TIP3    H126692   1.401   2.810   3.978
 8917TIP3    H226693   1.401   2.856   3.834
 8918TIP3   OH226694   5.041   7.188   3.869
 8918TIP3    H126695   4.982   7.121   3.834
 8918TIP3    H226696   5.006   7.207   3.956
 8919TIP3   OH226697   4.562   2.903   2.808
 8919TIP3    H126698   4.576   2.910   2.714
 8919TIP3    H226699   4.640   2.943   2.847
 8920TIP3   OH226700   1.128   1.385   6.507
 8920TIP3    H126701   1.145   1.478   6.513
 8920TIP3    H226702   1.181   1.346   6.576
 8921TIP3   OH226703   6.426   4.604   1.867
 8921TIP3    H126704   6.382   4.676   1.912
 8921TIP3    H226705   6.392   4.607   1.778
 8922TIP3   OH226706   6.212   2.097   6.780
 8922TIP3    H126707   6.232   2.061   6.694
 8922TIP3    H226708   6.228   2.191   6.771
 8923TIP3   OH226709   0.973   3.578   3.054
 8923TIP3    H126710   0.976   3.569   3.149
 8923TIP3    H226711   1.064   3.569   3.026
 8924TIP3   OH226712   7.292   1.756   6.425
 8924TIP3    H126713   7.245   1.738   6.344
 8924TIP3    H226714   7.299   1.671   6.469
 8925TIP3   OH226715   0.434   1.208   6.458
 8925TIP3    H126716   0.499   1.196   6.389
 8925TIP3    H226717   0.468   1.281   6.511
 8926TIP3   OH226718   5.685   1.401   3.510
 8926TIP3    H126719   5.686   1.307   3.492
 8926TIP3    H226720   5.739   1.411   3.589
 8927TIP3   OH226721   0.709   2.263   1.976
 8927TIP3    H126722   0.618   2.275   2.001
 8927TIP3    H226723   0.719   2.313   1.895
 8928TIP3   OH226724   0.362   2.900   2.809
 8928TIP3    H126725   0.408   2.823   2.842
 8928TIP3    H226726   0.276   2.868   2.782
 8929TIP3   OH226727   2.816   2.405   1.230
 8929TIP3    H126728   2.899   2.448   1.207
 8929TIP3    H226729   2.750   2.456   1.184
 8930TIP3   OH226730   7.058   4.506   2.298
 8930TIP3    H126731   7.040   4.442   2.367
 8930TIP3    H226732   6.975   4.549   2.282
 8931TIP3   OH226733   2.082   0.499   0.754
 8931TIP3    H126734   2.060   0.415   0.713
 8931TIP3    H226735   2.138   0.543   0.689
 8932TIP3   OH226736   3.265   4.012   1.531
 8932TIP3    H126737   3.198   4.068   1.569
 8932TIP3    H226738   3.234   3.923   1.548
 8933TIP3   OH226739   7.828   1.387   4.131
 8933TIP3    H126740   7.772   1.312   4.111
 8933TIP3    H226741   7.767   1.459   4.144
 8934TIP3   OH226742   1.756   1.734   6.219
 8934TIP3    H126743   1.840   1.716   6.261
 8934TIP3    H226744   1.692   1.686   6.271
 8935TIP3   OH226745   4.212   4.234   4.031
 8935TIP3    H126746   4.121   4.263   4.039
 8935TIP3    H226747   4.212   4.174   3.956
 8936TIP3   OH226748   2.013   3.437   0.232
 8936TIP3    H126749   2.067   3.376   0.181
 8936TIP3    H226750   2.058   3.521   0.224
 8937TIP3   OH226751   6.327   2.435   0.294
 8937TIP3    H126752   6.391   2.388   0.240
 8937TIP3    H226753   6.276   2.366   0.336
 8938TIP3   OH226754   1.411   6.402   4.138
 8938TIP3    H126755   1.424   6.447   4.054
 8938TIP3    H226756   1.435   6.311   4.120
 8939TIP3   OH226757   5.363   4.584   6.839
 8939TIP3    H126758   5.392   4.500   6.803
 8939TIP3    H226759   5.429   4.605   6.906
 8940TIP3   OH226760   7.241   3.797   4.737
 8940TIP3    H126761   7.321   3.756   4.705
 8940TIP3    H226762   7.272   3.874   4.786
 8941TIP3   OH226763   4.233   1.221   3.536
 8941TIP3    H126764   4.239   1.125   3.533
 8941TIP3    H226765   4.140   1.238   3.551
 8942TIP3   OH226766   4.698   7.269   3.832
 8942TIP3    H126767   4.741   7.324   3.766
 8942TIP3    H226768   4.694   7.182   3.792
 8943TIP3   OH226769   5.137   0.556   1.140
 8943TIP3    H126770   5.227   0.523   1.145
 8943TIP3    H226771   5.106   0.557   1.230
 8944TIP3   OH226772   5.828   3.986   3.467
 8944TIP3    H126773   5.873   3.976   3.384
 8944TIP3    H226774   5.735   3.980   3.445
 8945TIP3   OH226775   4.551   4.231   5.287
 8945TIP3    H126776   4.627   4.206   5.339
 8945TIP3    H226777   4.487   4.264   5.350
 8946TIP3   OH226778   2.241   5.856   5.196
 8946TIP3    H126779   2.180   5.826   5.128
 8946TIP3    H226780   2.299   5.917   5.150
 8947TIP3   OH226781   5.880   2.104   5.595
 8947TIP3    H126782   5.825   2.124   5.671
 8947TIP3    H226783   5.889   2.009   5.595
 8948TIP3   OH226784   6.935   6.326   6.498
 8948TIP3    H126785   6.925   6.409   6.453
 8948TIP3    H226786   7.028   6.305   6.491
 8949TIP3   OH226787   8.014   7.119   3.227
 8949TIP3    H126788   7.941   7.058   3.230
 8949TIP3    H226789   8.042   7.127   3.319
 8950TIP3   OH226790   1.210   1.745   1.068
 8950TIP3    H126791   1.280   1.803   1.095
 8950TIP3    H226792   1.235   1.659   1.101
 8951TIP3   OH226793   8.152   5.613   2.257
 8951TIP3    H126794   8.165   5.642   2.166
 8951TIP3    H226795   8.232   5.637   2.302
 8952TIP3   OH226796   6.238   6.855   5.712
 8952TIP3    H126797   6.225   6.765   5.740
 8952TIP3    H226798   6.302   6.891   5.774
 8953TIP3   OH226799   3.695   2.107   0.527
 8953TIP3    H126800   3.642   2.111   0.606
 8953TIP3    H226801   3.636   2.072   0.460
 8954TIP3   OH226802   4.167   4.541   6.019
 8954TIP3    H126803   4.145   4.497   5.936
 8954TIP3    H226804   4.098   4.606   6.031
 8955TIP3   OH226805   6.670   0.527   0.622
 8955TIP3    H126806   6.644   0.597   0.563
 8955TIP3    H226807   6.590   0.476   0.636
 8956TIP3   OH226808   7.123   6.773   6.666
 8956TIP3    H126809   7.209   6.781   6.626
 8956TIP3    H226810   7.131   6.699   6.726
 8957TIP3   OH226811   6.698   6.081   0.784
 8957TIP3    H126812   6.785   6.073   0.822
 8957TIP3    H226813   6.643   6.025   0.838
 8958TIP3   OH226814   6.084   3.699   6.687
 8958TIP3    H126815   6.137   3.619   6.688
 8958TIP3    H226816   5.995   3.670   6.703
 8959TIP3   OH226817   1.847   1.434   0.756
 8959TIP3    H126818   1.940   1.413   0.772
 8959TIP3    H226819   1.820   1.481   0.835
 8960TIP3   OH226820   2.307   1.223   1.730
 8960TIP3    H126821   2.294   1.152   1.793
 8960TIP3    H226822   2.265   1.299   1.770
 8961TIP3   OH226823   1.185   4.238   3.912
 8961TIP3    H126824   1.222   4.326   3.913
 8961TIP3    H226825   1.133   4.232   3.992
 8962TIP3   OH226826   2.786   7.621   5.524
 8962TIP3    H126827   2.746   7.535   5.537
 8962TIP3    H226828   2.855   7.626   5.591
 8963TIP3   OH226829   1.712   6.368   2.744
 8963TIP3    H126830   1.665   6.436   2.695
 8963TIP3    H226831   1.722   6.296   2.682
 8964TIP3   OH226832   1.950   7.721   1.469
 8964TIP3    H126833   1.869   7.764   1.496
 8964TIP3    H226834   1.964   7.654   1.536
 8965TIP3   OH226835   4.633   6.566   0.209
 8965TIP3    H126836   4.631   6.627   0.283
 8965TIP3    H226837   4.668   6.484   0.246
 8966TIP3   OH226838   1.942   5.049   6.437
 8966TIP3    H126839   1.866   5.102   6.415
 8966TIP3    H226840   1.921   5.010   6.521
 8967TIP3   OH226841   5.330   7.308   1.231
 8967TIP3    H126842   5.371   7.363   1.164
 8967TIP3    H226843   5.385   7.230   1.235
 8968TIP3   OH226844   6.681   7.308   6.783
 8968TIP3    H126845   6.718   7.396   6.777
 8968TIP3    H226846   6.644   7.291   6.697
 8969TIP3   OH226847   5.537   3.224   0.715
 8969TIP3    H126848   5.617   3.275   0.699
 8969TIP3    H226849   5.567   3.133   0.719
 8970TIP3   OH226850   7.517   0.429   6.271
 8970TIP3    H126851   7.576   0.365   6.232
 8970TIP3    H226852   7.553   0.445   6.358
 8971TIP3   OH226853   7.603   4.765   5.731
 8971TIP3    H126854   7.652   4.811   5.799
 8971TIP3    H226855   7.587   4.678   5.769
 8972TIP3   OH226856   7.003   1.406   3.607
 8972TIP3    H126857   7.008   1.323   3.656
 8972TIP3    H226858   6.972   1.469   3.672
 8973TIP3   OH226859   7.644   1.181   1.814
 8973TIP3    H126860   7.612   1.199   1.903
 8973TIP3    H226861   7.732   1.218   1.812
 8974TIP3   OH226862   6.732   5.473   6.281
 8974TIP3    H126863   6.686   5.546   6.323
 8974TIP3    H226864   6.665   5.407   6.268
 8975TIP3   OH226865   0.200   0.652   2.723
 8975TIP3    H126866   0.136   0.653   2.652
 8975TIP3    H226867   0.279   0.690   2.685
 8976TIP3   OH226868   3.333   5.306   1.206
 8976TIP3    H126869   3.421   5.344   1.203
 8976TIP3    H226870   3.334   5.248   1.282
 8977TIP3   OH226871   6.573   6.697   4.714
 8977TIP3    H126872   6.577   6.702   4.810
 8977TIP3    H226873   6.585   6.787   4.685
 8978TIP3   OH226874   3.013   4.992   5.057
 8978TIP3    H126875   2.924   4.964   5.034
 8978TIP3    H226876   3.001   5.043   5.137
 8979TIP3   OH226877   5.551   7.295   4.331
 8979TIP3    H126878   5.639   7.267   4.307
 8979TIP3    H226879   5.507   7.311   4.247
 8980TIP3   OH226880   4.893   4.287   4.125
 8980TIP3    H126881   4.939   4.213   4.165
 8980TIP3    H226882   4.910   4.278   4.032
 8981TIP3   OH226883   7.884   1.292   3.821
 8981TIP3    H126884   7.825   1.217   3.815
 8981TIP3    H226885   7.952   1.265   3.883
 8982TIP3   OH226886   8.141   2.351   5.823
 8982TIP3    H126887   8.200   2.392   5.886
 8982TIP3    H226888   8.192   2.281   5.783
 8983TIP3   OH226889   6.063   5.676   1.554
 8983TIP3    H126890   5.971   5.653   1.547
 8983TIP3    H226891   6.063   5.765   1.588
 8984TIP3   OH226892   2.403   2.959   2.918
 8984TIP3    H126893   2.453   2.939   2.997
 8984TIP3    H226894   2.332   2.894   2.917
 8985TIP3   OH226895   0.520   5.716   0.037
 8985TIP3    H126896   0.576   5.715  -0.040
 8985TIP3    H226897   0.475   5.800   0.033
 8986TIP3   OH226898   1.207   3.725   3.699
 8986TIP3    H126899   1.230   3.724   3.606
 8986TIP3    H226900   1.268   3.664   3.740
 8987TIP3   OH226901   3.981   6.634   5.438
 8987TIP3    H126902   4.053   6.592   5.486
 8987TIP3    H226903   3.992   6.605   5.348
 8988TIP3   OH226904   2.918   3.361   5.372
 8988TIP3    H126905   2.997   3.407   5.400
 8988TIP3    H226906   2.846   3.417   5.400
 8989TIP3   OH226907   3.566   7.636   5.329
 8989TIP3    H126908   3.575   7.708   5.392
 8989TIP3    H226909   3.576   7.557   5.382
 8990TIP3   OH226910   4.136   2.467   2.448
 8990TIP3    H126911   4.202   2.400   2.469
 8990TIP3    H226912   4.079   2.425   2.384
 8991TIP3   OH226913   6.013   1.105   1.626
 8991TIP3    H126914   6.066   1.183   1.642
 8991TIP3    H226915   5.969   1.122   1.543
 8992TIP3   OH226916   2.183   5.464   2.479
 8992TIP3    H126917   2.089   5.482   2.484
 8992TIP3    H226918   2.224   5.531   2.533
 8993TIP3   OH226919   0.423   6.542   3.284
 8993TIP3    H126920   0.481   6.535   3.208
 8993TIP3    H226921   0.467   6.603   3.342
 8994TIP3   OH226922   3.871   0.799   2.465
 8994TIP3    H126923   3.837   0.798   2.376
 8994TIP3    H226924   3.964   0.777   2.455
 8995TIP3   OH226925   3.030   7.486   0.170
 8995TIP3    H126926   3.058   7.406   0.125
 8995TIP3    H226927   2.935   7.488   0.159
 8996TIP3   OH226928   6.605   1.966   5.689
 8996TIP3    H126929   6.662   2.029   5.732
 8996TIP3    H226930   6.549   1.932   5.759
 8997TIP3   OH226931   5.740   0.951   2.475
 8997TIP3    H126932   5.677   0.943   2.403
 8997TIP3    H226933   5.761   0.861   2.499
 8998TIP3   OH226934   3.842   0.493   5.610
 8998TIP3    H126935   3.928   0.454   5.590
 8998TIP3    H226936   3.805   0.436   5.677
 8999TIP3   OH226937   5.254   1.014   4.268
 8999TIP3    H126938   5.240   1.078   4.338
 8999TIP3    H226939   5.298   0.941   4.312
 9000TIP3   OH226940   4.793   1.105   1.905
 9000TIP3    H126941   4.803   1.200   1.910
 9000TIP3    H226942   4.838   1.079   1.825
 9001TIP3   OH226943   2.804   7.670   4.589
 9001TIP3    H126944   2.833   7.601   4.529
 9001TIP3    H226945   2.869   7.739   4.580
 9002TIP3   OH226946   2.214   0.034   5.926
 9002TIP3    H126947   2.153  -0.005   5.863
 9002TIP3    H226948   2.205  -0.020   6.005
 9003TIP3   OH226949   7.335   2.768   5.897
 9003TIP3    H126950   7.261   2.822   5.923
 9003TIP3    H226951   7.387   2.759   5.976
 9004TIP3   OH226952   6.826   7.071   2.873
 9004TIP3    H126953   6.836   7.124   2.952
 9004TIP3    H226954   6.845   6.982   2.901
 9005TIP3   OH226955   4.676   2.430   6.457
 9005TIP3    H126956   4.601   2.372   6.441
 9005TIP3    H226957   4.740   2.406   6.391
 9006TIP3   OH226958   1.368   5.623   4.662
 9006TIP3    H126959   1.407   5.697   4.708
 9006TIP3    H226960   1.383   5.642   4.569
 9007TIP3   OH226961   8.076   1.304   6.543
 9007TIP3    H126962   8.045   1.330   6.629
 9007TIP3    H226963   8.159   1.351   6.532
 9008TIP3   OH226964   5.249   5.237   6.360
 9008TIP3    H126965   5.317   5.186   6.316
 9008TIP3    H226966   5.228   5.186   6.438
 9009TIP3   OH226967   3.898   5.507   5.546
 9009TIP3    H126968   3.870   5.579   5.490
 9009TIP3    H226969   3.886   5.428   5.492
 9010TIP3   OH226970   1.814   0.387   4.554
 9010TIP3    H126971   1.796   0.474   4.590
 9010TIP3    H226972   1.735   0.336   4.575
 9011TIP3   OH226973   5.691   3.113   4.008
 9011TIP3    H126974   5.620   3.069   3.962
 9011TIP3    H226975   5.765   3.053   4.002
 9012TIP3   OH226976   8.248   3.021   2.157
 9012TIP3    H126977   8.188   2.997   2.086
 9012TIP3    H226978   8.194   3.023   2.235
 9013TIP3   OH226979   3.463   4.607   6.439
 9013TIP3    H126980   3.498   4.577   6.523
 9013TIP3    H226981   3.507   4.551   6.374
 9014TIP3   OH226982   0.524   4.409   0.608
 9014TIP3    H126983   0.505   4.459   0.528
 9014TIP3    H226984   0.617   4.424   0.624
 9015TIP3   OH226985   0.912   6.081   2.593
 9015TIP3    H126986   0.937   6.157   2.645
 9015TIP3    H226987   0.934   6.006   2.648
 9016TIP3   OH226988   1.515   6.446   1.056
 9016TIP3    H126989   1.592   6.423   1.003
 9016TIP3    H226990   1.538   6.417   1.144
 9017TIP3   OH226991   0.653   7.554   0.699
 9017TIP3    H126992   0.561   7.555   0.671
 9017TIP3    H226993   0.653   7.496   0.775
 9018TIP3   OH226994   4.326   3.248   1.693
 9018TIP3    H126995   4.409   3.204   1.678
 9018TIP3    H226996   4.338   3.336   1.659
 9019TIP3   OH226997   0.295   4.456   0.191
 9019TIP3    H126998   0.261   4.408   0.267
 9019TIP3    H226999   0.218   4.471   0.136
 9020TIP3   OH227000   6.666   2.202   5.099
 9020TIP3    H127001   6.626   2.255   5.031
 9020TIP3    H227002   6.696   2.123   5.054
 9021TIP3   OH227003   4.662   6.053   5.086
 9021TIP3    H127004   4.655   6.113   5.160
 9021TIP3    H227005   4.679   5.968   5.126
 9022TIP3   OH227006   4.846   0.200   3.350
 9022TIP3    H127007   4.908   0.270   3.373
 9022TIP3    H227008   4.765   0.223   3.396
 9023TIP3   OH227009   3.294   4.797   3.690
 9023TIP3    H127010   3.385   4.789   3.718
 9023TIP3    H227011   3.246   4.820   3.770
 9024TIP3   OH227012   0.569   1.094   4.530
 9024TIP3    H127013   0.573   1.123   4.438
 9024TIP3    H227014   0.654   1.053   4.545
 9025TIP3   OH227015   6.964   1.841   5.775
 9025TIP3    H127016   6.909   1.866   5.849
 9025TIP3    H227017   7.035   1.905   5.775
 9026TIP3   OH227018   3.824   3.577   1.257
 9026TIP3    H127019   3.901   3.558   1.203
 9026TIP3    H227020   3.819   3.505   1.319
 9027TIP3   OH227021   0.710   0.844   2.715
 9027TIP3    H127022   0.753   0.807   2.638
 9027TIP3    H227023   0.712   0.774   2.780
 9028TIP3   OH227024   1.542   2.777   1.207
 9028TIP3    H127025   1.505   2.819   1.284
 9028TIP3    H227026   1.555   2.848   1.145
 9029TIP3   OH227027   3.754   5.453   1.754
 9029TIP3    H127028   3.725   5.476   1.842
 9029TIP3    H227029   3.680   5.477   1.698
 9030TIP3   OH227030   1.991   7.768   4.431
 9030TIP3    H127031   1.926   7.745   4.498
 9030TIP3    H227032   2.044   7.690   4.421
 9031TIP3   OH227033   2.985   6.547   2.102
 9031TIP3    H127034   3.018   6.628   2.141
 9031TIP3    H227035   3.046   6.479   2.133
 9032TIP3   OH227036   0.113   0.466   2.993
 9032TIP3    H127037   0.110   0.427   3.081
 9032TIP3    H227038   0.125   0.391   2.934
 9033TIP3   OH227039   6.766   0.347   3.996
 9033TIP3    H127040   6.787   0.296   4.074
 9033TIP3    H227041   6.777   0.285   3.923
 9034TIP3   OH227042   6.496   0.568   2.035
 9034TIP3    H127043   6.463   0.498   2.091
 9034TIP3    H227044   6.417   0.611   2.001
 9035TIP3   OH227045   0.612   4.807   2.594
 9035TIP3    H127046   0.588   4.800   2.687
 9035TIP3    H227047   0.651   4.894   2.586
 9036TIP3   OH227048   3.181   4.445   6.693
 9036TIP3    H127049   3.196   4.539   6.681
 9036TIP3    H227050   3.227   4.404   6.620
 9037TIP3   OH227051   1.406   1.211   4.566
 9037TIP3    H127052   1.488   1.167   4.586
 9037TIP3    H227053   1.429   1.304   4.559
 9038TIP3   OH227054   2.733   4.375   4.617
 9038TIP3    H127055   2.794   4.318   4.663
 9038TIP3    H227056   2.681   4.415   4.686
 9039TIP3   OH227057   3.763   0.455   2.736
 9039TIP3    H127058   3.698   0.392   2.768
 9039TIP3    H227059   3.841   0.402   2.718
 9040TIP3   OH227060   6.850   3.167   2.261
 9040TIP3    H127061   6.878   3.124   2.181
 9040TIP3    H227062   6.925   3.159   2.321
 9041TIP3   OH227063   6.766   7.430   3.999
 9041TIP3    H127064   6.772   7.522   3.975
 9041TIP3    H227065   6.714   7.430   4.080
 9042TIP3   OH227066   7.912   4.852   3.195
 9042TIP3    H127067   7.858   4.774   3.184
 9042TIP3    H227068   7.971   4.831   3.267
 9043TIP3   OH227069   4.982   5.978   1.714
 9043TIP3    H127070   4.905   6.018   1.674
 9043TIP3    H227071   4.982   5.888   1.681
 9044TIP3   OH227072   2.255   7.467   0.806
 9044TIP3    H127073   2.277   7.508   0.722
 9044TIP3    H227074   2.251   7.540   0.867
 9045TIP3   OH227075   5.375   5.123   6.143
 9045TIP3    H127076   5.464   5.097   6.119
 9045TIP3    H227077   5.360   5.204   6.094
 9046TIP3   OH227078   6.095   1.372   4.693
 9046TIP3    H127079   6.012   1.324   4.694
 9046TIP3    H227080   6.134   1.350   4.608
 9047TIP3   OH227081   4.283   1.188   1.908
 9047TIP3    H127082   4.239   1.262   1.949
 9047TIP3    H227083   4.247   1.184   1.820
 9048TIP3   OH227084   3.910   1.036   6.004
 9048TIP3    H127085   3.869   0.952   5.987
 9048TIP3    H227086   4.004   1.018   6.004
 9049TIP3   OH227087   6.089   5.170   2.362
 9049TIP3    H127088   6.021   5.194   2.424
 9049TIP3    H227089   6.127   5.089   2.397
 9050TIP3   OH227090   5.068   4.339   0.632
 9050TIP3    H127091   5.162   4.322   0.627
 9050TIP3    H227092   5.037   4.280   0.701
 9051TIP3   OH227093   4.827   6.323   4.295
 9051TIP3    H127094   4.879   6.372   4.360
 9051TIP3    H227095   4.792   6.390   4.237
 9052TIP3   OH227096   8.187   2.148   2.497
 9052TIP3    H127097   8.136   2.069   2.515
 9052TIP3    H227098   8.278   2.117   2.491
 9053TIP3   OH227099   2.987   2.109   6.751
 9053TIP3    H127100   2.945   2.054   6.817
 9053TIP3    H227101   3.071   2.134   6.790
 9054TIP3   OH227102   7.790   3.347   0.826
 9054TIP3    H127103   7.723   3.390   0.880
 9054TIP3    H227104   7.743   3.280   0.777
 9055TIP3   OH227105   4.145   5.125   6.155
 9055TIP3    H127106   4.084   5.196   6.137
 9055TIP3    H227107   4.183   5.104   6.069
 9056TIP3   OH227108   7.280   0.131   3.676
 9056TIP3    H127109   7.271   0.038   3.654
 9056TIP3    H227110   7.318   0.171   3.597
 9057TIP3   OH227111   8.129   3.789   4.732
 9057TIP3    H127112   8.150   3.701   4.702
 9057TIP3    H227113   8.086   3.831   4.658
 9058TIP3   OH227114   4.622   3.002   1.389
 9058TIP3    H127115   4.660   2.922   1.426
 9058TIP3    H227116   4.565   2.971   1.318
 9059TIP3   OH227117   4.112   0.578   1.482
 9059TIP3    H127118   4.178   0.647   1.488
 9059TIP3    H227119   4.133   0.519   1.555
 9060TIP3   OH227120   1.174   0.452   3.181
 9060TIP3    H127121   1.192   0.532   3.132
 9060TIP3    H227122   1.079   0.443   3.178
 9061TIP3   OH227123   2.663   4.383   2.471
 9061TIP3    H127124   2.595   4.396   2.537
 9061TIP3    H227125   2.706   4.301   2.495
 9062TIP3   OH227126   1.932   0.648   3.323
 9062TIP3    H127127   1.920   0.556   3.299
 9062TIP3    H227128   1.989   0.683   3.255
 9063TIP3   OH227129   0.470   4.148   1.537
 9063TIP3    H127130   0.496   4.089   1.466
 9063TIP3    H227131   0.524   4.226   1.524
 9064TIP3   OH227132   4.069   7.240   1.051
 9064TIP3    H127133   3.982   7.201   1.058
 9064TIP3    H227134   4.105   7.205   0.969
 9065TIP3   OH227135   5.085   6.741   2.723
 9065TIP3    H127136   5.018   6.682   2.756
 9065TIP3    H227137   5.159   6.684   2.702
 9066TIP3   OH227138   5.327   3.063   1.368
 9066TIP3    H127139   5.419   3.067   1.342
 9066TIP3    H227140   5.330   3.065   1.464
 9067TIP3   OH227141   2.823   2.155   0.395
 9067TIP3    H127142   2.761   2.200   0.452
 9067TIP3    H227143   2.815   2.063   0.420
 9068TIP3   OH227144   8.165   0.399   3.668
 9068TIP3    H127145   8.150   0.468   3.603
 9068TIP3    H227146   8.259   0.402   3.687
 9069TIP3   OH227147   1.558   0.191   0.614
 9069TIP3    H127148   1.485   0.165   0.670
 9069TIP3    H227149   1.556   0.286   0.615
 9070TIP3   OH227150   8.322   1.489   6.207
 9070TIP3    H127151   8.361   1.544   6.274
 9070TIP3    H227152   8.296   1.550   6.138
 9071TIP3   OH227153   6.489   0.591   5.991
 9071TIP3    H127154   6.467   0.674   6.034
 9071TIP3    H227155   6.541   0.543   6.054
 9072TIP3   OH227156   8.056   7.444   5.755
 9072TIP3    H127157   8.124   7.501   5.719
 9072TIP3    H227158   7.975   7.495   5.749
 9073TIP3   OH227159   2.729   6.267   3.228
 9073TIP3    H127160   2.770   6.181   3.232
 9073TIP3    H227161   2.657   6.262   3.291
 9074TIP3   OH227162   5.859   3.690   0.696
 9074TIP3    H127163   5.816   3.772   0.672
 9074TIP3    H227164   5.794   3.622   0.680
 9075TIP3   OH227165   4.467   2.793   4.391
 9075TIP3    H127166   4.414   2.764   4.465
 9075TIP3    H227167   4.443   2.734   4.320
 9076TIP3   OH227168   4.975   6.822   0.883
 9076TIP3    H127169   5.059   6.827   0.930
 9076TIP3    H227170   4.978   6.738   0.838
 9077TIP3   OH227171   1.806   7.733   4.644
 9077TIP3    H127172   1.789   7.822   4.675
 9077TIP3    H227173   1.760   7.676   4.705
 9078TIP3   OH227174   5.404   6.980   1.090
 9078TIP3    H127175   5.452   6.928   1.155
 9078TIP3    H227176   5.457   7.058   1.078
 9079TIP3   OH227177   4.008   4.653   1.950
 9079TIP3    H127178   3.966   4.690   1.872
 9079TIP3    H227179   4.056   4.726   1.989
 9080TIP3   OH227180   7.643   4.151   1.640
 9080TIP3    H127181   7.632   4.202   1.720
 9080TIP3    H227182   7.728   4.109   1.650
 9081TIP3   OH227183   6.114   5.476   2.664
 9081TIP3    H127184   6.063   5.493   2.744
 9081TIP3    H227185   6.113   5.381   2.655
 9082TIP3   OH227186   3.288   1.389   1.280
 9082TIP3    H127187   3.259   1.425   1.196
 9082TIP3    H227188   3.383   1.381   1.270
 9083TIP3   OH227189   3.742   3.160   0.789
 9083TIP3    H127190   3.802   3.127   0.856
 9083TIP3    H227191   3.661   3.178   0.836
 9084TIP3   OH227192   7.620   4.347   5.805
 9084TIP3    H127193   7.692   4.286   5.792
 9084TIP3    H227194   7.589   4.330   5.894
 9085TIP3   OH227195   2.232   5.507   4.537
 9085TIP3    H127196   2.224   5.428   4.485
 9085TIP3    H227197   2.324   5.533   4.528
 9086TIP3   OH227198   2.912   7.702   2.321
 9086TIP3    H127199   2.862   7.684   2.240
 9086TIP3    H227200   2.952   7.618   2.342
 9087TIP3   OH227201   1.105   0.007   0.479
 9087TIP3    H127202   1.052   0.075   0.520
 9087TIP3    H227203   1.131  -0.050   0.551
 9088TIP3   OH227204   4.165   4.442   3.686
 9088TIP3    H127205   4.209   4.492   3.755
 9088TIP3    H227206   4.233   4.388   3.648
 9089TIP3   OH227207   0.705   7.682   4.574
 9089TIP3    H127208   0.613   7.664   4.556
 9089TIP3    H227209   0.753   7.624   4.515
 9090TIP3   OH227210   4.446   7.374   0.238
 9090TIP3    H127211   4.353   7.356   0.231
 9090TIP3    H227212   4.483   7.341   0.156
 9091TIP3   OH227213   2.073   6.382   5.042
 9091TIP3    H127214   2.155   6.393   5.091
 9091TIP3    H227215   2.006   6.420   5.099
 9092TIP3   OH227216   4.305   7.081   3.813
 9092TIP3    H127217   4.229   7.045   3.768
 9092TIP3    H227218   4.361   7.006   3.830
 9093TIP3   OH227219   6.597   1.598   2.730
 9093TIP3    H127220   6.543   1.667   2.769
 9093TIP3    H227221   6.687   1.631   2.739
 9094TIP3   OH227222   6.312   2.524   2.263
 9094TIP3    H127223   6.293   2.430   2.258
 9094TIP3    H227224   6.322   2.552   2.173
 9095TIP3   OH227225   2.943   3.350   0.192
 9095TIP3    H127226   2.986   3.417   0.140
 9095TIP3    H227227   2.896   3.297   0.128
 9096TIP3   OH227228   5.077   4.192   0.873
 9096TIP3    H127229   5.143   4.127   0.897
 9096TIP3    H227230   5.106   4.272   0.917
 9097TIP3   OH227231   5.124   4.933   4.433
 9097TIP3    H127232   5.152   5.001   4.494
 9097TIP3    H227233   5.098   4.981   4.354
 9098TIP3   OH227234   4.678   5.931   6.696
 9098TIP3    H127235   4.652   6.017   6.664
 9098TIP3    H227236   4.617   5.870   6.654
 9099TIP3   OH227237   4.507   3.771   0.135
 9099TIP3    H127238   4.421   3.753   0.172
 9099TIP3    H227239   4.496   3.853   0.087
 9100TIP3   OH227240   5.201   7.677   5.720
 9100TIP3    H127241   5.163   7.760   5.691
 9100TIP3    H227242   5.127   7.617   5.724
 9101TIP3   OH227243   6.343   6.434   3.829
 9101TIP3    H127244   6.266   6.381   3.812
 9101TIP3    H227245   6.358   6.426   3.923
 9102TIP3   OH227246   0.042   3.250   2.187
 9102TIP3    H127247  -0.025   3.183   2.205
 9102TIP3    H227248   0.039   3.308   2.263
 9103TIP3   OH227249   7.982   5.613   0.496
 9103TIP3    H127250   7.924   5.633   0.422
 9103TIP3    H227251   8.044   5.686   0.498
 9104TIP3   OH227252   3.907   3.369   2.051
 9104TIP3    H127253   3.947   3.286   2.028
 9104TIP3    H227254   3.938   3.430   1.983
 9105TIP3   OH227255   8.270   6.697   4.974
 9105TIP3    H127256   8.325   6.628   4.936
 9105TIP3    H227257   8.330   6.771   4.986
 9106TIP3   OH227258   5.911   3.802   4.805
 9106TIP3    H127259   5.955   3.804   4.890
 9106TIP3    H227260   5.976   3.768   4.745
 9107TIP3   OH227261   0.521   4.295   0.186
 9107TIP3    H127262   0.458   4.229   0.158
 9107TIP3    H227263   0.469   4.358   0.236
 9108TIP3   OH227264   0.086   5.389   5.665
 9108TIP3    H127265   0.006   5.411   5.618
 9108TIP3    H227266   0.064   5.403   5.757
 9109TIP3   OH227267   5.443   2.290   3.111
 9109TIP3    H127268   5.462   2.271   3.019
 9109TIP3    H227269   5.525   2.326   3.145
 9110TIP3   OH227270   4.684   3.295   5.360
 9110TIP3    H127271   4.642   3.242   5.292
 9110TIP3    H227272   4.621   3.298   5.431
 9111TIP3   OH227273   3.273   2.439   4.267
 9111TIP3    H127274   3.318   2.446   4.183
 9111TIP3    H227275   3.207   2.371   4.253
 9112TIP3   OH227276   1.657   0.033   6.451
 9112TIP3    H127277   1.708  -0.047   6.436
 9112TIP3    H227278   1.566   0.004   6.449
 9113TIP3   OH227279   0.060   7.436   4.828
 9113TIP3    H127280   0.112   7.515   4.840
 9113TIP3    H227281   0.040   7.407   4.917
 9114TIP3   OH227282   5.670   2.976   6.725
 9114TIP3    H127283   5.613   2.970   6.649
 9114TIP3    H227284   5.750   2.928   6.700
 9115TIP3   OH227285   1.080   7.208   1.476
 9115TIP3    H127286   1.170   7.237   1.492
 9115TIP3    H227287   1.034   7.224   1.559
 9116TIP3   OH227288   7.934   2.753   6.386
 9116TIP3    H127289   7.924   2.759   6.481
 9116TIP3    H227290   7.875   2.820   6.351
 9117TIP3   OH227291   7.138   5.679   1.285
 9117TIP3    H127292   7.103   5.762   1.320
 9117TIP3    H227293   7.233   5.691   1.287
 9118TIP3   OH227294   6.964   7.210   4.813
 9118TIP3    H127295   6.902   7.157   4.763
 9118TIP3    H227296   6.962   7.296   4.771
 9119TIP3   OH227297   0.664   7.796   5.949
 9119TIP3    H127298   0.689   7.753   6.031
 9119TIP3    H227299   0.649   7.723   5.888
 9120TIP3   OH227300   5.714   6.947   2.773
 9120TIP3    H127301   5.710   6.915   2.683
 9120TIP3    H227302   5.623   6.949   2.803
 9121TIP3   OH227303   4.804   3.015   0.894
 9121TIP3    H127304   4.734   2.952   0.913
 9121TIP3    H227305   4.871   2.997   0.959
 9122TIP3   OH227306   7.512   7.403   5.504
 9122TIP3    H127307   7.576   7.354   5.556
 9122TIP3    H227308   7.551   7.407   5.416
 9123TIP3   OH227309   2.794   1.532   2.813
 9123TIP3    H127310   2.738   1.455   2.807
 9123TIP3    H227311   2.733   1.605   2.822
 9124TIP3   OH227312   0.160   5.967   3.696
 9124TIP3    H127313   0.251   5.961   3.726
 9124TIP3    H227314   0.123   5.881   3.714
 9125TIP3   OH227315   2.128   2.351   5.276
 9125TIP3    H127316   2.181   2.295   5.333
 9125TIP3    H227317   2.071   2.399   5.335
 9126TIP3   OH227318   8.231   6.102   3.906
 9126TIP3    H127319   8.241   6.157   3.829
 9126TIP3    H227320   8.190   6.022   3.873
 9127TIP3   OH227321   3.253   0.450   3.710
 9127TIP3    H127322   3.194   0.380   3.684
 9127TIP3    H227323   3.314   0.408   3.771
 9128TIP3   OH227324   6.971   6.354   1.068
 9128TIP3    H127325   7.036   6.405   1.019
 9128TIP3    H227326   6.888   6.375   1.026
 9129TIP3   OH227327   4.044   7.040   6.397
 9129TIP3    H127328   4.118   7.098   6.414
 9129TIP3    H227329   3.993   7.085   6.329
 9130TIP3   OH227330   4.518   6.164   6.736
 9130TIP3    H127331   4.436   6.210   6.754
 9130TIP3    H227332   4.571   6.227   6.688
 9131TIP3   OH227333   3.493   3.287   3.235
 9131TIP3    H127334   3.526   3.330   3.157
 9131TIP3    H227335   3.423   3.229   3.203
 9132TIP3   OH227336   8.242   5.888   4.443
 9132TIP3    H127337   8.167   5.902   4.501
 9132TIP3    H227338   8.222   5.940   4.365
 9133TIP3   OH227339   2.878   7.541   3.012
 9133TIP3    H127340   2.914   7.564   3.098
 9133TIP3    H227341   2.788   7.515   3.029
 9134TIP3   OH227342   3.858   7.151   3.720
 9134TIP3    H127343   3.879   7.112   3.805
 9134TIP3    H227344   3.888   7.242   3.727
 9135TIP3   OH227345   2.172   1.946   5.920
 9135TIP3    H127346   2.112   1.905   5.857
 9135TIP3    H227347   2.131   2.030   5.940
 9136TIP3   OH227348   6.098   2.975   0.006
 9136TIP3    H127349   6.028   2.916   0.032
 9136TIP3    H227350   6.173   2.918  -0.011
 9137TIP3   OH227351   0.758   2.315   3.619
 9137TIP3    H127352   0.781   2.408   3.629
 9137TIP3    H227353   0.667   2.317   3.589
 9138TIP3   OH227354   5.936   0.309   6.067
 9138TIP3    H127355   6.015   0.310   6.013
 9138TIP3    H227356   5.883   0.238   6.031
 9139TIP3   OH227357   5.016   6.274   0.413
 9139TIP3    H127358   4.970   6.276   0.329
 9139TIP3    H227359   4.949   6.250   0.477
 9140TIP3   OH227360   2.894   7.099   1.792
 9140TIP3    H127361   2.931   7.031   1.736
 9140TIP3    H227362   2.900   7.180   1.740
 9141TIP3   OH227363   3.018   5.380   0.815
 9141TIP3    H127364   2.958   5.306   0.808
 9141TIP3    H227365   3.021   5.417   0.727
 9142TIP3   OH227366   2.641   6.827   4.761
 9142TIP3    H127367   2.581   6.872   4.701
 9142TIP3    H227368   2.713   6.889   4.774
 9143TIP3   OH227369   4.657   5.196   2.528
 9143TIP3    H127370   4.602   5.267   2.563
 9143TIP3    H227371   4.597   5.140   2.480
 9144TIP3   OH227372   6.428   0.443   6.615
 9144TIP3    H127373   6.374   0.465   6.539
 9144TIP3    H227374   6.505   0.499   6.607
 9145TIP3   OH227375   0.525   5.282   1.257
 9145TIP3    H127376   0.480   5.286   1.342
 9145TIP3    H227377   0.463   5.238   1.199
 9146TIP3   OH227378   7.387   5.445   1.534
 9146TIP3    H127379   7.473   5.482   1.554
 9146TIP3    H227380   7.406   5.361   1.493
 9147TIP3   OH227381   2.955   5.196   1.946
 9147TIP3    H127382   2.927   5.220   2.034
 9147TIP3    H227383   3.015   5.266   1.920
 9148TIP3   OH227384   4.377   5.355   4.147
 9148TIP3    H127385   4.303   5.399   4.188
 9148TIP3    H227386   4.338   5.285   4.094
 9149TIP3   OH227387   6.222   7.180   1.101
 9149TIP3    H127388   6.276   7.233   1.160
 9149TIP3    H227389   6.135   7.184   1.139
 9150TIP3   OH227390   2.545   5.587   5.364
 9150TIP3    H127391   2.564   5.493   5.370
 9150TIP3    H227392   2.454   5.591   5.336
 9151TIP3   OH227393   7.276   5.168   5.780
 9151TIP3    H127394   7.200   5.189   5.833
 9151TIP3    H227395   7.271   5.073   5.765
 9152TIP3   OH227396   5.040   2.816   2.000
 9152TIP3    H127397   5.096   2.821   1.922
 9152TIP3    H227398   4.974   2.883   1.986
 9153TIP3   OH227399   1.439   0.787   6.725
 9153TIP3    H127400   1.350   0.788   6.690
 9153TIP3    H227401   1.432   0.739   6.807
 9154TIP3   OH227402   3.782   7.308   1.141
 9154TIP3    H127403   3.790   7.397   1.108
 9154TIP3    H227404   3.690   7.298   1.164
 9155TIP3   OH227405   4.803   0.159   3.034
 9155TIP3    H127406   4.779   0.150   2.942
 9155TIP3    H227407   4.892   0.193   3.033
 9156TIP3   OH227408   1.582   2.953   2.966
 9156TIP3    H127409   1.612   2.984   2.881
 9156TIP3    H227410   1.605   3.022   3.028
 9157TIP3   OH227411   3.263   3.600   1.952
 9157TIP3    H127412   3.345   3.642   1.924
 9157TIP3    H227413   3.215   3.583   1.871
 9158TIP3   OH227414   5.295   4.134   1.453
 9158TIP3    H127415   5.362   4.151   1.388
 9158TIP3    H227416   5.243   4.062   1.416
 9159TIP3   OH227417   7.390   5.759   4.652
 9159TIP3    H127418   7.362   5.668   4.660
 9159TIP3    H227419   7.440   5.762   4.571
 9160TIP3   OH227420   1.160   3.546   1.661
 9160TIP3    H127421   1.082   3.512   1.616
 9160TIP3    H227422   1.233   3.499   1.621
 9161TIP3   OH227423   7.178   1.086   5.154
 9161TIP3    H127424   7.087   1.110   5.174
 9161TIP3    H227425   7.206   1.153   5.092
 9162TIP3   OH227426   2.144   7.026   6.175
 9162TIP3    H127427   2.232   7.057   6.153
 9162TIP3    H227428   2.101   7.103   6.212
 9163TIP3   OH227429   6.987   7.160   3.755
 9163TIP3    H127430   7.062   7.157   3.815
 9163TIP3    H227431   7.002   7.088   3.694
 9164TIP3   OH227432   2.339   4.424   2.221
 9164TIP3    H127433   2.396   4.454   2.150
 9164TIP3    H227434   2.267   4.488   2.221
 9165TIP3   OH227435   5.184   6.070   2.674
 9165TIP3    H127436   5.195   6.039   2.584
 9165TIP3    H227437   5.272   6.094   2.703
 9166TIP3   OH227438   5.599   6.265   2.331
 9166TIP3    H127439   5.604   6.193   2.269
 9166TIP3    H227440   5.687   6.269   2.370
 9167TIP3   OH227441   7.953   4.737   4.845
 9167TIP3    H127442   7.920   4.651   4.868
 9167TIP3    H227443   7.953   4.786   4.928
 9168TIP3   OH227444   1.417   7.332   3.400
 9168TIP3    H127445   1.461   7.286   3.329
 9168TIP3    H227446   1.354   7.268   3.434
 9169TIP3   OH227447   1.948   7.222   5.022
 9169TIP3    H127448   1.865   7.228   5.069
 9169TIP3    H227449   2.013   7.256   5.085
 9170TIP3   OH227450   1.582   2.743   0.476
 9170TIP3    H127451   1.671   2.746   0.510
 9170TIP3    H227452   1.534   2.690   0.539
 9171TIP3   OH227453   8.146   3.593   2.450
 9171TIP3    H127454   8.093   3.544   2.513
 9171TIP3    H227455   8.085   3.616   2.380
 9172TIP3   OH227456   6.709   4.709   5.160
 9172TIP3    H127457   6.686   4.687   5.251
 9172TIP3    H227458   6.755   4.793   5.167
 9173TIP3   OH227459   2.645   7.681   5.124
 9173TIP3    H127460   2.655   7.678   5.029
 9173TIP3    H227461   2.570   7.624   5.142
 9174TIP3   OH227462   6.820   7.660   0.824
 9174TIP3    H127463   6.859   7.573   0.813
 9174TIP3    H227464   6.776   7.678   0.742
 9175TIP3   OH227465   7.497   6.838   4.772
 9175TIP3    H127466   7.549   6.760   4.789
 9175TIP3    H227467   7.454   6.821   4.688
 9176TIP3   OH227468   1.873   0.357   1.483
 9176TIP3    H127469   1.796   0.390   1.528
 9176TIP3    H227470   1.849   0.267   1.458
 9177TIP3   OH227471   3.524   1.732   3.829
 9177TIP3    H127472   3.510   1.817   3.786
 9177TIP3    H227473   3.435   1.699   3.846
 9178TIP3   OH227474   4.997   7.665   2.442
 9178TIP3    H127475   4.954   7.685   2.525
 9178TIP3    H227476   4.944   7.596   2.403
 9179TIP3   OH227477   8.103   6.568   3.489
 9179TIP3    H127478   8.079   6.545   3.579
 9179TIP3    H227479   8.144   6.654   3.497
 9180TIP3   OH227480   3.144   4.774   4.237
 9180TIP3    H127481   3.211   4.713   4.266
 9180TIP3    H227482   3.166   4.792   4.145
 9181TIP3   OH227483   7.390   0.223   3.985
 9181TIP3    H127484   7.310   0.247   4.032
 9181TIP3    H227485   7.374   0.133   3.955
 9182TIP3   OH227486   1.110   7.204   3.088
 9182TIP3    H127487   1.132   7.265   3.018
 9182TIP3    H227488   1.014   7.196   3.084
 9183TIP3   OH227489   4.276   1.640   4.169
 9183TIP3    H127490   4.208   1.573   4.164
 9183TIP3    H227491   4.326   1.629   4.088
 9184TIP3   OH227492   2.121   0.439   1.286
 9184TIP3    H127493   2.079   0.482   1.212
 9184TIP3    H227494   2.082   0.481   1.363
 9185TIP3   OH227495   4.428   5.667   2.797
 9185TIP3    H127496   4.509   5.717   2.789
 9185TIP3    H227497   4.455   5.576   2.779
 9186TIP3   OH227498   4.087   3.739   6.443
 9186TIP3    H127499   4.084   3.775   6.531
 9186TIP3    H227500   4.180   3.728   6.425
 9187TIP3   OH227501   7.548   1.058   4.802
 9187TIP3    H127502   7.554   1.050   4.898
 9187TIP3    H227503   7.603   0.987   4.769
 9188TIP3   OH227504   2.358   7.471   0.118
 9188TIP3    H127505   2.345   7.500   0.027
 9188TIP3    H227506   2.412   7.392   0.110
 9189TIP3   OH227507   4.936   1.321   3.568
 9189TIP3    H127508   4.858   1.268   3.550
 9189TIP3    H227509   4.966   1.350   3.482
 9190TIP3   OH227510   5.509   1.089   2.164
 9190TIP3    H127511   5.436   1.052   2.114
 9190TIP3    H227512   5.555   1.012   2.198
 9191TIP3   OH227513   4.190   4.177   0.896
 9191TIP3    H127514   4.175   4.266   0.863
 9191TIP3    H227515   4.102   4.141   0.909
 9192TIP3   OH227516   7.506   2.166   0.175
 9192TIP3    H127517   7.431   2.107   0.179
 9192TIP3    H227518   7.489   2.222   0.100
 9193TIP3   OH227519   2.306   6.778   2.307
 9193TIP3    H127520   2.288   6.731   2.388
 9193TIP3    H227521   2.220   6.803   2.274
 9194TIP3   OH227522   4.299   7.318   1.189
 9194TIP3    H127523   4.271   7.342   1.278
 9194TIP3    H227524   4.217   7.300   1.143
 9195TIP3   OH227525   3.183   0.766   5.925
 9195TIP3    H127526   3.187   0.834   5.992
 9195TIP3    H227527   3.113   0.795   5.866
 9196TIP3   OH227528   3.015   4.348   5.206
 9196TIP3    H127529   2.946   4.281   5.207
 9196TIP3    H227530   3.076   4.318   5.139
 9197TIP3   OH227531   0.176   6.373   5.664
 9197TIP3    H127532   0.182   6.278   5.651
 9197TIP3    H227533   0.089   6.387   5.700
 9198TIP3   OH227534   1.401   6.301   4.784
 9198TIP3    H127535   1.475   6.256   4.824
 9198TIP3    H227536   1.377   6.369   4.848
 9199TIP3   OH227537   1.206   0.235   6.425
 9199TIP3    H127538   1.219   0.180   6.502
 9199TIP3    H227539   1.198   0.324   6.461
 9200TIP3   OH227540   7.819   4.596   2.037
 9200TIP3    H127541   7.859   4.510   2.041
 9200TIP3    H227542   7.882   4.650   1.989
 9201TIP3   OH227543   7.597   1.802   2.683
 9201TIP3    H127544   7.639   1.776   2.765
 9201TIP3    H227545   7.510   1.833   2.710
 9202TIP3   OH227546   5.486   0.831   2.765
 9202TIP3    H127547   5.542   0.907   2.753
 9202TIP3    H227548   5.536   0.774   2.823
 9203TIP3   OH227549   4.193   6.617   1.668
 9203TIP3    H127550   4.281   6.638   1.636
 9203TIP3    H227551   4.200   6.528   1.702
 9204TIP3   OH227552   5.386   5.550   6.340
 9204TIP3    H127553   5.466   5.511   6.374
 9204TIP3    H227554   5.382   5.521   6.249
 9205TIP3   OH227555   3.970   0.467   0.563
 9205TIP3    H127556   3.946   0.503   0.477
 9205TIP3    H227557   3.914   0.390   0.572
 9206TIP3   OH227558   6.858   2.120   5.493
 9206TIP3    H127559   6.810   2.113   5.576
 9206TIP3    H227560   6.948   2.142   5.520
 9207TIP3   OH227561   7.654   4.842   5.451
 9207TIP3    H127562   7.666   4.800   5.537
 9207TIP3    H227563   7.606   4.777   5.400
 9208TIP3   OH227564   2.473   1.598   0.214
 9208TIP3    H127565   2.472   1.538   0.140
 9208TIP3    H227566   2.562   1.635   0.214
 9209TIP3   OH227567   5.359   3.795   0.344
 9209TIP3    H127568   5.391   3.758   0.262
 9209TIP3    H227569   5.266   3.809   0.330
 9210TIP3   OH227570   7.226   0.711   5.402
 9210TIP3    H127571   7.264   0.786   5.357
 9210TIP3    H227572   7.132   0.729   5.404
 9211TIP3   OH227573   3.074   0.086   3.591
 9211TIP3    H127574   3.155   0.133   3.609
 9211TIP3    H227575   3.016   0.109   3.663
 9212TIP3   OH227576   6.371   1.626   3.273
 9212TIP3    H127577   6.340   1.648   3.185
 9212TIP3    H227578   6.458   1.588   3.260
 9213TIP3   OH227579   6.504   1.257   1.002
 9213TIP3    H127580   6.439   1.261   1.072
 9213TIP3    H227581   6.522   1.163   0.992
 9214TIP3   OH227582   6.823   5.737   1.560
 9214TIP3    H127583   6.765   5.672   1.522
 9214TIP3    H227584   6.872   5.772   1.486
 9215TIP3   OH227585   4.476   0.390   3.278
 9215TIP3    H127586   4.463   0.374   3.371
 9215TIP3    H227587   4.495   0.304   3.241
 9216TIP3   OH227588   3.297   2.127   1.619
 9216TIP3    H127589   3.298   2.081   1.703
 9216TIP3    H227590   3.329   2.215   1.640
 9217TIP3   OH227591   0.370   3.459   3.451
 9217TIP3    H127592   0.345   3.372   3.421
 9217TIP3    H227593   0.461   3.449   3.480
 9218TIP3   OH227594   7.836   1.474   1.225
 9218TIP3    H127595   7.763   1.505   1.172
 9218TIP3    H227596   7.810   1.491   1.315
 9219TIP3   OH227597   1.317   6.217   5.867
 9219TIP3    H127598   1.348   6.307   5.854
 9219TIP3    H227599   1.233   6.214   5.822
 9220TIP3   OH227600   5.859   1.162   3.947
 9220TIP3    H127601   5.835   1.127   3.861
 9220TIP3    H227602   5.776   1.178   3.991
 9221TIP3   OH227603   5.815   7.082   2.114
 9221TIP3    H127604   5.778   7.164   2.148
 9221TIP3    H227605   5.910   7.095   2.121
 9222TIP3   OH227606   2.374   6.881   3.983
 9222TIP3    H127607   2.286   6.912   3.961
 9222TIP3    H227608   2.399   6.826   3.909
 9223TIP3   OH227609   2.761   5.746   4.382
 9223TIP3    H127610   2.690   5.686   4.405
 9223TIP3    H227611   2.807   5.703   4.310
 9224TIP3   OH227612   0.996   5.880   6.704
 9224TIP3    H127613   1.036   5.952   6.656
 9224TIP3    H227614   1.037   5.801   6.668
 9225TIP3   OH227615   1.915   4.663   1.325
 9225TIP3    H127616   1.970   4.615   1.387
 9225TIP3    H227617   1.929   4.619   1.241
 9226TIP3   OH227618   5.259   0.715   2.680
 9226TIP3    H127619   5.262   0.624   2.710
 9226TIP3    H227620   5.345   0.751   2.703
 9227TIP3   OH227621   7.401   2.175   5.869
 9227TIP3    H127622   7.404   2.175   5.773
 9227TIP3    H227623   7.383   2.266   5.892
 9228TIP3   OH227624   2.140   4.693   3.703
 9228TIP3    H127625   2.060   4.645   3.682
 9228TIP3    H227626   2.202   4.668   3.635
 9229TIP3   OH227627   6.930   4.601   4.448
 9229TIP3    H127628   6.895   4.619   4.536
 9229TIP3    H227629   7.025   4.604   4.460
 9230TIP3   OH227630   0.607   4.227   6.469
 9230TIP3    H127631   0.683   4.285   6.471
 9230TIP3    H227632   0.570   4.239   6.382
 9231TIP3   OH227633   0.620   5.740   4.675
 9231TIP3    H127634   0.573   5.751   4.592
 9231TIP3    H227635   0.657   5.826   4.694
 9232TIP3   OH227636   2.548   3.176   2.805
 9232TIP3    H127637   2.510   3.106   2.857
 9232TIP3    H227638   2.509   3.165   2.718
 9233TIP3   OH227639   7.879   6.822   3.487
 9233TIP3    H127640   7.937   6.869   3.548
 9233TIP3    H227641   7.883   6.731   3.516
 9234TIP3   OH227642   6.102   6.162   1.342
 9234TIP3    H127643   6.085   6.193   1.252
 9234TIP3    H227644   6.058   6.227   1.398
 9235TIP3   OH227645   6.849   4.599   4.733
 9235TIP3    H127646   6.899   4.518   4.721
 9235TIP3    H227647   6.916   4.665   4.751
 9236TIP3   OH227648   5.678   3.237   6.814
 9236TIP3    H127649   5.648   3.152   6.780
 9236TIP3    H227650   5.707   3.218   6.904
 9237TIP3   OH227651   1.599   7.384   5.529
 9237TIP3    H127652   1.660   7.384   5.603
 9237TIP3    H227653   1.533   7.319   5.553
 9238TIP3   OH227654   0.742   7.337   5.249
 9238TIP3    H127655   0.702   7.374   5.170
 9238TIP3    H227656   0.713   7.394   5.320
 9239TIP3   OH227657   5.986   2.427   0.987
 9239TIP3    H127658   6.001   2.515   0.953
 9239TIP3    H227659   5.929   2.441   1.063
 9240TIP3   OH227660   1.651   3.976   4.377
 9240TIP3    H127661   1.724   3.928   4.338
 9240TIP3    H227662   1.627   3.926   4.454
 9241TIP3   OH227663   0.934   2.453   4.664
 9241TIP3    H127664   0.842   2.479   4.654
 9241TIP3    H227665   0.945   2.441   4.758
 9242TIP3   OH227666   4.045   2.293   0.921
 9242TIP3    H127667   4.043   2.376   0.874
 9242TIP3    H227668   4.053   2.318   1.013
 9243TIP3   OH227669   0.480   4.797   3.573
 9243TIP3    H127670   0.457   4.707   3.548
 9243TIP3    H227671   0.477   4.846   3.492
 9244TIP3   OH227672   3.405   1.597   1.996
 9244TIP3    H127673   3.499   1.611   2.006
 9244TIP3    H227674   3.394   1.577   1.903
 9245TIP3   OH227675   7.544   2.781   1.280
 9245TIP3    H127676   7.571   2.721   1.349
 9245TIP3    H227677   7.542   2.727   1.201
 9246TIP3   OH227678   3.161   1.103   1.190
 9246TIP3    H127679   3.077   1.097   1.237
 9246TIP3    H227680   3.209   1.171   1.237
 9247TIP3   OH227681   5.538   5.317   1.087
 9247TIP3    H127682   5.579   5.249   1.033
 9247TIP3    H227683   5.459   5.275   1.121
 9248TIP3   OH227684   3.019   2.805   6.150
 9248TIP3    H127685   2.989   2.846   6.069
 9248TIP3    H227686   2.981   2.717   6.147
 9249TIP3   OH227687   6.683   7.163   1.549
 9249TIP3    H127688   6.704   7.237   1.492
 9249TIP3    H227689   6.609   7.194   1.601
 9250TIP3   OH227690   1.249   4.978   5.142
 9250TIP3    H127691   1.342   4.995   5.159
 9250TIP3    H227692   1.221   5.050   5.086
 9251TIP3   OH227693   4.940   7.215   6.180
 9251TIP3    H127694   4.968   7.252   6.264
 9251TIP3    H227695   4.908   7.290   6.130
 9252TIP3   OH227696   4.424   6.674   1.544
 9252TIP3    H127697   4.495   6.730   1.513
 9252TIP3    H227698   4.384   6.640   1.464
 9253TIP3   OH227699   0.568   6.122   3.017
 9253TIP3    H127700   0.577   6.126   3.112
 9253TIP3    H227701   0.473   6.116   3.002
 9254TIP3   OH227702   2.451   0.929   4.537
 9254TIP3    H127703   2.368   0.915   4.491
 9254TIP3    H227704   2.464   0.848   4.587
 9255TIP3   OH227705   3.118   0.722   0.890
 9255TIP3    H127706   3.065   0.802   0.892
 9255TIP3    H227707   3.058   0.653   0.916
 9256TIP3   OH227708   7.969   3.948   6.775
 9256TIP3    H127709   7.928   3.894   6.843
 9256TIP3    H227710   7.896   3.979   6.721
 9257TIP3   OH227711   6.459   5.865   1.638
 9257TIP3    H127712   6.466   5.918   1.717
 9257TIP3    H227713   6.389   5.906   1.587
 9258TIP3   OH227714   5.476   1.026   5.575
 9258TIP3    H127715   5.505   0.966   5.644
 9258TIP3    H227716   5.383   1.041   5.593
 9259TIP3   OH227717   5.888   7.052   0.906
 9259TIP3    H127718   5.955   6.987   0.886
 9259TIP3    H227719   5.918   7.092   0.988
 9260TIP3   OH227720   1.927   7.197   2.950
 9260TIP3    H127721   1.989   7.178   2.880
 9260TIP3    H227722   1.903   7.111   2.985
 9261TIP3   OH227723   7.769   5.671   5.730
 9261TIP3    H127724   7.843   5.612   5.740
 9261TIP3    H227725   7.808   5.758   5.726
 9262TIP3   OH227726   6.546   4.698   5.579
 9262TIP3    H127727   6.476   4.678   5.518
 9262TIP3    H227728   6.575   4.787   5.556
 9263TIP3   OH227729   4.702   2.686   5.743
 9263TIP3    H127730   4.783   2.734   5.721
 9263TIP3    H227731   4.715   2.657   5.833
 9264TIP3   OH227732   4.716   6.501   4.822
 9264TIP3    H127733   4.674   6.574   4.775
 9264TIP3    H227734   4.809   6.524   4.822
 9265TIP3   OH227735   2.385   6.986   1.586
 9265TIP3    H127736   2.429   6.908   1.554
 9265TIP3    H227737   2.337   7.019   1.510
 9266TIP3   OH227738   7.144   0.381   5.515
 9266TIP3    H127739   7.120   0.303   5.566
 9266TIP3    H227740   7.184   0.440   5.578
 9267TIP3   OH227741   5.871   3.802   2.439
 9267TIP3    H127742   5.910   3.887   2.417
 9267TIP3    H227743   5.925   3.768   2.510
 9268TIP3   OH227744   7.861   7.386   0.792
 9268TIP3    H127745   7.927   7.388   0.722
 9268TIP3    H227746   7.909   7.354   0.869
 9269TIP3   OH227747   3.438   7.661   1.759
 9269TIP3    H127748   3.366   7.598   1.756
 9269TIP3    H227749   3.413   7.730   1.698
 9270TIP3   OH227750   0.339   1.110   2.494
 9270TIP3    H127751   0.329   1.101   2.589
 9270TIP3    H227752   0.256   1.080   2.457
 9271TIP3   OH227753   1.601   1.329   1.573
 9271TIP3    H127754   1.648   1.327   1.489
 9271TIP3    H227755   1.534   1.261   1.564
 9272TIP3   OH227756   4.395   6.687   2.268
 9272TIP3    H127757   4.300   6.694   2.278
 9272TIP3    H227758   4.409   6.603   2.225
 9273TIP3   OH227759   0.262   7.473   6.598
 9273TIP3    H127760   0.269   7.568   6.594
 9273TIP3    H227761   0.169   7.456   6.613
 9274TIP3   OH227762   6.224   0.242   5.986
 9274TIP3    H127763   6.249   0.160   6.028
 9274TIP3    H227764   6.272   0.309   6.035
 9275TIP3   OH227765   6.502   1.873   4.400
 9275TIP3    H127766   6.468   1.792   4.437
 9275TIP3    H227767   6.462   1.878   4.313
 9276TIP3   OH227768   5.718   2.657   1.776
 9276TIP3    H127769   5.634   2.678   1.815
 9276TIP3    H227770   5.697   2.602   1.700
 9277TIP3   OH227771   0.057   3.880   5.717
 9277TIP3    H127772  -0.008   3.938   5.757
 9277TIP3    H227773   0.014   3.845   5.639
 9278TIP3   OH227774   0.623   4.755   1.409
 9278TIP3    H127775   0.624   4.846   1.382
 9278TIP3    H227776   0.709   4.740   1.447
 9279TIP3   OH227777   4.063   6.157   1.714
 9279TIP3    H127778   3.983   6.155   1.661
 9279TIP3    H227779   4.066   6.071   1.756
 9280TIP3   OH227780   1.007   4.834   6.510
 9280TIP3    H127781   1.033   4.916   6.468
 9280TIP3    H227782   0.936   4.801   6.455
 9281TIP3   OH227783   7.125   7.566   1.710
 9281TIP3    H127784   7.052   7.621   1.741
 9281TIP3    H227785   7.153   7.608   1.629
 9282TIP3   OH227786   4.047   3.839   1.407
 9282TIP3    H127787   4.114   3.876   1.349
 9282TIP3    H227788   3.976   3.815   1.348
 9283TIP3   OH227789   4.766   0.484   1.780
 9283TIP3    H127790   4.861   0.478   1.794
 9283TIP3    H227791   4.734   0.394   1.791
 9284TIP3   OH227792   7.187   3.551   0.478
 9284TIP3    H127793   7.267   3.556   0.425
 9284TIP3    H227794   7.206   3.604   0.555
 9285TIP3   OH227795   5.499   0.388   1.820
 9285TIP3    H127796   5.535   0.301   1.799
 9285TIP3    H227797   5.499   0.390   1.916
 9286TIP3   OH227798   3.743   1.049   2.257
 9286TIP3    H127799   3.721   0.975   2.313
 9286TIP3    H227800   3.747   1.124   2.317
 9287TIP3   OH227801   7.260   7.372   6.531
 9287TIP3    H127802   7.285   7.442   6.592
 9287TIP3    H227803   7.306   7.295   6.563
 9288TIP3   OH227804   4.276   5.300   5.034
 9288TIP3    H127805   4.275   5.365   4.964
 9288TIP3    H227806   4.308   5.347   5.111
 9289TIP3   OH227807   2.401   7.857   5.013
 9289TIP3    H127808   2.376   7.892   5.098
 9289TIP3    H227809   2.493   7.832   5.023
 9290TIP3   OH227810   6.633   2.588   1.071
 9290TIP3    H127811   6.643   2.533   1.148
 9290TIP3    H227812   6.677   2.540   1.001
 9291TIP3   OH227813   3.316   1.927   2.881
 9291TIP3    H127814   3.379   1.925   2.809
 9291TIP3    H227815   3.260   2.002   2.861
 9292TIP3   OH227816   1.196   6.602   6.846
 9292TIP3    H127817   1.188   6.685   6.894
 9292TIP3    H227818   1.119   6.600   6.790
 9293TIP3   OH227819   4.674   0.718   1.934
 9293TIP3    H127820   4.686   0.634   1.889
 9293TIP3    H227821   4.760   0.738   1.971
 9294TIP3   OH227822   6.988   3.389   1.713
 9294TIP3    H127823   6.894   3.405   1.712
 9294TIP3    H227824   7.022   3.442   1.641
 9295TIP3   OH227825   1.621   1.789   1.710
 9295TIP3    H127826   1.590   1.878   1.696
 9295TIP3    H227827   1.604   1.772   1.803
 9296TIP3   OH227828   6.272   2.041   6.498
 9296TIP3    H127829   6.288   1.991   6.419
 9296TIP3    H227830   6.331   2.116   6.492
 9297TIP3   OH227831   1.701   2.310   6.453
 9297TIP3    H127832   1.711   2.241   6.388
 9297TIP3    H227833   1.610   2.339   6.445
 9298TIP3   OH227834   0.099   4.386   4.695
 9298TIP3    H127835   0.068   4.452   4.758
 9298TIP3    H227836   0.149   4.436   4.631
 9299TIP3   OH227837   7.908   4.629   6.685
 9299TIP3    H127838   7.819   4.639   6.720
 9299TIP3    H227839   7.957   4.588   6.756
 9300TIP3   OH227840   0.069   1.321   2.734
 9300TIP3    H127841   0.141   1.276   2.779
 9300TIP3    H227842   0.109   1.400   2.698
 9301TIP3   OH227843   6.392   7.828   4.213
 9301TIP3    H127844   6.430   7.842   4.126
 9301TIP3    H227845   6.328   7.758   4.200
 9302TIP3   OH227846   1.989   6.059   1.624
 9302TIP3    H127847   2.082   6.042   1.612
 9302TIP3    H227848   1.985   6.140   1.676
 9303TIP3   OH227849   1.842   6.045   1.971
 9303TIP3    H127850   1.842   5.960   2.015
 9303TIP3    H227851   1.759   6.046   1.922
 9304TIP3   OH227852   2.290   5.671   4.050
 9304TIP3    H127853   2.220   5.643   4.109
 9304TIP3    H227854   2.370   5.665   4.103
 9305TIP3   OH227855   2.842   0.785   6.073
 9305TIP3    H127856   2.846   0.794   6.168
 9305TIP3    H227857   2.894   0.858   6.040
 9306TIP3   OH227858   5.775   1.227   4.346
 9306TIP3    H127859   5.762   1.172   4.269
 9306TIP3    H227860   5.714   1.299   4.335
 9307TIP3   OH227861   2.620   5.551   0.028
 9307TIP3    H127862   2.711   5.552  -0.001
 9307TIP3    H227863   2.620   5.495   0.106
 9308TIP3   OH227864   4.818   4.995   2.149
 9308TIP3    H127865   4.794   4.937   2.221
 9308TIP3    H227866   4.749   4.982   2.084
 9309TIP3   OH227867   6.313   3.603   0.116
 9309TIP3    H127868   6.386   3.558   0.074
 9309TIP3    H227869   6.347   3.691   0.135
 9310TIP3   OH227870   8.396   0.681   2.471
 9310TIP3    H127871   8.372   0.747   2.537
 9310TIP3    H227872   8.312   0.656   2.432
 9311TIP3   OH227873   3.583   1.646   0.451
 9311TIP3    H127874   3.497   1.621   0.418
 9311TIP3    H227875   3.613   1.570   0.501
 9312TIP3   OH227876   5.955   7.614   0.501
 9312TIP3    H127877   5.972   7.704   0.471
 9312TIP3    H227878   5.973   7.560   0.424
 9313TIP3   OH227879   3.582   4.437   3.507
 9313TIP3    H127880   3.552   4.347   3.522
 9313TIP3    H227881   3.663   4.444   3.556
 9314TIP3   OH227882   5.965   4.749   3.789
 9314TIP3    H127883   5.896   4.814   3.776
 9314TIP3    H227884   5.962   4.728   3.882
 9315TIP3   OH227885   7.242   2.142   2.983
 9315TIP3    H127886   7.147   2.133   2.981
 9315TIP3    H227887   7.275   2.056   2.959
 9316TIP3   OH227888   0.261   1.095   6.139
 9316TIP3    H127889   0.225   1.042   6.067
 9316TIP3    H227890   0.328   1.149   6.098
 9317TIP3   OH227891   6.961   2.129   0.330
 9317TIP3    H127892   7.030   2.173   0.281
 9317TIP3    H227893   6.964   2.169   0.417
 9318TIP3   OH227894   4.587   7.840   5.696
 9318TIP3    H127895   4.565   7.933   5.695
 9318TIP3    H227896   4.503   7.795   5.686
 9319TIP3   OH227897   7.872   3.584   1.836
 9319TIP3    H127898   7.843   3.493   1.842
 9319TIP3    H227899   7.835   3.616   1.754
 9320TIP3   OH227900   2.027   6.595   5.506
 9320TIP3    H127901   1.972   6.653   5.455
 9320TIP3    H227902   1.974   6.517   5.521
 9321TIP3   OH227903   2.309   7.066   5.690
 9321TIP3    H127904   2.403   7.055   5.674
 9321TIP3    H227905   2.299   7.058   5.785
 9322TIP3   OH227906   2.656   1.876   6.648
 9322TIP3    H127907   2.686   1.819   6.577
 9322TIP3    H227908   2.561   1.860   6.653
 9323TIP3   OH227909   1.687   6.391   0.567
 9323TIP3    H127910   1.705   6.469   0.514
 9323TIP3    H227911   1.774   6.357   0.589
 9324TIP3   OH227912   6.370   1.649   4.525
 9324TIP3    H127913   6.298   1.708   4.544
 9324TIP3    H227914   6.371   1.587   4.598
 9325TIP3   OH227915   7.036   4.483   5.434
 9325TIP3    H127916   7.063   4.396   5.463
 9325TIP3    H227917   6.995   4.469   5.349
 9326TIP3   OH227918   1.081   5.652   6.588
 9326TIP3    H127919   1.035   5.686   6.511
 9326TIP3    H227920   1.161   5.613   6.553
 9327TIP3   OH227921   4.072   2.289   3.858
 9327TIP3    H127922   4.154   2.240   3.865
 9327TIP3    H227923   4.004   2.222   3.865
 9328TIP3   OH227924   0.819   4.712   6.304
 9328TIP3    H127925   0.780   4.752   6.226
 9328TIP3    H227926   0.812   4.618   6.289
 9329TIP3   OH227927   7.819   7.065   6.234
 9329TIP3    H127928   7.865   7.134   6.187
 9329TIP3    H227929   7.727   7.091   6.231
 9330TIP3   OH227930   7.359   4.731   2.147
 9330TIP3    H127931   7.273   4.760   2.116
 9330TIP3    H227932   7.386   4.663   2.085
 9331TIP3   OH227933   0.871   3.513   2.194
 9331TIP3    H127934   0.824   3.524   2.111
 9331TIP3    H227935   0.961   3.542   2.175
 9332TIP3   OH227936   2.547   3.612   1.164
 9332TIP3    H127937   2.579   3.663   1.090
 9332TIP3    H227938   2.607   3.538   1.172
 9333TIP3   OH227939   2.799   6.349   1.208
 9333TIP3    H127940   2.890   6.323   1.195
 9333TIP3    H227941   2.793   6.368   1.302
 9334TIP3   OH227942   5.996   6.813   0.254
 9334TIP3    H127943   5.976   6.900   0.291
 9334TIP3    H227944   6.074   6.828   0.202
 9335TIP3   OH227945   4.553   3.843   2.819
 9335TIP3    H127946   4.544   3.939   2.817
 9335TIP3    H227947   4.464   3.812   2.836
 9336TIP3   OH227948   1.435   0.094   3.263
 9336TIP3    H127949   1.503   0.102   3.330
 9336TIP3    H227950   1.481   0.063   3.186
 9337TIP3   OH227951   1.378   4.957   3.031
 9337TIP3    H127952   1.455   4.978   3.084
 9337TIP3    H227953   1.351   5.041   2.994
 9338TIP3   OH227954   2.741   2.735   2.880
 9338TIP3    H127955   2.791   2.676   2.824
 9338TIP3    H227956   2.689   2.787   2.820
 9339TIP3   OH227957   6.397   5.904   5.451
 9339TIP3    H127958   6.457   5.885   5.523
 9339TIP3    H227959   6.437   5.862   5.375
 9340TIP3   OH227960   4.597   3.552   3.793
 9340TIP3    H127961   4.576   3.560   3.700
 9340TIP3    H227962   4.663   3.482   3.797
 9341TIP3   OH227963   0.749   0.459   2.706
 9341TIP3    H127964   0.707   0.489   2.787
 9341TIP3    H227965   0.684   0.402   2.665
 9342TIP3   OH227966   8.107   3.548   2.151
 9342TIP3    H127967   8.116   3.454   2.133
 9342TIP3    H227968   8.197   3.581   2.149
 9343TIP3   OH227969   0.849   0.440   1.395
 9343TIP3    H127970   0.781   0.373   1.391
 9343TIP3    H227971   0.909   0.418   1.323
 9344TIP3   OH227972   2.733   0.599   2.840
 9344TIP3    H127973   2.794   0.663   2.877
 9344TIP3    H227974   2.789   0.533   2.799
 9345TIP3   OH227975   2.045   5.278   1.151
 9345TIP3    H127976   1.968   5.297   1.205
 9345TIP3    H227977   2.091   5.208   1.198
 9346TIP3   OH227978   5.119   2.728   0.519
 9346TIP3    H127979   5.181   2.724   0.446
 9346TIP3    H227980   5.040   2.767   0.482
 9347TIP3   OH227981   2.178   3.201   0.425
 9347TIP3    H127982   2.221   3.118   0.445
 9347TIP3    H227983   2.248   3.266   0.429
 9348TIP3   OH227984   1.525   4.436   4.240
 9348TIP3    H127985   1.563   4.519   4.214
 9348TIP3    H227986   1.588   4.400   4.303
 9349TIP3   OH227987   7.100   3.124   5.164
 9349TIP3    H127988   7.139   3.042   5.132
 9349TIP3    H227989   7.174   3.182   5.180
 9350TIP3   OH227990   0.177   0.139   6.086
 9350TIP3    H127991   0.196   0.050   6.056
 9350TIP3    H227992   0.205   0.140   6.177
 9351TIP3   OH227993   5.029   0.292   0.806
 9351TIP3    H127994   4.985   0.354   0.862
 9351TIP3    H227995   5.122   0.305   0.824
 9352TIP3   OH227996   3.389   6.038   2.646
 9352TIP3    H127997   3.384   5.992   2.729
 9352TIP3    H227998   3.473   6.012   2.608
 9353TIP3   OH227999   5.207   2.541   5.027
 9353TIP3    H128000   5.193   2.588   5.109
 9353TIP3    H228001   5.180   2.603   4.959
 9354TIP3   OH228002   5.928   2.181   2.779
 9354TIP3    H128003   5.989   2.187   2.852
 9354TIP3    H228004   5.895   2.270   2.767
 9355TIP3   OH228005   0.676   5.384   0.991
 9355TIP3    H128006   0.689   5.350   1.079
 9355TIP3    H228007   0.625   5.464   1.003
 9356TIP3   OH228008   2.175   5.183   0.485
 9356TIP3    H128009   2.183   5.102   0.433
 9356TIP3    H228010   2.186   5.155   0.575
 9357TIP3   OH228011   7.398   7.800   5.108
 9357TIP3    H128012   7.376   7.825   5.019
 9357TIP3    H228013   7.363   7.712   5.118
 9358TIP3   OH228014   3.437   2.303   0.166
 9358TIP3    H128015   3.470   2.265   0.085
 9358TIP3    H228016   3.351   2.338   0.144
 9359TIP3   OH228017   7.200   4.771   0.556
 9359TIP3    H128018   7.167   4.792   0.468
 9359TIP3    H228019   7.294   4.787   0.550
 9360TIP3   OH228020   0.413   7.096   5.637
 9360TIP3    H128021   0.502   7.080   5.668
 9360TIP3    H228022   0.368   7.012   5.647
 9361TIP3   OH228023   6.011   4.105   4.935
 9361TIP3    H128024   6.082   4.058   4.891
 9361TIP3    H228025   5.995   4.055   5.015
 9362TIP3   OH228026   5.922   4.621   1.685
 9362TIP3    H128027   5.897   4.534   1.652
 9362TIP3    H228028   5.975   4.659   1.614
 9363TIP3   OH228029   6.907   1.389   5.842
 9363TIP3    H128030   6.829   1.440   5.864
 9363TIP3    H228031   6.915   1.327   5.914
 9364TIP3   OH228032   5.822   5.401   6.738
 9364TIP3    H128033   5.882   5.377   6.808
 9364TIP3    H228034   5.878   5.433   6.667
 9365TIP3   OH228035   8.047   2.303   1.646
 9365TIP3    H128036   8.131   2.341   1.619
 9365TIP3    H228037   8.071   2.226   1.698
 9366TIP3   OH228038   2.552   1.725   3.410
 9366TIP3    H128039   2.590   1.737   3.323
 9366TIP3    H228040   2.625   1.696   3.464
 9367TIP3   OH228041   2.460   0.699   1.874
 9367TIP3    H128042   2.455   0.635   1.945
 9367TIP3    H228043   2.420   0.655   1.799
 9368TIP3   OH228044   1.251   6.010   6.220
 9368TIP3    H128045   1.278   6.101   6.210
 9368TIP3    H228046   1.294   5.964   6.147
 9369TIP3   OH228047   6.876   0.291   5.290
 9369TIP3    H128048   6.967   0.265   5.276
 9369TIP3    H228049   6.881   0.362   5.353
 9370TIP3   OH228050   0.222   0.142   5.623
 9370TIP3    H128051   0.197   0.214   5.681
 9370TIP3    H228052   0.188   0.063   5.666
 9371TIP3   OH228053   6.358   1.731   1.069
 9371TIP3    H128054   6.333   1.808   1.121
 9371TIP3    H228055   6.386   1.767   0.985
 9372TIP3   OH228056   4.782   4.524   6.667
 9372TIP3    H128057   4.868   4.516   6.624
 9372TIP3    H228058   4.758   4.616   6.657
 9373TIP3   OH228059   7.388   5.205   4.410
 9373TIP3    H128060   7.304   5.248   4.427
 9373TIP3    H228061   7.372   5.152   4.332
 9374TIP3   OH228062   2.097   0.764   4.009
 9374TIP3    H128063   2.130   0.703   4.075
 9374TIP3    H228064   2.036   0.820   4.057
 9375TIP3   OH228065   2.890   2.481   3.455
 9375TIP3    H128066   2.975   2.524   3.462
 9375TIP3    H228067   2.900   2.421   3.381
 9376TIP3   OH228068   2.588   6.671   6.360
 9376TIP3    H128069   2.500   6.702   6.339
 9376TIP3    H228070   2.644   6.747   6.350
 9377TIP3   OH228071   4.561   7.617   2.498
 9377TIP3    H128072   4.562   7.624   2.403
 9377TIP3    H228073   4.485   7.669   2.525
 9378TIP3   OH228074   7.552   2.881   4.708
 9378TIP3    H128075   7.566   2.976   4.711
 9378TIP3    H228076   7.501   2.866   4.628
 9379TIP3   OH228077   2.613   6.453   0.685
 9379TIP3    H128078   2.664   6.442   0.765
 9379TIP3    H228079   2.678   6.448   0.614
 9380TIP3   OH228080   5.348   7.144   3.934
 9380TIP3    H128081   5.274   7.186   3.890
 9380TIP3    H228082   5.312   7.111   4.016
 9381TIP3   OH228083   4.109   1.367   1.993
 9381TIP3    H128084   4.018   1.338   1.999
 9381TIP3    H228085   4.106   1.445   1.937
 9382TIP3   OH228086   2.958   3.682   0.309
 9382TIP3    H128087   2.883   3.640   0.352
 9382TIP3    H228088   2.971   3.762   0.360
 9383TIP3   OH228089   3.346   3.533   4.650
 9383TIP3    H128090   3.332   3.622   4.680
 9383TIP3    H228091   3.308   3.530   4.562
 9384TIP3   OH228092   1.777   5.243   3.077
 9384TIP3    H128093   1.748   5.253   3.168
 9384TIP3    H228094   1.809   5.152   3.072
 9385TIP3   OH228095   3.572   2.254   3.665
 9385TIP3    H128096   3.516   2.305   3.724
 9385TIP3    H228097   3.537   2.165   3.669
 9386TIP3   OH228098   3.390   4.527   6.053
 9386TIP3    H128099   3.436   4.506   5.972
 9386TIP3    H228100   3.299   4.502   6.036
 9387TIP3   OH228101   7.733   5.226   3.340
 9387TIP3    H128102   7.729   5.170   3.263
 9387TIP3    H228103   7.693   5.308   3.312
 9388TIP3   OH228104   0.899   0.963   6.256
 9388TIP3    H128105   0.973   0.979   6.199
 9388TIP3    H228106   0.857   0.885   6.220
 9389TIP3   OH228107   8.253   5.497   5.068
 9389TIP3    H128108   8.248   5.519   5.161
 9389TIP3    H228109   8.179   5.438   5.053
 9390TIP3   OH228110   4.952   6.133   5.157
 9390TIP3    H128111   4.871   6.134   5.208
 9390TIP3    H228112   4.956   6.046   5.118
 9391TIP3   OH228113   5.028   1.247   0.249
 9391TIP3    H128114   5.016   1.242   0.155
 9391TIP3    H228115   5.123   1.257   0.261
 9392TIP3   OH228116   5.632   4.434   3.384
 9392TIP3    H128117   5.667   4.504   3.328
 9392TIP3    H228118   5.589   4.480   3.456
 9393TIP3   OH228119   2.740   7.459   0.160
 9393TIP3    H128120   2.686   7.384   0.137
 9393TIP3    H228121   2.704   7.490   0.243
 9394TIP3   OH228122   2.356   0.431   3.086
 9394TIP3    H128123   2.391   0.498   3.028
 9394TIP3    H228124   2.308   0.480   3.153
 9395TIP3   OH228125   8.367   0.631   4.582
 9395TIP3    H128126   8.396   0.544   4.555
 9395TIP3    H228127   8.305   0.658   4.514
 9396TIP3   OH228128   1.403   2.531   2.479
 9396TIP3    H128129   1.406   2.622   2.449
 9396TIP3    H228130   1.311   2.515   2.498
 9397TIP3   OH228131   6.853   5.200   4.438
 9397TIP3    H128132   6.873   5.135   4.505
 9397TIP3    H228133   6.761   5.184   4.416
 9398TIP3   OH228134   3.397   7.896   1.421
 9398TIP3    H128135   3.392   7.955   1.346
 9398TIP3    H228136   3.477   7.922   1.467
 9399TIP3   OH228137   5.127   5.603   0.279
 9399TIP3    H128138   5.177   5.531   0.240
 9399TIP3    H228139   5.073   5.636   0.207
 9400TIP3   OH228140   3.596   6.176   0.726
 9400TIP3    H128141   3.654   6.111   0.687
 9400TIP3    H228142   3.626   6.184   0.817
 9401TIP3   OH228143   1.400   5.540   1.676
 9401TIP3    H128144   1.393   5.559   1.769
 9401TIP3    H228145   1.413   5.626   1.635
 9402TIP3   OH228146   4.946   7.308   0.683
 9402TIP3    H128147   4.974   7.217   0.684
 9402TIP3    H228148   5.000   7.350   0.750
 9403TIP3   OH228149   2.189   7.062   4.370
 9403TIP3    H128150   2.210   7.031   4.458
 9403TIP3    H228151   2.258   7.023   4.315
 9404TIP3   OH228152   2.976   3.706   1.399
 9404TIP3    H128153   2.894   3.749   1.377
 9404TIP3    H228154   2.950   3.627   1.447
 9405TIP3   OH228155   7.080   0.548   1.649
 9405TIP3    H128156   7.162   0.511   1.683
 9405TIP3    H228157   7.103   0.585   1.564
 9406TIP3   OH228158   6.350   2.545   5.737
 9406TIP3    H128159   6.333   2.482   5.667
 9406TIP3    H228160   6.266   2.557   5.780
 9407TIP3   OH228161   4.372   5.900   4.606
 9407TIP3    H128162   4.440   5.847   4.564
 9407TIP3    H228163   4.415   5.938   4.682
 9408TIP3   OH228164   3.607   3.414   2.993
 9408TIP3    H128165   3.550   3.446   2.923
 9408TIP3    H228166   3.695   3.433   2.962
 9409TIP3   OH228167   7.553   3.909   3.761
 9409TIP3    H128168   7.474   3.855   3.759
 9409TIP3    H228169   7.539   3.975   3.694
 9410TIP3   OH228170   1.850   6.734   2.086
 9410TIP3    H128171   1.899   6.726   2.004
 9410TIP3    H228172   1.761   6.756   2.059
 9411TIP3   OH228173   1.660   4.148   2.514
 9411TIP3    H128174   1.714   4.078   2.477
 9411TIP3    H228175   1.654   4.127   2.607
 9412TIP3   OH228176   6.710   1.457   4.928
 9412TIP3    H128177   6.679   1.404   4.854
 9412TIP3    H228178   6.800   1.480   4.903
 9413TIP3   OH228179   1.008   2.866   4.732
 9413TIP3    H128180   1.006   2.809   4.655
 9413TIP3    H228181   0.917   2.868   4.762
 9414TIP3   OH228182   8.108   0.869   0.366
 9414TIP3    H128183   8.100   0.960   0.396
 9414TIP3    H228184   8.184   0.835   0.414
 9415TIP3   OH228185   6.701   0.943   6.609
 9415TIP3    H128186   6.757   0.871   6.579
 9415TIP3    H228187   6.697   0.933   6.704
 9416TIP3   OH228188   5.489   6.668   0.935
 9416TIP3    H128189   5.569   6.720   0.943
 9416TIP3    H228190   5.461   6.654   1.026
 9417TIP3   OH228191   8.185   0.117   4.859
 9417TIP3    H128192   8.243   0.041   4.862
 9417TIP3    H228193   8.236   0.185   4.815
 9418TIP3   OH228194   2.729   5.384   2.868
 9418TIP3    H128195   2.646   5.402   2.826
 9418TIP3    H228196   2.715   5.409   2.960
 9419TIP3   OH228197   3.598   4.719   6.170
 9419TIP3    H128198   3.599   4.631   6.133
 9419TIP3    H228199   3.673   4.762   6.130
 9420TIP3   OH228200   4.218   3.921   1.225
 9420TIP3    H128201   4.224   4.015   1.241
 9420TIP3    H228202   4.295   3.902   1.171
 9421TIP3   OH228203   3.343   5.083   3.871
 9421TIP3    H128204   3.331   5.178   3.876
 9421TIP3    H228205   3.398   5.071   3.793
 9422TIP3   OH228206   0.308   4.692   1.298
 9422TIP3    H128207   0.358   4.715   1.377
 9422TIP3    H228208   0.363   4.720   1.225
 9423TIP3   OH228209   4.832   7.247   1.749
 9423TIP3    H128210   4.881   7.251   1.831
 9423TIP3    H228211   4.740   7.255   1.776
 9424TIP3   OH228212   6.061   1.309   5.748
 9424TIP3    H128213   6.066   1.252   5.825
 9424TIP3    H228214   5.969   1.334   5.743
 9425TIP3   OH228215   1.732   5.194   6.328
 9425TIP3    H128216   1.714   5.136   6.254
 9425TIP3    H228217   1.693   5.278   6.302
 9426TIP3   OH228218   1.601   7.148   4.248
 9426TIP3    H128219   1.668   7.210   4.277
 9426TIP3    H228220   1.552   7.126   4.327
 9427TIP3   OH228221   5.070   2.226   6.497
 9427TIP3    H128222   5.096   2.163   6.564
 9427TIP3    H228223   5.018   2.174   6.435
 9428TIP3   OH228224   3.574   3.961   4.179
 9428TIP3    H128225   3.651   3.907   4.194
 9428TIP3    H228226   3.502   3.898   4.168
 9429TIP3   OH228227   2.059   3.918   3.230
 9429TIP3    H128228   2.012   3.978   3.171
 9429TIP3    H228229   2.005   3.840   3.234
 9430TIP3   OH228230   7.933   7.092   1.830
 9430TIP3    H128231   7.967   7.153   1.764
 9430TIP3    H228232   7.848   7.127   1.854
 9431TIP3   OH228233   3.421   3.526   5.603
 9431TIP3    H128234   3.423   3.616   5.636
 9431TIP3    H228235   3.405   3.536   5.509
 9432TIP3   OH228236   8.245   1.335   0.123
 9432TIP3    H128237   8.250   1.307   0.032
 9432TIP3    H228238   8.288   1.266   0.172
 9433TIP3   OH228239   8.123   7.138   1.469
 9433TIP3    H128240   8.041   7.181   1.495
 9433TIP3    H228241   8.117   7.131   1.374
 9434TIP3   OH228242   0.720   1.735   3.989
 9434TIP3    H128243   0.688   1.792   4.059
 9434TIP3    H228244   0.738   1.794   3.916
 9435TIP3   OH228245   4.794   6.098   5.857
 9435TIP3    H128246   4.719   6.155   5.870
 9435TIP3    H228247   4.795   6.079   5.764
 9436TIP3   OH228248   4.817   5.483   1.182
 9436TIP3    H128249   4.740   5.433   1.156
 9436TIP3    H228250   4.823   5.470   1.277
 9437TIP3   OH228251   2.661   5.467   3.126
 9437TIP3    H128252   2.710   5.479   3.207
 9437TIP3    H228253   2.617   5.382   3.137
 9438TIP3   OH228254   0.555   2.413   6.492
 9438TIP3    H128255   0.594   2.446   6.411
 9438TIP3    H228256   0.465   2.447   6.492
 9439TIP3   OH228257   5.686   4.848   2.086
 9439TIP3    H128258   5.696   4.756   2.110
 9439TIP3    H228259   5.742   4.858   2.009
 9440TIP3   OH228260   3.784   7.480   2.058
 9440TIP3    H128261   3.705   7.513   2.101
 9440TIP3    H228262   3.753   7.444   1.975
 9441TIP3   OH228263   0.297   7.662   1.681
 9441TIP3    H128264   0.272   7.703   1.598
 9441TIP3    H228265   0.258   7.717   1.748
 9442TIP3   OH228266   3.358   0.570   4.106
 9442TIP3    H128267   3.375   0.589   4.013
 9442TIP3    H228268   3.445   0.564   4.145
 9443TIP3   OH228269   6.879   1.696   1.189
 9443TIP3    H128270   6.840   1.609   1.178
 9443TIP3    H228271   6.877   1.735   1.102
 9444TIP3   OH228272   1.936   1.677   4.121
 9444TIP3    H128273   1.868   1.739   4.150
 9444TIP3    H228274   1.898   1.634   4.045
 9445TIP3   OH228275   8.193   2.384   1.214
 9445TIP3    H128276   8.175   2.357   1.124
 9445TIP3    H228277   8.122   2.444   1.237
 9446TIP3   OH228278   2.515   5.950   1.260
 9446TIP3    H128279   2.463   6.029   1.271
 9446TIP3    H228280   2.511   5.931   1.166
 9447TIP3   OH228281   2.068   3.346   1.423
 9447TIP3    H128282   2.084   3.267   1.474
 9447TIP3    H228283   1.975   3.343   1.402
 9448TIP3   OH228284   6.203   6.274   2.568
 9448TIP3    H128285   6.125   6.329   2.580
 9448TIP3    H228286   6.253   6.319   2.499
 9449TIP3   OH228287   6.905   2.753   2.656
 9449TIP3    H128288   6.889   2.847   2.651
 9449TIP3    H228289   6.859   2.716   2.581
 9450TIP3   OH228290   1.813   2.731   5.474
 9450TIP3    H128291   1.748   2.677   5.428
 9450TIP3    H228292   1.769   2.756   5.555
 9451TIP3   OH228293   2.488   4.561   2.012
 9451TIP3    H128294   2.564   4.618   2.004
 9451TIP3    H228295   2.438   4.576   1.932
 9452TIP3   OH228296   8.243   4.966   2.906
 9452TIP3    H128297   8.250   4.993   2.997
 9452TIP3    H228298   8.150   4.977   2.885
 9453TIP3   OH228299   6.712   5.933   3.847
 9453TIP3    H128300   6.644   5.984   3.802
 9453TIP3    H228301   6.764   5.999   3.893
 9454TIP3   OH228302   7.878   1.718   3.408
 9454TIP3    H128303   7.921   1.684   3.330
 9454TIP3    H228304   7.793   1.674   3.410
 9455TIP3   OH228305   5.571   6.511   2.878
 9455TIP3    H128306   5.478   6.523   2.860
 9455TIP3    H228307   5.606   6.471   2.799
 9456TIP3   OH228308   6.977   0.014   4.426
 9456TIP3    H128309   6.989   0.102   4.462
 9456TIP3    H228310   7.053   0.001   4.369
 9457TIP3   OH228311   4.256   7.045   5.079
 9457TIP3    H128312   4.249   7.028   5.173
 9457TIP3    H228313   4.349   7.036   5.060
 9458TIP3   OH228314   4.237   3.853   1.847
 9458TIP3    H128315   4.329   3.876   1.853
 9458TIP3    H228316   4.235   3.758   1.858
 9459TIP3   OH228317   6.041   3.350   6.196
 9459TIP3    H128318   6.119   3.357   6.142
 9459TIP3    H228319   6.063   3.285   6.263
 9460TIP3   OH228320   2.676   2.553   0.470
 9460TIP3    H128321   2.715   2.467   0.483
 9460TIP3    H228322   2.742   2.603   0.423
 9461TIP3   OH228323   1.784   6.016   4.418
 9461TIP3    H128324   1.806   6.056   4.334
 9461TIP3    H228325   1.691   5.993   4.409
 9462TIP3   OH228326   2.929   7.698   3.246
 9462TIP3    H128327   2.904   7.784   3.212
 9462TIP3    H228328   3.008   7.714   3.297
 9463TIP3   OH228329   7.432   2.798   0.622
 9463TIP3    H128330   7.517   2.788   0.580
 9463TIP3    H228331   7.371   2.817   0.551
 9464TIP3   OH228332   4.194   1.067   4.409
 9464TIP3    H128333   4.286   1.041   4.409
 9464TIP3    H228334   4.181   1.111   4.493
 9465TIP3   OH228335   7.119   0.365   3.472
 9465TIP3    H128336   7.215   0.372   3.479
 9465TIP3    H228337   7.101   0.271   3.483
 9466TIP3   OH228338   1.055   6.015   2.922
 9466TIP3    H128339   1.072   5.954   2.850
 9466TIP3    H228340   0.960   6.019   2.929
 9467TIP3   OH228341   1.068   4.508   2.176
 9467TIP3    H128342   1.014   4.587   2.177
 9467TIP3    H228343   1.157   4.540   2.163
 9468TIP3   OH228344   2.700   0.141   3.917
 9468TIP3    H128345   2.651   0.219   3.890
 9468TIP3    H228346   2.790   0.159   3.890
 9469TIP3   OH228347   7.145   3.318   2.811
 9469TIP3    H128348   7.139   3.408   2.780
 9469TIP3    H228349   7.197   3.273   2.744
 9470TIP3   OH228350   4.463   5.860   1.268
 9470TIP3    H128351   4.557   5.842   1.270
 9470TIP3    H228352   4.446   5.890   1.179
 9471TIP3   OH228353   4.537   1.625   2.766
 9471TIP3    H128354   4.599   1.661   2.829
 9471TIP3    H228355   4.592   1.596   2.693
 9472TIP3   OH228356   3.171   6.550   3.404
 9472TIP3    H128357   3.241   6.548   3.339
 9472TIP3    H228358   3.106   6.611   3.367
 9473TIP3   OH228359   2.197   6.611   5.293
 9473TIP3    H128360   2.245   6.534   5.264
 9473TIP3    H228361   2.175   6.592   5.384
 9474TIP3   OH228362   1.979   7.274   5.533
 9474TIP3    H128363   2.065   7.302   5.563
 9474TIP3    H228364   1.918   7.308   5.599
 9475TIP3   OH228365   7.248   5.335   4.013
 9475TIP3    H128366   7.184   5.304   4.078
 9475TIP3    H228367   7.210   5.310   3.929
 9476TIP3   OH228368   3.924   4.830   3.050
 9476TIP3    H128369   3.937   4.868   3.136
 9476TIP3    H228370   3.834   4.854   3.027
 9477TIP3   OH228371   2.207   0.531   2.658
 9477TIP3    H128372   2.132   0.543   2.715
 9477TIP3    H228373   2.273   0.489   2.713
 9478TIP3   OH228374   8.380   3.395   6.654
 9478TIP3    H128375   8.360   3.478   6.696
 9478TIP3    H228376   8.295   3.353   6.641
 9479TIP3   OH228377   0.320   2.345   5.755
 9479TIP3    H128378   0.410   2.313   5.759
 9479TIP3    H228379   0.270   2.283   5.808
 9480TIP3   OH228380   2.725   1.337   5.966
 9480TIP3    H128381   2.745   1.255   5.922
 9480TIP3    H228382   2.810   1.380   5.978
 9481TIP3   OH228383   4.804   0.659   3.446
 9481TIP3    H128384   4.836   0.731   3.500
 9481TIP3    H228385   4.868   0.651   3.376
 9482TIP3   OH228386   1.774   3.350   1.444
 9482TIP3    H128387   1.695   3.329   1.493
 9482TIP3    H228388   1.746   3.353   1.352
 9483TIP3   OH228389   5.842   0.313   5.439
 9483TIP3    H128390   5.921   0.312   5.385
 9483TIP3    H228391   5.805   0.400   5.425
 9484TIP3   OH228392   3.566   2.547   2.930
 9484TIP3    H128393   3.626   2.618   2.951
 9484TIP3    H228394   3.610   2.498   2.861
 9485TIP3   OH228395   2.740   0.056   1.432
 9485TIP3    H128396   2.807   0.088   1.373
 9485TIP3    H228397   2.658   0.066   1.383
 9486TIP3   OH228398   4.925   4.966   3.513
 9486TIP3    H128399   4.840   4.944   3.553
 9486TIP3    H228400   4.946   5.052   3.547
 9487TIP3   OH228401   1.695   5.487   4.494
 9487TIP3    H128402   1.720   5.551   4.561
 9487TIP3    H228403   1.656   5.414   4.542
 9488TIP3   OH228404   4.510   1.973   5.715
 9488TIP3    H128405   4.415   1.986   5.715
 9488TIP3    H228406   4.536   1.991   5.805
 9489TIP3   OH228407   6.366   5.298   0.949
 9489TIP3    H128408   6.367   5.376   1.005
 9489TIP3    H228409   6.441   5.310   0.890
 9490TIP3   OH228410   0.032   1.149   4.601
 9490TIP3    H128411   0.029   1.080   4.668
 9490TIP3    H228412  -0.056   1.186   4.601
 9491TIP3   OH228413   2.376   2.934   2.244
 9491TIP3    H128414   2.389   2.867   2.311
 9491TIP3    H228415   2.287   2.918   2.211
 9492TIP3   OH228416   3.320   6.978   0.788
 9492TIP3    H128417   3.339   6.909   0.851
 9492TIP3    H228418   3.237   7.015   0.818
 9493TIP3   OH228419   2.364   7.190   6.074
 9493TIP3    H128420   2.404   7.248   6.009
 9493TIP3    H228421   2.300   7.245   6.119
 9494TIP3   OH228422   1.375   0.738   5.625
 9494TIP3    H128423   1.371   0.709   5.716
 9494TIP3    H228424   1.303   0.693   5.582
 9495TIP3   OH228425   4.291   5.193   6.579
 9495TIP3    H128426   4.311   5.176   6.487
 9495TIP3    H228427   4.219   5.135   6.600
 9496TIP3   OH228428   2.022   7.891   5.931
 9496TIP3    H128429   2.013   7.969   5.875
 9496TIP3    H228430   1.957   7.830   5.897
 9497TIP3   OH228431   0.344   7.647   5.432
 9497TIP3    H128432   0.351   7.672   5.524
 9497TIP3    H228433   0.294   7.565   5.434
 9498TIP3   OH228434   6.070   3.738   5.295
 9498TIP3    H128435   6.107   3.674   5.355
 9498TIP3    H228436   6.049   3.814   5.350
 9499TIP3   OH228437   7.882   1.327   1.884
 9499TIP3    H128438   7.852   1.407   1.839
 9499TIP3    H228439   7.845   1.334   1.972
 9500TIP3   OH228440   1.284   0.231   5.205
 9500TIP3    H128441   1.343   0.284   5.259
 9500TIP3    H228442   1.196   0.259   5.232
 9501TIP3   OH228443   7.756   6.772   0.781
 9501TIP3    H128444   7.769   6.843   0.718
 9501TIP3    H228445   7.748   6.694   0.727
 9502TIP3   OH228446   2.723   7.285   5.699
 9502TIP3    H128447   2.792   7.231   5.737
 9502TIP3    H228448   2.665   7.223   5.654
 9503TIP3   OH228449   2.602   2.028   6.019
 9503TIP3    H128450   2.559   2.000   6.100
 9503TIP3    H228451   2.692   1.995   6.028
 9504TIP3   OH228452   0.650   3.650   5.330
 9504TIP3    H128453   0.677   3.629   5.241
 9504TIP3    H228454   0.731   3.650   5.381
 9505TIP3   OH228455   3.508   5.528   6.012
 9505TIP3    H128456   3.520   5.569   6.097
 9505TIP3    H228457   3.468   5.443   6.032
 9506TIP3   OH228458   4.960   7.239   1.495
 9506TIP3    H128459   4.911   7.271   1.419
 9506TIP3    H228460   4.899   7.248   1.568
 9507TIP3   OH228461   3.480   3.499   6.528
 9507TIP3    H128462   3.494   3.591   6.548
 9507TIP3    H228463   3.458   3.458   6.612
 9508TIP3   OH228464   1.100   0.024   6.131
 9508TIP3    H128465   1.159  -0.046   6.158
 9508TIP3    H228466   1.143   0.063   6.055
 9509TIP3   OH228467   5.724   0.018   5.989
 9509TIP3    H128468   5.807   0.009   5.943
 9509TIP3    H228469   5.662  -0.032   5.936
 9510TIP3   OH228470   8.079   0.009   4.312
 9510TIP3    H128471   7.989  -0.012   4.287
 9510TIP3    H228472   8.080   0.104   4.325
 9511TIP3   OH228473   8.152   2.526   1.970
 9511TIP3    H128474   8.097   2.469   2.024
 9511TIP3    H228475   8.090   2.571   1.912
 9512TIP3   OH228476   7.692   1.427   2.611
 9512TIP3    H128477   7.679   1.464   2.524
 9512TIP3    H228478   7.604   1.402   2.640
 9513TIP3   OH228479   3.268   3.002   4.120
 9513TIP3    H128480   3.342   3.064   4.116
 9513TIP3    H228481   3.302   2.923   4.078
 9514TIP3   OH228482   3.195   2.781   6.396
 9514TIP3    H128483   3.250   2.709   6.426
 9514TIP3    H228484   3.110   2.764   6.436
 9515TIP3   OH228485   8.182   5.811   6.760
 9515TIP3    H128486   8.090   5.791   6.742
 9515TIP3    H228487   8.210   5.861   6.684
 9516TIP3   OH228488   7.872   2.582   5.073
 9516TIP3    H128489   7.854   2.523   5.146
 9516TIP3    H228490   7.789   2.626   5.056
 9517TIP3   OH228491   7.103   1.694   6.086
 9517TIP3    H128492   7.194   1.662   6.086
 9517TIP3    H228493   7.093   1.738   6.001
 9518TIP3   OH228494   6.371   1.061   0.773
 9518TIP3    H128495   6.301   1.106   0.820
 9518TIP3    H228496   6.424   1.131   0.736
 9519TIP3   OH228497   0.734   2.665   3.454
 9519TIP3    H128498   0.753   2.587   3.402
 9519TIP3    H228499   0.682   2.720   3.396
 9520TIP3   OH228500   3.999   4.655   6.474
 9520TIP3    H128501   3.986   4.665   6.379
 9520TIP3    H228502   4.083   4.698   6.491
 9521TIP3   OH228503   5.613   2.031   5.057
 9521TIP3    H128504   5.670   1.982   4.997
 9521TIP3    H228505   5.570   2.096   5.001
 9522TIP3   OH228506   0.498   3.677   3.245
 9522TIP3    H128507   0.476   3.618   3.317
 9522TIP3    H228508   0.575   3.725   3.275
 9523TIP3   OH228509   0.445   2.200   6.817
 9523TIP3    H128510   0.441   2.112   6.781
 9523TIP3    H228511   0.371   2.246   6.778
 9524TIP3   OH228512   6.959   0.177   0.808
 9524TIP3    H128513   6.918   0.134   0.733
 9524TIP3    H228514   6.900   0.248   0.831
 9525TIP3   OH228515   0.326   7.284   5.922
 9525TIP3    H128516   0.312   7.193   5.894
 9525TIP3    H228517   0.261   7.297   5.991
 9526TIP3   OH228518   1.842   5.715   0.888
 9526TIP3    H128519   1.757   5.711   0.932
 9526TIP3    H228520   1.906   5.710   0.958
 9527TIP3   OH228521   5.198   5.526   2.158
 9527TIP3    H128522   5.281   5.491   2.128
 9527TIP3    H228523   5.214   5.620   2.169
 9528TIP3   OH228524   7.063   3.921   0.423
 9528TIP3    H128525   7.027   3.871   0.496
 9528TIP3    H228526   7.158   3.915   0.434
 9529TIP3   OH228527   0.805   2.379   3.031
 9529TIP3    H128528   0.861   2.302   3.018
 9529TIP3    H228529   0.771   2.399   2.944
 9530TIP3   OH228530   5.991   3.815   6.220
 9530TIP3    H128531   5.984   3.812   6.125
 9530TIP3    H228532   6.076   3.854   6.238
 9531TIP3   OH228533   5.907   4.338   5.002
 9531TIP3    H128534   5.950   4.392   5.068
 9531TIP3    H228535   5.964   4.262   4.992
 9532TIP3   OH228536   2.257   1.108   6.465
 9532TIP3    H128537   2.266   1.013   6.476
 9532TIP3    H228538   2.321   1.130   6.397
 9533TIP3   OH228539   0.299   2.595   2.074
 9533TIP3    H128540   0.254   2.593   1.989
 9533TIP3    H228541   0.344   2.510   2.079
 9534TIP3   OH228542   6.635   7.171   5.037
 9534TIP3    H128543   6.570   7.207   5.097
 9534TIP3    H228544   6.603   7.194   4.950
 9535TIP3   OH228545   5.364   2.437   0.139
 9535TIP3    H128546   5.271   2.452   0.120
 9535TIP3    H228547   5.365   2.396   0.225
 9536TIP3   OH228548   5.449   7.524   3.242
 9536TIP3    H128549   5.488   7.532   3.330
 9536TIP3    H228550   5.460   7.431   3.221
 9537TIP3   OH228551   5.452   2.173   2.857
 9537TIP3    H128552   5.433   2.081   2.876
 9537TIP3    H228553   5.511   2.171   2.782
 9538TIP3   OH228554   5.726   5.384   3.458
 9538TIP3    H128555   5.696   5.295   3.441
 9538TIP3    H228556   5.814   5.388   3.420
 9539TIP3   OH228557   0.211   3.912   1.412
 9539TIP3    H128558   0.231   4.004   1.397
 9539TIP3    H228559   0.144   3.890   1.347
 9540TIP3   OH228560   6.895   6.112   1.175
 9540TIP3    H128561   6.802   6.133   1.181
 9540TIP3    H228562   6.935   6.189   1.135
 9541TIP3   OH228563   5.731   4.957   1.525
 9541TIP3    H128564   5.707   5.001   1.443
 9541TIP3    H228565   5.805   5.008   1.559
 9542TIP3   OH228566   6.586   1.453   3.579
 9542TIP3    H128567   6.666   1.460   3.527
 9542TIP3    H228568   6.550   1.542   3.580
 9543TIP3   OH228569   3.687   6.986   5.969
 9543TIP3    H128570   3.614   6.930   5.945
 9543TIP3    H228571   3.654   7.040   6.040
 9544TIP3   OH228572   4.094   0.215   3.290
 9544TIP3    H128573   4.174   0.244   3.334
 9544TIP3    H228574   4.097   0.258   3.204
 9545TIP3   OH228575   0.438   3.199   3.830
 9545TIP3    H128576   0.403   3.173   3.745
 9545TIP3    H228577   0.505   3.264   3.809
 9546TIP3   OH228578   8.143   0.705   5.184
 9546TIP3    H128579   8.237   0.695   5.174
 9546TIP3    H228580   8.112   0.730   5.097
 9547TIP3   OH228581   4.763   2.010   3.095
 9547TIP3    H128582   4.852   2.021   3.061
 9547TIP3    H228583   4.774   2.005   3.190
 9548TIP3   OH228584   7.172   2.492   6.331
 9548TIP3    H128585   7.237   2.422   6.325
 9548TIP3    H228586   7.209   2.564   6.279
 9549TIP3   OH228587   5.793   6.677   0.175
 9549TIP3    H128588   5.858   6.720   0.230
 9549TIP3    H228589   5.823   6.691   0.086
 9550TIP3   OH228590   1.621   7.466   6.398
 9550TIP3    H128591   1.676   7.388   6.391
 9550TIP3    H228592   1.680   7.535   6.428
 9551TIP3   OH228593   6.800   4.566   2.345
 9551TIP3    H128594   6.733   4.571   2.277
 9551TIP3    H228595   6.759   4.605   2.422
 9552TIP3   OH228596   1.414   3.553   3.802
 9552TIP3    H128597   1.344   3.500   3.841
 9552TIP3    H228598   1.451   3.602   3.876
 9553TIP3   OH228599   6.545   7.209   4.454
 9553TIP3    H128600   6.453   7.205   4.480
 9553TIP3    H228601   6.581   7.124   4.479
 9554TIP3   OH228602   5.478   3.348   4.913
 9554TIP3    H128603   5.518   3.350   4.999
 9554TIP3    H228604   5.431   3.432   4.906
 9555TIP3   OH228605   3.883   5.049   3.637
 9555TIP3    H128606   3.964   5.053   3.586
 9555TIP3    H228607   3.905   5.091   3.720
 9556TIP3   OH228608   6.139   3.666   1.184
 9556TIP3    H128609   6.194   3.699   1.255
 9556TIP3    H228610   6.064   3.726   1.182
 9557TIP3   OH228611   2.689   1.867   2.439
 9557TIP3    H128612   2.640   1.803   2.491
 9557TIP3    H228613   2.628   1.897   2.372
 9558TIP3   OH228614   0.553   7.877   5.142
 9558TIP3    H128615   0.573   7.942   5.075
 9558TIP3    H228616   0.563   7.793   5.097
 9559TIP3   OH228617   0.800   4.505   4.843
 9559TIP3    H128618   0.744   4.578   4.816
 9559TIP3    H228619   0.780   4.493   4.936
 9560TIP3   OH228620   4.216   5.612   5.203
 9560TIP3    H128621   4.239   5.520   5.197
 9560TIP3    H228622   4.202   5.628   5.296
 9561TIP3   OH228623   7.858   1.029   1.321
 9561TIP3    H128624   7.811   1.110   1.303
 9561TIP3    H228625   7.951   1.054   1.315
 9562TIP3   OH228626   4.610   1.770   4.433
 9562TIP3    H128627   4.590   1.853   4.475
 9562TIP3    H228628   4.705   1.762   4.439
 9563TIP3   OH228629   3.463   1.975   3.680
 9563TIP3    H128630   3.441   1.943   3.593
 9563TIP3    H228631   3.382   1.964   3.730
 9564TIP3   OH228632   6.485   2.958   5.146
 9564TIP3    H128633   6.576   2.946   5.118
 9564TIP3    H228634   6.491   2.972   5.241
 9565TIP3   OH228635   1.399   7.101   0.683
 9565TIP3    H128636   1.431   7.075   0.596
 9565TIP3    H228637   1.476   7.131   0.730
 9566TIP3   OH228638   4.106   0.089   5.593
 9566TIP3    H128639   4.130   0.089   5.686
 9566TIP3    H228640   4.034   0.026   5.588
 9567TIP3   OH228641   8.262   6.383   5.636
 9567TIP3    H128642   8.177   6.385   5.679
 9567TIP3    H228643   8.272   6.292   5.606
 9568TIP3   OH228644   1.884   1.157   5.835
 9568TIP3    H128645   1.851   1.246   5.819
 9568TIP3    H228646   1.979   1.167   5.843
 9569TIP3   OH228647   6.733   2.179   3.837
 9569TIP3    H128648   6.775   2.196   3.753
 9569TIP3    H228649   6.698   2.264   3.864
 9570TIP3   OH228650   3.356   7.625   4.158
 9570TIP3    H128651   3.300   7.679   4.213
 9570TIP3    H228652   3.296   7.576   4.103
 9571TIP3   OH228653   0.985   4.223   5.574
 9571TIP3    H128654   0.900   4.260   5.548
 9571TIP3    H228655   1.015   4.280   5.644
 9572TIP3   OH228656   6.926   6.026   0.881
 9572TIP3    H128657   6.990   6.063   0.820
 9572TIP3    H228658   6.971   6.025   0.966
 9573TIP3   OH228659   7.176   1.160   3.540
 9573TIP3    H128660   7.107   1.169   3.606
 9573TIP3    H228661   7.217   1.247   3.536
 9574TIP3   OH228662   4.386   5.373   1.767
 9574TIP3    H128663   4.308   5.344   1.721
 9574TIP3    H228664   4.355   5.398   1.854
 9575TIP3   OH228665   6.607   2.190   1.268
 9575TIP3    H128666   6.531   2.137   1.292
 9575TIP3    H228667   6.574   2.252   1.203
 9576TIP3   OH228668   7.837   0.218   1.594
 9576TIP3    H128669   7.917   0.179   1.629
 9576TIP3    H228670   7.853   0.226   1.500
 9577TIP3   OH228671   7.994   1.689   2.108
 9577TIP3    H128672   7.971   1.597   2.122
 9577TIP3    H228673   8.084   1.696   2.139
 9578TIP3   OH228674   2.079   2.510   3.527
 9578TIP3    H128675   2.152   2.486   3.585
 9578TIP3    H228676   2.120   2.561   3.457
 9579TIP3   OH228677   4.559   6.267   2.178
 9579TIP3    H128678   4.562   6.236   2.269
 9579TIP3    H228679   4.648   6.298   2.160
 9580TIP3   OH228680   7.741   6.739   5.675
 9580TIP3    H128681   7.795   6.663   5.657
 9580TIP3    H228682   7.651   6.705   5.677
 9581TIP3   OH228683   2.351   2.750   6.152
 9581TIP3    H128684   2.299   2.811   6.100
 9581TIP3    H228685   2.358   2.672   6.097
 9582TIP3   OH228686   0.454   1.700   2.105
 9582TIP3    H128687   0.501   1.782   2.119
 9582TIP3    H228688   0.483   1.671   2.018
 9583TIP3   OH228689   0.732   2.914   1.779
 9583TIP3    H128690   0.711   3.002   1.811
 9583TIP3    H228691   0.670   2.857   1.824
 9584TIP3   OH228692   7.691   5.431   3.728
 9584TIP3    H128693   7.615   5.416   3.784
 9584TIP3    H228694   7.672   5.515   3.684
 9585TIP3   OH228695   3.696   5.086   1.719
 9585TIP3    H128696   3.714   5.134   1.800
 9585TIP3    H228697   3.631   5.140   1.674
 9586TIP3   OH228698   6.666   6.273   1.206
 9586TIP3    H128699   6.670   6.324   1.287
 9586TIP3    H228700   6.581   6.296   1.167
 9587TIP3   OH228701   4.433   6.502   2.069
 9587TIP3    H128702   4.481   6.480   1.989
 9587TIP3    H228703   4.455   6.432   2.130
 9588TIP3   OH228704   7.454   3.914   5.532
 9588TIP3    H128705   7.419   3.830   5.562
 9588TIP3    H228706   7.463   3.967   5.611
 9589TIP3   OH228707   2.217   3.778   6.748
 9589TIP3    H128708   2.311   3.775   6.760
 9589TIP3    H228709   2.187   3.846   6.808
 9590TIP3   OH228710   0.353   7.045   3.665
 9590TIP3    H128711   0.330   6.956   3.639
 9590TIP3    H228712   0.449   7.047   3.663
 9591TIP3   OH228713   4.680   1.750   6.268
 9591TIP3    H128714   4.595   1.727   6.230
 9591TIP3    H228715   4.672   1.842   6.294
 9592TIP3   OH228716   7.607   3.474   0.992
 9592TIP3    H128717   7.532   3.526   0.964
 9592TIP3    H228718   7.641   3.519   1.069
 9593TIP3   OH228719   5.097   0.143   6.200
 9593TIP3    H128720   5.129   0.102   6.119
 9593TIP3    H228721   5.002   0.132   6.196
 9594TIP3   OH228722   2.916   1.827   1.159
 9594TIP3    H128723   2.964   1.813   1.240
 9594TIP3    H228724   2.861   1.750   1.149
 9595TIP3   OH228725   8.353   1.942   6.753
 9595TIP3    H128726   8.361   1.851   6.782
 9595TIP3    H228727   8.425   1.954   6.691
 9596TIP3   OH228728   6.057   4.897   5.170
 9596TIP3    H128729   6.020   4.812   5.194
 9596TIP3    H228730   6.150   4.880   5.157
 9597TIP3   OH228731   1.173   0.752   3.376
 9597TIP3    H128732   1.082   0.737   3.348
 9597TIP3    H228733   1.218   0.779   3.296
 9598TIP3   OH228734   7.540   0.130   0.619
 9598TIP3    H128735   7.562   0.209   0.670
 9598TIP3    H228736   7.445   0.134   0.608
 9599TIP3   OH228737   1.371   4.898   3.400
 9599TIP3    H128738   1.356   4.984   3.438
 9599TIP3    H228739   1.466   4.885   3.405
 9600TIP3   OH228740   6.612   6.973   3.610
 9600TIP3    H128741   6.651   6.938   3.690
 9600TIP3    H228742   6.615   6.901   3.547
 9601TIP3   OH228743   6.720   6.707   4.989
 9601TIP3    H128744   6.788   6.641   5.003
 9601TIP3    H228745   6.641   6.669   5.028
 9602TIP3   OH228746   1.782   4.764   1.649
 9602TIP3    H128747   1.870   4.727   1.658
 9602TIP3    H228748   1.731   4.722   1.718
 9603TIP3   OH228749   1.517   2.562   4.401
 9603TIP3    H128750   1.436   2.517   4.422
 9603TIP3    H228751   1.519   2.638   4.460
 9604TIP3   OH228752   4.088   5.522   0.701
 9604TIP3    H128753   4.081   5.618   0.697
 9604TIP3    H228754   4.172   5.506   0.744
 9605TIP3   OH228755   7.380   3.184   0.425
 9605TIP3    H128756   7.422   3.270   0.416
 9605TIP3    H228757   7.315   3.196   0.494
 9606TIP3   OH228758   7.007   2.638   0.908
 9606TIP3    H128759   6.917   2.662   0.885
 9606TIP3    H228760   7.056   2.652   0.828
 9607TIP3   OH228761   1.617   1.085   2.289
 9607TIP3    H128762   1.616   1.122   2.377
 9607TIP3    H228763   1.710   1.072   2.270
 9608TIP3   OH228764   1.087   6.290   0.511
 9608TIP3    H128765   1.007   6.335   0.538
 9608TIP3    H228766   1.099   6.314   0.419
 9609TIP3   OH228767   7.692   6.281   2.303
 9609TIP3    H128768   7.709   6.285   2.397
 9609TIP3    H228769   7.626   6.212   2.293
 9610TIP3   OH228770   5.373   1.722   4.478
 9610TIP3    H128771   5.413   1.731   4.564
 9610TIP3    H228772   5.415   1.789   4.424
 9611TIP3   OH228773   5.097   6.957   6.714
 9611TIP3    H128774   5.064   7.044   6.692
 9611TIP3    H228775   5.022   6.899   6.698
 9612TIP3   OH228776   1.043   2.848   3.527
 9612TIP3    H128777   1.009   2.797   3.601
 9612TIP3    H228778   1.117   2.797   3.495
 9613TIP3   OH228779   6.644   4.619   2.716
 9613TIP3    H128780   6.601   4.690   2.669
 9613TIP3    H228781   6.733   4.651   2.731
 9614TIP3   OH228782   5.987   2.454   5.147
 9614TIP3    H128783   6.032   2.461   5.232
 9614TIP3    H228784   5.920   2.522   5.150
 9615TIP3   OH228785   1.719   5.759   3.271
 9615TIP3    H128786   1.650   5.716   3.221
 9615TIP3    H228787   1.741   5.697   3.341
 9616TIP3   OH228788   1.282   0.169   3.641
 9616TIP3    H128789   1.198   0.173   3.595
 9616TIP3    H228790   1.322   0.254   3.624
 9617TIP3   OH228791   5.256   7.710   4.832
 9617TIP3    H128792   5.226   7.739   4.745
 9617TIP3    H228793   5.329   7.651   4.814
 9618TIP3   OH228794   5.480   2.599   3.159
 9618TIP3    H128795   5.571   2.624   3.177
 9618TIP3    H228796   5.473   2.510   3.192
 9619TIP3   OH228797   7.860   2.910   1.696
 9619TIP3    H128798   7.912   2.989   1.680
 9619TIP3    H228799   7.772   2.934   1.667
 9620TIP3   OH228800   4.954   6.122   1.358
 9620TIP3    H128801   4.892   6.060   1.396
 9620TIP3    H228802   5.002   6.157   1.433
 9621TIP3   OH228803   3.268   0.921   3.266
 9621TIP3    H128804   3.230   0.935   3.353
 9621TIP3    H228805   3.355   0.887   3.283
 9622TIP3   OH228806   2.848   1.435   6.249
 9622TIP3    H128807   2.767   1.456   6.201
 9622TIP3    H228808   2.822   1.439   6.341
 9623TIP3   OH228809   5.817   5.968   1.311
 9623TIP3    H128810   5.826   5.873   1.325
 9623TIP3    H228811   5.869   6.007   1.381
 9624TIP3   OH228812   4.752   2.160   1.741
 9624TIP3    H128813   4.736   2.190   1.651
 9624TIP3    H228814   4.695   2.084   1.752
 9625TIP3   OH228815   6.921   3.894   4.587
 9625TIP3    H128816   6.943   3.844   4.665
 9625TIP3    H228817   6.874   3.832   4.531
 9626TIP3   OH228818   0.703   4.974   3.550
 9626TIP3    H128819   0.645   4.913   3.597
 9626TIP3    H228820   0.770   4.998   3.615
 9627TIP3   OH228821   0.132   6.948   2.830
 9627TIP3    H128822   0.102   6.982   2.746
 9627TIP3    H228823   0.123   7.022   2.890
 9628TIP3   OH228824   4.301   7.604   4.147
 9628TIP3    H128825   4.206   7.608   4.151
 9628TIP3    H228826   4.321   7.572   4.059
 9629TIP3   OH228827   7.652   1.595   6.155
 9629TIP3    H128828   7.694   1.520   6.112
 9629TIP3    H228829   7.669   1.582   6.248
 9630TIP3   OH228830   0.045   2.348   3.870
 9630TIP3    H128831   0.069   2.436   3.899
 9630TIP3    H228832  -0.006   2.362   3.790
 9631TIP3   OH228833   7.655   0.021   3.332
 9631TIP3    H128834   7.678   0.005   3.241
 9631TIP3    H228835   7.739   0.029   3.377
 9632TIP3   OH228836   2.463   4.684   0.320
 9632TIP3    H128837   2.505   4.724   0.244
 9632TIP3    H228838   2.451   4.592   0.296
 9633TIP3   OH228839   8.065   2.051   1.084
 9633TIP3    H128840   7.983   2.084   1.122
 9633TIP3    H228841   8.043   1.964   1.051
 9634TIP3   OH228842   5.278   3.843   3.925
 9634TIP3    H128843   5.364   3.855   3.965
 9634TIP3    H228844   5.287   3.879   3.837
 9635TIP3   OH228845   3.802   7.801   0.776
 9635TIP3    H128846   3.817   7.895   0.779
 9635TIP3    H228847   3.876   7.766   0.727
 9636TIP3   OH228848   4.632   4.188   3.064
 9636TIP3    H128849   4.668   4.276   3.081
 9636TIP3    H228850   4.668   4.134   3.134
 9637TIP3   OH228851   2.677   7.251   4.586
 9637TIP3    H128852   2.656   7.202   4.665
 9637TIP3    H228853   2.596   7.252   4.536
 9638TIP3   OH228854   5.519   5.580   2.447
 9638TIP3    H128855   5.540   5.601   2.538
 9638TIP3    H228856   5.603   5.586   2.401
 9639TIP3   OH228857   5.992   3.988   5.185
 9639TIP3    H128858   6.030   4.004   5.272
 9639TIP3    H228859   6.025   3.901   5.161
 9640TIP3   OH228860   8.167   4.566   4.411
 9640TIP3    H128861   8.215   4.503   4.464
 9640TIP3    H228862   8.219   4.576   4.332
 9641TIP3   OH228863   2.735   4.346   2.782
 9641TIP3    H128864   2.809   4.405   2.795
 9641TIP3    H228865   2.768   4.278   2.723
 9642TIP3   OH228866   2.407   5.130   1.405
 9642TIP3    H128867   2.458   5.205   1.374
 9642TIP3    H228868   2.463   5.088   1.469
 9643TIP3   OH228869   1.494   4.233   2.300
 9643TIP3    H128870   1.556   4.199   2.365
 9643TIP3    H228871   1.469   4.319   2.334
 9644TIP3   OH228872   1.358   5.213   2.955
 9644TIP3    H128873   1.380   5.281   3.019
 9644TIP3    H228874   1.342   5.261   2.874
 9645TIP3   OH228875   5.438   0.195   6.104
 9645TIP3    H128876   5.457   0.216   6.013
 9645TIP3    H228877   5.389   0.112   6.100
 9646TIP3   OH228878   0.836   7.388   5.591
 9646TIP3    H128879   0.917   7.346   5.561
 9646TIP3    H228880   0.819   7.456   5.526
 9647TIP3   OH228881   6.387   5.965   3.446
 9647TIP3    H128882   6.317   6.027   3.470
 9647TIP3    H228883   6.357   5.882   3.482
 9648TIP3   OH228884   1.150   1.594   1.373
 9648TIP3    H128885   1.156   1.526   1.439
 9648TIP3    H228886   1.230   1.646   1.386
 9649TIP3   OH228887   1.600   7.306   2.218
 9649TIP3    H128888   1.560   7.287   2.303
 9649TIP3    H228889   1.537   7.362   2.174
 9650TIP3   OH228890   6.423   6.856   6.433
 9650TIP3    H128891   6.504   6.877   6.385
 9650TIP3    H228892   6.445   6.778   6.483
 9651TIP3   OH228893   0.931   2.257   6.845
 9651TIP3    H128894   0.854   2.205   6.821
 9651TIP3    H228895   0.919   2.340   6.800
 9652TIP3   OH228896   2.577   5.026   3.561
 9652TIP3    H128897   2.590   5.117   3.535
 9652TIP3    H228898   2.665   4.988   3.563
 9653TIP3   OH228899   7.773   1.573   1.491
 9653TIP3    H128900   7.812   1.654   1.458
 9653TIP3    H228901   7.683   1.596   1.511
 9654TIP3   OH228902   7.139   4.888   5.954
 9654TIP3    H128903   7.082   4.823   5.913
 9654TIP3    H228904   7.079   4.956   5.985
 9655TIP3   OH228905   8.288   2.058   2.812
 9655TIP3    H128906   8.284   2.148   2.844
 9655TIP3    H228907   8.330   2.065   2.726
 9656TIP3   OH228908   4.291   0.748   3.044
 9656TIP3    H128909   4.273   0.708   3.129
 9656TIP3    H228910   4.378   0.786   3.053
 9657TIP3   OH228911   7.370   7.796   3.221
 9657TIP3    H128912   7.395   7.733   3.289
 9657TIP3    H228913   7.407   7.761   3.140
 9658TIP3   OH228914   2.725   4.633   1.253
 9658TIP3    H128915   2.723   4.599   1.164
 9658TIP3    H228916   2.818   4.643   1.274
 9659TIP3   OH228917   4.926   4.227   3.857
 9659TIP3    H128918   4.867   4.298   3.832
 9659TIP3    H228919   4.893   4.150   3.812
 9660TIP3   OH228920   4.458   4.159   5.771
 9660TIP3    H128921   4.429   4.167   5.680
 9660TIP3    H228922   4.437   4.244   5.810
 9661TIP3   OH228923   5.027   4.557   3.610
 9661TIP3    H128924   5.025   4.622   3.540
 9661TIP3    H228925   5.105   4.505   3.592
 9662TIP3   OH228926   2.443   6.784   1.124
 9662TIP3    H128927   2.538   6.793   1.134
 9662TIP3    H228928   2.417   6.725   1.195
 9663TIP3   OH228929   6.984   2.497   0.195
 9663TIP3    H128930   6.996   2.563   0.264
 9663TIP3    H228931   6.938   2.544   0.125
 9664TIP3   OH228932   4.762   1.759   4.002
 9664TIP3    H128933   4.782   1.836   4.056
 9664TIP3    H228934   4.682   1.783   3.956
 9665TIP3   OH228935   3.672   5.874   2.987
 9665TIP3    H128936   3.656   5.949   3.044
 9665TIP3    H228937   3.587   5.857   2.946
 9666TIP3   OH228938   0.175   7.204   3.006
 9666TIP3    H128939   0.118   7.224   2.932
 9666TIP3    H228940   0.155   7.271   3.071
 9667TIP3   OH228941   1.381   7.342   0.900
 9667TIP3    H128942   1.351   7.307   0.816
 9667TIP3    H228943   1.345   7.282   0.965
 9668TIP3   OH228944   7.316   0.172   2.848
 9668TIP3    H128945   7.409   0.191   2.844
 9668TIP3    H228946   7.285   0.218   2.926
 9669TIP3   OH228947   5.434   3.911   5.542
 9669TIP3    H128948   5.428   3.859   5.462
 9669TIP3    H228949   5.379   3.865   5.605
 9670TIP3   OH228950   5.186   3.823   6.432
 9670TIP3    H128951   5.154   3.820   6.523
 9670TIP3    H228952   5.262   3.764   6.432
 9671TIP3   OH228953   7.273   2.882   0.898
 9671TIP3    H128954   7.253   2.824   0.971
 9671TIP3    H228955   7.349   2.844   0.856
 9672TIP3   OH228956   6.641   4.939   5.458
 9672TIP3    H128957   6.591   5.016   5.485
 9672TIP3    H228958   6.681   4.965   5.375
 9673TIP3   OH228959   5.230   1.485   1.402
 9673TIP3    H128960   5.303   1.545   1.395
 9673TIP3    H228961   5.167   1.516   1.337
 9674TIP3   OH228962   7.336   3.055   1.185
 9674TIP3    H128963   7.328   3.089   1.096
 9674TIP3    H228964   7.269   2.987   1.191
 9675TIP3   OH228965   4.424   4.181   3.274
 9675TIP3    H128966   4.374   4.106   3.304
 9675TIP3    H228967   4.503   4.144   3.234
 9676TIP3   OH228968   2.458   6.281   1.757
 9676TIP3    H128969   2.491   6.239   1.677
 9676TIP3    H228970   2.429   6.209   1.812
 9677TIP3   OH228971   7.080   6.351   2.510
 9677TIP3    H128972   7.055   6.406   2.437
 9677TIP3    H228973   7.070   6.406   2.587
 9678TIP3   OH228974   1.353   2.671   5.469
 9678TIP3    H128975   1.315   2.738   5.526
 9678TIP3    H228976   1.290   2.660   5.399
 9679TIP3   OH228977   0.081   2.861   2.136
 9679TIP3    H128978   0.008   2.920   2.155
 9679TIP3    H228979   0.152   2.919   2.108
 9680TIP3   OH228980   6.922   0.099   6.817
 9680TIP3    H128981   7.011   0.112   6.851
 9680TIP3    H228982   6.934   0.051   6.735
 9681TIP3   OH228983   1.768   0.749   1.010
 9681TIP3    H128984   1.706   0.734   1.082
 9681TIP3    H228985   1.768   0.844   0.998
 9682TIP3   OH228986   1.160   7.058   0.569
 9682TIP3    H128987   1.205   6.995   0.513
 9682TIP3    H228988   1.223   7.078   0.638
 9683TIP3   OH228989   2.555   1.900   0.186
 9683TIP3    H128990   2.524   1.845   0.114
 9683TIP3    H228991   2.600   1.838   0.244
 9684TIP3   OH228992   6.139   4.701   0.613
 9684TIP3    H128993   6.046   4.691   0.632
 9684TIP3    H228994   6.142   4.746   0.528
 9685TIP3   OH228995   2.089   1.003   6.728
 9685TIP3    H128996   2.018   0.965   6.677
 9685TIP3    H228997   2.148   0.929   6.746
 9686TIP3   OH228998   7.977   1.359   6.003
 9686TIP3    H128999   7.888   1.364   5.969
 9686TIP3    H229000   7.975   1.410   6.084
 9687TIP3   OH229001   5.578   2.937   4.975
 9687TIP3    H129002   5.645   2.968   4.913
 9687TIP3    H229003   5.628   2.909   5.052
 9688TIP3   OH229004   7.426   4.833   5.982
 9688TIP3    H129005   7.486   4.901   6.012
 9688TIP3    H229006   7.345   4.880   5.961
 9689TIP3   OH229007   8.037   7.609   1.867
 9689TIP3    H129008   8.097   7.658   1.923
 9689TIP3    H229009   8.051   7.646   1.780
 9690TIP3   OH229010   4.710   6.397   6.691
 9690TIP3    H129011   4.772   6.403   6.764
 9690TIP3    H229012   4.673   6.485   6.684
 9691TIP3   OH229013   6.903   7.154   5.861
 9691TIP3    H129014   6.989   7.125   5.829
 9691TIP3    H229015   6.853   7.073   5.871
 9692TIP3   OH229016   1.521   0.485   1.828
 9692TIP3    H129017   1.460   0.456   1.896
 9692TIP3    H229018   1.572   0.554   1.869
 9693TIP3   OH229019   2.445   7.032   3.393
 9693TIP3    H129020   2.440   7.126   3.373
 9693TIP3    H229021   2.385   7.020   3.467
 9694TIP3   OH229022   3.262   7.213   4.938
 9694TIP3    H129023   3.324   7.238   4.869
 9694TIP3    H229024   3.229   7.296   4.971
 9695TIP3   OH229025   0.106   3.656   6.023
 9695TIP3    H129026   0.112   3.634   5.931
 9695TIP3    H229027   0.052   3.587   6.062
 9696TIP3   OH229028   6.701   5.815   0.012
 9696TIP3    H129029   6.668   5.790  -0.074
 9696TIP3    H229030   6.718   5.732   0.056
 9697TIP3   OH229031   4.760   1.180   2.981
 9697TIP3    H129032   4.670   1.182   3.012
 9697TIP3    H229033   4.753   1.152   2.889
 9698TIP3   OH229034   6.217   3.399   6.789
 9698TIP3    H129035   6.127   3.370   6.802
 9698TIP3    H229036   6.270   3.333   6.834
 9699TIP3   OH229037   4.965   4.579   1.347
 9699TIP3    H129038   4.961   4.488   1.376
 9699TIP3    H229039   4.994   4.574   1.256
 9700TIP3   OH229040   6.781   0.464   5.495
 9700TIP3    H129041   6.725   0.537   5.524
 9700TIP3    H229042   6.796   0.412   5.573
 9701TIP3   OH229043   5.095   5.462   6.382
 9701TIP3    H129044   5.127   5.372   6.379
 9701TIP3    H229045   5.173   5.516   6.371
 9702TIP3   OH229046   0.136   2.646   0.118
 9702TIP3    H129047   0.124   2.567   0.171
 9702TIP3    H229048   0.082   2.712   0.162
 9703TIP3   OH229049   0.367   7.149   3.210
 9703TIP3    H129050   0.417   7.132   3.130
 9703TIP3    H229051   0.277   7.130   3.187
 9704TIP3   OH229052   0.880   1.559   6.513
 9704TIP3    H129053   0.843   1.479   6.551
 9704TIP3    H229054   0.960   1.575   6.563
 9705TIP3   OH229055   0.441   1.551   2.822
 9705TIP3    H129056   0.409   1.518   2.738
 9705TIP3    H229057   0.361   1.568   2.872
 9706TIP3   OH229058   0.804   0.195   2.294
 9706TIP3    H129059   0.731   0.257   2.286
 9706TIP3    H229060   0.826   0.197   2.387
 9707TIP3   OH229061   4.304   2.055   6.244
 9707TIP3    H129062   4.377   2.098   6.200
 9707TIP3    H229063   4.342   1.976   6.282
 9708TIP3   OH229064   3.177   7.858   2.701
 9708TIP3    H129065   3.251   7.917   2.686
 9708TIP3    H229066   3.126   7.864   2.620
 9709TIP3   OH229067   0.611   4.950   4.781
 9709TIP3    H129068   0.692   4.928   4.734
 9709TIP3    H229069   0.559   5.000   4.718
 9710TIP3   OH229070   1.431   2.095   5.478
 9710TIP3    H129071   1.510   2.143   5.502
 9710TIP3    H229072   1.455   2.050   5.397
 9711TIP3   OH229073   1.772   5.021   1.897
 9711TIP3    H129074   1.706   5.090   1.893
 9711TIP3    H229075   1.849   5.059   1.855
 9712TIP3   OH229076   8.137   4.845   4.450
 9712TIP3    H129077   8.068   4.849   4.385
 9712TIP3    H229078   8.153   4.752   4.463
 9713TIP3   OH229079   2.166   6.264   0.792
 9713TIP3    H129080   2.206   6.262   0.879
 9713TIP3    H229081   2.219   6.326   0.742
 9714TIP3   OH229082   4.597   5.754   3.536
 9714TIP3    H129083   4.511   5.796   3.537
 9714TIP3    H229084   4.599   5.704   3.454
 9715TIP3   OH229085   7.605   6.235   5.959
 9715TIP3    H129086   7.575   6.179   6.031
 9715TIP3    H229087   7.570   6.322   5.981
 9716TIP3   OH229088   6.467   2.754   3.825
 9716TIP3    H129089   6.447   2.783   3.914
 9716TIP3    H229090   6.560   2.732   3.828
 9717TIP3   OH229091   2.361   0.754   3.135
 9717TIP3    H129092   2.435   0.781   3.189
 9717TIP3    H229093   2.399   0.737   3.048
 9718TIP3   OH229094   7.538   5.910   5.581
 9718TIP3    H129095   7.443   5.915   5.585
 9718TIP3    H229096   7.567   5.921   5.671
 9719TIP3   OH229097   1.907   2.024   4.698
 9719TIP3    H129098   1.915   1.969   4.620
 9719TIP3    H229099   1.964   1.981   4.763
 9720TIP3   OH229100   2.361   0.032   2.070
 9720TIP3    H129101   2.317  -0.048   2.097
 9720TIP3    H229102   2.440   0.002   2.024
 9721TIP3   OH229103   0.838   7.518   4.416
 9721TIP3    H129104   0.848   7.478   4.330
 9721TIP3    H229105   0.907   7.479   4.469
 9722TIP3   OH229106   0.103   6.852   3.134
 9722TIP3    H129107   0.119   6.913   3.206
 9722TIP3    H229108   0.023   6.884   3.092
 9723TIP3   OH229109   0.317   2.860   3.102
 9723TIP3    H129110   0.402   2.864   3.059
 9723TIP3    H229111   0.261   2.918   3.051
 9724TIP3   OH229112   2.838   0.843   1.366
 9724TIP3    H129113   2.781   0.791   1.309
 9724TIP3    H229114   2.797   0.836   1.453
 9725TIP3   OH229115   5.579   4.052   4.559
 9725TIP3    H129116   5.602   4.092   4.643
 9725TIP3    H229117   5.514   3.985   4.581
 9726TIP3   OH229118   6.640   6.165   2.062
 9726TIP3    H129119   6.719   6.198   2.105
 9726TIP3    H229120   6.619   6.231   1.996
 9727TIP3   OH229121   3.198   5.508   3.404
 9727TIP3    H129122   3.238   5.558   3.333
 9727TIP3    H229123   3.245   5.536   3.483
 9728TIP3   OH229124   2.629   0.076   6.051
 9728TIP3    H129125   2.596   0.069   5.962
 9728TIP3    H229126   2.722   0.056   6.044
 9729TIP3   OH229127   4.126   6.336   3.622
 9729TIP3    H129128   4.177   6.277   3.566
 9729TIP3    H229129   4.042   6.345   3.578
 9730TIP3   OH229130   3.866   5.202   0.089
 9730TIP3    H129131   3.903   5.136   0.029
 9730TIP3    H229132   3.893   5.173   0.176
 9731TIP3   OH229133   2.330   3.977   3.240
 9731TIP3    H129134   2.389   3.908   3.210
 9731TIP3    H229135   2.243   3.938   3.237
 9732TIP3   OH229136   6.980   3.662   5.602
 9732TIP3    H129137   6.934   3.659   5.686
 9732TIP3    H229138   6.969   3.574   5.566
 9733TIP3   OH229139   0.201   3.023   0.609
 9733TIP3    H129140   0.280   2.991   0.652
 9733TIP3    H229141   0.232   3.077   0.537
 9734TIP3   OH229142   5.153   5.110   3.277
 9734TIP3    H129143   5.090   5.182   3.280
 9734TIP3    H229144   5.159   5.088   3.184
 9735TIP3   OH229145   4.687   2.051   4.865
 9735TIP3    H129146   4.672   2.087   4.777
 9735TIP3    H229147   4.782   2.054   4.876
 9736TIP3   OH229148   2.334   0.580   4.532
 9736TIP3    H129149   2.312   0.530   4.611
 9736TIP3    H229150   2.427   0.600   4.542
 9737TIP3   OH229151   3.903   4.787   4.560
 9737TIP3    H129152   3.914   4.825   4.473
 9737TIP3    H229153   3.896   4.693   4.544
 9738TIP3   OH229154   4.031   1.844   5.390
 9738TIP3    H129155   3.946   1.869   5.355
 9738TIP3    H229156   4.076   1.803   5.317
 9739TIP3   OH229157   2.716   5.709   3.044
 9739TIP3    H129158   2.707   5.618   3.073
 9739TIP3    H229159   2.797   5.740   3.087
 9740TIP3   OH229160   6.327   0.080   5.718
 9740TIP3    H129161   6.366   0.104   5.802
 9740TIP3    H229162   6.370   0.136   5.654
 9741TIP3   OH229163   1.669   6.780   4.342
 9741TIP3    H129164   1.719   6.839   4.285
 9741TIP3    H229165   1.599   6.834   4.377
 9742TIP3   OH229166   5.669   5.180   6.567
 9742TIP3    H129167   5.733   5.218   6.628
 9742TIP3    H229168   5.601   5.144   6.623
 9743TIP3   OH229169   7.574   7.408   6.144
 9743TIP3    H129170   7.481   7.420   6.125
 9743TIP3    H229171   7.584   7.314   6.155
 9744TIP3   OH229172   5.653   3.086   3.346
 9744TIP3    H129173   5.690   3.173   3.332
 9744TIP3    H229174   5.645   3.048   3.258
 9745TIP3   OH229175   0.656   5.860   6.378
 9745TIP3    H129176   0.617   5.872   6.291
 9745TIP3    H229177   0.590   5.812   6.427
 9746TIP3   OH229178   5.307   4.165   1.739
 9746TIP3    H129179   5.315   4.174   1.644
 9746TIP3    H229180   5.357   4.087   1.760
 9747TIP3   OH229181   4.302   7.878   3.970
 9747TIP3    H129182   4.337   7.810   3.912
 9747TIP3    H229183   4.221   7.840   4.006
 9748TIP3   OH229184   8.006   6.914   6.802
 9748TIP3    H129185   7.982   6.998   6.763
 9748TIP3    H229186   8.092   6.930   6.841
 9749TIP3   OH229187   3.119   3.795   4.964
 9749TIP3    H129188   3.054   3.733   4.931
 9749TIP3    H229189   3.188   3.796   4.897
 9750TIP3   OH229190   8.311   0.732   0.935
 9750TIP3    H129191   8.352   0.655   0.896
 9750TIP3    H229192   8.377   0.765   0.997
 9751TIP3   OH229193   3.764   1.712   1.415
 9751TIP3    H129194   3.775   1.619   1.394
 9751TIP3    H229195   3.845   1.736   1.461
 9752TIP3   OH229196   4.894   1.919   3.604
 9752TIP3    H129197   4.908   1.824   3.599
 9752TIP3    H229198   4.914   1.942   3.694
 9753TIP3   OH229199   2.653   7.248   2.220
 9753TIP3    H129200   2.615   7.324   2.177
 9753TIP3    H229201   2.610   7.173   2.178
 9754TIP3   OH229202   6.626   2.452   3.847
 9754TIP3    H129203   6.685   2.516   3.808
 9754TIP3    H229204   6.610   2.485   3.936
 9755TIP3   OH229205   5.228   0.492   1.738
 9755TIP3    H129206   5.270   0.525   1.659
 9755TIP3    H229207   5.297   0.441   1.782
 9756TIP3   OH229208   2.809   1.222   4.494
 9756TIP3    H129209   2.722   1.258   4.508
 9756TIP3    H229210   2.841   1.266   4.416
 9757TIP3   OH229211   7.555   4.984   3.417
 9757TIP3    H129212   7.570   5.009   3.325
 9757TIP3    H229213   7.461   4.992   3.429
 9758TIP3   OH229214   4.920   1.070   6.390
 9758TIP3    H129215   4.864   1.002   6.352
 9758TIP3    H229216   4.996   1.075   6.332
 9759TIP3   OH229217   4.500   5.417   2.480
 9759TIP3    H129218   4.471   5.507   2.467
 9759TIP3    H229219   4.469   5.394   2.568
 9760TIP3   OH229220   5.362   6.863   3.352
 9760TIP3    H129221   5.408   6.945   3.370
 9760TIP3    H229222   5.432   6.798   3.341
 9761TIP3   OH229223   1.957   5.084   1.694
 9761TIP3    H129224   2.008   5.020   1.644
 9761TIP3    H229225   1.903   5.128   1.628
 9762TIP3   OH229226   3.487   2.407   6.113
 9762TIP3    H129227   3.515   2.434   6.025
 9762TIP3    H229228   3.402   2.450   6.125
 9763TIP3   OH229229   5.898   7.449   4.114
 9763TIP3    H129230   5.989   7.423   4.100
 9763TIP3    H229231   5.889   7.457   4.209
 9764TIP3   OH229232   6.947   4.669   3.190
 9764TIP3    H129233   6.978   4.680   3.280
 9764TIP3    H229234   7.024   4.685   3.136
 9765TIP3   OH229235   5.767   2.862   5.531
 9765TIP3    H129236   5.725   2.806   5.465
 9765TIP3    H229237   5.851   2.819   5.549
 9766TIP3   OH229238   2.185   1.330   3.524
 9766TIP3    H129239   2.160   1.316   3.433
 9766TIP3    H229240   2.264   1.383   3.520
 9767TIP3   OH229241   4.485   6.569   5.527
 9767TIP3    H129242   4.409   6.538   5.477
 9767TIP3    H229243   4.453   6.576   5.617
 9768TIP3   OH229244   8.275   2.351   4.309
 9768TIP3    H129245   8.354   2.316   4.268
 9768TIP3    H229246   8.243   2.417   4.247
 9769TIP3   OH229247   0.891   1.624   1.336
 9769TIP3    H129248   0.984   1.603   1.335
 9769TIP3    H229249   0.856   1.579   1.258
 9770TIP3   OH229250   1.720   1.685   5.121
 9770TIP3    H129251   1.630   1.675   5.151
 9770TIP3    H229252   1.713   1.705   5.028
 9771TIP3   OH229253   8.329   4.595   4.201
 9771TIP3    H129254   8.308   4.684   4.170
 9771TIP3    H229255   8.420   4.601   4.230
 9772TIP3   OH229256   3.107   2.514   0.606
 9772TIP3    H129257   3.091   2.430   0.563
 9772TIP3    H229258   3.125   2.575   0.535
 9773TIP3   OH229259   6.565   5.611   0.348
 9773TIP3    H129260   6.611   5.629   0.430
 9773TIP3    H229261   6.473   5.630   0.367
 9774TIP3   OH229262   1.409   0.016   5.119
 9774TIP3    H129263   1.332   0.072   5.130
 9774TIP3    H229264   1.480   0.064   5.160
 9775TIP3   OH229265   1.124   0.040   5.841
 9775TIP3    H129266   1.177   0.096   5.783
 9775TIP3    H229267   1.043   0.089   5.854
 9776TIP3   OH229268   4.256   3.683   0.902
 9776TIP3    H129269   4.240   3.765   0.855
 9776TIP3    H229270   4.350   3.685   0.922
 9777TIP3   OH229271   3.829   0.505   3.979
 9777TIP3    H129272   3.901   0.551   3.936
 9777TIP3    H229273   3.871   0.429   4.020
 9778TIP3   OH229274   0.693   3.466   1.919
 9778TIP3    H129275   0.663   3.517   1.994
 9778TIP3    H229276   0.625   3.479   1.852
 9779TIP3   OH229277   0.384   6.397   5.470
 9779TIP3    H129278   0.316   6.435   5.526
 9779TIP3    H229279   0.399   6.310   5.506
 9780TIP3   OH229280   4.990   6.985   3.078
 9780TIP3    H129281   4.977   6.937   3.160
 9780TIP3    H229282   4.901   7.007   3.049
 9781TIP3   OH229283   6.221   3.386   4.406
 9781TIP3    H129284   6.174   3.303   4.399
 9781TIP3    H229285   6.275   3.376   4.484
 9782TIP3   OH229286   6.886   2.747   4.202
 9782TIP3    H129287   6.940   2.781   4.130
 9782TIP3    H229288   6.894   2.652   4.194
 9783TIP3   OH229289   7.162   1.340   2.946
 9783TIP3    H129290   7.154   1.256   2.991
 9783TIP3    H229291   7.072   1.365   2.927
 9784TIP3   OH229292   3.432   6.737   5.327
 9784TIP3    H129293   3.383   6.704   5.251
 9784TIP3    H229294   3.407   6.678   5.398
 9785TIP3   OH229295   1.349   0.471   5.968
 9785TIP3    H129296   1.339   0.413   6.044
 9785TIP3    H229297   1.266   0.520   5.964
 9786TIP3   OH229298   1.938   0.277   5.052
 9786TIP3    H129299   1.942   0.351   5.113
 9786TIP3    H229300   1.934   0.200   5.109
 9787TIP3   OH229301   5.284   3.539   4.413
 9787TIP3    H129302   5.303   3.610   4.476
 9787TIP3    H229303   5.191   3.548   4.394
 9788TIP3   OH229304   7.715   2.976   2.666
 9788TIP3    H129305   7.703   2.907   2.601
 9788TIP3    H229306   7.629   3.016   2.674
 9789TIP3   OH229307   4.448   4.959   3.198
 9789TIP3    H129308   4.434   4.864   3.192
 9789TIP3    H229309   4.501   4.980   3.122
 9790TIP3   OH229310   5.479   6.117   3.440
 9790TIP3    H129311   5.467   6.072   3.524
 9790TIP3    H229312   5.501   6.207   3.464
 9791TIP3   OH229313   6.836   0.306   4.505
 9791TIP3    H129314   6.826   0.334   4.596
 9791TIP3    H229315   6.928   0.282   4.497
 9792TIP3   OH229316   0.199   7.185   5.148
 9792TIP3    H129317   0.120   7.225   5.185
 9792TIP3    H229318   0.177   7.092   5.140
 9793TIP3   OH229319   3.402   4.903   2.065
 9793TIP3    H129320   3.433   4.913   1.975
 9793TIP3    H229321   3.323   4.849   2.058
 9794TIP3   OH229322   5.472   4.311   6.733
 9794TIP3    H129323   5.534   4.238   6.724
 9794TIP3    H229324   5.395   4.272   6.774
 9795TIP3   OH229325   7.165   3.059   2.639
 9795TIP3    H129326   7.237   3.021   2.589
 9795TIP3    H229327   7.148   2.995   2.708
 9796TIP3   OH229328   2.426   6.605   3.000
 9796TIP3    H129329   2.439   6.511   2.992
 9796TIP3    H229330   2.411   6.636   2.911
 9797TIP3   OH229331   3.556   4.482   0.555
 9797TIP3    H129332   3.568   4.515   0.466
 9797TIP3    H229333   3.625   4.416   0.566
 9798TIP3   OH229334   3.587   6.699   3.007
 9798TIP3    H129335   3.503   6.731   3.039
 9798TIP3    H229336   3.581   6.708   2.912
 9799TIP3   OH229337   4.815   4.460   3.758
 9799TIP3    H129338   4.867   4.470   3.678
 9799TIP3    H229339   4.725   4.476   3.731
 9800TIP3   OH229340   2.397   5.697   0.119
 9800TIP3    H129341   2.441   5.617   0.092
 9800TIP3    H229342   2.390   5.691   0.214
 9801TIP3   OH229343   8.049   0.331   4.978
 9801TIP3    H129344   7.960   0.340   4.945
 9801TIP3    H229345   8.090   0.267   4.919
 9802TIP3   OH229346   5.474   5.656   5.710
 9802TIP3    H129347   5.379   5.664   5.713
 9802TIP3    H229348   5.503   5.680   5.798
 9803TIP3   OH229349   2.106   0.748   5.607
 9803TIP3    H129350   2.052   0.685   5.560
 9803TIP3    H229351   2.172   0.695   5.651
 9804TIP3   OH229352   7.588   2.151   3.903
 9804TIP3    H129353   7.499   2.174   3.878
 9804TIP3    H229354   7.606   2.203   3.982
 9805TIP3   OH229355   4.897   7.231   0.246
 9805TIP3    H129356   4.895   7.326   0.257
 9805TIP3    H229357   4.979   7.215   0.199
 9806TIP3   OH229358   3.634   3.556   0.938
 9806TIP3    H129359   3.628   3.633   0.995
 9806TIP3    H229360   3.667   3.590   0.855
 9807TIP3   OH229361   0.110   3.050   3.033
 9807TIP3    H129362   0.053   3.032   3.108
 9807TIP3    H229363   0.068   3.123   2.988
 9808TIP3   OH229364   5.160   1.976   4.625
 9808TIP3    H129365   5.112   2.048   4.666
 9808TIP3    H229366   5.158   1.996   4.532
 9809TIP3   OH229367   4.396   7.632   3.856
 9809TIP3    H129368   4.487   7.605   3.872
 9809TIP3    H229369   4.358   7.560   3.805
 9810TIP3   OH229370   0.824   3.131   0.331
 9810TIP3    H129371   0.878   3.068   0.379
 9810TIP3    H229372   0.884   3.173   0.270
 9811TIP3   OH229373   1.421   0.634   2.039
 9811TIP3    H129374   1.483   0.700   2.008
 9811TIP3    H229375   1.432   0.633   2.134
 9812TIP3   OH229376   2.606   3.621   3.558
 9812TIP3    H129377   2.559   3.614   3.475
 9812TIP3    H229378   2.605   3.714   3.579
 9813TIP3   OH229379   7.354   7.153   4.195
 9813TIP3    H129380   7.349   7.076   4.139
 9813TIP3    H229381   7.430   7.202   4.163
 9814TIP3   OH229382   0.550   1.777   6.138
 9814TIP3    H129383   0.591   1.860   6.163
 9814TIP3    H229384   0.620   1.726   6.098
 9815TIP3   OH229385   0.225   5.867   5.697
 9815TIP3    H129386   0.177   5.944   5.666
 9815TIP3    H229387   0.159   5.799   5.707
 9816TIP3   OH229388   7.107   7.509   2.140
 9816TIP3    H129389   7.019   7.498   2.105
 9816TIP3    H229390   7.098   7.574   2.209
 9817TIP3   OH229391   2.187   2.629   5.243
 9817TIP3    H129392   2.153   2.541   5.228
 9817TIP3    H229393   2.280   2.615   5.264
 9818TIP3   OH229394   3.567   6.469   0.459
 9818TIP3    H129395   3.621   6.393   0.482
 9818TIP3    H229396   3.538   6.505   0.543
 9819TIP3   OH229397   1.928   5.646   0.213
 9819TIP3    H129398   1.920   5.551   0.208
 9819TIP3    H229399   1.850   5.679   0.168
 9820TIP3   OH229400   1.123   4.628   1.288
 9820TIP3    H129401   1.065   4.702   1.271
 9820TIP3    H229402   1.207   4.668   1.312
 9821TIP3   OH229403   4.992   5.600   0.976
 9821TIP3    H129404   4.933   5.558   1.038
 9821TIP3    H229405   4.942   5.606   0.895
 9822TIP3   OH229406   0.815   2.361   2.223
 9822TIP3    H129407   0.769   2.340   2.141
 9822TIP3    H229408   0.752   2.411   2.274
 9823TIP3   OH229409   7.315   5.017   3.639
 9823TIP3    H129410   7.352   4.940   3.681
 9823TIP3    H229411   7.367   5.090   3.674
 9824TIP3   OH229412   8.162   4.580   6.460
 9824TIP3    H129413   8.073   4.567   6.426
 9824TIP3    H229414   8.205   4.633   6.393
 9825TIP3   OH229415   7.113   1.479   0.856
 9825TIP3    H129416   7.041   1.417   0.864
 9825TIP3    H229417   7.148   1.463   0.768
 9826TIP3   OH229418   8.258   7.184   0.966
 9826TIP3    H129419   8.338   7.141   0.935
 9826TIP3    H229420   8.238   7.141   1.049
 9827TIP3   OH229421   0.826   6.269   0.164
 9827TIP3    H129422   0.878   6.346   0.188
 9827TIP3    H229423   0.874   6.230   0.091
 9828TIP3   OH229424   1.635   5.587   3.930
 9828TIP3    H129425   1.702   5.595   3.998
 9828TIP3    H229426   1.553   5.610   3.974
 9829TIP3   OH229427   8.086   0.784   2.600
 9829TIP3    H129428   8.063   0.857   2.541
 9829TIP3    H229429   8.070   0.706   2.548
 9830TIP3   OH229430   8.215   1.513   3.667
 9830TIP3    H129431   8.199   1.422   3.644
 9830TIP3    H229432   8.157   1.531   3.741
 9831TIP3   OH229433   5.750   0.139   0.656
 9831TIP3    H129434   5.824   0.092   0.617
 9831TIP3    H229435   5.674   0.089   0.629
 9832TIP3   OH229436   2.370   0.638   3.966
 9832TIP3    H129437   2.413   0.615   4.049
 9832TIP3    H229438   2.359   0.733   3.972
 9833TIP3   OH229439   2.072   0.211   6.650
 9833TIP3    H129440   2.140   0.149   6.676
 9833TIP3    H229441   2.068   0.274   6.721
 9834TIP3   OH229442   3.791   1.357   0.290
 9834TIP3    H129443   3.884   1.362   0.269
 9834TIP3    H229444   3.784   1.396   0.377
 9835TIP3   OH229445   6.276   7.203   5.452
 9835TIP3    H129446   6.252   7.217   5.544
 9835TIP3    H229447   6.278   7.290   5.414
 9836TIP3   OH229448   3.710   5.758   4.168
 9836TIP3    H129449   3.696   5.812   4.246
 9836TIP3    H229450   3.805   5.741   4.169
 9837TIP3   OH229451   3.843   0.624   1.545
 9837TIP3    H129452   3.839   0.634   1.640
 9837TIP3    H229453   3.927   0.580   1.529
 9838TIP3   OH229454   6.179   6.538   1.442
 9838TIP3    H129455   6.167   6.604   1.510
 9838TIP3    H229456   6.194   6.457   1.489
 9839TIP3   OH229457   0.276   5.444   5.416
 9839TIP3    H129458   0.202   5.386   5.399
 9839TIP3    H229459   0.304   5.421   5.505
 9840TIP3   OH229460   2.079   0.154   5.487
 9840TIP3    H129461   2.113   0.227   5.434
 9840TIP3    H229462   2.094   0.181   5.577
 9841TIP3   OH229463   6.126   1.770   5.603
 9841TIP3    H129464   6.030   1.770   5.612
 9841TIP3    H229465   6.153   1.854   5.638
 9842TIP3   OH229466   3.378   0.567   2.296
 9842TIP3    H129467   3.432   0.631   2.342
 9842TIP3    H229468   3.393   0.584   2.203
 9843TIP3   OH229469   7.455   1.257   0.132
 9843TIP3    H129470   7.507   1.291   0.205
 9843TIP3    H229471   7.518   1.246   0.061
 9844TIP3   OH229472   6.494   5.280   4.061
 9844TIP3    H129473   6.485   5.345   4.131
 9844TIP3    H229474   6.559   5.318   4.002
 9845TIP3   OH229475   2.124   3.232   2.152
 9845TIP3    H129476   2.055   3.260   2.093
 9845TIP3    H229477   2.160   3.314   2.187
 9846TIP3   OH229478   7.599   1.361   0.392
 9846TIP3    H129479   7.588   1.429   0.458
 9846TIP3    H229480   7.617   1.282   0.442
 9847TIP3   OH229481   3.208   7.660   2.268
 9847TIP3    H129482   3.170   7.619   2.190
 9847TIP3    H229483   3.302   7.647   2.258
 9848TIP3   OH229484   1.476   3.937   0.890
 9848TIP3    H129485   1.402   3.929   0.830
 9848TIP3    H229486   1.461   4.020   0.935
 9849TIP3   OH229487   5.209   1.994   5.495
 9849TIP3    H129488   5.172   2.025   5.412
 9849TIP3    H229489   5.141   1.938   5.532
 9850TIP3   OH229490   7.699   0.109   6.050
 9850TIP3    H129491   7.643   0.067   5.984
 9850TIP3    H229492   7.786   0.072   6.034
 9851TIP3   OH229493   5.147   0.908   6.055
 9851TIP3    H129494   5.107   0.866   5.979
 9851TIP3    H229495   5.229   0.945   6.022
 9852TIP3   OH229496   2.612   3.903   3.959
 9852TIP3    H129497   2.568   3.947   4.031
 9852TIP3    H229498   2.576   3.814   3.960
 9853TIP3   OH229499   3.637   1.682   4.809
 9853TIP3    H129500   3.713   1.702   4.863
 9853TIP3    H229501   3.627   1.759   4.752
 9854TIP3   OH229502   7.559   0.562   4.068
 9854TIP3    H129503   7.597   0.552   3.981
 9854TIP3    H229504   7.465   0.566   4.053
 9855TIP3   OH229505   5.902   2.525   4.135
 9855TIP3    H129506   5.970   2.584   4.168
 9855TIP3    H229507   5.853   2.499   4.213
 9856TIP3   OH229508   7.449   2.666   3.307
 9856TIP3    H129509   7.465   2.702   3.220
 9856TIP3    H229510   7.498   2.584   3.309
 9857TIP3   OH229511   8.093   2.819   4.953
 9857TIP3    H129512   8.044   2.869   5.018
 9857TIP3    H229513   8.052   2.732   4.954
 9858TIP3   OH229514   0.006   1.405   5.252
 9858TIP3    H129515  -0.033   1.332   5.204
 9858TIP3    H229516   0.071   1.364   5.309
 9859TIP3   OH229517   5.632   3.520   5.106
 9859TIP3    H129518   5.635   3.539   5.012
 9859TIP3    H229519   5.667   3.599   5.147
 9860TIP3   OH229520   4.763   4.102   0.102
 9860TIP3    H129521   4.845   4.057   0.120
 9860TIP3    H229522   4.782   4.194   0.116
 9861TIP3   OH229523   3.258   4.811   3.974
 9861TIP3    H129524   3.282   4.901   3.952
 9861TIP3    H229525   3.341   4.768   3.993
 9862TIP3   OH229526   4.963   3.624   2.816
 9862TIP3    H129527   4.992   3.593   2.901
 9862TIP3    H229528   5.014   3.704   2.801
 9863TIP3   OH229529   4.016   7.276   2.534
 9863TIP3    H129530   4.012   7.232   2.620
 9863TIP3    H229531   3.996   7.368   2.553
 9864TIP3   OH229532   2.979   5.351   6.851
 9864TIP3    H129533   2.945   5.346   6.762
 9864TIP3    H229534   3.009   5.262   6.870
 9865TIP3   OH229535   1.135   0.332   2.457
 9865TIP3    H129536   1.217   0.380   2.446
 9865TIP3    H229537   1.069   0.400   2.469
 9866TIP3   OH229538   4.896   5.806   2.212
 9866TIP3    H129539   4.828   5.774   2.152
 9866TIP3    H229540   4.892   5.746   2.287
 9867TIP3   OH229541   2.504   2.119   4.116
 9867TIP3    H129542   2.455   2.201   4.117
 9867TIP3    H229543   2.574   2.133   4.053
 9868TIP3   OH229544   6.217   5.036   6.555
 9868TIP3    H129545   6.198   5.045   6.648
 9868TIP3    H229546   6.131   5.019   6.514
 9869TIP3   OH229547   3.247   3.142   3.641
 9869TIP3    H129548   3.321   3.203   3.651
 9869TIP3    H229549   3.261   3.101   3.556
 9870TIP3   OH229550   5.559   5.227   5.359
 9870TIP3    H129551   5.498   5.300   5.359
 9870TIP3    H229552   5.642   5.265   5.386
 9871TIP3   OH229553   5.127   3.120   4.325
 9871TIP3    H129554   5.068   3.146   4.396
 9871TIP3    H229555   5.206   3.174   4.340
 9872TIP3   OH229556   5.687   2.651   0.824
 9872TIP3    H129557   5.680   2.654   0.729
 9872TIP3    H229558   5.749   2.721   0.846
 9873TIP3   OH229559   0.508   0.145   6.460
 9873TIP3    H129560   0.530   0.171   6.549
 9873TIP3    H229561   0.519   0.050   6.459
 9874TIP3   OH229562   5.754   5.816   1.671
 9874TIP3    H129563   5.777   5.906   1.646
 9874TIP3    H229564   5.708   5.781   1.594
 9875TIP3   OH229565   0.079   5.664   2.472
 9875TIP3    H129566   0.017   5.737   2.472
 9875TIP3    H229567   0.037   5.596   2.525
 9876TIP3   OH229568   5.816   6.672   5.751
 9876TIP3    H129569   5.865   6.589   5.754
 9876TIP3    H229570   5.808   6.691   5.657
 9877TIP3   OH229571   2.431   7.653   5.930
 9877TIP3    H129572   2.371   7.579   5.927
 9877TIP3    H229573   2.515   7.618   5.902
 9878TIP3   OH229574   5.109   2.616   4.271
 9878TIP3    H129575   5.041   2.633   4.205
 9878TIP3    H229576   5.110   2.695   4.325
 9879TIP3   OH229577   1.809   2.658   1.924
 9879TIP3    H129578   1.751   2.596   1.879
 9879TIP3    H229579   1.805   2.737   1.871
 9880TIP3   OH229580   6.037   6.314   1.119
 9880TIP3    H129581   6.029   6.304   1.024
 9880TIP3    H229582   6.094   6.391   1.130
 9881TIP3   OH229583   4.347   5.463   1.000
 9881TIP3    H129584   4.285   5.494   1.066
 9881TIP3    H229585   4.302   5.389   0.958
 9882TIP3   OH229586   4.906   2.853   5.047
 9882TIP3    H129587   4.837   2.787   5.040
 9882TIP3    H229588   4.884   2.903   5.125
 9883TIP3   OH229589   6.423   7.065   6.193
 9883TIP3    H129590   6.489   7.028   6.253
 9883TIP3    H229591   6.473   7.120   6.134
 9884TIP3   OH229592   5.200   4.197   3.809
 9884TIP3    H129593   5.111   4.204   3.845
 9884TIP3    H229594   5.201   4.111   3.767
 9885TIP3   OH229595   3.604   4.219   4.087
 9885TIP3    H129596   3.692   4.246   4.115
 9885TIP3    H229597   3.587   4.139   4.137
 9886TIP3   OH229598   3.009   7.011   6.196
 9886TIP3    H129599   3.087   7.066   6.205
 9886TIP3    H229600   3.040   6.932   6.152
 9887TIP3   OH229601   2.641   2.009   4.625
 9887TIP3    H129602   2.570   1.976   4.570
 9887TIP3    H229603   2.721   1.984   4.579
 9888TIP3   OH229604   1.310   5.679   4.410
 9888TIP3    H129605   1.228   5.691   4.458
 9888TIP3    H229606   1.333   5.767   4.380
 9889TIP3   OH229607   0.062   1.528   4.873
 9889TIP3    H129608   0.086   1.619   4.860
 9889TIP3    H229609   0.106   1.481   4.802
 9890TIP3   OH229610   6.042   0.406   4.601
 9890TIP3    H129611   5.953   0.416   4.634
 9890TIP3    H229612   6.043   0.320   4.558
 9891TIP3   OH229613   7.179   5.883   2.261
 9891TIP3    H129614   7.166   5.967   2.305
 9891TIP3    H229615   7.100   5.833   2.280
 9892TIP3   OH229616   5.051   0.224   2.688
 9892TIP3    H129617   5.036   0.278   2.766
 9892TIP3    H229618   5.073   0.287   2.620
 9893TIP3   OH229619   6.807   2.095   1.030
 9893TIP3    H129620   6.859   2.141   1.096
 9893TIP3    H229621   6.724   2.077   1.074
 9894TIP3   OH229622   2.422   7.684   6.316
 9894TIP3    H129623   2.509   7.707   6.283
 9894TIP3    H229624   2.391   7.764   6.358
 9895TIP3   OH229625   1.001   3.197   1.783
 9895TIP3    H129626   1.078   3.156   1.744
 9895TIP3    H229627   0.957   3.240   1.709
 9896TIP3   OH229628   6.237   5.485   5.717
 9896TIP3    H129629   6.332   5.489   5.706
 9896TIP3    H229630   6.205   5.569   5.682
 9897TIP3   OH229631   1.792   5.037   2.305
 9897TIP3    H129632   1.815   5.123   2.271
 9897TIP3    H229633   1.824   4.975   2.239
 9898TIP3   OH229634   6.083   3.294   2.850
 9898TIP3    H129635   6.171   3.260   2.867
 9898TIP3    H229636   6.024   3.227   2.886
 9899TIP3   OH229637   1.624   6.721   3.299
 9899TIP3    H129638   1.679   6.789   3.339
 9899TIP3    H229639   1.544   6.766   3.274
 9900TIP3   OH229640   1.598   3.290   2.587
 9900TIP3    H129641   1.506   3.312   2.575
 9900TIP3    H229642   1.643   3.334   2.514
 9901TIP3   OH229643   3.316   1.183   5.208
 9901TIP3    H129644   3.298   1.244   5.280
 9901TIP3    H229645   3.357   1.236   5.140
 9902TIP3   OH229646   1.217   7.443   0.410
 9902TIP3    H129647   1.239   7.473   0.322
 9902TIP3    H229648   1.143   7.384   0.398
 9903TIP3   OH229649   3.044   1.194   3.843
 9903TIP3    H129650   3.119   1.214   3.786
 9903TIP3    H229651   2.972   1.174   3.783
 9904TIP3   OH229652   0.255   1.399   4.175
 9904TIP3    H129653   0.209   1.369   4.097
 9904TIP3    H229654   0.186   1.421   4.238
 9905TIP3   OH229655   2.216   5.556   0.858
 9905TIP3    H129656   2.224   5.645   0.890
 9905TIP3    H229657   2.164   5.565   0.778
 9906TIP3   OH229658   2.542   6.597   2.305
 9906TIP3    H129659   2.478   6.659   2.272
 9906TIP3    H229660   2.496   6.513   2.307
 9907TIP3   OH229661   2.102   3.210   4.732
 9907TIP3    H129662   2.128   3.157   4.657
 9907TIP3    H229663   2.181   3.215   4.786
 9908TIP3   OH229664   0.700   5.867   5.692
 9908TIP3    H129665   0.607   5.859   5.672
 9908TIP3    H229666   0.725   5.952   5.656
 9909TIP3   OH229667   7.648   6.196   4.510
 9909TIP3    H129668   7.696   6.232   4.585
 9909TIP3    H229669   7.630   6.271   4.454
 9910TIP3   OH229670   0.862   0.390   0.662
 9910TIP3    H129671   0.947   0.420   0.693
 9910TIP3    H229672   0.814   0.471   0.644
 9911TIP3   OH229673   0.263   5.929   3.413
 9911TIP3    H129674   0.287   5.845   3.451
 9911TIP3    H229675   0.324   5.992   3.452
 9912TIP3   OH229676   0.448   0.739   3.789
 9912TIP3    H129677   0.449   0.647   3.816
 9912TIP3    H229678   0.457   0.788   3.871
 9913TIP3   OH229679   0.413   7.529   6.303
 9913TIP3    H129680   0.447   7.442   6.326
 9913TIP3    H229681   0.318   7.522   6.317
 9914TIP3   OH229682   5.889   2.461   5.843
 9914TIP3    H129683   5.938   2.430   5.767
 9914TIP3    H229684   5.910   2.398   5.912
 9915TIP3   OH229685   5.552   3.116   1.232
 9915TIP3    H129686   5.639   3.133   1.269
 9915TIP3    H229687   5.547   3.174   1.156
 9916TIP3   OH229688   2.128   0.967   0.202
 9916TIP3    H129689   2.070   1.042   0.192
 9916TIP3    H229690   2.069   0.892   0.212
 9917TIP3   OH229691   6.504   2.340   4.942
 9917TIP3    H129692   6.420   2.385   4.949
 9917TIP3    H229693   6.563   2.407   4.907
 9918TIP3   OH229694   2.016   5.844   5.612
 9918TIP3    H129695   1.935   5.806   5.577
 9918TIP3    H229696   1.987   5.917   5.666
 9919TIP3   OH229697   6.614   5.095   6.796
 9919TIP3    H129698   6.618   5.011   6.750
 9919TIP3    H229699   6.704   5.114   6.819
 9920TIP3   OH229700   7.498   5.472   1.149
 9920TIP3    H129701   7.431   5.464   1.080
 9920TIP3    H229702   7.467   5.413   1.218
 9921TIP3   OH229703   0.576   2.326   1.058
 9921TIP3    H129704   0.593   2.417   1.035
 9921TIP3    H229705   0.529   2.331   1.142
 9922TIP3   OH229706   6.827   2.952   2.502
 9922TIP3    H129707   6.850   3.040   2.531
 9922TIP3    H229708   6.731   2.951   2.502
 9923TIP3   OH229709   0.961   4.645   5.859
 9923TIP3    H129710   1.024   4.669   5.926
 9923TIP3    H229711   0.959   4.721   5.800
 9924TIP3   OH229712   6.230   1.104   5.155
 9924TIP3    H129713   6.178   1.078   5.232
 9924TIP3    H229714   6.175   1.082   5.080
 9925TIP3   OH229715   5.899   3.594   3.724
 9925TIP3    H129716   5.902   3.588   3.820
 9925TIP3    H229717   5.968   3.536   3.694
 9926TIP3   OH229718   1.468   5.928   0.350
 9926TIP3    H129719   1.402   5.918   0.418
 9926TIP3    H229720   1.540   5.872   0.378
 9927TIP3   OH229721   7.569   5.695   4.870
 9927TIP3    H129722   7.506   5.716   4.801
 9927TIP3    H229723   7.644   5.657   4.824
 9928TIP3   OH229724   5.091   1.930   6.634
 9928TIP3    H129725   4.998   1.912   6.646
 9928TIP3    H229726   5.129   1.920   6.721
 9929TIP3   OH229727   5.398   4.175   2.158
 9929TIP3    H129728   5.348   4.095   2.142
 9929TIP3    H229729   5.468   4.172   2.093
 9930TIP3   OH229730   3.156   2.764   5.056
 9930TIP3    H129731   3.093   2.804   4.995
 9930TIP3    H229732   3.163   2.673   5.027
 9931TIP3   OH229733   2.537   1.717   5.888
 9931TIP3    H129734   2.581   1.703   5.804
 9931TIP3    H229735   2.492   1.801   5.878
 9932TIP3   OH229736   0.860   0.796   0.175
 9932TIP3    H129737   0.862   0.881   0.220
 9932TIP3    H229738   0.813   0.813   0.094
 9933TIP3   OH229739   5.042   0.484   6.679
 9933TIP3    H129740   5.024   0.528   6.762
 9933TIP3    H229741   4.976   0.518   6.619
 9934TIP3   OH229742   6.641   6.991   6.330
 9934TIP3    H129743   6.718   6.978   6.275
 9934TIP3    H229744   6.675   7.036   6.408
 9935TIP3   OH229745   5.226   3.948   5.253
 9935TIP3    H129746   5.185   3.863   5.271
 9935TIP3    H229747   5.303   3.926   5.200
 9936TIP3   OH229748   0.785   3.469   0.342
 9936TIP3    H129749   0.821   3.383   0.322
 9936TIP3    H229750   0.831   3.497   0.421
 9937TIP3   OH229751   5.511   7.570   1.620
 9937TIP3    H129752   5.566   7.643   1.592
 9937TIP3    H229753   5.456   7.550   1.545
 9938TIP3   OH229754   6.336   3.702   5.043
 9938TIP3    H129755   6.358   3.628   4.986
 9938TIP3    H229756   6.418   3.723   5.088
 9939TIP3   OH229757   2.286   6.682   6.010
 9939TIP3    H129758   2.327   6.686   6.096
 9939TIP3    H229759   2.199   6.646   6.026
 9940TIP3   OH229760   0.425   0.837   2.856
 9940TIP3    H129761   0.429   0.813   2.764
 9940TIP3    H229762   0.406   0.755   2.901
 9941TIP3   OH229763   6.358   2.357   3.772
 9941TIP3    H129764   6.311   2.371   3.854
 9941TIP3    H229765   6.445   2.394   3.787
 9942TIP3   OH229766   0.850   3.767   4.949
 9942TIP3    H129767   0.768   3.789   4.904
 9942TIP3    H229768   0.915   3.762   4.880
 9943TIP3   OH229769   7.092   5.272   4.944
 9943TIP3    H129770   7.031   5.258   4.871
 9943TIP3    H229771   7.041   5.320   5.009
 9944TIP3   OH229772   5.214   1.838   0.375
 9944TIP3    H129773   5.250   1.768   0.322
 9944TIP3    H229774   5.164   1.892   0.314
 9945TIP3   OH229775   2.446   1.699   6.606
 9945TIP3    H129776   2.392   1.744   6.542
 9945TIP3    H229777   2.419   1.607   6.600
 9946TIP3   OH229778   5.664   3.653   2.244
 9946TIP3    H129779   5.717   3.611   2.176
 9946TIP3    H229780   5.720   3.721   2.281
 9947TIP3   OH229781   2.845   5.358   6.606
 9947TIP3    H129782   2.761   5.381   6.645
 9947TIP3    H229783   2.846   5.403   6.522
 9948TIP3   OH229784   2.849   3.315   1.407
 9948TIP3    H129785   2.768   3.265   1.415
 9948TIP3    H229786   2.831   3.397   1.453
 9949TIP3   OH229787   4.565   2.109   2.244
 9949TIP3    H129788   4.535   2.038   2.188
 9949TIP3    H229789   4.661   2.101   2.244
 9950TIP3   OH229790   0.652   1.996   1.716
 9950TIP3    H129791   0.646   1.903   1.697
 9950TIP3    H229792   0.584   2.036   1.661
 9951TIP3   OH229793   3.119   5.286   5.459
 9951TIP3    H129794   3.100   5.262   5.550
 9951TIP3    H229795   3.214   5.288   5.454
 9952TIP3   OH229796   4.794   2.257   3.639
 9952TIP3    H129797   4.717   2.210   3.608
 9952TIP3    H229798   4.812   2.219   3.725
 9953TIP3   OH229799   0.224   4.278   5.438
 9953TIP3    H129800   0.171   4.289   5.360
 9953TIP3    H229801   0.248   4.367   5.464
 9954TIP3   OH229802   0.760   6.896   0.195
 9954TIP3    H129803   0.832   6.917   0.255
 9954TIP3    H229804   0.794   6.825   0.141
 9955TIP3   OH229805   7.021   6.141   5.948
 9955TIP3    H129806   7.083   6.196   5.996
 9955TIP3    H229807   7.066   6.117   5.868
 9956TIP3   OH229808   2.425   1.435   0.009
 9956TIP3    H129809   2.461   1.429  -0.080
 9956TIP3    H229810   2.339   1.477  -0.003
 9957TIP3   OH229811   5.869   2.888   4.537
 9957TIP3    H129812   5.958   2.855   4.527
 9957TIP3    H229813   5.859   2.903   4.631
 9958TIP3   OH229814   5.669   0.149   6.790
 9958TIP3    H129815   5.724   0.125   6.715
 9958TIP3    H229816   5.716   0.114   6.866
 9959TIP3   OH229817   6.775   5.750   4.596
 9959TIP3    H129818   6.806   5.667   4.560
 9959TIP3    H229819   6.805   5.750   4.686
 9960TIP3   OH229820   0.995   5.646   5.009
 9960TIP3    H129821   0.979   5.561   5.049
 9960TIP3    H229822   0.917   5.698   5.029
 9961TIP3   OH229823   8.240   7.631   1.466
 9961TIP3    H129824   8.174   7.668   1.407
 9961TIP3    H229825   8.293   7.575   1.410
 9962TIP3   OH229826   3.162   5.880   2.794
 9962TIP3    H129827   3.106   5.952   2.824
 9962TIP3    H229828   3.115   5.801   2.819
 9963TIP3   OH229829   4.227   1.871   1.012
 9963TIP3    H129830   4.246   1.963   0.990
 9963TIP3    H229831   4.250   1.863   1.104
 9964TIP3   OH229832   2.965   7.900   4.632
 9964TIP3    H129833   2.897   7.939   4.687
 9964TIP3    H229834   3.004   7.832   4.686
 9965TIP3   OH229835   0.929   1.486   6.839
 9965TIP3    H129836   1.002   1.434   6.872
 9965TIP3    H229837   0.970   1.561   6.795
 9966TIP3   OH229838   4.682   4.276   6.734
 9966TIP3    H129839   4.710   4.362   6.701
 9966TIP3    H229840   4.653   4.230   6.656
 9967TIP3   OH229841   5.234   5.558   4.258
 9967TIP3    H129842   5.235   5.467   4.286
 9967TIP3    H229843   5.292   5.603   4.320
 9968TIP3   OH229844   6.377   4.911   2.190
 9968TIP3    H129845   6.362   4.900   2.096
 9968TIP3    H229846   6.428   4.991   2.197
 9969TIP3   OH229847   2.867   3.665   1.881
 9969TIP3    H129848   2.913   3.739   1.922
 9969TIP3    H229849   2.782   3.662   1.925
 9970TIP3   OH229850   1.451   7.818   3.631
 9970TIP3    H129851   1.544   7.798   3.621
 9970TIP3    H229852   1.413   7.796   3.546
 9971TIP3   OH229853   7.340   5.946   5.811
 9971TIP3    H129854   7.314   5.953   5.903
 9971TIP3    H229855   7.392   5.866   5.807
 9972TIP3   OH229856   5.645   3.508   0.603
 9972TIP3    H129857   5.674   3.461   0.525
 9972TIP3    H229858   5.593   3.581   0.570
 9973TIP3   OH229859   6.514   3.644   6.075
 9973TIP3    H129860   6.516   3.718   6.135
 9973TIP3    H229861   6.578   3.667   6.007
 9974TIP3   OH229862   4.511   2.539   6.124
 9974TIP3    H129863   4.557   2.621   6.108
 9974TIP3    H229864   4.419   2.563   6.130
 9975TIP3   OH229865   5.132   6.667   1.589
 9975TIP3    H129866   5.089   6.605   1.647
 9975TIP3    H229867   5.071   6.679   1.517
 9976TIP3   OH229868   5.755   5.433   0.006
 9976TIP3    H129869   5.839   5.451   0.048
 9976TIP3    H229870   5.729   5.347   0.039
 9977TIP3   OH229871   3.532   4.465   5.810
 9977TIP3    H129872   3.601   4.399   5.800
 9977TIP3    H229873   3.579   4.549   5.808
 9978TIP3   OH229874   3.024   3.117   6.132
 9978TIP3    H129875   2.971   3.089   6.057
 9978TIP3    H229876   2.964   3.170   6.185
 9979TIP3   OH229877   0.660   7.297   3.269
 9979TIP3    H129878   0.665   7.341   3.184
 9979TIP3    H229879   0.580   7.332   3.309
 9980TIP3   OH229880   5.478   1.982   1.919
 9980TIP3    H129881   5.475   2.049   1.850
 9980TIP3    H229882   5.469   2.031   2.000
 9981TIP3   OH229883   5.493   6.518   1.957
 9981TIP3    H129884   5.465   6.519   2.048
 9981TIP3    H229885   5.433   6.457   1.913
 9982TIP3   OH229886   6.425   7.271   1.270
 9982TIP3    H129887   6.473   7.333   1.324
 9982TIP3    H229888   6.477   7.190   1.276
 9983TIP3   OH229889   2.820   7.599   2.756
 9983TIP3    H129890   2.801   7.693   2.757
 9983TIP3    H229891   2.859   7.581   2.841
 9984TIP3   OH229892   8.045   1.169   3.313
 9984TIP3    H129893   8.040   1.127   3.227
 9984TIP3    H229894   8.100   1.246   3.299
 9985TIP3   OH229895   6.394   4.549   5.006
 9985TIP3    H129896   6.479   4.524   4.969
 9985TIP3    H229897   6.360   4.615   4.946
 9986TIP3   OH229898   6.527   6.083   6.609
 9986TIP3    H129899   6.567   6.159   6.566
 9986TIP3    H229900   6.601   6.038   6.652
 9987TIP3   OH229901   1.627   2.898   2.431
 9987TIP3    H129902   1.702   2.910   2.373
 9987TIP3    H229903   1.632   2.807   2.459
 9988TIP3   OH229904   3.072   4.863   2.826
 9988TIP3    H129905   2.976   4.870   2.820
 9988TIP3    H229906   3.098   4.819   2.745
 9989TIP3   OH229907   5.037   2.709   3.663
 9989TIP3    H129908   5.114   2.673   3.618
 9989TIP3    H229909   5.057   2.802   3.674
 9990TIP3   OH229910   8.066   5.614   0.134
 9990TIP3    H129911   7.979   5.618   0.172
 9990TIP3    H229912   8.053   5.581   0.045
 9991TIP3   OH229913   2.936   6.514   1.825
 9991TIP3    H129914   2.843   6.534   1.816
 9991TIP3    H229915   2.956   6.531   1.917
 9992TIP3   OH229916   1.582   3.252   4.385
 9992TIP3    H129917   1.497   3.261   4.426
 9992TIP3    H229918   1.600   3.338   4.347
 9993TIP3   OH229919   1.435   3.726   1.090
 9993TIP3    H129920   1.433   3.743   0.995
 9993TIP3    H229921   1.378   3.792   1.128
 9994TIP3   OH229922   3.898   6.613   2.538
 9994TIP3    H129923   3.826   6.666   2.502
 9994TIP3    H229924   3.878   6.524   2.508
 9995TIP3   OH229925   0.118   6.968   2.182
 9995TIP3    H129926   0.067   6.888   2.197
 9995TIP3    H229927   0.061   7.039   2.214
 9996TIP3   OH229928   7.160   7.700   2.364
 9996TIP3    H129929   7.227   7.742   2.311
 9996TIP3    H229930   7.090   7.765   2.372
 9997TIP3   OH229931   2.525   5.518   5.040
 9997TIP3    H129932   2.479   5.445   4.997
 9997TIP3    H229933   2.602   5.477   5.080
 9998TIP3   OH229934   8.386   4.172   3.176
 9998TIP3    H129935   8.380   4.137   3.265
 9998TIP3    H229936   8.474   4.211   3.172
 9999TIP3   OH229937   0.395   2.000   4.193
 9999TIP3    H129938   0.413   2.007   4.099
 9999TIP3    H229939   0.449   2.068   4.233
10000TIP3   OH229940   2.162   1.321   6.234
10000TIP3    H129941   2.221   1.296   6.305
10000TIP3    H229942   2.137   1.238   6.193
10001TIP3   OH229943   4.210   2.676   3.841
10001TIP3    H129944   4.218   2.615   3.914
10001TIP3    H229945   4.232   2.761   3.879
10002TIP3   OH229946   6.520   7.498   5.911
10002TIP3    H129947   6.497   7.581   5.871
10002TIP3    H229948   6.518   7.435   5.839
10003TIP3   OH229949   6.994   2.669   5.562
10003TIP3    H129950   7.018   2.606   5.630
10003TIP3    H229951   7.053   2.650   5.489
10004TIP3   OH229952   4.506   2.434   2.622
10004TIP3    H129953   4.505   2.379   2.700
10004TIP3    H229954   4.507   2.372   2.549
10005TIP3   OH229955   7.356   1.400   6.800
10005TIP3    H129956   7.350   1.417   6.706
10005TIP3    H229957   7.266   1.411   6.832
10006TIP3   OH229958   1.145   4.882   1.831
10006TIP3    H129959   1.069   4.940   1.838
10006TIP3    H229960   1.148   4.857   1.739
10007TIP3   OH229961   5.676   1.644   1.557
10007TIP3    H129962   5.678   1.739   1.570
10007TIP3    H229963   5.616   1.632   1.483
10008TIP3   OH229964   1.832   6.545   3.721
10008TIP3    H129965   1.837   6.452   3.739
10008TIP3    H229966   1.762   6.554   3.656
10009TIP3   OH229967   6.110   0.958   3.567
10009TIP3    H129968   6.086   0.901   3.641
10009TIP3    H229969   6.063   1.039   3.582
10010TIP3   OH229970   4.437   2.127   0.279
10010TIP3    H129971   4.372   2.187   0.316
10010TIP3    H229972   4.437   2.052   0.338
10011TIP3   OH229973   1.814   5.493   2.979
10011TIP3    H129974   1.796   5.400   2.995
10011TIP3    H229975   1.750   5.539   3.033
10012TIP3   OH229976   7.947   7.074   6.515
10012TIP3    H129977   7.992   7.141   6.465
10012TIP3    H229978   7.929   7.115   6.600
10013TIP3   OH229979   7.873   4.155   5.397
10013TIP3    H129980   7.786   4.131   5.363
10013TIP3    H229981   7.923   4.074   5.394
10014TIP3   OH229982   5.032   1.379   3.296
10014TIP3    H129983   4.949   1.421   3.273
10014TIP3    H229984   5.093   1.409   3.228
10015TIP3   OH229985   2.214   4.133   3.050
10015TIP3    H129986   2.176   4.201   3.106
10015TIP3    H229987   2.267   4.080   3.110
10016TIP3   OH229988   7.458   3.551   6.055
10016TIP3    H129989   7.518   3.620   6.083
10016TIP3    H229990   7.469   3.546   5.960
10017TIP3   OH229991   7.424   6.999   3.362
10017TIP3    H129992   7.475   6.937   3.309
10017TIP3    H229993   7.457   7.085   3.335
10018TIP3   OH229994   0.936   0.820   0.730
10018TIP3    H129995   0.852   0.812   0.777
10018TIP3    H229996   0.918   0.781   0.644
10019TIP3   OH229997   1.405   7.101   2.994
10019TIP3    H129998   1.327   7.151   2.971
10019TIP3    H229999   1.445   7.080   2.909
10020TIP3   OH230000   6.947   2.744   0.381
10020TIP3    H130001   6.875   2.681   0.376
10020TIP3    H230002   6.924   2.800   0.456
10021TIP3   OH230003   5.676   0.521   2.039
10021TIP3    H130004   5.594   0.567   2.054
10021TIP3    H230005   5.656   0.430   2.062
10022TIP3   OH230006   0.647   3.427   3.279
10022TIP3    H130007   0.649   3.432   3.184
10022TIP3    H230008   0.722   3.480   3.308
10023TIP3   OH230009   6.362   7.593   1.188
10023TIP3    H130010   6.278   7.549   1.173
10023TIP3    H230011   6.402   7.544   1.260
10024TIP3   OH230012   1.072   0.748   4.586
10024TIP3    H130013   1.118   0.832   4.585
10024TIP3    H230014   0.998   0.761   4.526
10025TIP3   OH230015   6.307   4.668   1.614
10025TIP3    H130016   6.293   4.588   1.565
10025TIP3    H230017   6.296   4.738   1.550
10026TIP3   OH230018   3.031   1.138   3.329
10026TIP3    H130019   3.043   1.054   3.373
10026TIP3    H230020   3.046   1.204   3.397
10027TIP3   OH230021   1.838   3.780   1.699
10027TIP3    H130022   1.932   3.783   1.681
10027TIP3    H230023   1.825   3.842   1.771
10028TIP3   OH230024   6.676   7.231   5.716
10028TIP3    H130025   6.737   7.240   5.643
10028TIP3    H230026   6.731   7.226   5.794
10029TIP3   OH230027   0.176   3.739   3.012
10029TIP3    H130028   0.269   3.757   2.999
10029TIP3    H230029   0.136   3.758   2.927
10030TIP3   OH230030   1.477   6.199   0.717
10030TIP3    H130031   1.416   6.166   0.650
10030TIP3    H230032   1.533   6.261   0.670
10031TIP3   OH230033   8.353   4.262   5.028
10031TIP3    H130034   8.327   4.282   4.938
10031TIP3    H230035   8.286   4.201   5.059
10032TIP3   OH230036   8.052   0.954   6.765
10032TIP3    H130037   7.972   0.997   6.792
10032TIP3    H230038   8.076   0.997   6.682
10033TIP3   OH230039   5.104   0.535   1.447
10033TIP3    H130040   5.099   0.461   1.506
10033TIP3    H230041   5.189   0.575   1.465
10034TIP3   OH230042   4.186   7.756   3.330
10034TIP3    H130043   4.143   7.728   3.250
10034TIP3    H230044   4.114   7.774   3.391
10035TIP3   OH230045   4.235   2.463   6.140
10035TIP3    H130046   4.231   2.443   6.233
10035TIP3    H230047   4.147   2.446   6.107
10036TIP3   OH230048   1.335   0.690   1.286
10036TIP3    H130049   1.357   0.701   1.378
10036TIP3    H230050   1.401   0.742   1.239
10037TIP3   OH230051   0.333   1.603   2.332
10037TIP3    H130052   0.390   1.650   2.272
10037TIP3    H230053   0.353   1.510   2.317
10038TIP3   OH230054   2.209   3.920   0.976
10038TIP3    H130055   2.121   3.883   0.984
10038TIP3    H230056   2.248   3.907   1.062
10039TIP3   OH230057   2.543   5.607   4.149
10039TIP3    H130058   2.572   5.528   4.103
10039TIP3    H230059   2.623   5.646   4.183
10040TIP3   OH230060   3.888   5.336   2.248
10040TIP3    H130061   3.909   5.278   2.321
10040TIP3    H230062   3.959   5.323   2.186
10041TIP3   OH230063   5.024   6.394   5.113
10041TIP3    H130064   4.942   6.422   5.153
10041TIP3    H230065   5.021   6.299   5.117
10042TIP3   OH230066   2.986   6.227   0.248
10042TIP3    H130067   2.915   6.193   0.302
10042TIP3    H230068   3.017   6.305   0.294
10043TIP3   OH230069   5.442   4.508   3.802
10043TIP3    H130070   5.424   4.590   3.848
10043TIP3    H230071   5.361   4.490   3.753
10044TIP3   OH230072   5.834   0.128   5.631
10044TIP3    H130073   5.836   0.047   5.579
10044TIP3    H230074   5.865   0.196   5.571
10045TIP3   OH230075   7.650   0.776   5.121
10045TIP3    H130076   7.715   0.776   5.191
10045TIP3    H230077   7.583   0.714   5.150
10046TIP3   OH230078   4.012   1.573   4.407
10046TIP3    H130079   3.957   1.644   4.439
10046TIP3    H230080   4.015   1.585   4.312
10047TIP3   OH230081   2.851   5.561   1.805
10047TIP3    H130082   2.790   5.519   1.866
10047TIP3    H230083   2.796   5.617   1.750
10048TIP3   OH230084   1.655   4.220   0.681
10048TIP3    H130085   1.567   4.258   0.676
10048TIP3    H230086   1.664   4.191   0.772
10049TIP3   OH230087   3.823   5.707   0.808
10049TIP3    H130088   3.809   5.769   0.880
10049TIP3    H230089   3.870   5.758   0.741
10050TIP3   OH230090   3.828   2.263   0.304
10050TIP3    H130091   3.773   2.206   0.358
10050TIP3    H230092   3.772   2.285   0.230
10051TIP3   OH230093   7.067   4.063   4.976
10051TIP3    H130094   6.985   4.030   4.938
10051TIP3    H230095   7.070   4.155   4.950
10052TIP3   OH230096   6.794   4.676   0.652
10052TIP3    H130097   6.712   4.642   0.686
10052TIP3    H230098   6.853   4.601   0.649
10053TIP3   OH230099   0.461   5.818   5.572
10053TIP3    H130100   0.446   5.745   5.513
10053TIP3    H230101   0.378   5.829   5.619
10054TIP3   OH230102   5.692   6.369   3.608
10054TIP3    H130103   5.668   6.460   3.624
10054TIP3    H230104   5.677   6.326   3.692
10055TIP3   OH230105   5.392   4.918   1.593
10055TIP3    H130106   5.303   4.899   1.622
10055TIP3    H230107   5.385   5.003   1.549
10056TIP3   OH230108   5.049   5.065   5.419
10056TIP3    H130109   5.119   5.052   5.355
10056TIP3    H230110   4.969   5.054   5.369
10057TIP3   OH230111   6.359   5.549   3.170
10057TIP3    H130112   6.402   5.620   3.122
10057TIP3    H230113   6.430   5.504   3.216
10058TIP3   OH230114   8.253   6.959   4.172
10058TIP3    H130115   8.204   6.877   4.167
10058TIP3    H230116   8.311   6.947   4.248
10059TIP3   OH230117   8.147   2.235   5.283
10059TIP3    H130118   8.151   2.323   5.320
10059TIP3    H230119   8.080   2.190   5.335
10060TIP3   OH230120   0.099   0.471   5.316
10060TIP3    H130121   0.046   0.395   5.339
10060TIP3    H230122   0.153   0.443   5.242
10061TIP3   OH230123   5.503   6.543   5.572
10061TIP3    H130124   5.448   6.470   5.600
10061TIP3    H230125   5.490   6.611   5.639
10062TIP3   OH230126   6.223   4.175   0.405
10062TIP3    H130127   6.310   4.170   0.364
10062TIP3    H230128   6.171   4.111   0.357
10063TIP3   OH230129   0.714   4.241   4.891
10063TIP3    H130130   0.794   4.189   4.894
10063TIP3    H230131   0.740   4.326   4.859
10064TIP3   OH230132   3.001   5.275   3.730
10064TIP3    H130133   3.002   5.342   3.662
10064TIP3    H230134   3.072   5.215   3.706
10065TIP3   OH230135   6.454   7.241   3.849
10065TIP3    H130136   6.543   7.215   3.826
10065TIP3    H230137   6.413   7.264   3.765
10066TIP3   OH230138   7.312   7.669   0.887
10066TIP3    H130139   7.254   7.662   0.811
10066TIP3    H230140   7.254   7.676   0.962
10067TIP3   OH230141   2.808   4.349   3.211
10067TIP3    H130142   2.868   4.408   3.257
10067TIP3    H230143   2.861   4.311   3.141
10068TIP3   OH230144   4.311   2.832   5.025
10068TIP3    H130145   4.327   2.748   4.981
10068TIP3    H230146   4.306   2.896   4.954
10069TIP3   OH230147   1.891   1.483   2.518
10069TIP3    H130148   1.837   1.405   2.509
10069TIP3    H230149   1.860   1.542   2.449
10070TIP3   OH230150   3.367   3.823   2.666
10070TIP3    H130151   3.320   3.906   2.670
10070TIP3    H230152   3.385   3.810   2.573
10071TIP3   OH230153   1.940   2.796   6.839
10071TIP3    H130154   1.964   2.750   6.919
10071TIP3    H230155   2.012   2.858   6.825
10072TIP3   OH230156   5.207   1.171   4.480
10072TIP3    H130157   5.165   1.097   4.525
10072TIP3    H230158   5.278   1.197   4.538
10073TIP3   OH230159   0.429   3.479   5.774
10073TIP3    H130160   0.506   3.422   5.777
10073TIP3    H230161   0.440   3.531   5.695
10074TIP3   OH230162   2.876   7.679   6.629
10074TIP3    H130163   2.830   7.754   6.591
10074TIP3    H230164   2.963   7.682   6.590
10075TIP3   OH230165   6.122   4.199   3.048
10075TIP3    H130166   6.129   4.268   3.114
10075TIP3    H230167   6.104   4.246   2.966
10076TIP3   OH230168   4.820   0.090   6.176
10076TIP3    H130169   4.830   0.050   6.089
10076TIP3    H230170   4.727   0.107   6.183
10077TIP3   OH230171   6.253   0.657   1.934
10077TIP3    H130172   6.295   0.698   1.858
10077TIP3    H230173   6.182   0.716   1.957
10078TIP3   OH230174   2.535   7.208   5.223
10078TIP3    H130175   2.594   7.140   5.257
10078TIP3    H230176   2.448   7.169   5.227
10079TIP3   OH230177   0.346   2.943   4.171
10079TIP3    H130178   0.271   2.987   4.210
10079TIP3    H230179   0.315   2.916   4.084
10080TIP3   OH230180   5.135   6.261   1.574
10080TIP3    H130181   5.079   6.334   1.599
10080TIP3    H230182   5.213   6.271   1.628
10081TIP3   OH230183   8.161   4.221   4.066
10081TIP3    H130184   8.093   4.272   4.110
10081TIP3    H230185   8.169   4.142   4.118
10082TIP3   OH230186   0.119   5.371   4.118
10082TIP3    H130187   0.137   5.334   4.205
10082TIP3    H230188   0.203   5.404   4.088
10083TIP3   OH230189   7.919   4.502   4.504
10083TIP3    H130190   8.006   4.526   4.472
10083TIP3    H230191   7.880   4.584   4.533
10084TIP3   OH230192   4.030   7.867   5.611
10084TIP3    H130193   4.061   7.777   5.595
10084TIP3    H230194   4.067   7.918   5.540
10085TIP3   OH230195   4.229   5.592   3.556
10085TIP3    H130196   4.206   5.615   3.466
10085TIP3    H230197   4.154   5.619   3.608
10086TIP3   OH230198   1.771   3.409   3.038
10086TIP3    H130199   1.855   3.415   2.991
10086TIP3    H230200   1.714   3.470   2.993
10087TIP3   OH230201   0.851   6.665   0.109
10087TIP3    H130202   0.885   6.637   0.193
10087TIP3    H230203   0.901   6.615   0.045
10088TIP3   OH230204   2.014   7.050   3.394
10088TIP3    H130205   2.065   7.117   3.440
10088TIP3    H230206   2.071   7.023   3.322
10089TIP3   OH230207   4.810   4.259   0.890
10089TIP3    H130208   4.739   4.198   0.906
10089TIP3    H230209   4.889   4.205   0.889
10090TIP3   OH230210   0.027   7.550   2.251
10090TIP3    H130211  -0.011   7.503   2.176
10090TIP3    H230212  -0.024   7.520   2.326
10091TIP3   OH230213   2.737   4.656   0.443
10091TIP3    H130214   2.720   4.627   0.533
10091TIP3    H230215   2.651   4.661   0.403
10092TIP3   OH230216   3.881   5.444   3.802
10092TIP3    H130217   3.792   5.479   3.801
10092TIP3    H230218   3.882   5.384   3.877
10093TIP3   OH230219   2.967   5.083   3.083
10093TIP3    H130220   3.046   5.031   3.069
10093TIP3    H230221   2.953   5.080   3.178
10094TIP3   OH230222   8.261   4.728   2.707
10094TIP3    H130223   8.314   4.798   2.669
10094TIP3    H230224   8.238   4.760   2.795
10095TIP3   OH230225   6.767   4.129   1.137
10095TIP3    H130226   6.715   4.183   1.197
10095TIP3    H230227   6.856   4.164   1.143
10096TIP3   OH230228   6.440   0.736   6.511
10096TIP3    H130229   6.501   0.672   6.548
10096TIP3    H230230   6.449   0.813   6.567
10097TIP3   OH230231   3.133   6.796   4.403
10097TIP3    H130232   3.113   6.763   4.315
10097TIP3    H230233   3.178   6.724   4.447
10098TIP3   OH230234   6.171   2.340   2.700
10098TIP3    H130235   6.138   2.394   2.772
10098TIP3    H230236   6.260   2.372   2.685
10099TIP3   OH230237   6.580   7.446   2.162
10099TIP3    H130238   6.568   7.476   2.072
10099TIP3    H230239   6.551   7.520   2.216
10100TIP3   OH230240   8.290   6.746   4.650
10100TIP3    H130241   8.337   6.690   4.711
10100TIP3    H230242   8.202   6.708   4.645
10101TIP3   OH230243   6.579   2.951   3.537
10101TIP3    H130244   6.526   2.954   3.457
10101TIP3    H230245   6.519   2.921   3.605
10102TIP3   OH230246   3.472   5.642   0.011
10102TIP3    H130247   3.468   5.546   0.013
10102TIP3    H230248   3.563   5.661  -0.009
10103TIP3   OH230249   6.757   6.490   0.987
10103TIP3    H130250   6.793   6.565   1.036
10103TIP3    H230251   6.678   6.466   1.034
10104TIP3   OH230252   0.602   4.917   3.201
10104TIP3    H130253   0.526   4.935   3.146
10104TIP3    H230254   0.598   4.823   3.217
10105TIP3   OH230255   5.085   4.586   2.849
10105TIP3    H130256   5.042   4.632   2.777
10105TIP3    H230257   5.022   4.589   2.920
10106TIP3   OH230258   3.718   1.642   5.770
10106TIP3    H130259   3.671   1.616   5.849
10106TIP3    H230260   3.810   1.636   5.793
10107TIP3   OH230261   2.490   5.089   1.053
10107TIP3    H130262   2.513   5.151   0.984
10107TIP3    H230263   2.549   5.111   1.125
10108TIP3   OH230264   8.114   0.073   0.271
10108TIP3    H130265   8.114   0.019   0.350
10108TIP3    H230266   8.190   0.130   0.280
10109TIP3   OH230267   6.996   5.008   6.827
10109TIP3    H130268   6.959   5.095   6.837
10109TIP3    H230269   6.979   4.984   6.736
10110TIP3   OH230270   0.951   5.781   6.390
10110TIP3    H130271   0.966   5.858   6.336
10110TIP3    H230272   0.862   5.792   6.425
10111TIP3   OH230273   3.915   4.793   2.500
10111TIP3    H130274   3.891   4.885   2.511
10111TIP3    H230275   3.857   4.746   2.559
10112TIP3   OH230276   7.543   4.987   1.771
10112TIP3    H130277   7.510   5.054   1.831
10112TIP3    H230278   7.571   4.915   1.828
10113TIP3   OH230279   7.470   5.547   5.081
10113TIP3    H130280   7.506   5.589   5.003
10113TIP3    H230281   7.375   5.551   5.068
10114TIP3   OH230282   4.470   1.642   1.923
10114TIP3    H130283   4.423   1.567   1.885
10114TIP3    H230284   4.526   1.604   1.990
10115TIP3   OH230285   8.134   4.662   0.417
10115TIP3    H130286   8.227   4.647   0.430
10115TIP3    H230287   8.126   4.689   0.325
10116TIP3   OH230288   8.102   3.990   5.434
10116TIP3    H130289   8.178   4.033   5.473
10116TIP3    H230290   8.049   3.963   5.509
10117TIP3   OH230291   2.281   6.417   1.058
10117TIP3    H130292   2.189   6.408   1.081
10117TIP3    H230293   2.326   6.433   1.141
10118TIP3   OH230294   5.530   1.494   6.024
10118TIP3    H130295   5.588   1.564   6.052
10118TIP3    H230296   5.585   1.415   6.025
10119TIP3   OH230297   7.133   1.525   5.791
10119TIP3    H130298   7.124   1.562   5.703
10119TIP3    H230299   7.052   1.476   5.804
10120TIP3   OH230300   3.682   7.400   3.623
10120TIP3    H130301   3.712   7.490   3.616
10120TIP3    H230302   3.590   7.406   3.647
10121TIP3   OH230303   2.227   2.803   3.478
10121TIP3    H130304   2.145   2.799   3.429
10121TIP3    H230305   2.200   2.811   3.570
10122TIP3   OH230306   3.797   0.897   3.037
10122TIP3    H130307   3.763   0.881   2.949
10122TIP3    H230308   3.794   0.811   3.079
10123TIP3   OH230309   5.112   2.212   4.114
10123TIP3    H130310   5.081   2.134   4.158
10123TIP3    H230311   5.040   2.275   4.122
10124TIP3   OH230312   7.434   3.362   3.506
10124TIP3    H130313   7.479   3.304   3.444
10124TIP3    H230314   7.345   3.371   3.470
10125TIP3   OH230315   3.124   6.580   1.321
10125TIP3    H130316   3.192   6.513   1.330
10125TIP3    H230317   3.094   6.596   1.410
10126TIP3   OH230318   5.287   7.701   5.979
10126TIP3    H130319   5.365   7.647   5.970
10126TIP3    H230320   5.250   7.705   5.891
10127TIP3   OH230321   2.617   2.732   4.086
10127TIP3    H130322   2.604   2.646   4.046
10127TIP3    H230323   2.537   2.780   4.065
10128TIP3   OH230324   6.169   3.104   1.333
10128TIP3    H130325   6.225   3.047   1.385
10128TIP3    H230326   6.156   3.056   1.251
10129TIP3   OH230327   2.585   1.150   5.762
10129TIP3    H130328   2.644   1.209   5.715
10129TIP3    H230329   2.526   1.117   5.693
10130TIP3   OH230330   6.274   2.195   3.191
10130TIP3    H130331   6.318   2.112   3.208
10130TIP3    H230332   6.222   2.211   3.270
10131TIP3   OH230333   7.643   5.982   2.512
10131TIP3    H130334   7.693   5.904   2.537
10131TIP3    H230335   7.599   6.009   2.593
10132TIP3   OH230336   2.302   4.796   3.911
10132TIP3    H130337   2.248   4.750   3.847
10132TIP3    H230338   2.383   4.816   3.864
10133TIP3   OH230339   3.098   4.550   5.741
10133TIP3    H130340   3.065   4.618   5.682
10133TIP3    H230341   3.150   4.493   5.686
10134TIP3   OH230342   1.774   7.788   0.072
10134TIP3    H130343   1.805   7.762   0.159
10134TIP3    H230344   1.679   7.792   0.081
10135TIP3   OH230345   5.767   1.197   4.895
10135TIP3    H130346   5.798   1.194   4.805
10135TIP3    H230347   5.792   1.284   4.926
10136TIP3   OH230348   1.097   6.572   4.864
10136TIP3    H130349   1.121   6.509   4.796
10136TIP3    H230350   1.040   6.524   4.923
10137TIP3   OH230351   4.471   4.470   4.949
10137TIP3    H130352   4.477   4.377   4.925
10137TIP3    H230353   4.543   4.483   5.012
10138TIP3   OH230354   4.856   6.434   3.813
10138TIP3    H130355   4.808   6.501   3.764
10138TIP3    H230356   4.937   6.422   3.763
10139TIP3   OH230357   2.896   3.965   6.420
10139TIP3    H130358   2.925   3.995   6.334
10139TIP3    H230359   2.972   3.978   6.477
10140TIP3   OH230360   7.518   6.543   3.888
10140TIP3    H130361   7.576   6.515   3.959
10140TIP3    H230362   7.437   6.569   3.932
10141TIP3   OH230363   5.590   1.707   6.509
10141TIP3    H130364   5.607   1.663   6.425
10141TIP3    H230365   5.495   1.697   6.522
10142TIP3   OH230366   3.445   7.339   5.888
10142TIP3    H130367   3.381   7.269   5.902
10142TIP3    H230368   3.530   7.295   5.892
10143TIP3   OH230369   4.452   7.885   2.206
10143TIP3    H130370   4.415   7.931   2.281
10143TIP3    H230371   4.386   7.892   2.137
10144TIP3   OH230372   7.243   5.903   2.591
10144TIP3    H130373   7.324   5.949   2.612
10144TIP3    H230374   7.173   5.963   2.618
10145TIP3   OH230375   4.886   1.844   2.089
10145TIP3    H130376   4.879   1.932   2.127
10145TIP3    H230377   4.932   1.857   2.007
10146TIP3   OH230378   0.584   0.491   6.780
10146TIP3    H130379   0.585   0.586   6.769
10146TIP3    H230380   0.527   0.459   6.710
10147TIP3   OH230381   1.574   1.434   4.565
10147TIP3    H130382   1.607   1.486   4.492
10147TIP3    H230383   1.622   1.466   4.641
10148TIP3   OH230384   0.645   6.007   2.621
10148TIP3    H130385   0.592   6.004   2.542
10148TIP3    H230386   0.732   6.033   2.592
10149TIP3   OH230387   2.761   7.667   0.761
10149TIP3    H130388   2.700   7.598   0.734
10149TIP3    H230389   2.727   7.746   0.720
10150TIP3   OH230390   2.293   0.057   2.895
10150TIP3    H130391   2.269   0.002   2.970
10150TIP3    H230392   2.241   0.023   2.822
10151TIP3   OH230393   0.078   4.488   0.486
10151TIP3    H130394   0.059   4.555   0.420
10151TIP3    H230395   0.124   4.420   0.438
10152TIP3   OH230396   3.833   6.860   1.618
10152TIP3    H130397   3.796   6.919   1.552
10152TIP3    H230398   3.886   6.798   1.567
10153TIP3   OH230399   7.346   6.990   5.330
10153TIP3    H130400   7.372   7.047   5.257
10153TIP3    H230401   7.361   7.043   5.408
10154TIP3   OH230402   7.839   0.750   1.399
10154TIP3    H130403   7.854   0.844   1.392
10154TIP3    H230404   7.754   0.736   1.357
10155TIP3   OH230405   1.846   4.944   2.951
10155TIP3    H130406   1.898   4.886   2.895
10155TIP3    H230407   1.761   4.951   2.907
10156TIP3   OH230408   7.991   5.007   2.349
10156TIP3    H130409   8.049   5.040   2.280
10156TIP3    H230410   8.030   4.924   2.376
10157TIP3   OH230411   7.810   4.737   4.598
10157TIP3    H130412   7.894   4.756   4.639
10157TIP3    H230413   7.746   4.750   4.668
10158TIP3   OH230414   7.341   5.061   2.343
10158TIP3    H130415   7.405   5.031   2.278
10158TIP3    H230416   7.392   5.075   2.422
10159TIP3   OH230417   6.365   1.012   4.460
10159TIP3    H130418   6.333   0.930   4.421
10159TIP3    H230419   6.370   0.993   4.554
10160TIP3   OH230420   3.748   2.284   4.122
10160TIP3    H130421   3.719   2.211   4.177
10160TIP3    H230422   3.814   2.246   4.065
10161TIP3   OH230423   3.904   0.565   2.925
10161TIP3    H130424   3.945   0.590   2.842
10161TIP3    H230425   3.820   0.528   2.900
10162TIP3   OH230426   7.070   3.905   5.678
10162TIP3    H130427   7.031   3.818   5.671
10162TIP3    H230428   7.104   3.923   5.590
10163TIP3   OH230429   4.661   6.501   3.487
10163TIP3    H130430   4.654   6.571   3.552
10163TIP3    H230431   4.576   6.457   3.489
10164TIP3   OH230432  -0.003   5.208   6.228
10164TIP3    H130433  -0.037   5.288   6.187
10164TIP3    H230434   0.086   5.230   6.255
10165TIP3   OH230435   0.687   5.059   1.364
10165TIP3    H130436   0.748   5.097   1.301
10165TIP3    H230437   0.609   5.114   1.358
10166TIP3   OH230438   4.189   3.981   3.140
10166TIP3    H130439   4.171   3.890   3.115
10166TIP3    H230440   4.248   4.013   3.072
10167TIP3   OH230441   7.752   6.115   2.797
10167TIP3    H130442   7.683   6.137   2.860
10167TIP3    H230443   7.786   6.031   2.827
10168TIP3   OH230444   3.240   6.630   0.364
10168TIP3    H130445   3.301   6.620   0.438
10168TIP3    H230446   3.287   6.592   0.289
10169TIP3   OH230447   5.269   6.415   2.747
10169TIP3    H130448   5.203   6.377   2.806
10169TIP3    H230449   5.281   6.349   2.679
10170TIP3   OH230450   7.942   4.122   1.867
10170TIP3    H130451   7.974   4.082   1.948
10170TIP3    H230452   7.912   4.209   1.893
10171TIP3   OH230453   3.076   2.251   4.218
10171TIP3    H130454   2.994   2.261   4.169
10171TIP3    H230455   3.099   2.159   4.208
10172TIP3   OH230456   7.488   1.908   3.067
10172TIP3    H130457   7.393   1.916   3.068
10172TIP3    H230458   7.505   1.828   3.017
10173TIP3   OH230459   5.551   5.551   0.156
10173TIP3    H130460   5.642   5.532   0.133
10173TIP3    H230461   5.557   5.602   0.236
10174TIP3   OH230462   0.133   1.825   1.313
10174TIP3    H130463   0.074   1.752   1.335
10174TIP3    H230464   0.208   1.784   1.272
10175TIP3   OH230465   4.613   0.664   3.242
10175TIP3    H130466   4.644   0.658   3.333
10175TIP3    H230467   4.569   0.580   3.227
10176TIP3   OH230468   0.337   3.429   1.001
10176TIP3    H130469   0.282   3.444   0.924
10176TIP3    H230470   0.426   3.448   0.971
10177TIP3   OH230471   5.978   2.683   5.544
10177TIP3    H130472   5.984   2.588   5.556
10177TIP3    H230473   6.064   2.716   5.569
10178TIP3   OH230474   7.710   4.593   1.721
10178TIP3    H130475   7.700   4.651   1.796
10178TIP3    H230476   7.631   4.607   1.668
10179TIP3   OH230477   7.600   7.860   5.731
10179TIP3    H130478   7.528   7.881   5.789
10179TIP3    H230479   7.558   7.824   5.653
10180TIP3   OH230480   1.401   2.216   4.224
10180TIP3    H130481   1.419   2.294   4.171
10180TIP3    H230482   1.348   2.249   4.297
10181TIP3   OH230483   2.900   5.787   2.485
10181TIP3    H130484   2.893   5.692   2.489
10181TIP3    H230485   2.816   5.819   2.519
10182TIP3   OH230486   5.579   2.706   4.434
10182TIP3    H130487   5.553   2.798   4.422
10182TIP3    H230488   5.498   2.657   4.432
10183TIP3   OH230489   6.745   3.724   4.466
10183TIP3    H130490   6.707   3.636   4.474
10183TIP3    H230491   6.690   3.767   4.400
10184TIP3   OH230492   2.475   4.632   2.395
10184TIP3    H130493   2.490   4.687   2.318
10184TIP3    H230494   2.393   4.587   2.378
10185TIP3   OH230495   7.120   0.970   0.313
10185TIP3    H130496   7.094   0.986   0.404
10185TIP3    H230497   7.126   1.057   0.274
10186TIP3   OH230498   3.853   6.180   6.583
10186TIP3    H130499   3.869   6.086   6.570
10186TIP3    H230500   3.921   6.223   6.531
10187TIP3   OH230501   3.754   1.799   6.630
10187TIP3    H130502   3.673   1.828   6.589
10187TIP3    H230503   3.794   1.740   6.565
10188TIP3   OH230504   5.635   6.686   1.770
10188TIP3    H130505   5.585   6.635   1.833
10188TIP3    H230506   5.690   6.744   1.824
10189TIP3   OH230507   3.114   2.147   3.445
10189TIP3    H130508   3.086   2.185   3.529
10189TIP3    H230509   3.158   2.219   3.401
10190TIP3   OH230510   7.907   2.294   5.955
10190TIP3    H130511   7.991   2.304   5.911
10190TIP3    H230512   7.852   2.248   5.892
10191TIP3   OH230513   5.970   1.956   1.253
10191TIP3    H130514   5.974   1.944   1.158
10191TIP3    H230515   5.969   1.867   1.288
10192TIP3   OH230516   1.623   2.724   3.119
10192TIP3    H130517   1.604   2.808   3.076
10192TIP3    H230518   1.689   2.745   3.184
10193TIP3   OH230519   7.701   2.044   1.372
10193TIP3    H130520   7.759   1.968   1.361
10193TIP3    H230521   7.619   2.007   1.405
10194TIP3   OH230522   2.738   6.692   2.129
10194TIP3    H130523   2.820   6.695   2.177
10194TIP3    H230524   2.673   6.663   2.193
10195TIP3   OH230525   6.247   5.112   2.858
10195TIP3    H130526   6.331   5.159   2.860
10195TIP3    H230527   6.252   5.052   2.932
10196TIP3   OH230528   1.021   6.624   2.659
10196TIP3    H130529   0.980   6.685   2.721
10196TIP3    H230530   1.114   6.624   2.683
10197TIP3   OH230531   0.650   5.412   6.721
10197TIP3    H130532   0.742   5.439   6.722
10197TIP3    H230533   0.617   5.437   6.807
10198TIP3   OH230534   0.634   7.637   5.023
10198TIP3    H130535   0.648   7.542   5.026
10198TIP3    H230536   0.689   7.668   4.951
10199TIP3   OH230537   1.869   4.901   4.165
10199TIP3    H130538   1.861   4.863   4.077
10199TIP3    H230539   1.893   4.992   4.149
10200TIP3   OH230540   4.885   2.866   6.781
10200TIP3    H130541   4.813   2.808   6.756
10200TIP3    H230542   4.913   2.834   6.867
10201TIP3   OH230543   3.735   1.225   6.730
10201TIP3    H130544   3.649   1.225   6.773
10201TIP3    H230545   3.721   1.173   6.650
10202TIP3   OH230546   5.128   4.187   5.321
10202TIP3    H130547   5.123   4.212   5.413
10202TIP3    H230548   5.166   4.099   5.322
10203TIP3   OH230549   2.409   3.764   6.042
10203TIP3    H130550   2.457   3.741   5.962
10203TIP3    H230551   2.477   3.793   6.103
10204TIP3   OH230552   1.719   1.953   1.939
10204TIP3    H130553   1.653   1.999   1.887
10204TIP3    H230554   1.789   2.016   1.951
10205TIP3   OH230555   5.798   2.021   1.813
10205TIP3    H130556   5.758   1.997   1.730
10205TIP3    H230557   5.889   2.041   1.790
10206TIP3   OH230558   7.411   5.135   1.969
10206TIP3    H130559   7.354   5.078   2.019
10206TIP3    H230560   7.431   5.208   2.028
10207TIP3   OH230561   8.280   2.270   4.770
10207TIP3    H130562   8.267   2.193   4.825
10207TIP3    H230563   8.244   2.342   4.820
10208TIP3   OH230564   3.920   7.532   2.451
10208TIP3    H130565   3.932   7.588   2.374
10208TIP3    H230566   3.830   7.501   2.444
10209TIP3   OH230567   2.168   5.269   1.719
10209TIP3    H130568   2.109   5.203   1.755
10209TIP3    H230569   2.154   5.265   1.625
10210TIP3   OH230570   8.121   5.611   1.279
10210TIP3    H130571   8.055   5.551   1.244
10210TIP3    H230572   8.147   5.571   1.362
10211TIP3   OH230573   3.758   7.623   5.096
10211TIP3    H130574   3.795   7.539   5.123
10211TIP3    H230575   3.679   7.633   5.149
10212TIP3   OH230576   2.812   2.447   5.917
10212TIP3    H130577   2.805   2.493   5.833
10212TIP3    H230578   2.893   2.479   5.956
10213TIP3   OH230579   1.609   2.376   2.540
10213TIP3    H130580   1.579   2.321   2.612
10213TIP3    H230581   1.528   2.410   2.501
10214TIP3   OH230582   6.713   0.106   3.202
10214TIP3    H130583   6.751   0.068   3.123
10214TIP3    H230584   6.629   0.061   3.212
10215TIP3   OH230585   2.725   7.097   4.275
10215TIP3    H130586   2.668   7.146   4.216
10215TIP3    H230587   2.813   7.107   4.237
10216TIP3   OH230588   7.909   7.722   0.076
10216TIP3    H130589   7.862   7.644   0.107
10216TIP3    H230590   7.904   7.716  -0.020
10217TIP3   OH230591   1.951   0.709   2.420
10217TIP3    H130592   1.894   0.689   2.493
10217TIP3    H230593   2.018   0.767   2.457
10218TIP3   OH230594   1.796   1.406   3.155
10218TIP3    H130595   1.841   1.389   3.238
10218TIP3    H230596   1.703   1.395   3.175
10219TIP3   OH230597   5.951   0.867   3.788
10219TIP3    H130598   5.968   0.919   3.866
10219TIP3    H230599   5.880   0.912   3.743
10220TIP3   OH230600   4.000   1.189   5.306
10220TIP3    H130601   3.944   1.123   5.263
10220TIP3    H230602   3.975   1.271   5.263
10221TIP3   OH230603   7.858   2.141   0.265
10221TIP3    H130604   7.913   2.098   0.330
10221TIP3    H230605   7.917   2.198   0.216
10222TIP3   OH230606   6.755   4.386   1.480
10222TIP3    H130607   6.762   4.477   1.451
10222TIP3    H230608   6.690   4.347   1.422
10223TIP3   OH230609   2.525   3.524   6.304
10223TIP3    H130610   2.542   3.434   6.333
10223TIP3    H230611   2.436   3.521   6.270
10224TIP3   OH230612   3.269   5.847   1.402
10224TIP3    H130613   3.208   5.917   1.424
10224TIP3    H230614   3.214   5.779   1.364
10225TIP3   OH230615   2.459   0.827   0.935
10225TIP3    H130616   2.382   0.835   0.878
10225TIP3    H230617   2.526   0.788   0.879
10226TIP3   OH230618   3.530   3.966   6.771
10226TIP3    H130619   3.529   3.898   6.704
10226TIP3    H230620   3.604   3.943   6.827
10227TIP3   OH230621   8.312   1.857   4.999
10227TIP3    H130622   8.393   1.868   4.948
10227TIP3    H230623   8.337   1.801   5.072
10228TIP3   OH230624   5.351   6.703   1.409
10228TIP3    H130625   5.265   6.678   1.443
10228TIP3    H230626   5.374   6.783   1.457
10229TIP3   OH230627   7.920   0.179   5.206
10229TIP3    H130628   7.971   0.248   5.165
10229TIP3    H230629   7.982   0.133   5.262
10230TIP3   OH230630   8.238   6.302   3.732
10230TIP3    H130631   8.214   6.394   3.724
10230TIP3    H230632   8.162   6.254   3.699
10231TIP3   OH230633   2.560   6.493   4.950
10231TIP3    H130634   2.570   6.472   4.857
10231TIP3    H230635   2.636   6.452   4.992
10232TIP3   OH230636   4.487   3.019   1.837
10232TIP3    H130637   4.454   3.094   1.887
10232TIP3    H230638   4.482   2.945   1.897
10233TIP3   OH230639   7.059   6.062   4.025
10233TIP3    H130640   7.110   6.142   4.036
10233TIP3    H230641   7.109   6.010   3.962
10234TIP3   OH230642   2.811   5.027   0.282
10234TIP3    H130643   2.862   4.954   0.316
10234TIP3    H230644   2.745   4.987   0.226
10235TIP3   OH230645   2.381   5.669   1.235
10235TIP3    H130646   2.298   5.700   1.271
10235TIP3    H230647   2.365   5.578   1.212
10236TIP3   OH230648   1.496   0.594   3.823
10236TIP3    H130649   1.571   0.653   3.817
10236TIP3    H230650   1.533   0.506   3.811
10237TIP3   OH230651   6.230   3.806   2.469
10237TIP3    H130652   6.168   3.772   2.533
10237TIP3    H230653   6.251   3.731   2.413
10238TIP3   OH230654   3.468   2.010   5.240
10238TIP3    H130655   3.495   2.101   5.237
10238TIP3    H230656   3.466   1.988   5.334
10239TIP3   OH230657   1.077   5.318   3.727
10239TIP3    H130658   1.041   5.401   3.759
10239TIP3    H230659   1.137   5.290   3.796
10240TIP3   OH230660   4.210   4.876   3.449
10240TIP3    H130661   4.150   4.801   3.459
10240TIP3    H230662   4.195   4.907   3.360
10241TIP3   OH230663   5.340   2.334   5.378
10241TIP3    H130664   5.386   2.383   5.309
10241TIP3    H230665   5.267   2.391   5.402
10242TIP3   OH230666   1.457   7.121   4.478
10242TIP3    H130667   1.477   7.031   4.503
10242TIP3    H230668   1.488   7.174   4.551
10243TIP3   OH230669   3.727   1.091   5.591
10243TIP3    H130670   3.635   1.104   5.569
10243TIP3    H230671   3.733   0.997   5.611
10244TIP3   OH230672   1.737   3.679   5.055
10244TIP3    H130673   1.783   3.761   5.039
10244TIP3    H230674   1.749   3.662   5.149
10245TIP3   OH230675   7.083   6.964   2.307
10245TIP3    H130676   7.056   7.055   2.316
10245TIP3    H230677   7.067   6.943   2.215
10246TIP3   OH230678   0.176   1.400   0.497
10246TIP3    H130679   0.085   1.407   0.467
10246TIP3    H230680   0.218   1.342   0.433
10247TIP3   OH230681   0.081   2.375   5.402
10247TIP3    H130682  -0.007   2.411   5.399
10247TIP3    H230683   0.074   2.297   5.458
10248TIP3   OH230684   0.789   2.341   6.263
10248TIP3    H130685   0.835   2.343   6.180
10248TIP3    H230686   0.715   2.401   6.251
10249TIP3   OH230687   6.831   3.304   0.398
10249TIP3    H130688   6.852   3.306   0.491
10249TIP3    H230689   6.752   3.358   0.390
10250TIP3   OH230690   1.663   1.170   6.659
10250TIP3    H130691   1.748   1.128   6.672
10250TIP3    H230692   1.610   1.142   6.733
10251TIP3   OH230693   2.038   2.077   0.645
10251TIP3    H130694   2.032   2.045   0.555
10251TIP3    H230695   2.055   1.999   0.697
10252TIP3   OH230696   4.448   3.546   4.435
10252TIP3    H130697   4.483   3.586   4.355
10252TIP3    H230698   4.372   3.598   4.457
10253TIP3   OH230699   3.421   1.641   4.120
10253TIP3    H130700   3.339   1.611   4.159
10253TIP3    H230701   3.473   1.562   4.108
10254TIP3   OH230702   2.422   3.548   5.607
10254TIP3    H130703   2.359   3.532   5.678
10254TIP3    H230704   2.390   3.496   5.534
10255TIP3   OH230705   2.472   5.422   0.910
10255TIP3    H130706   2.471   5.447   0.818
10255TIP3    H230707   2.380   5.425   0.937
10256TIP3   OH230708   4.474   7.041   4.650
10256TIP3    H130709   4.499   7.112   4.591
10256TIP3    H230710   4.380   7.031   4.636
10257TIP3   OH230711   4.852   6.165   4.863
10257TIP3    H130712   4.912   6.129   4.929
10257TIP3    H230713   4.769   6.175   4.909
10258TIP3   OH230714   4.523   3.615   0.954
10258TIP3    H130715   4.487   3.530   0.980
10258TIP3    H230716   4.609   3.595   0.918
10259TIP3   OH230717   1.570   2.998   1.885
10259TIP3    H130718   1.539   3.029   1.970
10259TIP3    H230719   1.527   2.913   1.873
10260TIP3   OH230720   2.958   2.358   4.482
10260TIP3    H130721   2.865   2.337   4.479
10260TIP3    H230722   2.991   2.334   4.396
10261TIP3   OH230723   1.092   5.545   4.687
10261TIP3    H130724   1.172   5.586   4.720
10261TIP3    H230725   1.021   5.600   4.719
10262TIP3   OH230726   7.078   2.854   4.454
10262TIP3    H130727   7.014   2.792   4.419
10262TIP3    H230728   7.063   2.935   4.404
10263TIP3   OH230729   2.637   3.834   0.417
10263TIP3    H130730   2.694   3.760   0.439
10263TIP3    H230731   2.589   3.804   0.340
10264TIP3   OH230732   2.149   3.484   1.199
10264TIP3    H130733   2.143   3.435   1.281
10264TIP3    H230734   2.227   3.449   1.156
10265TIP3   OH230735   1.071   6.535   6.267
10265TIP3    H130736   1.162   6.533   6.238
10265TIP3    H230737   1.066   6.467   6.334
10266TIP3   OH230738   4.081   2.712   0.893
10266TIP3    H130739   4.098   2.638   0.834
10266TIP3    H230740   4.029   2.675   0.964
10267TIP3   OH230741   7.823   3.556   2.874
10267TIP3    H130742   7.918   3.544   2.874
10267TIP3    H230743   7.808   3.627   2.937
10268TIP3   OH230744   2.423   4.784   5.374
10268TIP3    H130745   2.453   4.730   5.447
10268TIP3    H230746   2.419   4.723   5.300
10269TIP3   OH230747   7.599   0.552   1.892
10269TIP3    H130748   7.610   0.590   1.805
10269TIP3    H230749   7.600   0.457   1.878
10270TIP3   OH230750   6.263   2.373   6.288
10270TIP3    H130751   6.214   2.326   6.355
10270TIP3    H230752   6.328   2.311   6.256
10271TIP3   OH230753   7.766   6.204   0.025
10271TIP3    H130754   7.860   6.213   0.033
10271TIP3    H230755   7.741   6.269  -0.042
10272TIP3   OH230756   8.167   7.749   0.200
10272TIP3    H130757   8.073   7.741   0.185
10272TIP3    H230758   8.182   7.707   0.284
10273TIP3   OH230759   2.129   5.777   1.258
10273TIP3    H130760   2.060   5.785   1.323
10273TIP3    H230761   2.106   5.698   1.209
10274TIP3   OH230762   6.284   4.279   5.157
10274TIP3    H130763   6.320   4.194   5.134
10274TIP3    H230764   6.346   4.342   5.120
10275TIP3   OH230765   5.913   2.288   3.578
10275TIP3    H130766   5.879   2.357   3.635
10275TIP3    H230767   5.839   2.264   3.523
10276TIP3   OH230768   2.234   5.019   6.642
10276TIP3    H130769   2.181   4.941   6.659
10276TIP3    H230770   2.318   4.984   6.610
10277TIP3   OH230771   7.616   7.746   0.159
10277TIP3    H130772   7.688   7.798   0.125
10277TIP3    H230773   7.612   7.670   0.101
10278TIP3   OH230774   5.915   1.635   4.679
10278TIP3    H130775   5.893   1.725   4.655
10278TIP3    H230776   5.921   1.637   4.775
10279TIP3   OH230777   6.944   4.102   0.247
10279TIP3    H130778   6.998   4.054   0.310
10279TIP3    H230779   6.973   4.193   0.254
10280TIP3   OH230780   0.816   6.561   4.761
10280TIP3    H130781   0.900   6.606   4.752
10280TIP3    H230782   0.822   6.514   4.843
10281TIP3   OH230783   7.678   7.182   1.888
10281TIP3    H130784   7.583   7.195   1.884
10281TIP3    H230785   7.715   7.270   1.885
10282TIP3   OH230786   6.073   5.090   0.385
10282TIP3    H130787   6.040   5.112   0.473
10282TIP3    H230788   6.054   4.996   0.376
10283TIP3   OH230789   1.990   3.131   4.065
10283TIP3    H130790   1.918   3.081   4.027
10283TIP3    H230791   1.971   3.133   4.159
10284TIP3   OH230792   7.941   2.113   4.885
10284TIP3    H130793   8.028   2.086   4.916
10284TIP3    H230794   7.890   2.127   4.965
10285TIP3   OH230795   2.206   4.342   3.947
10285TIP3    H130796   2.233   4.326   3.856
10285TIP3    H230797   2.270   4.405   3.981
10286TIP3   OH230798   0.784   0.506   6.472
10286TIP3    H130799   0.689   0.503   6.487
10286TIP3    H230800   0.806   0.599   6.475
10287TIP3   OH230801   0.111   3.739   5.108
10287TIP3    H130802   0.022   3.749   5.074
10287TIP3    H230803   0.099   3.691   5.190
10288TIP3   OH230804   6.442   0.137   2.709
10288TIP3    H130805   6.529   0.179   2.711
10288TIP3    H230806   6.455   0.057   2.658
10289TIP3   OH230807   1.619   2.848   1.594
10289TIP3    H130808   1.524   2.855   1.592
10289TIP3    H230809   1.649   2.909   1.526
10290TIP3   OH230810   1.996   2.167   6.006
10290TIP3    H130811   1.908   2.136   5.987
10290TIP3    H230812   1.984   2.233   6.075
10291TIP3   OH230813   6.314   4.710   5.414
10291TIP3    H130814   6.276   4.764   5.484
10291TIP3    H230815   6.307   4.764   5.336
10292TIP3   OH230816   5.228   5.039   2.995
10292TIP3    H130817   5.201   4.992   2.916
10292TIP3    H230818   5.262   5.122   2.963
10293TIP3   OH230819   0.257   0.220   6.687
10293TIP3    H130820   0.248   0.304   6.642
10293TIP3    H230821   0.201   0.227   6.764
10294TIP3   OH230822   6.378   2.154   4.003
10294TIP3    H130823   6.471   2.177   4.015
10294TIP3    H230824   6.331   2.235   4.021
10295TIP3   OH230825   0.339   0.624   3.019
10295TIP3    H130826   0.323   0.673   3.100
10295TIP3    H230827   0.264   0.566   3.011
10296TIP3   OH230828   0.417   5.237   1.778
10296TIP3    H130829   0.444   5.146   1.784
10296TIP3    H230830   0.452   5.278   1.857
10297TIP3   OH230831   1.568   4.819   4.430
10297TIP3    H130832   1.601   4.813   4.520
10297TIP3    H230833   1.599   4.904   4.399
10298TIP3   OH230834   1.098   3.315   2.009
10298TIP3    H130835   1.094   3.408   1.985
10298TIP3    H230836   1.075   3.269   1.928
10299TIP3   OH230837   2.885   1.683   2.067
10299TIP3    H130838   2.829   1.635   2.128
10299TIP3    H230839   2.973   1.677   2.105
10300TIP3   OH230840   4.885   0.021   2.619
10300TIP3    H130841   4.946   0.093   2.603
10300TIP3    H230842   4.937  -0.058   2.600
10301TIP3   OH230843   0.479   5.849   2.758
10301TIP3    H130844   0.400   5.846   2.703
10301TIP3    H230845   0.543   5.896   2.706
10302TIP3   OH230846   1.750   0.030   5.797
10302TIP3    H130847   1.739   0.112   5.846
10302TIP3    H230848   1.661  -0.005   5.789
10303TIP3   OH230849   4.253   1.401   0.868
10303TIP3    H130850   4.269   1.491   0.897
10303TIP3    H230851   4.338   1.371   0.837
10304TIP3   OH230852   1.506   4.555   3.149
10304TIP3    H130853   1.456   4.488   3.102
10304TIP3    H230854   1.491   4.636   3.100
10305TIP3   OH230855   8.033   4.245   3.067
10305TIP3    H130856   7.997   4.160   3.044
10305TIP3    H230857   7.970   4.281   3.129
10306TIP3   OH230858   6.169   3.020   3.170
10306TIP3    H130859   6.247   3.015   3.114
10306TIP3    H230860   6.096   3.033   3.109
10307TIP3   OH230861   4.764   4.913   0.956
10307TIP3    H130862   4.855   4.925   0.927
10307TIP3    H230863   4.748   4.819   0.945
10308TIP3   OH230864   2.758   7.286   1.199
10308TIP3    H130865   2.805   7.304   1.117
10308TIP3    H230866   2.827   7.280   1.265
10309TIP3   OH230867   0.652   3.658   3.630
10309TIP3    H130868   0.693   3.715   3.695
10309TIP3    H230869   0.701   3.675   3.549
10310TIP3   OH230870   3.755   5.195   3.928
10310TIP3    H130871   3.708   5.186   4.010
10310TIP3    H230872   3.816   5.121   3.926
10311TIP3   OH230873   7.469   0.548   4.327
10311TIP3    H130874   7.490   0.551   4.234
10311TIP3    H230875   7.554   0.550   4.371
10312TIP3   OH230876   2.132   3.896   0.101
10312TIP3    H130877   2.174   3.949   0.033
10312TIP3    H230878   2.074   3.957   0.147
10313TIP3   OH230879   0.938   4.421   0.290
10313TIP3    H130880   0.886   4.352   0.249
10313TIP3    H230881   1.021   4.379   0.312
10314TIP3   OH230882   7.616   0.772   2.930
10314TIP3    H130883   7.710   0.753   2.928
10314TIP3    H230884   7.598   0.789   3.023
10315TIP3   OH230885   8.094   2.928   6.706
10315TIP3    H130886   8.040   2.851   6.686
10315TIP3    H230887   8.165   2.895   6.760
10316TIP3   OH230888   4.125   5.729   4.300
10316TIP3    H130889   4.203   5.780   4.278
10316TIP3    H230890   4.110   5.747   4.393
10317TIP3   OH230891   8.069   3.859   4.085
10317TIP3    H130892   8.093   3.804   4.160
10317TIP3    H230893   8.003   3.919   4.120
10318TIP3   OH230894   3.498   5.203   0.499
10318TIP3    H130895   3.538   5.255   0.430
10318TIP3    H230896   3.481   5.118   0.459
10319TIP3   OH230897   2.349   1.916   4.015
10319TIP3    H130898   2.392   1.988   4.062
10319TIP3    H230899   2.387   1.919   3.927
10320TIP3   OH230900   2.929   1.830   3.032
10320TIP3    H130901   2.963   1.901   3.086
10320TIP3    H230902   2.942   1.860   2.942
10321TIP3   OH230903   0.222   7.752   0.125
10321TIP3    H130904   0.236   7.672   0.176
10321TIP3    H230905   0.138   7.737   0.081
10322TIP3   OH230906   7.896   0.700   2.966
10322TIP3    H130907   7.888   0.648   2.886
10322TIP3    H230908   7.932   0.638   3.030
10323TIP3   OH230909   0.113   1.394   2.385
10323TIP3    H130910   0.195   1.351   2.359
10323TIP3    H230911   0.076   1.424   2.302
10324TIP3   OH230912   0.382   3.861   2.741
10324TIP3    H130913   0.379   3.795   2.810
10324TIP3    H230914   0.318   3.927   2.768
10325TIP3   OH230915   0.094   6.440   3.698
10325TIP3    H130916   0.032   6.390   3.752
10325TIP3    H230917   0.145   6.492   3.761
10326TIP3   OH230918   1.772   7.334   5.301
10326TIP3    H130919   1.773   7.335   5.396
10326TIP3    H230920   1.719   7.411   5.278
10327TIP3   OH230921   6.569   4.567   0.786
10327TIP3    H130922   6.605   4.485   0.820
10327TIP3    H230923   6.536   4.613   0.864
10328TIP3   OH230924   4.285   6.956   6.803
10328TIP3    H130925   4.347   6.970   6.875
10328TIP3    H230926   4.200   6.981   6.838
10329TIP3   OH230927   7.041   3.806   3.836
10329TIP3    H130928   7.110   3.873   3.839
10329TIP3    H230929   7.066   3.743   3.903
10330TIP3   OH230930   4.006   3.738   0.287
10330TIP3    H130931   3.971   3.756   0.199
10330TIP3    H230932   3.929   3.711   0.338
10331TIP3   OH230933   0.916   4.042   5.906
10331TIP3    H130934   0.986   3.989   5.868
10331TIP3    H230935   0.877   3.986   5.973
10332TIP3   OH230936   1.510   3.009   5.307
10332TIP3    H130937   1.514   3.013   5.402
10332TIP3    H230938   1.467   3.090   5.281
10333TIP3   OH230939   2.259   6.880   4.565
10333TIP3    H130940   2.254   6.811   4.499
10333TIP3    H230941   2.294   6.836   4.643
10334TIP3   OH230942   0.320   6.368   0.542
10334TIP3    H130943   0.285   6.350   0.455
10334TIP3    H230944   0.274   6.447   0.572
10335TIP3   OH230945   5.280   6.515   3.875
10335TIP3    H130946   5.340   6.580   3.838
10335TIP3    H230947   5.206   6.512   3.815
10336TIP3   OH230948   1.586   4.649   2.186
10336TIP3    H130949   1.677   4.645   2.214
10336TIP3    H230950   1.588   4.706   2.109
10337TIP3   OH230951   0.827   3.763   1.820
10337TIP3    H130952   0.741   3.765   1.776
10337TIP3    H230953   0.806   3.742   1.911
10338TIP3   OH230954   7.003   4.626   5.103
10338TIP3    H130955   6.908   4.640   5.109
10338TIP3    H230956   7.014   4.531   5.110
10339TIP3   OH230957   8.191   5.273   4.402
10339TIP3    H130958   8.218   5.305   4.488
10339TIP3    H230959   8.110   5.320   4.383
10340TIP3   OH230960   4.507   3.601   1.275
10340TIP3    H130961   4.433   3.640   1.323
10340TIP3    H230962   4.512   3.651   1.194
10341TIP3   OH230963   2.984   4.110   6.191
10341TIP3    H130964   3.066   4.103   6.141
10341TIP3    H230965   2.972   4.204   6.205
10342TIP3   OH230966   7.166   6.212   0.740
10342TIP3    H130967   7.212   6.213   0.656
10342TIP3    H230968   7.104   6.285   0.734
10343TIP3   OH230969   5.098   4.263   6.669
10343TIP3    H130970   5.038   4.296   6.601
10343TIP3    H230971   5.086   4.322   6.743
10344TIP3   OH230972   7.544   2.218   1.844
10344TIP3    H130973   7.627   2.252   1.876
10344TIP3    H230974   7.520   2.277   1.773
10345TIP3   OH230975   0.507   5.783   2.395
10345TIP3    H130976   0.595   5.757   2.422
10345TIP3    H230977   0.453   5.771   2.473
10346TIP3   OH230978   6.958   2.426   5.048
10346TIP3    H130979   6.948   2.373   5.128
10346TIP3    H230980   7.022   2.379   4.996
10347TIP3   OH230981   1.657   4.047   0.487
10347TIP3    H130982   1.564   4.031   0.469
10347TIP3    H230983   1.657   4.109   0.560
10348TIP3   OH230984   7.916   7.142   4.198
10348TIP3    H130985   7.896   7.140   4.291
10348TIP3    H230986   8.011   7.133   4.193
10349TIP3   OH230987   3.194   1.137   3.107
10349TIP3    H130988   3.115   1.157   3.157
10349TIP3    H230989   3.231   1.060   3.150
10350TIP3   OH230990   4.901   5.513   2.883
10350TIP3    H130991   4.967   5.567   2.838
10350TIP3    H230992   4.873   5.449   2.817
10351TIP3   OH230993   2.288   0.357   4.681
10351TIP3    H130994   2.203   0.370   4.725
10351TIP3    H230995   2.342   0.313   4.747
10352TIP3   OH230996   7.112   4.826   1.764
10352TIP3    H130997   7.082   4.803   1.852
10352TIP3    H230998   7.207   4.813   1.766
10353TIP3   OH230999   1.701   3.711   0.922
10353TIP3    H131000   1.615   3.705   0.962
10353TIP3    H231001   1.685   3.701   0.828
10354TIP3   OH231002   1.427   6.927   0.470
10354TIP3    H131003   1.413   6.863   0.401
10354TIP3    H231004   1.467   7.002   0.426
10355TIP3   OH231005   2.798   2.309   0.165
10355TIP3    H131006   2.800   2.242   0.233
10355TIP3    H231007   2.815   2.261   0.084
10356TIP3   OH231008   5.003   5.079   6.449
10356TIP3    H131009   5.022   5.060   6.541
10356TIP3    H231010   4.966   5.167   6.450
10357TIP3   OH231011   2.864   5.892   4.818
10357TIP3    H131012   2.935   5.943   4.780
10357TIP3    H231013   2.791   5.953   4.826
10358TIP3   OH231014   2.826   0.094   4.460
10358TIP3    H131015   2.750   0.147   4.437
10358TIP3    H231016   2.884   0.102   4.384
10359TIP3   OH231017   4.984   0.485   5.628
10359TIP3    H131018   5.007   0.555   5.567
10359TIP3    H231019   4.968   0.408   5.573
10360TIP3   OH231020   3.784   2.657   5.190
10360TIP3    H131021   3.785   2.564   5.211
10360TIP3    H231022   3.736   2.661   5.107
10361TIP3   OH231023   5.527   5.297   5.924
10361TIP3    H131024   5.546   5.237   5.853
10361TIP3    H231025   5.449   5.345   5.895
10362TIP3   OH231026   0.808   4.218   2.846
10362TIP3    H131027   0.807   4.287   2.912
10362TIP3    H231028   0.900   4.190   2.841
10363TIP3   OH231029   4.926   4.672   3.062
10363TIP3    H131030   4.881   4.743   3.109
10363TIP3    H231031   5.012   4.667   3.104
10364TIP3   OH231032   1.248   7.549   3.279
10364TIP3    H131033   1.295   7.472   3.311
10364TIP3    H231034   1.163   7.545   3.323
10365TIP3   OH231035   6.516   3.359   0.377
10365TIP3    H131036   6.504   3.326   0.466
10365TIP3    H231037   6.429   3.353   0.338
10366TIP3   OH231038   4.771   7.102   4.858
10366TIP3    H131039   4.744   7.104   4.950
10366TIP3    H231040   4.819   7.020   4.848
10367TIP3   OH231041   6.518   5.799   5.710
10367TIP3    H131042   6.491   5.710   5.731
10367TIP3    H231043   6.513   5.846   5.793
10368TIP3   OH231044   7.729   5.926   6.149
10368TIP3    H131045   7.823   5.912   6.138
10368TIP3    H231046   7.700   5.850   6.199
10369TIP3   OH231047   0.530   6.729   3.426
10369TIP3    H131048   0.554   6.811   3.383
10369TIP3    H231049   0.593   6.719   3.496
10370TIP3   OH231050   4.346   1.113   0.234
10370TIP3    H131051   4.336   1.061   0.154
10370TIP3    H231052   4.256   1.136   0.259
10371TIP3   OH231053   4.947   2.087   4.946
10371TIP3    H131054   4.969   2.123   4.860
10371TIP3    H231055   5.029   2.049   4.977
10372TIP3   OH231056   2.576   5.791   0.537
10372TIP3    H131057   2.606   5.727   0.602
10372TIP3    H231058   2.630   5.868   0.553
10373TIP3   OH231059   3.732   2.213   5.090
10373TIP3    H131060   3.708   2.249   5.175
10373TIP3    H231061   3.790   2.280   5.052
10374TIP3   OH231062   6.415   6.072   4.075
10374TIP3    H131063   6.354   6.135   4.113
10374TIP3    H231064   6.439   6.015   4.148
10375TIP3   OH231065   5.025   0.010   3.971
10375TIP3    H131066   5.049  -0.023   3.885
10375TIP3    H231067   4.964  -0.055   4.006
10376TIP3   OH231068   0.564   2.269   4.644
10376TIP3    H131069   0.505   2.227   4.581
10376TIP3    H231070   0.569   2.360   4.615
10377TIP3   OH231071   0.514   3.777   1.092
10377TIP3    H131072   0.583   3.824   1.044
10377TIP3    H231073   0.432   3.811   1.055
10378TIP3   OH231074   3.854   5.156   6.005
10378TIP3    H131075   3.858   5.211   6.083
10378TIP3    H231076   3.778   5.189   5.957
10379TIP3   OH231077   7.893   5.997   1.628
10379TIP3    H131078   7.827   5.941   1.670
10379TIP3    H231079   7.924   5.946   1.553
10380TIP3   OH231080   5.101   2.097   1.616
10380TIP3    H131081   5.062   2.133   1.536
10380TIP3    H231082   5.045   2.022   1.638
10381TIP3   OH231083   0.149   0.312   5.821
10381TIP3    H131084   0.109   0.287   5.904
10381TIP3    H231085   0.112   0.398   5.801
10382TIP3   OH231086   8.177   1.325   1.903
10382TIP3    H131087   8.156   1.418   1.916
10382TIP3    H231088   8.092   1.282   1.897
10383TIP3   OH231089   7.363   3.159   4.734
10383TIP3    H131090   7.398   3.126   4.651
10383TIP3    H231091   7.439   3.194   4.780
10384TIP3   OH231092   4.958   0.939   6.634
10384TIP3    H131093   4.947   0.995   6.558
10384TIP3    H231094   5.037   0.888   6.615
10385TIP3   OH231095   1.240   7.402   5.604
10385TIP3    H131096   1.239   7.316   5.645
10385TIP3    H231097   1.257   7.463   5.675
10386TIP3   OH231098   1.649   4.316   5.050
10386TIP3    H131099   1.555   4.303   5.065
10386TIP3    H231100   1.690   4.285   5.131
10387TIP3   OH231101   4.128   4.638   3.997
10387TIP3    H131102   4.217   4.623   3.964
10387TIP3    H231103   4.133   4.615   4.090
10388TIP3   OH231104   6.638   0.327   5.115
10388TIP3    H131105   6.706   0.291   5.172
10388TIP3    H231106   6.598   0.250   5.074
10389TIP3   OH231107   3.615   7.081   3.635
10389TIP3    H131108   3.691   7.138   3.649
10389TIP3    H231109   3.643   6.995   3.667
10390TIP3   OH231110   5.806   6.981   3.232
10390TIP3    H131111   5.726   6.990   3.180
10390TIP3    H231112   5.783   7.015   3.318
10391TIP3   OH231113   5.427   6.672   2.205
10391TIP3    H131114   5.349   6.692   2.152
10391TIP3    H231115   5.414   6.581   2.233
10392TIP3   OH231116   3.401   2.123   5.919
10392TIP3    H131117   3.370   2.033   5.904
10392TIP3    H231118   3.322   2.171   5.942
10393TIP3   OH231119   5.411   0.615   2.072
10393TIP3    H131120   5.394   0.636   2.163
10393TIP3    H231121   5.356   0.675   2.022
10394TIP3   OH231122   0.356   7.211   3.900
10394TIP3    H131123   0.338   7.228   3.808
10394TIP3    H231124   0.451   7.209   3.907
10395TIP3   OH231125   1.668   1.569   5.995
10395TIP3    H131126   1.625   1.616   5.923
10395TIP3    H231127   1.690   1.637   6.058
10396TIP3   OH231128   5.110   6.319   6.738
10396TIP3    H131129   5.028   6.351   6.777
10396TIP3    H231130   5.173   6.390   6.752
10397TIP3   OH231131   1.987   0.752   5.860
10397TIP3    H131132   1.908   0.805   5.856
10397TIP3    H231133   2.017   0.747   5.769
10398TIP3   OH231134   0.876   1.451   4.097
10398TIP3    H131135   0.864   1.462   4.191
10398TIP3    H231136   0.847   1.362   4.079
10399TIP3   OH231137   4.890   6.594   2.834
10399TIP3    H131138   4.798   6.597   2.860
10399TIP3    H231139   4.938   6.580   2.916
10400TIP3   OH231140   7.732   7.623   3.953
10400TIP3    H131141   7.718   7.555   3.887
10400TIP3    H231142   7.812   7.596   3.998
10401TIP3   OH231143   0.845   0.076   1.897
10401TIP3    H131144   0.836   0.053   1.990
10401TIP3    H231145   0.824   0.170   1.894
10402TIP3   OH231146   4.035   3.099   3.916
10402TIP3    H131147   3.969   3.043   3.956
10402TIP3    H231148   3.984   3.169   3.874
10403TIP3   OH231149   3.219   0.319   6.677
10403TIP3    H131150   3.191   0.397   6.629
10403TIP3    H231151   3.213   0.248   6.613
10404TIP3   OH231152   5.256   5.835   6.084
10404TIP3    H131153   5.268   5.848   6.178
10404TIP3    H231154   5.172   5.876   6.065
10405TIP3   OH231155   6.828   2.611   0.692
10405TIP3    H131156   6.885   2.686   0.670
10405TIP3    H231157   6.763   2.609   0.622
10406TIP3   OH231158   7.286   6.809   0.356
10406TIP3    H131159   7.339   6.859   0.418
10406TIP3    H231160   7.297   6.855   0.273
10407TIP3   OH231161   6.129   7.333   4.209
10407TIP3    H131162   6.208   7.343   4.156
10407TIP3    H231163   6.146   7.255   4.261
10408TIP3   OH231164   6.229   7.850   3.119
10408TIP3    H131165   6.324   7.864   3.118
10408TIP3    H231166   6.195   7.916   3.059
10409TIP3   OH231167   7.906   6.887   4.036
10409TIP3    H131168   7.903   6.940   4.115
10409TIP3    H231169   7.970   6.819   4.055
10410TIP3   OH231170   2.664   5.465   0.528
10410TIP3    H131171   2.574   5.455   0.559
10410TIP3    H231172   2.701   5.377   0.535
10411TIP3   OH231173   6.583   6.245   4.585
10411TIP3    H131174   6.557   6.294   4.507
10411TIP3    H231175   6.650   6.299   4.626
10412TIP3   OH231176   5.951   5.112   1.208
10412TIP3    H131177   5.946   5.134   1.115
10412TIP3    H231178   5.994   5.026   1.209
10413TIP3   OH231179   8.062   3.140   3.264
10413TIP3    H131180   7.989   3.147   3.202
10413TIP3    H231181   8.021   3.123   3.348
10414TIP3   OH231182   2.769   5.365   5.164
10414TIP3    H131183   2.837   5.299   5.174
10414TIP3    H231184   2.815   5.441   5.128
10415TIP3   OH231185   1.125   5.325   0.385
10415TIP3    H131186   1.108   5.257   0.450
10415TIP3    H231187   1.063   5.395   0.407
10416TIP3   OH231188   4.911   2.931   3.884
10416TIP3    H131189   4.977   2.927   3.953
10416TIP3    H231190   4.864   2.848   3.891
10417TIP3   OH231191   6.409   3.568   1.110
10417TIP3    H131192   6.381   3.630   1.177
10417TIP3    H231193   6.396   3.482   1.151
10418TIP3   OH231194   5.343   1.083   5.143
10418TIP3    H131195   5.247   1.083   5.144
10418TIP3    H231196   5.366   1.117   5.057
10419TIP3   OH231197   1.767   1.849   6.673
10419TIP3    H131198   1.711   1.770   6.676
10419TIP3    H231199   1.705   1.921   6.658
10420TIP3   OH231200   0.448   2.978   0.679
10420TIP3    H131201   0.447   2.885   0.702
10420TIP3    H231202   0.528   3.012   0.719
10421TIP3   OH231203   5.746   4.234   5.437
10421TIP3    H131204   5.745   4.299   5.367
10421TIP3    H231205   5.657   4.234   5.472
10422TIP3   OH231206   4.730   6.723   1.207
10422TIP3    H131207   4.717   6.782   1.133
10422TIP3    H231208   4.772   6.646   1.170
10423TIP3   OH231209   8.222   7.540   4.155
10423TIP3    H131210   8.229   7.454   4.198
10423TIP3    H231211   8.261   7.526   4.068
10424TIP3   OH231212   7.954   4.313   5.124
10424TIP3    H131213   7.880   4.280   5.176
10424TIP3    H231214   8.025   4.253   5.142
10425TIP3   OH231215   6.423   6.891   5.919
10425TIP3    H131216   6.353   6.863   5.979
10425TIP3    H231217   6.503   6.856   5.957
10426TIP3   OH231218   2.644   2.142   5.531
10426TIP3    H131219   2.560   2.096   5.531
10426TIP3    H231220   2.657   2.167   5.623
10427TIP3   OH231221   3.384   6.838   0.565
10427TIP3    H131222   3.344   6.765   0.611
10427TIP3    H231223   3.357   6.915   0.615
10428TIP3   OH231224   5.158   0.934   0.138
10428TIP3    H131225   5.197   0.846   0.137
10428TIP3    H231226   5.096   0.932   0.210
10429TIP3   OH231227   3.262   0.882   5.208
10429TIP3    H131228   3.326   0.836   5.154
10429TIP3    H231229   3.261   0.971   5.174
10430TIP3   OH231230   0.676   1.018   6.583
10430TIP3    H131231   0.670   1.073   6.504
10430TIP3    H231232   0.586   1.012   6.615
10431TIP3   OH231233   2.956   2.852   2.707
10431TIP3    H131234   2.997   2.932   2.741
10431TIP3    H231235   2.886   2.884   2.649
10432TIP3   OH231236   8.130   6.664   4.381
10432TIP3    H131237   8.123   6.705   4.295
10432TIP3    H231238   8.055   6.697   4.430
10433TIP3   OH231239   0.371   6.849   1.700
10433TIP3    H131240   0.440   6.913   1.721
10433TIP3    H231241   0.372   6.789   1.775
10434TIP3   OH231242   0.101   2.718   5.524
10434TIP3    H131243   0.183   2.671   5.505
10434TIP3    H231244   0.056   2.722   5.440
10435TIP3   OH231245   0.736   3.115   0.597
10435TIP3    H131246   0.734   3.171   0.519
10435TIP3    H231247   0.823   3.075   0.596
10436TIP3   OH231248   7.401   4.066   6.565
10436TIP3    H131249   7.315   4.097   6.595
10436TIP3    H231250   7.418   3.988   6.617
10437TIP3   OH231251   5.658   0.060   2.276
10437TIP3    H131252   5.611   0.046   2.194
10437TIP3    H231253   5.607   0.013   2.341
10438TIP3   OH231254   0.430   2.829   6.279
10438TIP3    H131255   0.484   2.815   6.201
10438TIP3    H231256   0.355   2.772   6.266
10439TIP3   OH231257   5.064   7.617   2.019
10439TIP3    H131258   5.123   7.614   1.943
10439TIP3    H231259   4.980   7.644   1.983
10440TIP3   OH231260   3.017   0.765   6.490
10440TIP3    H131261   3.086   0.700   6.477
10440TIP3    H231262   3.063   0.847   6.502
10441TIP3   OH231263   2.999   1.402   6.003
10441TIP3    H131264   2.978   1.439   6.089
10441TIP3    H231265   3.085   1.362   6.014
10442TIP3   OH231266   6.377   3.305   4.607
10442TIP3    H131267   6.439   3.357   4.657
10442TIP3    H231268   6.422   3.222   4.592
10443TIP3   OH231269   4.210   1.416   4.540
10443TIP3    H131270   4.281   1.456   4.490
10443TIP3    H231271   4.130   1.449   4.498
10444TIP3   OH231272   7.163   2.758   3.292
10444TIP3    H131273   7.174   2.789   3.202
10444TIP3    H231274   7.247   2.719   3.314
10445TIP3   OH231275   2.105   2.844   1.161
10445TIP3    H131276   2.192   2.885   1.166
10445TIP3    H231277   2.121   2.759   1.120
10446TIP3   OH231278   3.408   6.978   5.431
10446TIP3    H131279   3.341   7.003   5.367
10446TIP3    H231280   3.423   6.885   5.413
10447TIP3   OH231281   2.873   3.923   6.740
10447TIP3    H131282   2.951   3.889   6.784
10447TIP3    H231283   2.848   3.854   6.679
10448TIP3   OH231284   3.396   0.186   2.634
10448TIP3    H131285   3.326   0.247   2.609
10448TIP3    H231286   3.359   0.099   2.619
10449TIP3   OH231287   2.686   0.563   6.372
10449TIP3    H131288   2.743   0.580   6.297
10449TIP3    H231289   2.604   0.531   6.333
10450TIP3   OH231290   1.188   6.398   4.641
10450TIP3    H131291   1.175   6.383   4.547
10450TIP3    H231292   1.250   6.330   4.668
10451TIP3   OH231293   7.158   6.160   2.334
10451TIP3    H131294   7.124   6.208   2.259
10451TIP3    H231295   7.129   6.210   2.411
10452TIP3   OH231296   1.719   0.315   1.769
10452TIP3    H131297   1.647   0.378   1.768
10452TIP3    H231298   1.774   0.343   1.843
10453TIP3   OH231299   1.721   7.837   0.488
10453TIP3    H131300   1.768   7.917   0.464
10453TIP3    H231301   1.632   7.867   0.508
10454TIP3   OH231302   1.153   0.592   1.915
10454TIP3    H131303   1.246   0.588   1.939
10454TIP3    H231304   1.153   0.597   1.820
10455TIP3   OH231305   4.130   5.795   6.634
10455TIP3    H131306   4.156   5.876   6.590
10455TIP3    H231307   4.036   5.804   6.648
10456TIP3   OH231308   5.450   6.426   4.907
10456TIP3    H131309   5.371   6.478   4.923
10456TIP3    H231310   5.493   6.470   4.833
10457TIP3   OH231311   3.285   5.366   2.066
10457TIP3    H131312   3.250   5.339   1.981
10457TIP3    H231313   3.260   5.458   2.074
10458TIP3   OH231314   6.960   0.504   4.192
10458TIP3    H131315   6.871   0.507   4.158
10458TIP3    H231316   6.949   0.504   4.287
10459TIP3   OH231317   4.948   0.889   3.540
10459TIP3    H131318   5.018   0.901   3.604
10459TIP3    H231319   4.980   0.935   3.462
10460TIP3   OH231320   0.911   5.693   0.480
10460TIP3    H131321   0.965   5.716   0.404
10460TIP3    H231322   0.963   5.627   0.527
10461TIP3   OH231323   4.788   0.118   5.177
10461TIP3    H131324   4.847   0.159   5.113
10461TIP3    H231325   4.768   0.188   5.239
10462TIP3   OH231326   0.789   2.842   4.087
10462TIP3    H131327   0.839   2.915   4.050
10462TIP3    H231328   0.854   2.775   4.104
10463TIP3   OH231329   2.127   0.993   2.286
10463TIP3    H131330   2.207   1.032   2.251
10463TIP3    H231331   2.156   0.910   2.325
10464TIP3   OH231332   1.620   3.460   0.019
10464TIP3    H131333   1.621   3.553  -0.003
10464TIP3    H231334   1.559   3.453   0.092
10465TIP3   OH231335   0.813   4.425   4.064
10465TIP3    H131336   0.828   4.367   3.990
10465TIP3    H231337   0.765   4.500   4.027
10466TIP3   OH231338   4.465   7.229   6.111
10466TIP3    H131339   4.438   7.143   6.081
10466TIP3    H231340   4.510   7.268   6.036
10467TIP3   OH231341   3.476   4.653   4.594
10467TIP3    H131342   3.536   4.723   4.569
10467TIP3    H231343   3.483   4.649   4.690
10468TIP3   OH231344   2.579   6.459   2.664
10468TIP3    H131345   2.498   6.416   2.634
10468TIP3    H231346   2.622   6.394   2.719
10469TIP3   OH231347   3.808   0.113   2.031
10469TIP3    H131348   3.818   0.154   1.945
10469TIP3    H231349   3.722   0.070   2.027
10470TIP3   OH231350   0.689   3.582   5.052
10470TIP3    H131351   0.736   3.660   5.023
10470TIP3    H231352   0.753   3.512   5.048
10471TIP3   OH231353   5.401   6.965   0.140
10471TIP3    H131354   5.414   6.871   0.148
10471TIP3    H231355   5.486   6.999   0.112
10472TIP3   OH231356   4.546   4.961   4.277
10472TIP3    H131357   4.608   5.012   4.329
10472TIP3    H231358   4.550   4.999   4.189
10473TIP3   OH231359   2.807   1.943   1.464
10473TIP3    H131360   2.804   1.849   1.449
10473TIP3    H231361   2.894   1.970   1.436
10474TIP3   OH231362   6.028   5.262   4.317
10474TIP3    H131363   5.959   5.212   4.361
10474TIP3    H231364   6.109   5.229   4.355
10475TIP3   OH231365   0.469   4.251   5.807
10475TIP3    H131366   0.554   4.293   5.798
10475TIP3    H231367   0.406   4.322   5.797
10476TIP3   OH231368   1.921   5.217   5.851
10476TIP3    H131369   1.922   5.230   5.946
10476TIP3    H231370   1.828   5.219   5.828
10477TIP3   OH231371   7.695   5.152   6.617
10477TIP3    H131372   7.778   5.158   6.570
10477TIP3    H231373   7.632   5.194   6.559
10478TIP3   OH231374   3.930   6.449   4.756
10478TIP3    H131375   3.898   6.359   4.751
10478TIP3    H231376   4.015   6.447   4.712
10479TIP3   OH231377   4.177   6.237   2.581
10479TIP3    H131378   4.152   6.293   2.508
10479TIP3    H231379   4.178   6.295   2.657
10480TIP3   OH231380   5.755   2.128   6.746
10480TIP3    H131381   5.696   2.161   6.678
10480TIP3    H231382   5.790   2.206   6.787
10481TIP3   OH231383   4.764   4.810   3.651
10481TIP3    H131384   4.705   4.857   3.710
10481TIP3    H231385   4.801   4.741   3.705
10482TIP3   OH231386   6.735   5.586   5.957
10482TIP3    H131387   6.783   5.504   5.941
10482TIP3    H231388   6.741   5.634   5.874
10483TIP3   OH231389   5.367   5.579   4.734
10483TIP3    H131390   5.371   5.508   4.798
10483TIP3    H231391   5.278   5.613   4.741
10484TIP3   OH231392   2.703   6.149   0.835
10484TIP3    H131393   2.716   6.092   0.910
10484TIP3    H231394   2.632   6.209   0.861
10485TIP3   OH231395   6.028   4.478   6.596
10485TIP3    H131396   5.948   4.470   6.648
10485TIP3    H231397   6.073   4.554   6.634
10486TIP3   OH231398   1.753   1.905   6.001
10486TIP3    H131399   1.667   1.887   5.963
10486TIP3    H231400   1.769   1.831   6.060
10487TIP3   OH231401   5.866   1.820   5.697
10487TIP3    H131402   5.861   1.769   5.778
10487TIP3    H231403   5.794   1.787   5.644
10488TIP3   OH231404   7.733   7.210   0.525
10488TIP3    H131405   7.643   7.227   0.553
10488TIP3    H231406   7.763   7.294   0.490
10489TIP3   OH231407   7.554   6.691   2.494
10489TIP3    H131408   7.556   6.596   2.480
10489TIP3    H231409   7.473   6.720   2.454
10490TIP3   OH231410   4.436   7.617   4.782
10490TIP3    H131411   4.346   7.609   4.751
10490TIP3    H231412   4.487   7.560   4.725
10491TIP3   OH231413   7.878   3.698   4.614
10491TIP3    H131414   7.851   3.607   4.623
10491TIP3    H231415   7.901   3.725   4.703
10492TIP3   OH231416   2.626   2.846   6.706
10492TIP3    H131417   2.592   2.758   6.691
10492TIP3    H231418   2.678   2.865   6.628
10493TIP3   OH231419   4.711   0.416   5.657
10493TIP3    H131420   4.795   0.436   5.615
10493TIP3    H231421   4.652   0.486   5.628
10494TIP3   OH231422   6.589   6.265   2.923
10494TIP3    H131423   6.528   6.245   2.851
10494TIP3    H231424   6.613   6.357   2.909
10495TIP3   OH231425   6.065   2.944   6.607
10495TIP3    H131426   6.055   3.025   6.557
10495TIP3    H231427   5.977   2.910   6.617
10496TIP3   OH231428   3.227   6.038   3.827
10496TIP3    H131429   3.209   6.059   3.918
10496TIP3    H231430   3.182   6.106   3.777
10497TIP3   OH231431   2.612   4.290   0.923
10497TIP3    H131432   2.561   4.311   0.845
10497TIP3    H231433   2.687   4.242   0.890
10498TIP3   OH231434   5.987   2.401   4.479
10498TIP3    H131435   5.932   2.339   4.525
10498TIP3    H231436   5.926   2.468   4.447
10499TIP3   OH231437   2.549   5.526   6.115
10499TIP3    H131438   2.471   5.479   6.086
10499TIP3    H231439   2.515   5.604   6.159
10500TIP3   OH231440   1.446   2.039   4.540
10500TIP3    H131441   1.459   1.998   4.626
10500TIP3    H231442   1.433   2.132   4.561
10501TIP3   OH231443   0.632   3.131   4.198
10501TIP3    H131444   0.538   3.150   4.190
10501TIP3    H231445   0.640   3.039   4.174
10502TIP3   OH231446   0.943   7.229   1.242
10502TIP3    H131447   1.006   7.191   1.304
10502TIP3    H231448   0.919   7.156   1.185
10503TIP3   OH231449   3.569   1.900   0.920
10503TIP3    H131450   3.491   1.849   0.940
10503TIP3    H231451   3.553   1.935   0.832
10504TIP3   OH231452   7.933   2.660   4.768
10504TIP3    H131453   7.965   2.571   4.783
10504TIP3    H231454   8.009   2.716   4.785
10505TIP3   OH231455   4.304   7.482   5.147
10505TIP3    H131456   4.365   7.439   5.087
10505TIP3    H231457   4.219   7.472   5.105
10506TIP3   OH231458   5.101   6.685   0.462
10506TIP3    H131459   5.095   6.660   0.554
10506TIP3    H231460   5.165   6.756   0.460
10507TIP3   OH231461   2.440   4.262   4.688
10507TIP3    H131462   2.438   4.262   4.592
10507TIP3    H231463   2.480   4.178   4.711
10508TIP3   OH231464   4.333   2.163   3.914
10508TIP3    H131465   4.381   2.219   3.854
10508TIP3    H231466   4.380   2.170   3.997
10509TIP3   OH231467   5.257   6.145   3.630
10509TIP3    H131468   5.274   6.052   3.647
10509TIP3    H231469   5.246   6.183   3.717
10510TIP3   OH231470   1.841   7.234   0.565
10510TIP3    H131471   1.746   7.232   0.572
10510TIP3    H231472   1.872   7.187   0.642
10511TIP3   OH231473   6.937   4.132   5.312
10511TIP3    H131474   6.883   4.143   5.391
10511TIP3    H231475   7.018   4.093   5.344
10512TIP3   OH231476   3.512   4.153   0.128
10512TIP3    H131477   3.549   4.241   0.121
10512TIP3    H231478   3.477   4.149   0.217
10513TIP3   OH231479   5.956   3.592   4.009
10513TIP3    H131480   5.901   3.662   4.045
10513TIP3    H231481   6.022   3.576   4.076
10514TIP3   OH231482   5.962   1.401   3.396
10514TIP3    H131483   5.965   1.425   3.304
10514TIP3    H231484   5.871   1.419   3.422
10515TIP3   OH231485   3.154   2.981   0.417
10515TIP3    H131486   3.157   3.075   0.431
10515TIP3    H231487   3.240   2.960   0.379
10516TIP3   OH231488   6.955   7.445   4.652
10516TIP3    H131489   6.872   7.460   4.606
10516TIP3    H231490   7.020   7.439   4.582
10517TIP3   OH231491   0.541   6.239   0.256
10517TIP3    H131492   0.550   6.327   0.293
10517TIP3    H231493   0.615   6.231   0.196
10518TIP3   OH231494   3.859   3.291   3.479
10518TIP3    H131495   3.816   3.376   3.472
10518TIP3    H231496   3.847   3.251   3.392
10519TIP3   OH231497   7.756   0.421   5.233
10519TIP3    H131498   7.797   0.339   5.205
10519TIP3    H231499   7.783   0.484   5.167
10520TIP3   OH231500   7.465   4.426   3.687
10520TIP3    H131501   7.436   4.358   3.748
10520TIP3    H231502   7.558   4.438   3.707
10521TIP3   OH231503   3.922   3.149   6.230
10521TIP3    H131504   3.932   3.067   6.182
10521TIP3    H231505   3.958   3.215   6.170
10522TIP3   OH231506   0.906   6.423   5.606
10522TIP3    H131507   0.941   6.509   5.584
10522TIP3    H231508   0.929   6.367   5.531
10523TIP3   OH231509   3.484   3.345   2.573
10523TIP3    H131510   3.489   3.250   2.579
10523TIP3    H231511   3.452   3.362   2.484
10524TIP3   OH231512   6.502   0.361   4.581
10524TIP3    H131513   6.443   0.314   4.640
10524TIP3    H231514   6.589   0.349   4.619
10525TIP3   OH231515   4.083   6.236   1.188
10525TIP3    H131516   4.055   6.145   1.196
10525TIP3    H231517   4.121   6.257   1.273
10526TIP3   OH231518   2.946   5.414   2.693
10526TIP3    H131519   2.869   5.428   2.749
10526TIP3    H231520   2.981   5.330   2.722
10527TIP3   OH231521   0.065   2.116   3.533
10527TIP3    H131522   0.131   2.057   3.569
10527TIP3    H231523  -0.019   2.080   3.563
10528TIP3   OH231524   4.027   5.236   5.154
10528TIP3    H131525   4.096   5.254   5.091
10528TIP3    H231526   4.002   5.145   5.137
10529TIP3   OH231527   8.004   7.352   0.559
10529TIP3    H131528   7.955   7.390   0.486
10529TIP3    H231529   8.058   7.284   0.519
10530TIP3   OH231530   5.922   1.698   6.070
10530TIP3    H131531   5.967   1.657   6.144
10530TIP3    H231532   5.881   1.626   6.023
10531TIP3   OH231533   5.737   4.079   6.225
10531TIP3    H131534   5.712   4.165   6.190
10531TIP3    H231535   5.813   4.097   6.281
10532TIP3   OH231536   6.252   5.022   6.829
10532TIP3    H131537   6.258   5.111   6.864
10532TIP3    H231538   6.316   4.972   6.880
10533TIP3   OH231539   3.411   1.239   1.880
10533TIP3    H131540   3.386   1.261   1.791
10533TIP3    H231541   3.405   1.143   1.884
10534TIP3   OH231542   7.237   4.106   3.634
10534TIP3    H131543   7.267   4.187   3.675
10534TIP3    H231544   7.155   4.085   3.679
10535TIP3   OH231545   1.509   6.896   6.729
10535TIP3    H131546   1.546   6.819   6.774
10535TIP3    H231547   1.569   6.913   6.657
10536TIP3   OH231548   3.094   0.321   4.792
10536TIP3    H131549   3.095   0.287   4.703
10536TIP3    H231550   3.185   0.314   4.822
10537TIP3   OH231551   5.006   1.180   6.052
10537TIP3    H131552   4.913   1.173   6.073
10537TIP3    H231553   5.047   1.112   6.106
10538TIP3   OH231554   5.910   0.457   3.709
10538TIP3    H131555   5.843   0.389   3.703
10538TIP3    H231556   5.901   0.491   3.798
10539TIP3   OH231557   0.574   7.448   6.005
10539TIP3    H131558   0.487   7.438   5.968
10539TIP3    H231559   0.593   7.364   6.047
10540TIP3   OH231560   0.270   0.610   4.660
10540TIP3    H131561   0.312   0.677   4.606
10540TIP3    H231562   0.176   0.623   4.646
10541TIP3   OH231563   4.352   5.104   5.524
10541TIP3    H131564   4.316   5.016   5.537
10541TIP3    H231565   4.386   5.103   5.435
10542TIP3   OH231566   1.635   5.782   6.212
10542TIP3    H131567   1.702   5.768   6.145
10542TIP3    H231568   1.555   5.750   6.173
10543TIP3   OH231569   2.858   4.332   5.998
10543TIP3    H131570   2.832   4.351   5.908
10543TIP3    H231571   2.819   4.247   6.017
10544TIP3   OH231572   6.023   7.754   6.135
10544TIP3    H131573   6.025   7.764   6.230
10544TIP3    H231574   5.930   7.760   6.113
10545TIP3   OH231575   5.350   5.106   1.179
10545TIP3    H131576   5.376   5.092   1.270
10545TIP3    H231577   5.256   5.092   1.179
10546TIP3   OH231578   5.346   3.812   4.799
10546TIP3    H131579   5.290   3.863   4.857
10546TIP3    H231580   5.349   3.725   4.838
10547TIP3   OH231581   6.786   0.005   2.943
10547TIP3    H131582   6.729  -0.039   2.881
10547TIP3    H231583   6.822   0.079   2.893
10548TIP3   OH231584   1.212   7.011   1.912
10548TIP3    H131585   1.178   6.933   1.868
10548TIP3    H231586   1.147   7.079   1.895
10549TIP3   OH231587   4.671   3.592   2.857
10549TIP3    H131588   4.675   3.684   2.830
10549TIP3    H231589   4.762   3.562   2.852
10550TIP3   OH231590   2.065   0.623   5.238
10550TIP3    H131591   2.022   0.701   5.273
10550TIP3    H231592   2.100   0.578   5.316
10551TIP3   OH231593   1.211   0.844   1.735
10551TIP3    H131594   1.148   0.837   1.807
10551TIP3    H231595   1.288   0.883   1.775
10552TIP3   OH231596   1.047   2.640   6.276
10552TIP3    H131597   0.980   2.701   6.247
10552TIP3    H231598   1.074   2.674   6.362
10553TIP3   OH231599   5.087   7.677   0.400
10553TIP3    H131600   5.076   7.752   0.457
10553TIP3    H231601   5.149   7.620   0.446
10554TIP3   OH231602   6.360   1.406   2.893
10554TIP3    H131603   6.404   1.450   2.821
10554TIP3    H231604   6.334   1.321   2.858
10555TIP3   OH231605   4.529   5.005   3.465
10555TIP3    H131606   4.469   4.940   3.502
10555TIP3    H231607   4.492   5.024   3.378
10556TIP3   OH231608   0.195   7.038   5.937
10556TIP3    H131609   0.171   6.998   5.853
10556TIP3    H231610   0.111   7.047   5.984
10557TIP3   OH231611   6.998   1.761   0.490
10557TIP3    H131612   6.912   1.801   0.480
10557TIP3    H231613   7.000   1.729   0.580
10558TIP3   OH231614   2.149   2.294   6.812
10558TIP3    H131615   2.215   2.227   6.830
10558TIP3    H231616   2.099   2.258   6.739
10559TIP3   OH231617   3.032   2.579   1.139
10559TIP3    H131618   3.124   2.557   1.153
10559TIP3    H231619   3.022   2.584   1.044
10560TIP3   OH231620   2.655   2.390   1.899
10560TIP3    H131621   2.571   2.408   1.857
10560TIP3    H231622   2.717   2.382   1.827
10561TIP3   OH231623   1.207   3.525   1.035
10561TIP3    H131624   1.290   3.571   1.048
10561TIP3    H231625   1.216   3.445   1.087
10562TIP3   OH231626   0.158   1.163   4.932
10562TIP3    H131627   0.221   1.141   4.863
10562TIP3    H231628   0.120   1.078   4.957
10563TIP3   OH231629   0.899   0.450   1.668
10563TIP3    H131630   0.864   0.464   1.580
10563TIP3    H231631   0.984   0.493   1.667
10564TIP3   OH231632   8.124   2.008   4.081
10564TIP3    H131633   8.092   1.931   4.033
10564TIP3    H231634   8.170   2.060   4.015
10565TIP3   OH231635   2.434   5.080   2.347
10565TIP3    H131636   2.356   5.093   2.400
10565TIP3    H231637   2.459   5.168   2.318
10566TIP3   OH231638   1.692   3.025   0.151
10566TIP3    H131639   1.750   3.099   0.133
10566TIP3    H231640   1.734   2.977   0.222
10567TIP3   OH231641   5.240   4.258   4.324
10567TIP3    H131642   5.331   4.284   4.338
10567TIP3    H231643   5.213   4.307   4.247
10568TIP3   OH231644   7.995   3.390   4.625
10568TIP3    H131645   7.915   3.395   4.678
10568TIP3    H231646   7.971   3.332   4.552
10569TIP3   OH231647   7.470   5.798   1.654
10569TIP3    H131648   7.405   5.850   1.700
10569TIP3    H231649   7.421   5.724   1.619
10570TIP3   OH231650   5.883   3.817   2.116
10570TIP3    H131651   5.904   3.871   2.193
10570TIP3    H231652   5.968   3.804   2.073
10571TIP3   OH231653   3.077   6.250   2.482
10571TIP3    H131654   3.084   6.262   2.387
10571TIP3    H231655   3.096   6.157   2.495
10572TIP3   OH231656   5.566   0.442   2.637
10572TIP3    H131657   5.601   0.531   2.638
10572TIP3    H231658   5.508   0.441   2.561
10573TIP3   OH231659   3.816   7.866   6.119
10573TIP3    H131660   3.864   7.797   6.164
10573TIP3    H231661   3.873   7.891   6.046
10574TIP3   OH231662   8.259   3.671   0.793
10574TIP3    H131663   8.208   3.680   0.712
10574TIP3    H231664   8.217   3.732   0.854
10575TIP3   OH231665   6.563   3.389   6.178
10575TIP3    H131666   6.614   3.434   6.245
10575TIP3    H231667   6.552   3.455   6.109
10576TIP3   OH231668   8.032   4.308   6.202
10576TIP3    H131669   8.118   4.349   6.208
10576TIP3    H231670   7.971   4.380   6.190
10577TIP3   OH231671   1.241   3.077   0.117
10577TIP3    H131672   1.220   3.110   0.205
10577TIP3    H231673   1.204   2.989   0.115
10578TIP3   OH231674   1.398   5.532   2.297
10578TIP3    H131675   1.378   5.470   2.368
10578TIP3    H231676   1.314   5.547   2.255
10579TIP3   OH231677   1.927   1.185   3.893
10579TIP3    H131678   1.883   1.122   3.836
10579TIP3    H231679   1.878   1.180   3.976
10580TIP3   OH231680   6.291   7.458   5.382
10580TIP3    H131681   6.253   7.520   5.319
10580TIP3    H231682   6.372   7.501   5.411
10581TIP3   OH231683   1.909   3.001   5.969
10581TIP3    H131684   1.841   2.938   5.993
10581TIP3    H231685   1.869   3.086   5.984
10582TIP3   OH231686   3.934   3.197   5.419
10582TIP3    H131687   3.860   3.183   5.359
10582TIP3    H231688   3.938   3.116   5.470
10583TIP3   OH231689   5.868   0.503   2.324
10583TIP3    H131690   5.918   0.489   2.243
10583TIP3    H231691   5.812   0.426   2.332
10584TIP3   OH231692   6.944   6.149   6.224
10584TIP3    H131693   6.955   6.138   6.129
10584TIP3    H231694   6.859   6.191   6.234
10585TIP3   OH231695   0.055   4.264   2.251
10585TIP3    H131696   0.055   4.202   2.324
10585TIP3    H231697   0.022   4.213   2.176
10586TIP3   OH231698   4.216   3.048   5.496
10586TIP3    H131699   4.214   2.985   5.425
10586TIP3    H231700   4.125   3.053   5.525
10587TIP3   OH231701   7.251   4.896   2.716
10587TIP3    H131702   7.214   4.854   2.638
10587TIP3    H231703   7.318   4.835   2.747
10588TIP3   OH231704   6.102   7.009   6.643
10588TIP3    H131705   6.041   7.040   6.575
10588TIP3    H231706   6.188   7.017   6.603
10589TIP3   OH231707   3.712   2.278   0.026
10589TIP3    H131708   3.729   2.233  -0.057
10589TIP3    H231709   3.713   2.371   0.003
10590TIP3   OH231710   7.414   7.510   0.199
10590TIP3    H131711   7.445   7.596   0.227
10590TIP3    H231712   7.489   7.452   0.211
10591TIP3   OH231713   4.333   1.762   5.413
10591TIP3    H131714   4.390   1.766   5.336
10591TIP3    H231715   4.245   1.761   5.377
10592TIP3   OH231716   7.024   3.396   6.194
10592TIP3    H131717   7.081   3.411   6.270
10592TIP3    H231718   6.970   3.475   6.188
10593TIP3   OH231719   8.100   6.465   2.480
10593TIP3    H131720   8.166   6.402   2.450
10593TIP3    H231721   8.125   6.486   2.570
10594TIP3   OH231722   2.393   1.002   0.129
10594TIP3    H131723   2.426   1.073   0.184
10594TIP3    H231724   2.309   0.979   0.168
10595TIP3   OH231725   4.713   6.933   4.543
10595TIP3    H131726   4.625   6.967   4.561
10595TIP3    H231727   4.742   6.897   4.626
10596TIP3   OH231728   2.107   2.117   1.011
10596TIP3    H131729   2.147   2.186   0.959
10596TIP3    H231730   2.143   2.130   1.099
10597TIP3   OH231731   6.492   2.687   5.419
10597TIP3    H131732   6.562   2.657   5.361
10597TIP3    H231733   6.423   2.717   5.360
10598TIP3   OH231734   1.015   4.782   3.043
10598TIP3    H131735   1.045   4.764   3.132
10598TIP3    H231736   1.039   4.704   2.993
10599TIP3   OH231737   7.113   0.851   1.817
10599TIP3    H131738   7.054   0.821   1.886
10599TIP3    H231739   7.185   0.788   1.818
10600TIP3   OH231740   3.146   0.810   1.368
10600TIP3    H131741   3.105   0.826   1.453
10600TIP3    H231742   3.076   0.824   1.304
10601TIP3   OH231743   7.031   3.172   0.002
10601TIP3    H131744   7.050   3.087  -0.039
10601TIP3    H231745   7.035   3.154   0.096
10602TIP3   OH231746   4.438   3.301   0.224
10602TIP3    H131747   4.396   3.334   0.303
10602TIP3    H231748   4.372   3.312   0.155
10603TIP3   OH231749   2.447   3.804   0.231
10603TIP3    H131750   2.360   3.832   0.262
10603TIP3    H231751   2.452   3.839   0.142
10604TIP3   OH231752   8.121   7.812   2.325
10604TIP3    H131753   8.149   7.826   2.235
10604TIP3    H231754   8.192   7.848   2.378
10605TIP3   OH231755   7.477   5.426   1.917
10605TIP3    H131756   7.383   5.444   1.913
10605TIP3    H231757   7.499   5.432   2.010
10606TIP3   OH231758   1.580   1.141   5.967
10606TIP3    H131759   1.616   1.213   6.019
10606TIP3    H231760   1.641   1.069   5.980
10607TIP3   OH231761   7.343   7.764   4.411
10607TIP3    H131762   7.417   7.821   4.431
10607TIP3    H231763   7.301   7.804   4.334
10608TIP3   OH231764   7.166   3.654   4.059
10608TIP3    H131765   7.178   3.560   4.064
10608TIP3    H231766   7.245   3.691   4.098
10609TIP3   OH231767   3.196   1.204   2.834
10609TIP3    H131768   3.118   1.256   2.815
10609TIP3    H231769   3.189   1.184   2.927
10610TIP3   OH231770   2.702   7.810   5.849
10610TIP3    H131771   2.639   7.776   5.785
10610TIP3    H231772   2.674   7.901   5.864
10611TIP3   OH231773   7.352   4.234   4.716
10611TIP3    H131774   7.305   4.269   4.640
10611TIP3    H231775   7.436   4.203   4.681
10612TIP3   OH231776   5.940   4.304   0.853
10612TIP3    H131777   6.005   4.237   0.830
10612TIP3    H231778   5.899   4.327   0.770
10613TIP3   OH231779   1.855   3.229   2.766
10613TIP3    H131780   1.788   3.166   2.792
10613TIP3    H231781   1.841   3.241   2.672
10614TIP3   OH231782   5.135   7.018   4.441
10614TIP3    H131783   5.046   7.052   4.432
10614TIP3    H231784   5.177   7.076   4.503
10615TIP3   OH231785   6.968   4.877   1.279
10615TIP3    H131786   6.963   4.870   1.374
10615TIP3    H231787   7.061   4.883   1.260
10616TIP3   OH231788   6.086   1.279   3.028
10616TIP3    H131789   6.139   1.227   2.968
10616TIP3    H231790   6.077   1.223   3.106
10617TIP3   OH231791   4.263   0.026   4.880
10617TIP3    H131792   4.335  -0.017   4.926
10617TIP3    H231793   4.231  -0.041   4.819
10618TIP3   OH231794   4.391   5.907   1.019
10618TIP3    H131795   4.428   5.823   0.992
10618TIP3    H231796   4.300   5.904   0.990
10619TIP3   OH231797   5.238   3.388   3.224
10619TIP3    H131798   5.263   3.305   3.183
10619TIP3    H231799   5.226   3.366   3.316
10620TIP3   OH231800   7.120   2.135   4.158
10620TIP3    H131801   7.073   2.118   4.076
10620TIP3    H231802   7.072   2.208   4.198
10621TIP3   OH231803   1.233   0.132   1.890
10621TIP3    H131804   1.285   0.202   1.932
10621TIP3    H231805   1.240   0.058   1.950
10622TIP3   OH231806   1.283   5.125   1.195
10622TIP3    H131807   1.253   5.193   1.255
10622TIP3    H231808   1.368   5.157   1.165
10623TIP3   OH231809   0.024   6.577   5.878
10623TIP3    H131810   0.052   6.617   5.960
10623TIP3    H231811   0.031   6.483   5.893
10624TIP3   OH231812   6.220   4.772   0.194
10624TIP3    H131813   6.269   4.854   0.203
10624TIP3    H231814   6.130   4.796   0.216
10625TIP3   OH231815   6.581   1.186   4.846
10625TIP3    H131816   6.664   1.145   4.867
10625TIP3    H231817   6.519   1.150   4.910
10626TIP3   OH231818   5.663   6.187   6.616
10626TIP3    H131819   5.583   6.225   6.581
10626TIP3    H231820   5.723   6.261   6.626
10627TIP3   OH231821   3.083   1.217   2.177
10627TIP3    H131822   3.132   1.251   2.251
10627TIP3    H231823   3.008   1.171   2.216
10628TIP3   OH231824   2.065   3.529   6.824
10628TIP3    H131825   2.112   3.590   6.768
10628TIP3    H231826   2.102   3.543   6.911
10629TIP3   OH231827   2.866   3.177   3.170
10629TIP3    H131828   2.831   3.252   3.121
10629TIP3    H231829   2.940   3.147   3.117
10630TIP3   OH231830   0.312   7.779   3.439
10630TIP3    H131831   0.310   7.835   3.361
10630TIP3    H231832   0.271   7.832   3.507
10631TIP3   OH231833   7.661   6.634   4.829
10631TIP3    H131834   7.660   6.641   4.925
10631TIP3    H231835   7.712   6.555   4.812
10632TIP3   OH231836   6.429   6.909   2.355
10632TIP3    H131837   6.443   6.916   2.261
10632TIP3    H231838   6.358   6.970   2.373
10633TIP3   OH231839   1.506   0.873   2.473
10633TIP3    H131840   1.601   0.886   2.479
10633TIP3    H231841   1.479   0.925   2.397
10634TIP3   OH231842   0.553   5.130   2.205
10634TIP3    H131843   0.613   5.167   2.140
10634TIP3    H231844   0.561   5.035   2.194
10635TIP3   OH231845   5.243   5.005   3.941
10635TIP3    H131846   5.235   4.955   4.022
10635TIP3    H231847   5.323   5.056   3.951
10636TIP3   OH231848   0.108   0.936   3.985
10636TIP3    H131849   0.123   0.848   4.018
10636TIP3    H231850   0.106   0.926   3.890
10637TIP3   OH231851   7.869   5.346   5.259
10637TIP3    H131852   7.833   5.275   5.311
10637TIP3    H231853   7.801   5.413   5.259
10638TIP3   OH231854   5.317   4.831   6.726
10638TIP3    H131855   5.351   4.755   6.773
10638TIP3    H231856   5.236   4.853   6.772
10639TIP3   OH231857   3.802   2.843   2.213
10639TIP3    H131858   3.777   2.873   2.126
10639TIP3    H231859   3.835   2.921   2.257
10640TIP3   OH231860   0.097   3.260   1.045
10640TIP3    H131861   0.174   3.305   1.009
10640TIP3    H231862   0.024   3.297   0.996
10641TIP3   OH231863   7.877   3.111   5.649
10641TIP3    H131864   7.946   3.048   5.626
10641TIP3    H231865   7.924   3.191   5.672
10642TIP3   OH231866   4.141   5.727   4.557
10642TIP3    H131867   4.228   5.686   4.558
10642TIP3    H231868   4.155   5.814   4.593
10643TIP3   OH231869   1.395   6.223   5.446
10643TIP3    H131870   1.304   6.209   5.418
10643TIP3    H231871   1.408   6.159   5.516
10644TIP3   OH231872   7.975   7.179   5.799
10644TIP3    H131873   8.020   7.117   5.740
10644TIP3    H231874   8.012   7.264   5.776
10645TIP3   OH231875   2.799   2.303   6.706
10645TIP3    H131876   2.868   2.237   6.702
10645TIP3    H231877   2.783   2.315   6.800
10646TIP3   OH231878   0.703   4.520   6.647
10646TIP3    H131879   0.711   4.431   6.682
10646TIP3    H231880   0.793   4.546   6.629
10647TIP3   OH231881   5.567   1.733   0.377
10647TIP3    H131882   5.484   1.728   0.330
10647TIP3    H231883   5.566   1.819   0.418
10648TIP3   OH231884   0.855   0.844   5.759
10648TIP3    H131885   0.853   0.932   5.722
10648TIP3    H231886   0.919   0.797   5.706
10649TIP3   OH231887   7.272   3.404   0.847
10649TIP3    H131888   7.316   3.441   0.771
10649TIP3    H231889   7.336   3.342   0.884
10650TIP3   OH231890   1.164   5.250   4.715
10650TIP3    H131891   1.103   5.324   4.725
10650TIP3    H231892   1.212   5.269   4.635
10651TIP3   OH231893   2.315   6.349   2.692
10651TIP3    H131894   2.339   6.305   2.774
10651TIP3    H231895   2.226   6.382   2.708
10652TIP3   OH231896   6.253   6.882   4.869
10652TIP3    H131897   6.211   6.933   4.939
10652TIP3    H231898   6.322   6.833   4.914
10653TIP3   OH231899   3.610   2.130   6.157
10653TIP3    H131900   3.547   2.193   6.193
10653TIP3    H231901   3.568   2.095   6.079
10654TIP3   OH231902   5.957   2.875   6.277
10654TIP3    H131903   5.911   2.907   6.355
10654TIP3    H231904   6.033   2.932   6.269
10655TIP3   OH231905   7.185   5.093   6.168
10655TIP3    H131906   7.156   5.107   6.078
10655TIP3    H231907   7.130   5.151   6.220
10656TIP3   OH231908   0.837   3.437   0.639
10656TIP3    H131909   0.870   3.365   0.693
10656TIP3    H231910   0.787   3.491   0.701
10657TIP3   OH231911   1.903   2.227   6.631
10657TIP3    H131912   1.938   2.158   6.575
10657TIP3    H231913   1.867   2.291   6.570
10658TIP3   OH231914   7.281   6.546   5.186
10658TIP3    H131915   7.203   6.601   5.180
10658TIP3    H231916   7.348   6.604   5.223
10659TIP3   OH231917   5.205   6.397   6.082
10659TIP3    H131918   5.222   6.308   6.052
10659TIP3    H231919   5.113   6.397   6.107
10660TIP3   OH231920   1.858   0.338   2.651
10660TIP3    H131921   1.876   0.422   2.693
10660TIP3    H231922   1.927   0.329   2.585
10661TIP3   OH231923   7.718   3.456   4.696
10661TIP3    H131924   7.671   3.391   4.643
10661TIP3    H231925   7.713   3.422   4.785
10662TIP3   OH231926   6.206   0.397   1.963
10662TIP3    H131927   6.222   0.490   1.944
10662TIP3    H231928   6.128   0.397   2.017
10663TIP3   OH231929   2.763   1.969   2.730
10663TIP3    H131930   2.714   1.962   2.649
10663TIP3    H231931   2.727   2.047   2.773
10664TIP3   OH231932   1.232   0.106   4.686
10664TIP3    H131933   1.276   0.021   4.680
10664TIP3    H231934   1.228   0.137   4.596
10665TIP3   OH231935   6.472   6.265   4.324
10665TIP3    H131936   6.465   6.174   4.353
10665TIP3    H231937   6.398   6.309   4.367
10666TIP3   OH231938   7.771   2.602   0.814
10666TIP3    H131939   7.836   2.543   0.852
10666TIP3    H231940   7.776   2.681   0.867
10667TIP3   OH231941   8.275   5.452   6.789
10667TIP3    H131942   8.207   5.386   6.780
10667TIP3    H231943   8.327   5.445   6.709
10668TIP3   OH231944   2.276   3.060   0.148
10668TIP3    H131945   2.363   3.093   0.173
10668TIP3    H231946   2.292   3.011   0.067
10669TIP3   OH231947   2.501   2.589   6.719
10669TIP3    H131948   2.523   2.504   6.757
10669TIP3    H231949   2.451   2.568   6.641
10670TIP3   OH231950   6.816   2.038   4.812
10670TIP3    H131951   6.794   2.016   4.903
10670TIP3    H231952   6.736   2.073   4.775
10671TIP3   OH231953   7.959   1.655   2.442
10671TIP3    H131954   7.971   1.592   2.513
10671TIP3    H231955   8.002   1.614   2.367
10672TIP3   OH231956   6.698   0.184   5.451
10672TIP3    H131957   6.749   0.229   5.383
10672TIP3    H231958   6.742   0.206   5.533
10673TIP3   OH231959   3.297   3.837   6.343
10673TIP3    H131960   3.284   3.826   6.249
10673TIP3    H231961   3.328   3.927   6.353
10674TIP3   OH231962   2.700   4.527   3.506
10674TIP3    H131963   2.650   4.460   3.460
10674TIP3    H231964   2.646   4.606   3.500
10675TIP3   OH231965   2.829   0.434   5.898
10675TIP3    H131966   2.919   0.438   5.866
10675TIP3    H231967   2.784   0.379   5.833
10676TIP3   OH231968   3.002   4.746   1.258
10676TIP3    H131969   3.077   4.805   1.262
10676TIP3    H231970   2.996   4.708   1.345
10677TIP3   OH231971   8.158   3.039   0.393
10677TIP3    H131972   8.178   2.964   0.337
10677TIP3    H231973   8.151   3.002   0.481
10678TIP3   OH231974   5.930   3.300   4.594
10678TIP3    H131975   5.846   3.282   4.637
10678TIP3    H231976   5.907   3.356   4.520
10679TIP3   OH231977   3.236   1.679   1.191
10679TIP3    H131978   3.184   1.608   1.153
10679TIP3    H231979   3.177   1.723   1.252
10680TIP3   OH231980   4.327   0.264   3.490
10680TIP3    H131981   4.325   0.342   3.546
10680TIP3    H231982   4.351   0.192   3.549
10681TIP3   OH231983   6.338   1.048   3.420
10681TIP3    H131984   6.270   1.017   3.480
10681TIP3    H231985   6.341   1.143   3.433
10682TIP3   OH231986   6.258   4.746   5.994
10682TIP3    H131987   6.285   4.822   5.942
10682TIP3    H231988   6.180   4.776   6.042
10683TIP3   OH231989   1.796   2.411   5.152
10683TIP3    H131990   1.819   2.503   5.137
10683TIP3    H231991   1.870   2.376   5.202
10684TIP3   OH231992   0.237   4.458   3.398
10684TIP3    H131993   0.194   4.419   3.473
10684TIP3    H231994   0.201   4.547   3.393
10685TIP3   OH231995   7.905   5.516   0.918
10685TIP3    H131996   7.947   5.593   0.880
10685TIP3    H231997   7.830   5.550   0.966
10686TIP3   OH231998   5.996   6.736   4.400
10686TIP3    H131999   6.073   6.783   4.369
10686TIP3    H232000   6.010   6.725   4.494
10687TIP3   OH232001   0.178   0.962   1.454
10687TIP3    H132002   0.088   0.970   1.485
10687TIP3    H232003   0.205   1.051   1.436
10688TIP3   OH232004   6.209   1.593   1.746
10688TIP3    H132005   6.119   1.619   1.768
10688TIP3    H232006   6.251   1.673   1.716
10689TIP3   OH232007   5.986   5.187   4.050
10689TIP3    H132008   5.890   5.189   4.050
10689TIP3    H232009   6.009   5.185   4.143
10690TIP3   OH232010   1.869   3.156   2.440
10690TIP3    H132011   1.878   3.064   2.466
10690TIP3    H232012   1.860   3.153   2.345
10691TIP3   OH232013   2.534   6.254   3.462
10691TIP3    H132014   2.513   6.337   3.419
10691TIP3    H232015   2.534   6.274   3.555
10692TIP3   OH232016   7.960   6.242   6.255
10692TIP3    H132017   7.990   6.224   6.166
10692TIP3    H232018   8.000   6.326   6.277
10693TIP3   OH232019   4.289   0.793   1.569
10693TIP3    H132020   4.231   0.868   1.580
10693TIP3    H232021   4.345   0.795   1.646
10694TIP3   OH232022   1.060   3.974   0.312
10694TIP3    H132023   1.123   3.907   0.337
10694TIP3    H232024   1.069   3.981   0.217
10695TIP3   OH232025   4.653   6.699   5.896
10695TIP3    H132026   4.743   6.669   5.911
10695TIP3    H232027   4.653   6.789   5.929
10696TIP3   OH232028   0.958   4.948   5.143
10696TIP3    H132029   0.948   5.043   5.136
10696TIP3    H232030   1.052   4.934   5.154
10697TIP3   OH232031   3.176   1.426   2.044
10697TIP3    H132032   3.109   1.369   2.079
10697TIP3    H232033   3.255   1.372   2.040
10698TIP3   OH232034   2.896   0.904   0.720
10698TIP3    H132035   2.922   0.940   0.635
10698TIP3    H232036   2.858   0.979   0.767
10699TIP3   OH232037   7.922   1.672   4.761
10699TIP3    H132038   7.881   1.756   4.739
10699TIP3    H232039   7.981   1.654   4.689
10700TIP3   OH232040   5.497   4.528   6.515
10700TIP3    H132041   5.559   4.480   6.459
10700TIP3    H232042   5.480   4.468   6.588
10701TIP3   OH232043   1.569   0.466   6.321
10701TIP3    H132044   1.482   0.439   6.290
10701TIP3    H232045   1.625   0.390   6.305
10702TIP3   OH232046   3.119   4.132   1.296
10702TIP3    H132047   3.045   4.072   1.288
10702TIP3    H232048   3.158   4.110   1.381
10703TIP3   OH232049   8.392   7.406   6.730
10703TIP3    H132050   8.341   7.482   6.759
10703TIP3    H232051   8.415   7.360   6.811
10704TIP3   OH232052   5.735   5.574   2.263
10704TIP3    H132053   5.780   5.655   2.286
10704TIP3    H232054   5.797   5.505   2.284
10705TIP3   OH232055   4.513   4.203   0.280
10705TIP3    H132056   4.597   4.239   0.251
10705TIP3    H232057   4.533   4.114   0.307
10706TIP3   OH232058   5.203   2.883   2.375
10706TIP3    H132059   5.136   2.852   2.436
10706TIP3    H232060   5.233   2.965   2.413
10707TIP3   OH232061   2.091   1.892   2.059
10707TIP3    H132062   2.092   1.866   2.152
10707TIP3    H232063   2.008   1.858   2.026
10708TIP3   OH232064   4.831   6.768   6.458
10708TIP3    H132065   4.901   6.723   6.411
10708TIP3    H232066   4.811   6.845   6.405
10709TIP3   OH232067   3.727   4.610   1.423
10709TIP3    H132068   3.756   4.533   1.375
10709TIP3    H232069   3.775   4.606   1.506
10710TIP3   OH232070   5.825   7.558   5.619
10710TIP3    H132071   5.824   7.483   5.678
10710TIP3    H232072   5.807   7.521   5.532
10711TIP3   OH232073   2.100   0.576   6.441
10711TIP3    H132074   2.009   0.599   6.419
10711TIP3    H232075   2.124   0.639   6.509
10712TIP3   OH232076   1.022   0.079   2.165
10712TIP3    H132077   1.051   0.144   2.100
10712TIP3    H232078   0.946   0.120   2.207
10713TIP3   OH232079   4.117   3.177   3.553
10713TIP3    H132080   4.025   3.174   3.525
10713TIP3    H232081   4.156   3.098   3.517
10714TIP3   OH232082   7.918   0.869   6.456
10714TIP3    H132083   7.985   0.930   6.485
10714TIP3    H232084   7.900   0.895   6.365
10715TIP3   OH232085   7.519   7.202   3.172
10715TIP3    H132086   7.576   7.269   3.211
10715TIP3    H232087   7.512   7.228   3.080
10716TIP3   OH232088   5.946   6.173   2.113
10716TIP3    H132089   5.857   6.203   2.097
10716TIP3    H232090   5.958   6.099   2.053
10717TIP3   OH232091   5.638   1.746   1.198
10717TIP3    H132092   5.659   1.840   1.192
10717TIP3    H232093   5.543   1.743   1.190
10718TIP3   OH232094   1.721   5.284   4.149
10718TIP3    H132095   1.715   5.261   4.056
10718TIP3    H232096   1.639   5.252   4.187
10719TIP3   OH232097   8.053   0.317   1.826
10719TIP3    H132098   8.096   0.264   1.759
10719TIP3    H232099   8.124   0.366   1.867
10720TIP3   OH232100   1.735   7.806   6.757
10720TIP3    H132101   1.825   7.776   6.741
10720TIP3    H232102   1.741   7.859   6.837
10721TIP3   OH232103   2.002   1.517   0.527
10721TIP3    H132104   2.019   1.424   0.509
10721TIP3    H232105   1.931   1.516   0.591
10722TIP3   OH232106   4.172   6.706   5.804
10722TIP3    H132107   4.255   6.663   5.783
10722TIP3    H232108   4.151   6.676   5.892
10723TIP3   OH232109   5.292   7.679   4.134
10723TIP3    H132110   5.253   7.750   4.185
10723TIP3    H232111   5.364   7.646   4.187
10724TIP3   OH232112   7.001   7.134   1.121
10724TIP3    H132113   7.088   7.112   1.090
10724TIP3    H232114   7.015   7.196   1.192
10725TIP3   OH232115   4.293   3.757   2.858
10725TIP3    H132116   4.285   3.716   2.772
10725TIP3    H232117   4.214   3.731   2.905
10726TIP3   OH232118   3.588   4.867   5.261
10726TIP3    H132119   3.624   4.806   5.325
10726TIP3    H232120   3.500   4.888   5.295
10727TIP3   OH232121   1.093   3.263   5.117
10727TIP3    H132122   1.057   3.275   5.204
10727TIP3    H232123   1.135   3.177   5.120
10728TIP3   OH232124   0.422   6.253   1.049
10728TIP3    H132125   0.355   6.312   1.013
10728TIP3    H232126   0.381   6.167   1.049
10729TIP3   OH232127   2.374   3.622   0.767
10729TIP3    H132128   2.403   3.697   0.715
10729TIP3    H232129   2.280   3.635   0.779
10730TIP3   OH232130   5.806   4.891   4.914
10730TIP3    H132131   5.786   4.914   4.823
10730TIP3    H232132   5.847   4.970   4.950
10731TIP3   OH232133   5.354   0.626   6.746
10731TIP3    H132134   5.292   0.657   6.680
10731TIP3    H232135   5.439   0.630   6.702
10732TIP3   OH232136   1.269   0.906   6.471
10732TIP3    H132137   1.355   0.938   6.497
10732TIP3    H232138   1.286   0.845   6.399
10733TIP3   OH232139   7.831   7.640   5.793
10733TIP3    H132140   7.869   7.706   5.735
10733TIP3    H232141   7.741   7.630   5.762
10734TIP3   OH232142   5.928   4.027   2.965
10734TIP3    H132143   5.856   4.086   2.986
10734TIP3    H232144   6.005   4.069   3.003
10735TIP3   OH232145   0.270   0.904   1.732
10735TIP3    H132146   0.219   0.933   1.657
10735TIP3    H232147   0.207   0.855   1.786
10736TIP3   OH232148   1.562   2.296   5.073
10736TIP3    H132149   1.643   2.335   5.107
10736TIP3    H232150   1.591   2.231   5.009
10737TIP3   OH232151   4.741   0.350   2.398
10737TIP3    H132152   4.661   0.370   2.350
10737TIP3    H232153   4.728   0.263   2.434
10738TIP3   OH232154   5.909   2.616   2.275
10738TIP3    H132155   5.942   2.699   2.241
10738TIP3    H232156   5.829   2.600   2.226
10739TIP3   OH232157   0.131   7.013   0.192
10739TIP3    H132158   0.178   6.941   0.149
10739TIP3    H232159   0.165   7.014   0.281
10740TIP3   OH232160   7.737   3.638   1.188
10740TIP3    H132161   7.681   3.699   1.236
10740TIP3    H232162   7.817   3.633   1.240
10741TIP3   OH232163   7.080   6.108   2.646
10741TIP3    H132164   7.096   6.187   2.594
10741TIP3    H232165   7.032   6.139   2.723
10742TIP3   OH232166   2.981   1.700   3.498
10742TIP3    H132167   2.915   1.753   3.454
10742TIP3    H232168   2.967   1.716   3.591
10743TIP3   OH232169   6.615   7.682   0.329
10743TIP3    H132170   6.695   7.639   0.298
10743TIP3    H232171   6.647   7.754   0.383
10744TIP3   OH232172   3.153   1.684   2.132
10744TIP3    H132173   3.155   1.589   2.141
10744TIP3    H232174   3.245   1.709   2.123
10745TIP3   OH232175   4.930   4.035   5.222
10745TIP3    H132176   5.008   4.082   5.250
10745TIP3    H232177   4.872   4.037   5.298
10746TIP3   OH232178   1.559   7.074   3.484
10746TIP3    H132179   1.484   7.127   3.511
10746TIP3    H232180   1.528   6.984   3.486
10747TIP3   OH232181   2.122   1.160   1.017
10747TIP3    H132182   2.051   1.122   0.965
10747TIP3    H232183   2.187   1.090   1.023
10748TIP3   OH232184   4.098   0.259   0.371
10748TIP3    H132185   4.087   0.184   0.430
10748TIP3    H232186   4.172   0.307   0.407
10749TIP3   OH232187   2.552   3.736   5.014
10749TIP3    H132188   2.581   3.739   4.923
10749TIP3    H232189   2.468   3.691   5.011
10750TIP3   OH232190   6.473   1.827   2.830
10750TIP3    H132191   6.555   1.831   2.879
10750TIP3    H232192   6.422   1.901   2.861
10751TIP3   OH232193   5.618   2.506   5.893
10751TIP3    H132194   5.558   2.561   5.843
10751TIP3    H232195   5.695   2.498   5.837
10752TIP3   OH232196   4.805   7.655   5.152
10752TIP3    H132197   4.833   7.638   5.242
10752TIP3    H232198   4.842   7.741   5.132
10753TIP3   OH232199   4.049   1.732   2.147
10753TIP3    H132200   3.968   1.731   2.198
10753TIP3    H232201   4.116   1.698   2.207
10754TIP3   OH232202   6.138   1.193   3.801
10754TIP3    H132203   6.140   1.217   3.709
10754TIP3    H232204   6.045   1.185   3.822
10755TIP3   OH232205   6.525   2.687   0.246
10755TIP3    H132206   6.459   2.631   0.205
10755TIP3    H232207   6.474   2.755   0.291
10756TIP3   OH232208   3.020   2.480   1.597
10756TIP3    H132209   2.988   2.536   1.527
10756TIP3    H232210   2.942   2.453   1.645
10757TIP3   OH232211   4.246   2.027   5.752
10757TIP3    H132212   4.190   1.952   5.773
10757TIP3    H232213   4.213   2.059   5.668
10758TIP3   OH232214   6.607   7.821   0.917
10758TIP3    H132215   6.647   7.879   0.982
10758TIP3    H232216   6.673   7.755   0.899
10759TIP3   OH232217   7.800   7.682   0.389
10759TIP3    H132218   7.753   7.746   0.335
10759TIP3    H232219   7.880   7.728   0.415
10760TIP3   OH232220   4.964   0.304   3.897
10760TIP3    H132221   4.918   0.334   3.975
10760TIP3    H232222   4.993   0.216   3.919
10761TIP3   OH232223   6.761   2.424   0.891
10761TIP3    H132224   6.854   2.411   0.911
10761TIP3    H232225   6.760   2.486   0.819
10762TIP3   OH232226   6.932   4.363   5.169
10762TIP3    H132227   6.958   4.331   5.083
10762TIP3    H232228   6.924   4.284   5.223
10763TIP3   OH232229   4.459   5.055   0.716
10763TIP3    H132230   4.511   5.087   0.790
10763TIP3    H232231   4.368   5.060   0.747
10764TIP3   OH232232   1.901   5.211   4.332
10764TIP3    H132233   1.846   5.253   4.267
10764TIP3    H232234   1.842   5.154   4.381
10765TIP3   OH232235   5.004   3.439   1.478
10765TIP3    H132236   5.024   3.370   1.541
10765TIP3    H232237   5.005   3.396   1.393
10766TIP3   OH232238   3.534   1.390   4.017
10766TIP3    H132239   3.616   1.368   4.061
10766TIP3    H232240   3.559   1.456   3.952
10767TIP3   OH232241   7.468   0.103   6.433
10767TIP3    H132242   7.510   0.040   6.376
10767TIP3    H232243   7.540   0.139   6.485
10768TIP3   OH232244   6.025   4.458   6.321
10768TIP3    H132245   6.034   4.483   6.413
10768TIP3    H232246   5.961   4.519   6.285
10769TIP3   OH232247   5.443   0.156   0.388
10769TIP3    H132248   5.349   0.165   0.404
10769TIP3    H232249   5.451   0.132   0.296
10770TIP3   OH232250   6.629   5.374   1.597
10770TIP3    H132251   6.649   5.365   1.690
10770TIP3    H232252   6.572   5.451   1.592
10771TIP3   OH232253   4.177   7.371   1.448
10771TIP3    H132254   4.083   7.360   1.433
10771TIP3    H232255   4.207   7.284   1.474
10772TIP3   OH232256   4.508   2.003   4.554
10772TIP3    H132257   4.537   2.094   4.562
10772TIP3    H232258   4.415   2.005   4.576
10773TIP3   OH232259   5.690   7.777   3.444
10773TIP3    H132260   5.607   7.739   3.472
10773TIP3    H232261   5.672   7.870   3.432
10774TIP3   OH232262   7.409   2.898   3.891
10774TIP3    H132263   7.367   2.862   3.969
10774TIP3    H232264   7.481   2.950   3.925
10775TIP3   OH232265   5.385   0.633   6.069
10775TIP3    H132266   5.310   0.574   6.067
10775TIP3    H232267   5.413   0.640   5.978
10776TIP3   OH232268   2.493   0.898   6.122
10776TIP3    H132269   2.507   0.876   6.030
10776TIP3    H232270   2.551   0.839   6.170
10777TIP3   OH232271   4.734   2.652   6.625
10777TIP3    H132272   4.730   2.612   6.538
10777TIP3    H232273   4.647   2.690   6.637
10778TIP3   OH232274   0.328   6.430   6.098
10778TIP3    H132275   0.247   6.388   6.067
10778TIP3    H232276   0.382   6.357   6.128
10779TIP3   OH232277   5.777   5.637   3.622
10779TIP3    H132278   5.703   5.643   3.683
10779TIP3    H232279   5.767   5.551   3.581
10780TIP3   OH232280   7.900   4.062   4.194
10780TIP3    H132281   7.836   4.000   4.229
10780TIP3    H232282   7.899   4.135   4.256
10781TIP3   OH232283   7.722   1.377   5.978
10781TIP3    H132284   7.668   1.303   6.006
10781TIP3    H232285   7.687   1.401   5.893
10782TIP3   OH232286   4.333   4.607   2.573
10782TIP3    H132287   4.273   4.680   2.589
10782TIP3    H232288   4.398   4.615   2.643
10783TIP3   OH232289   2.735   5.651   5.954
10783TIP3    H132290   2.693   5.595   6.019
10783TIP3    H232291   2.735   5.738   5.994
10784TIP3   OH232292   2.329   6.144   2.893
10784TIP3    H132293   2.235   6.150   2.913
10784TIP3    H232294   2.370   6.116   2.975
10785TIP3   OH232295   7.549   5.179   5.828
10785TIP3    H132296   7.578   5.103   5.776
10785TIP3    H232297   7.456   5.186   5.810
10786TIP3   OH232298   3.465   0.211   5.508
10786TIP3    H132299   3.413   0.278   5.463
10786TIP3    H232300   3.406   0.177   5.576
10787TIP3   OH232301   7.070   1.098   0.887
10787TIP3    H132302   6.977   1.111   0.903
10787TIP3    H232303   7.089   1.012   0.925
10788TIP3   OH232304   3.078   5.149   6.568
10788TIP3    H132305   3.095   5.060   6.535
10788TIP3    H232306   3.096   5.206   6.493
10789TIP3   OH232307   2.244   7.140   0.147
10789TIP3    H132308   2.335   7.129   0.173
10789TIP3    H232309   2.243   7.121   0.054
10790TIP3   OH232310   6.622   0.353   1.431
10790TIP3    H132311   6.706   0.342   1.476
10790TIP3    H232312   6.621   0.445   1.405
10791TIP3   OH232313   4.523   4.759   2.794
10791TIP3    H132314   4.495   4.690   2.855
10791TIP3    H232315   4.607   4.789   2.828
10792TIP3   OH232316   7.387   2.723   6.509
10792TIP3    H132317   7.460   2.785   6.505
10792TIP3    H232318   7.425   2.638   6.487
10793TIP3   OH232319   0.310   5.302   4.893
10793TIP3    H132320   0.316   5.353   4.974
10793TIP3    H232321   0.365   5.225   4.908
10794TIP3   OH232322   5.423   2.569   6.591
10794TIP3    H132323   5.337   2.593   6.626
10794TIP3    H232324   5.405   2.497   6.531
10795TIP3   OH232325   7.885   4.005   1.148
10795TIP3    H132326   7.815   3.948   1.117
10795TIP3    H232327   7.845   4.056   1.219
10796TIP3   OH232328   6.827   3.931   2.546
10796TIP3    H132329   6.824   3.857   2.607
10796TIP3    H232330   6.866   3.896   2.467
10797TIP3   OH232331   3.892   2.515   2.645
10797TIP3    H132332   3.823   2.529   2.579
10797TIP3    H232333   3.965   2.477   2.596
10798TIP3   OH232334   5.036   1.969   4.179
10798TIP3    H132335   4.953   1.978   4.226
10798TIP3    H232336   5.072   1.886   4.211
10799TIP3   OH232337   1.035   2.216   4.528
10799TIP3    H132338   0.975   2.282   4.562
10799TIP3    H232339   1.091   2.193   4.601
10800TIP3   OH232340   0.010   7.609   0.010
10800TIP3    H132341  -0.062   7.652   0.056
10800TIP3    H232342  -0.032   7.539  -0.041
10801TIP3   OH232343   6.519   3.228   1.101
10801TIP3    H132344   6.606   3.269   1.105
10801TIP3    H232345   6.465   3.280   1.161
10802TIP3   OH232346   3.207   0.781   5.517
10802TIP3    H132347   3.161   0.810   5.438
10802TIP3    H232348   3.160   0.702   5.544
10803TIP3   OH232349   7.345   6.907   4.035
10803TIP3    H132350   7.267   6.869   3.994
10803TIP3    H232351   7.399   6.936   3.961
10804TIP3   OH232352   5.334   6.622   0.615
10804TIP3    H132353   5.382   6.705   0.615
10804TIP3    H232354   5.312   6.606   0.524
10805TIP3   OH232355   8.007   1.072   4.001
10805TIP3    H132356   7.952   1.033   3.933
10805TIP3    H232357   7.965   1.046   4.083
10806TIP3   OH232358   6.488   4.845   2.653
10806TIP3    H132359   6.448   4.918   2.606
10806TIP3    H232360   6.498   4.877   2.743
10807TIP3   OH232361   2.980   6.748   3.977
10807TIP3    H132362   2.950   6.681   4.039
10807TIP3    H232363   3.072   6.728   3.963
10808TIP3   OH232364   4.532   2.874   3.786
10808TIP3    H132365   4.444   2.842   3.805
10808TIP3    H232366   4.542   2.950   3.842
10809TIP3   OH232367   5.640   2.387   6.645
10809TIP3    H132368   5.604   2.450   6.707
10809TIP3    H232369   5.574   2.317   6.642
10810TIP3   OH232370   5.381   4.765   2.921
10810TIP3    H132371   5.470   4.735   2.907
10810TIP3    H232372   5.390   4.859   2.939
10811TIP3   OH232373   3.417   3.565   5.306
10811TIP3    H132374   3.503   3.548   5.344
10811TIP3    H232375   3.425   3.540   5.214
10812TIP3   OH232376   1.255   6.520   5.551
10812TIP3    H132377   1.237   6.474   5.469
10812TIP3    H232378   1.194   6.594   5.550
10813TIP3   OH232379   5.282   1.373   6.448
10813TIP3    H132380   5.247   1.311   6.512
10813TIP3    H232381   5.370   1.341   6.429
10814TIP3   OH232382   7.531   7.308   2.922
10814TIP3    H132383   7.565   7.245   2.859
10814TIP3    H232384   7.447   7.335   2.885
10815TIP3   OH232385   6.102   0.727   0.720
10815TIP3    H132386   6.171   0.740   0.786
10815TIP3    H232387   6.064   0.814   0.709
10816TIP3   OH232388   2.317   4.742   2.660
10816TIP3    H132389   2.353   4.813   2.714
10816TIP3    H232390   2.371   4.666   2.682
10817TIP3   OH232391   1.435   5.716   4.060
10817TIP3    H132392   1.507   5.723   4.123
10817TIP3    H232393   1.386   5.798   4.071
10818TIP3   OH232394   7.188   6.799   3.129
10818TIP3    H132395   7.213   6.874   3.074
10818TIP3    H232396   7.268   6.749   3.138
10819TIP3   OH232397   6.413   6.641   2.069
10819TIP3    H132398   6.334   6.689   2.044
10819TIP3    H232399   6.417   6.650   2.164
10820TIP3   OH232400   3.533   6.142   4.286
10820TIP3    H132401   3.440   6.163   4.283
10820TIP3    H232402   3.567   6.169   4.201
10821TIP3   OH232403   6.387   4.301   3.535
10821TIP3    H132404   6.334   4.379   3.517
10821TIP3    H232405   6.457   4.332   3.592
10822TIP3   OH232406   4.310   2.024   2.545
10822TIP3    H132407   4.299   2.072   2.627
10822TIP3    H232408   4.278   1.936   2.564
10823TIP3   OH232409   0.772   7.169   4.355
10823TIP3    H132410   0.703   7.102   4.363
10823TIP3    H232411   0.848   7.130   4.398
10824TIP3   OH232412   4.371   4.557   2.906
10824TIP3    H132413   4.357   4.493   2.976
10824TIP3    H232414   4.425   4.512   2.842
10825TIP3   OH232415   3.697   3.903   6.433
10825TIP3    H132416   3.767   3.854   6.390
10825TIP3    H232417   3.734   3.990   6.448
10826TIP3   OH232418   7.928   3.434   3.302
10826TIP3    H132419   7.896   3.523   3.288
10826TIP3    H232420   8.023   3.441   3.295
10827TIP3   OH232421   4.549   6.998   5.094
10827TIP3    H132422   4.553   6.925   5.155
10827TIP3    H232423   4.575   6.960   5.010
10828TIP3   OH232424   3.432   6.789   6.060
10828TIP3    H132425   3.424   6.720   5.994
10828TIP3    H232426   3.356   6.846   6.045
10829TIP3   OH232427   2.795   5.882   1.943
10829TIP3    H132428   2.778   5.861   1.851
10829TIP3    H232429   2.718   5.849   1.990
10830TIP3   OH232430   5.934   1.392   1.518
10830TIP3    H132431   6.027   1.410   1.506
10830TIP3    H232432   5.891   1.443   1.449
10831TIP3   OH232433   5.583   2.546   2.375
10831TIP3    H132434   5.617   2.634   2.391
10831TIP3    H232435   5.491   2.559   2.355
10832TIP3   OH232436   8.328   1.646   0.569
10832TIP3    H132437   8.303   1.573   0.512
10832TIP3    H232438   8.356   1.715   0.510
10833TIP3   OH232439   6.505   1.500   2.059
10833TIP3    H132440   6.424   1.491   2.109
10833TIP3    H232441   6.571   1.453   2.111
10834TIP3   OH232442   0.219   2.632   1.828
10834TIP3    H132443   0.254   2.642   1.740
10834TIP3    H232444   0.190   2.541   1.833
10835TIP3   OH232445   3.447   6.914   2.358
10835TIP3    H132446   3.404   6.916   2.273
10835TIP3    H232447   3.386   6.868   2.416
10836TIP3   OH232448   7.798   1.585   1.815
10836TIP3    H132449   7.771   1.670   1.849
10836TIP3    H232450   7.782   1.591   1.721
10837TIP3   OH232451   2.134   1.857   1.562
10837TIP3    H132452   2.182   1.837   1.482
10837TIP3    H232453   2.202   1.865   1.629
10838TIP3   OH232454   3.308   7.628   1.292
10838TIP3    H132455   3.347   7.691   1.353
10838TIP3    H232456   3.249   7.682   1.237
10839TIP3   OH232457   1.776   2.417   3.848
10839TIP3    H132458   1.803   2.509   3.841
10839TIP3    H232459   1.782   2.384   3.758
10840TIP3   OH232460   3.581   6.200   5.795
10840TIP3    H132461   3.552   6.236   5.711
10840TIP3    H232462   3.503   6.202   5.851
10841TIP3   OH232463   5.941   2.619   6.143
10841TIP3    H132464   5.941   2.714   6.149
10841TIP3    H232465   5.848   2.595   6.140
10842TIP3   OH232466   4.724   5.342   0.768
10842TIP3    H132467   4.792   5.402   0.738
10842TIP3    H232468   4.768   5.286   0.831
10843TIP3   OH232469   7.433   3.216   6.586
10843TIP3    H132470   7.515   3.246   6.626
10843TIP3    H232471   7.456   3.134   6.542
10844TIP3   OH232472   1.387   6.144   1.635
10844TIP3    H132473   1.328   6.070   1.651
10844TIP3    H232474   1.334   6.221   1.655
10845TIP3   OH232475   4.777   1.146   4.516
10845TIP3    H132476   4.682   1.139   4.521
10845TIP3    H232477   4.806   1.139   4.607
10846TIP3   OH232478   5.161   2.271   6.221
10846TIP3    H132479   5.151   2.211   6.148
10846TIP3    H232480   5.144   2.217   6.299
10847TIP3   OH232481   6.221   1.495   1.426
10847TIP3    H132482   6.173   1.577   1.421
10847TIP3    H232483   6.242   1.473   1.335
10848TIP3   OH232484   0.274   3.309   1.795
10848TIP3    H132485   0.189   3.307   1.840
10848TIP3    H232486   0.297   3.216   1.785
10849TIP3   OH232487   0.619   0.738   1.398
10849TIP3    H132488   0.529   0.768   1.409
10849TIP3    H232489   0.628   0.720   1.304
10850TIP3   OH232490   7.641   5.386   2.561
10850TIP3    H132491   7.624   5.465   2.510
10850TIP3    H232492   7.698   5.333   2.505
10851TIP3   OH232493   3.829   1.967   2.708
10851TIP3    H132494   3.790   1.928   2.630
10851TIP3    H232495   3.880   1.897   2.748
10852TIP3   OH232496   5.229   1.331   2.674
10852TIP3    H132497   5.170   1.330   2.749
10852TIP3    H232498   5.275   1.415   2.681
10853TIP3   OH232499   6.744   7.392   1.383
10853TIP3    H132500   6.797   7.465   1.415
10853TIP3    H232501   6.783   7.370   1.298
10854TIP3   OH232502   2.309   0.849   5.211
10854TIP3    H132503   2.251   0.904   5.158
10854TIP3    H232504   2.273   0.853   5.299
10855TIP3   OH232505   2.346   2.558   2.154
10855TIP3    H132506   2.347   2.592   2.065
10855TIP3    H232507   2.433   2.519   2.166
10856TIP3   OH232508   0.285   6.172   2.953
10856TIP3    H132509   0.271   6.115   3.029
10856TIP3    H232510   0.245   6.255   2.978
10857TIP3   OH232511   5.851   7.791   3.775
10857TIP3    H132512   5.793   7.733   3.823
10857TIP3    H232513   5.921   7.734   3.743
10858TIP3   OH232514   7.727   2.516   0.426
10858TIP3    H132515   7.793   2.491   0.491
10858TIP3    H232516   7.668   2.441   0.422
10859TIP3   OH232517   4.113   4.579   2.806
10859TIP3    H132518   4.200   4.582   2.845
10859TIP3    H232519   4.123   4.528   2.726
10860TIP3   OH232520   6.316   4.742   6.368
10860TIP3    H132521   6.238   4.727   6.315
10860TIP3    H232522   6.284   4.793   6.443
10861TIP3   OH232523   6.139   7.501   3.966
10861TIP3    H132524   6.151   7.595   3.979
10861TIP3    H232525   6.201   7.461   4.028
10862TIP3   OH232526   6.750   5.783   0.827
10862TIP3    H132527   6.737   5.767   0.920
10862TIP3    H232528   6.821   5.848   0.823
10863TIP3   OH232529   6.067   3.441   3.516
10863TIP3    H132530   6.148   3.483   3.547
10863TIP3    H232531   6.092   3.397   3.435
10864TIP3   OH232532   7.681   4.760   3.491
10864TIP3    H132533   7.663   4.851   3.466
10864TIP3    H232534   7.720   4.767   3.578
10865TIP3   OH232535   3.770   1.224   4.720
10865TIP3    H132536   3.712   1.208   4.795
10865TIP3    H232537   3.841   1.278   4.756
10866TIP3   OH232538   1.261   2.165   1.259
10866TIP3    H132539   1.170   2.178   1.231
10866TIP3    H232540   1.270   2.070   1.267
10867TIP3   OH232541   3.213   7.527   2.531
10867TIP3    H132542   3.196   7.537   2.438
10867TIP3    H232543   3.270   7.601   2.553
10868TIP3   OH232544   3.775   7.712   3.594
10868TIP3    H132545   3.708   7.772   3.628
10868TIP3    H232546   3.858   7.754   3.615
10869TIP3   OH232547   0.792   7.156   1.508
10869TIP3    H132548   0.833   7.220   1.567
10869TIP3    H232549   0.827   7.177   1.421
10870TIP3   OH232550   4.631   3.606   6.533
10870TIP3    H132551   4.603   3.519   6.561
10870TIP3    H232552   4.700   3.590   6.469
10871TIP3   OH232553   1.314   5.063   2.696
10871TIP3    H132554   1.322   5.085   2.603
10871TIP3    H232555   1.309   4.967   2.697
10872TIP3   OH232556   6.224   6.252   4.148
10872TIP3    H132557   6.219   6.256   4.244
10872TIP3    H232558   6.145   6.204   4.123
10873TIP3   OH232559   1.677   4.575   1.443
10873TIP3    H132560   1.673   4.528   1.526
10873TIP3    H232561   1.737   4.647   1.460
10874TIP3   OH232562   7.555   5.919   1.418
10874TIP3    H132563   7.578   5.883   1.504
10874TIP3    H232564   7.494   5.991   1.438
10875TIP3   OH232565   7.394   6.216   5.767
10875TIP3    H132566   7.386   6.121   5.777
10875TIP3    H232567   7.449   6.243   5.841
10876TIP3   OH232568   1.265   6.001   6.490
10876TIP3    H132569   1.208   6.074   6.514
10876TIP3    H232570   1.268   6.004   6.394
10877TIP3   OH232571   1.147   1.820   4.608
10877TIP3    H132572   1.190   1.735   4.603
10877TIP3    H232573   1.157   1.857   4.520
10878TIP3   OH232574   7.122   6.504   0.191
10878TIP3    H132575   7.071   6.428   0.165
10878TIP3    H232576   7.062   6.578   0.180
10879TIP3   OH232577   8.287   1.658   1.894
10879TIP3    H132578   8.321   1.743   1.923
10879TIP3    H232579   8.361   1.599   1.900
10880TIP3   OH232580   0.320   5.789   0.261
10880TIP3    H132581   0.300   5.705   0.219
10880TIP3    H232582   0.350   5.845   0.190
10881TIP3   OH232583   8.175   5.598   6.275
10881TIP3    H132584   8.187   5.558   6.361
10881TIP3    H232585   8.216   5.536   6.214
10882TIP3   OH232586   7.212   7.221   3.922
10882TIP3    H132587   7.288   7.244   3.869
10882TIP3    H232588   7.234   7.252   4.010
10883TIP3   OH232589   7.440   5.139   2.793
10883TIP3    H132590   7.362   5.107   2.839
10883TIP3    H232591   7.417   5.228   2.767
10884TIP3   OH232592   5.450   2.604   1.818
10884TIP3    H132593   5.424   2.651   1.897
10884TIP3    H232594   5.418   2.659   1.746
10885TIP3   OH232595   5.166   7.630   0.849
10885TIP3    H132596   5.154   7.725   0.850
10885TIP3    H232597   5.077   7.595   0.850
10886TIP3   OH232598   6.903   6.311   3.605
10886TIP3    H132599   6.833   6.331   3.544
10886TIP3    H232600   6.930   6.397   3.639
10887TIP3   OH232601   4.162   1.027   6.540
10887TIP3    H132602   4.148   0.933   6.528
10887TIP3    H232603   4.157   1.040   6.635
10888TIP3   OH232604   2.950   1.799   2.428
10888TIP3    H132605   2.988   1.866   2.372
10888TIP3    H232606   2.859   1.827   2.440
10889TIP3   OH232607   3.218   6.440   2.918
10889TIP3    H132608   3.161   6.386   2.863
10889TIP3    H232609   3.300   6.447   2.869
10890TIP3   OH232610   7.477   6.739   5.328
10890TIP3    H132611   7.441   6.827   5.321
10890TIP3    H232612   7.506   6.732   5.419
10891TIP3   OH232613   3.298   5.235   0.842
10891TIP3    H132614   3.362   5.298   0.810
10891TIP3    H232615   3.215   5.282   0.844
10892TIP3   OH232616   3.733   0.216   5.785
10892TIP3    H132617   3.640   0.198   5.800
10892TIP3    H232618   3.765   0.140   5.738
10893TIP3   OH232619   2.076   2.926   2.905
10893TIP3    H132620   2.067   2.915   2.811
10893TIP3    H232621   2.045   2.844   2.943
10894TIP3   OH232622   4.140   1.548   1.160
10894TIP3    H132623   4.177   1.596   1.086
10894TIP3    H232624   4.054   1.519   1.129
10895TIP3   OH232625   5.600   0.007   3.185
10895TIP3    H132626   5.661   0.079   3.166
10895TIP3    H232627   5.521   0.028   3.136
10896TIP3   OH232628   2.073   3.932   2.230
10896TIP3    H132629   1.992   3.894   2.264
10896TIP3    H232630   2.057   4.026   2.228
10897TIP3   OH232631   5.477   2.532   4.811
10897TIP3    H132632   5.386   2.518   4.786
10897TIP3    H232633   5.481   2.509   4.903
10898TIP3   OH232634   3.127   1.572   2.477
10898TIP3    H132635   3.160   1.617   2.555
10898TIP3    H232636   3.078   1.638   2.429
10899TIP3   OH232637   6.099   1.253   4.378
10899TIP3    H132638   6.146   1.330   4.346
10899TIP3    H232639   6.061   1.214   4.299
10900TIP3   OH232640   6.981   0.644   0.524
10900TIP3    H132641   7.030   0.562   0.534
10900TIP3    H232642   6.980   0.682   0.612
10901TIP3   OH232643   1.257   6.107   0.579
10901TIP3    H132644   1.223   6.036   0.524
10901TIP3    H232645   1.193   6.177   0.569
10902TIP3   OH232646   4.690   1.165   0.179
10902TIP3    H132647   4.748   1.236   0.149
10902TIP3    H232648   4.619   1.210   0.225
10903TIP3   OH232649   7.060   4.339   6.544
10903TIP3    H132650   7.013   4.325   6.626
10903TIP3    H232651   7.125   4.405   6.565
10904TIP3   OH232652   4.022   3.930   6.260
10904TIP3    H132653   4.025   3.870   6.185
10904TIP3    H232654   4.059   3.878   6.332
10905TIP3   OH232655   2.565   1.124   4.679
10905TIP3    H132656   2.518   1.049   4.644
10905TIP3    H232657   2.611   1.090   4.755
10906TIP3   OH232658   2.094   3.991   6.330
10906TIP3    H132659   2.155   3.931   6.373
10906TIP3    H232660   2.140   4.018   6.250
10907TIP3   OH232661   3.865   7.401   2.806
10907TIP3    H132662   3.913   7.473   2.766
10907TIP3    H232663   3.930   7.332   2.819
10908TIP3   OH232664   0.963   7.788   4.340
10908TIP3    H132665   0.911   7.841   4.279
10908TIP3    H232666   0.919   7.703   4.341
10909TIP3   OH232667   6.607   7.068   2.706
10909TIP3    H132668   6.579   6.979   2.725
10909TIP3    H232669   6.701   7.068   2.725
10910TIP3   OH232670   0.576   4.747   6.661
10910TIP3    H132671   0.574   4.783   6.572
10910TIP3    H232672   0.615   4.660   6.651
10911TIP3   OH232673   7.721   2.618   2.598
10911TIP3    H132674   7.748   2.529   2.577
10911TIP3    H232675   7.795   2.673   2.573
10912TIP3   OH232676   6.852   6.057   4.714
10912TIP3    H132677   6.805   6.107   4.648
10912TIP3    H232678   6.928   6.022   4.669
10913TIP3   OH232679   4.385   4.104   2.979
10913TIP3    H132680   4.474   4.114   3.011
10913TIP3    H232681   4.374   4.173   2.914
10914TIP3   OH232682   3.134   6.009   0.211
10914TIP3    H132683   3.164   6.003   0.120
10914TIP3    H232684   3.082   6.090   0.213
10915TIP3   OH232685   4.219   5.783   6.072
10915TIP3    H132686   4.175   5.861   6.038
10915TIP3    H232687   4.178   5.768   6.157
10916TIP3   OH232688   1.444   2.289   4.625
10916TIP3    H132689   1.387   2.300   4.701
10916TIP3    H232690   1.533   2.289   4.662
10917TIP3   OH232691   7.427   3.572   0.652
10917TIP3    H132692   7.452   3.509   0.584
10917TIP3    H232693   7.508   3.619   0.672
10918TIP3   OH232694   5.133   5.498   5.728
10918TIP3    H132695   5.114   5.430   5.664
10918TIP3    H232696   5.166   5.571   5.676
10919TIP3   OH232697   5.633   7.057   0.789
10919TIP3    H132698   5.721   7.068   0.825
10919TIP3    H232699   5.578   7.116   0.841
10920TIP3   OH232700   2.488   3.001   1.390
10920TIP3    H132701   2.471   2.909   1.412
10920TIP3    H232702   2.414   3.026   1.334
10921TIP3   OH232703   2.993   5.013   0.645
10921TIP3    H132704   3.088   5.008   0.661
10921TIP3    H232705   2.955   5.031   0.731
10922TIP3   OH232706   6.947   5.407   5.718
10922TIP3    H132707   6.920   5.498   5.717
10922TIP3    H232708   7.041   5.409   5.732
10923TIP3   OH232709   2.766   2.152   3.464
10923TIP3    H132710   2.703   2.221   3.482
10923TIP3    H232711   2.850   2.189   3.493
10924TIP3   OH232712   5.654   4.603   0.855
10924TIP3    H132713   5.627   4.664   0.786
10924TIP3    H232714   5.589   4.533   0.852
10925TIP3   OH232715   6.963   1.601   6.589
10925TIP3    H132716   6.980   1.608   6.683
10925TIP3    H232717   6.975   1.508   6.570
10926TIP3   OH232718   7.103   3.104   6.420
10926TIP3    H132719   7.108   3.010   6.435
10926TIP3    H232720   7.054   3.113   6.338
10927TIP3   OH232721   0.297   1.213   2.994
10927TIP3    H132722   0.365   1.198   3.061
10927TIP3    H232723   0.229   1.150   3.015
10928TIP3   OH232724   2.836   5.270   1.594
10928TIP3    H132725   2.873   5.309   1.515
10928TIP3    H232726   2.840   5.340   1.660
10929TIP3   OH232727   7.254   2.931   5.027
10929TIP3    H132728   7.344   2.946   5.058
10929TIP3    H232729   7.261   2.856   4.968
10930TIP3   OH232730   2.382   2.024   5.540
10930TIP3    H132731   2.380   1.998   5.632
10930TIP3    H232732   2.305   1.983   5.502
10931TIP3   OH232733   3.535   6.514   3.360
10931TIP3    H132734   3.541   6.428   3.401
10931TIP3    H232735   3.469   6.503   3.291
10932TIP3   OH232736   4.359   1.693   4.697
10932TIP3    H132737   4.448   1.708   4.728
10932TIP3    H232738   4.368   1.682   4.602
10933TIP3   OH232739   3.431   1.441   2.253
10933TIP3    H132740   3.515   1.461   2.294
10933TIP3    H232741   3.422   1.507   2.184
10934TIP3   OH232742   6.734   7.229   3.813
10934TIP3    H132743   6.821   7.196   3.788
10934TIP3    H232744   6.750   7.283   3.890
10935TIP3   OH232745   6.061   0.904   5.838
10935TIP3    H132746   6.091   0.994   5.822
10935TIP3    H232747   6.128   0.849   5.800
10936TIP3   OH232748   1.946   2.673   2.874
10936TIP3    H132749   1.906   2.602   2.925
10936TIP3    H232750   1.883   2.691   2.804
10937TIP3   OH232751   6.605   3.299   2.880
10937TIP3    H132752   6.693   3.323   2.912
10937TIP3    H232753   6.549   3.370   2.911
10938TIP3   OH232754   6.861   3.489   2.650
10938TIP3    H132755   6.783   3.502   2.595
10938TIP3    H232756   6.931   3.536   2.605
10939TIP3   OH232757   7.547   4.422   6.681
10939TIP3    H132758   7.502   4.400   6.599
10939TIP3    H232759   7.506   4.504   6.709
10940TIP3   OH232760   5.644   7.130   0.113
10940TIP3    H132761   5.689   7.150   0.195
10940TIP3    H232762   5.571   7.191   0.110
10941TIP3   OH232763   5.101   3.429   6.042
10941TIP3    H132764   5.113   3.366   6.113
10941TIP3    H232765   5.015   3.410   6.006
10942TIP3   OH232766   4.227   3.857   2.174
10942TIP3    H132767   4.156   3.799   2.147
10942TIP3    H232768   4.247   3.909   2.096
10943TIP3   OH232769   6.474   1.976   0.098
10943TIP3    H132770   6.497   1.965   0.005
10943TIP3    H232771   6.437   1.891   0.123
10944TIP3   OH232772   0.832   5.947   1.893
10944TIP3    H132773   0.786   5.962   1.976
10944TIP3    H232774   0.867   6.033   1.870
10945TIP3   OH232775   8.217   1.245   2.637
10945TIP3    H132776   8.312   1.250   2.650
10945TIP3    H232777   8.179   1.281   2.717
10946TIP3   OH232778   7.731   2.348   2.606
10946TIP3    H132779   7.820   2.322   2.630
10946TIP3    H232780   7.675   2.285   2.652
10947TIP3   OH232781   6.436   0.437   0.354
10947TIP3    H132782   6.426   0.349   0.317
10947TIP3    H232783   6.388   0.433   0.437
10948TIP3   OH232784   6.127   1.484   0.394
10948TIP3    H132785   6.038   1.485   0.360
10948TIP3    H232786   6.152   1.391   0.394
10949TIP3   OH232787   1.495   4.743   4.030
10949TIP3    H132788   1.577   4.699   4.051
10949TIP3    H232789   1.431   4.673   4.024
10950TIP3   OH232790   7.694   7.829   0.709
10950TIP3    H132791   7.740   7.838   0.793
10950TIP3    H232792   7.654   7.915   0.695
10951TIP3   OH232793   7.659   0.197   2.627
10951TIP3    H132794   7.718   0.244   2.568
10951TIP3    H232795   7.605   0.144   2.568
10952TIP3   OH232796   4.618   3.470   5.869
10952TIP3    H132797   4.581   3.476   5.781
10952TIP3    H232798   4.548   3.432   5.922
10953TIP3   OH232799   6.280   1.243   6.715
10953TIP3    H132800   6.214   1.305   6.683
10953TIP3    H232801   6.359   1.265   6.665
10954TIP3   OH232802   5.461   3.058   4.162
10954TIP3    H132803   5.548   3.087   4.136
10954TIP3    H232804   5.403   3.128   4.131
10955TIP3   OH232805   1.867   3.531   6.084
10955TIP3    H132806   1.918   3.612   6.076
10955TIP3    H232807   1.855   3.521   6.179
10956TIP3   OH232808   3.799   2.729   3.569
10956TIP3    H132809   3.872   2.702   3.514
10956TIP3    H232810   3.724   2.679   3.535
10957TIP3   OH232811   6.042   4.673   4.369
10957TIP3    H132812   6.096   4.689   4.292
10957TIP3    H232813   6.102   4.632   4.432
10958TIP3   OH232814   7.816   3.344   1.577
10958TIP3    H132815   7.777   3.427   1.553
10958TIP3    H232816   7.798   3.286   1.502
10959TIP3   OH232817   7.112   5.821   0.491
10959TIP3    H132818   7.189   5.869   0.523
10959TIP3    H232819   7.044   5.887   0.484
10960TIP3   OH232820   2.956   1.765   5.043
10960TIP3    H132821   2.969   1.732   4.954
10960TIP3    H232822   2.989   1.695   5.100
10961TIP3   OH232823   0.255   5.453   1.092
10961TIP3    H132824   0.285   5.364   1.075
10961TIP3    H232825   0.220   5.450   1.181
10962TIP3   OH232826   3.039   3.077   4.945
10962TIP3    H132827   2.962   3.087   4.890
10962TIP3    H232828   3.094   3.015   4.897
10963TIP3   OH232829   3.940   3.006   5.996
10963TIP3    H132830   4.008   3.040   5.937
10963TIP3    H232831   3.985   2.941   6.049
10964TIP3   OH232832   0.652   2.546   1.291
10964TIP3    H132833   0.685   2.635   1.288
10964TIP3    H232834   0.656   2.522   1.383
10965TIP3   OH232835   5.791   7.290   5.642
10965TIP3    H132836   5.701   7.261   5.628
10965TIP3    H232837   5.838   7.260   5.565
10966TIP3   OH232838   6.039   4.523   5.546
10966TIP3    H132839   6.119   4.482   5.514
10966TIP3    H232840   6.018   4.474   5.626
10967TIP3   OH232841   3.608   3.354   1.361
10967TIP3    H132842   3.643   3.349   1.272
10967TIP3    H232843   3.546   3.282   1.367
10968TIP3   OH232844   4.598   2.428   4.874
10968TIP3    H132845   4.572   2.473   4.955
10968TIP3    H232846   4.689   2.455   4.860
10969TIP3   OH232847   3.688   5.430   2.796
10969TIP3    H132848   3.731   5.381   2.866
10969TIP3    H232849   3.733   5.401   2.716
10970TIP3   OH232850   2.820   2.703   3.833
10970TIP3    H132851   2.913   2.704   3.854
10970TIP3    H232852   2.777   2.737   3.911
10971TIP3   OH232853   1.815   6.688   2.769
10971TIP3    H132854   1.753   6.638   2.716
10971TIP3    H232855   1.809   6.648   2.856
10972TIP3   OH232856   0.304   5.400   0.703
10972TIP3    H132857   0.359   5.475   0.727
10972TIP3    H232858   0.222   5.414   0.751
10973TIP3   OH232859   7.292   4.838   6.260
10973TIP3    H132860   7.371   4.802   6.220
10973TIP3    H232861   7.281   4.923   6.218
10974TIP3   OH232862   0.941   0.065   4.501
10974TIP3    H132863   0.886   0.041   4.427
10974TIP3    H232864   1.015   0.112   4.463
10975TIP3   OH232865   4.083   1.037   4.967
10975TIP3    H132866   4.071   0.984   5.046
10975TIP3    H232867   4.175   1.065   4.970
10976TIP3   OH232868   0.336   6.543   1.813
10976TIP3    H132869   0.250   6.502   1.813
10976TIP3    H232870   0.385   6.496   1.881
10977TIP3   OH232871   1.585   0.614   5.499
10977TIP3    H132872   1.508   0.615   5.557
10977TIP3    H232873   1.659   0.634   5.556
10978TIP3   OH232874   3.612   6.721   0.303
10978TIP3    H132875   3.588   6.804   0.347
10978TIP3    H232876   3.590   6.653   0.367
10979TIP3   OH232877   0.429   4.626   2.788
10979TIP3    H132878   0.500   4.583   2.741
10979TIP3    H232879   0.377   4.668   2.720
10980TIP3   OH232880   1.330   6.828   2.125
10980TIP3    H132881   1.310   6.763   2.057
10980TIP3    H232882   1.279   6.905   2.101
10981TIP3   OH232883   6.636   3.264   5.874
10981TIP3    H132884   6.623   3.175   5.839
10981TIP3    H232885   6.607   3.259   5.965
10982TIP3   OH232886   5.084   7.785   6.648
10982TIP3    H132887   5.063   7.819   6.562
10982TIP3    H232888   5.080   7.861   6.706
10983TIP3   OH232889   7.955   7.888   0.462
10983TIP3    H132890   7.929   7.964   0.515
10983TIP3    H232891   7.939   7.915   0.372
10984TIP3   OH232892   0.366   1.308   2.271
10984TIP3    H132893   0.372   1.218   2.301
10984TIP3    H232894   0.455   1.332   2.247
10985TIP3   OH232895   0.625   2.644   5.758
10985TIP3    H132896   0.553   2.703   5.779
10985TIP3    H232897   0.630   2.644   5.662
10986TIP3   OH232898   2.730   5.173   2.591
10986TIP3    H132899   2.751   5.254   2.544
10986TIP3    H232900   2.807   5.156   2.645
10987TIP3   OH232901   2.237   4.926   6.314
10987TIP3    H132902   2.303   4.983   6.352
10987TIP3    H232903   2.279   4.887   6.237
10988TIP3   OH232904   3.284   4.545   4.297
10988TIP3    H132905   3.227   4.468   4.299
10988TIP3    H232906   3.373   4.509   4.289
10989TIP3   OH232907   5.511   6.061   6.126
10989TIP3    H132908   5.532   5.973   6.156
10989TIP3    H232909   5.591   6.093   6.086
10990TIP3   OH232910   1.145   7.577   6.515
10990TIP3    H132911   1.145   7.671   6.495
10990TIP3    H232912   1.058   7.547   6.490
10991TIP3   OH232913   5.101   2.864   0.825
10991TIP3    H132914   5.116   2.866   0.730
10991TIP3    H232915   5.041   2.791   0.839
10992TIP3   OH232916   2.126   2.635   1.912
10992TIP3    H132917   2.048   2.653   1.965
10992TIP3    H232918   2.092   2.596   1.832
10993TIP3   OH232919   2.772   3.003   1.363
10993TIP3    H132920   2.792   2.924   1.312
10993TIP3    H232921   2.683   2.989   1.393
10994TIP3   OH232922   7.803   5.208   2.389
10994TIP3    H132923   7.835   5.260   2.315
10994TIP3    H232924   7.841   5.121   2.376
10995TIP3   OH232925   3.121   5.098   1.572
10995TIP3    H132926   3.065   5.022   1.557
10995TIP3    H232927   3.098   5.159   1.503
10996TIP3   OH232928   5.822   6.588   6.432
10996TIP3    H132929   5.832   6.670   6.481
10996TIP3    H232930   5.751   6.606   6.370
10997TIP3   OH232931   3.721   7.270   0.713
10997TIP3    H132932   3.673   7.351   0.696
10997TIP3    H232933   3.660   7.217   0.765
10998TIP3   OH232934   5.176   7.396   5.964
10998TIP3    H132935   5.252   7.429   5.916
10998TIP3    H232936   5.159   7.311   5.924
10999TIP3   OH232937   2.895   7.417   2.276
10999TIP3    H132938   2.803   7.403   2.295
10999TIP3    H232939   2.907   7.388   2.186
11000TIP3   OH232940   2.675   6.676   4.139
11000TIP3    H132941   2.673   6.735   4.214
11000TIP3    H232942   2.584   6.648   4.128
11001TIP3   OH232943   4.926   7.259   4.125
11001TIP3    H132944   4.897   7.197   4.192
11001TIP3    H232945   4.868   7.334   4.135
11002TIP3   OH232946   2.756   0.756   6.550
11002TIP3    H132947   2.850   0.756   6.531
11002TIP3    H232948   2.719   0.693   6.488
11003TIP3   OH232949   3.290   3.805   5.838
11003TIP3    H132950   3.243   3.881   5.805
11003TIP3    H232951   3.376   3.810   5.795
11004TIP3   OH232952   6.870   2.502   1.846
11004TIP3    H132953   6.782   2.481   1.877
11004TIP3    H232954   6.891   2.432   1.784
11005TIP3   OH232955   0.411   2.125   1.596
11005TIP3    H132956   0.389   2.153   1.685
11005TIP3    H232957   0.333   2.081   1.565
11006TIP3   OH232958   2.634   5.735   6.344
11006TIP3    H132959   2.542   5.736   6.369
11006TIP3    H232960   2.681   5.770   6.420
11007TIP3   OH232961   4.352   3.902   5.237
11007TIP3    H132962   4.395   3.968   5.182
11007TIP3    H232963   4.272   3.945   5.267
11008TIP3   OH232964   0.738   1.053   1.930
11008TIP3    H132965   0.749   0.962   1.903
11008TIP3    H232966   0.731   1.049   2.025
11009TIP3   OH232967   7.655   1.621   0.308
11009TIP3    H132968   7.580   1.608   0.365
11009TIP3    H232969   7.667   1.537   0.263
11010TIP3   OH232970   0.955   3.806   5.680
11010TIP3    H132971   0.999   3.803   5.595
11010TIP3    H232972   1.022   3.781   5.743
11011TIP3   OH232973   2.893   0.394   2.984
11011TIP3    H132974   2.943   0.455   2.928
11011TIP3    H232975   2.834   0.349   2.923
11012TIP3   OH232976   8.349   2.815   5.861
11012TIP3    H132977   8.275   2.756   5.857
11012TIP3    H232978   8.426   2.759   5.851
11013TIP3   OH232979   1.446   2.438   5.649
11013TIP3    H132980   1.359   2.452   5.686
11013TIP3    H232981   1.443   2.481   5.564
11014TIP3   OH232982   7.664   7.039   4.176
11014TIP3    H132983   7.626   7.027   4.089
11014TIP3    H232984   7.739   7.097   4.162
11015TIP3   OH232985   5.650   3.886   1.963
11015TIP3    H132986   5.613   3.798   1.955
11015TIP3    H232987   5.687   3.888   2.052
11016TIP3   OH232988   4.273   6.606   4.351
11016TIP3    H132989   4.182   6.588   4.372
11016TIP3    H232990   4.281   6.702   4.355
11017TIP3   OH232991   0.458   5.689   0.545
11017TIP3    H132992   0.485   5.717   0.458
11017TIP3    H232993   0.374   5.645   0.531
11018TIP3   OH232994   4.745   6.974   2.966
11018TIP3    H132995   4.702   7.047   2.923
11018TIP3    H232996   4.685   6.900   2.952
11019TIP3   OH232997   7.173   0.956   1.445
11019TIP3    H132998   7.115   0.880   1.457
11019TIP3    H232999   7.194   0.984   1.535
11020TIP3   OH233000   1.066   4.128   0.536
11020TIP3    H133001   1.068   4.202   0.474
11020TIP3    H233002   1.062   4.050   0.480
11021TIP3   OH233003   0.587   6.450   3.932
11021TIP3    H133004   0.643   6.410   3.866
11021TIP3    H233005   0.586   6.386   4.004
11022TIP3   OH233006   3.643   3.068   3.506
11022TIP3    H133007   3.611   3.158   3.500
11022TIP3    H233008   3.564   3.016   3.520
11023TIP3   OH233009   5.059   5.028   5.683
11023TIP3    H133010   5.072   5.053   5.592
11023TIP3    H233011   5.144   5.040   5.724
11024TIP3   OH233012   6.799   0.222   1.698
11024TIP3    H133013   6.838   0.270   1.625
11024TIP3    H233014   6.724   0.275   1.725
11025TIP3   OH233015   2.782   4.674   1.818
11025TIP3    H133016   2.872   4.641   1.812
11025TIP3    H233017   2.759   4.664   1.910
11026TIP3   OH233018   4.707   0.730   2.672
11026TIP3    H133019   4.664   0.726   2.587
11026TIP3    H233020   4.739   0.641   2.687
11027TIP3   OH233021   2.341   4.567   3.507
11027TIP3    H133022   2.368   4.558   3.416
11027TIP3    H233023   2.391   4.641   3.540
11028TIP3   OH233024   2.366   7.076   4.167
11028TIP3    H133025   2.446   7.117   4.135
11028TIP3    H233026   2.347   7.008   4.102
11029TIP3   OH233027   8.280   6.509   0.413
11029TIP3    H133028   8.276   6.589   0.361
11029TIP3    H233029   8.271   6.539   0.504
11030TIP3   OH233030   4.631   5.830   4.535
11030TIP3    H133031   4.694   5.874   4.592
11030TIP3    H233032   4.654   5.858   4.447
11031TIP3   OH233033   0.247   2.024   1.907
11031TIP3    H133034   0.274   1.998   1.995
11031TIP3    H233035   0.293   2.106   1.890
11032TIP3   OH233036   4.173   2.529   2.889
11032TIP3    H133037   4.211   2.583   2.820
11032TIP3    H233038   4.218   2.444   2.881
11033TIP3   OH233039   7.791   6.807   3.809
11033TIP3    H133040   7.834   6.841   3.887
11033TIP3    H233041   7.799   6.712   3.817
11034TIP3   OH233042   5.784   5.969   5.607
11034TIP3    H133043   5.849   5.967   5.537
11034TIP3    H233044   5.836   5.960   5.687
11035TIP3   OH233045   0.769   2.802   1.279
11035TIP3    H133046   0.719   2.860   1.222
11035TIP3    H233047   0.849   2.782   1.229
11036TIP3   OH233048   4.336   3.251   5.127
11036TIP3    H133049   4.241   3.245   5.139
11036TIP3    H233050   4.353   3.344   5.113
11037TIP3   OH233051   3.606   3.416   3.757
11037TIP3    H133052   3.523   3.455   3.786
11037TIP3    H233053   3.622   3.457   3.672
11038TIP3   OH233054   0.011   7.131   6.594
11038TIP3    H133055   0.099   7.165   6.613
11038TIP3    H233056  -0.017   7.181   6.517
11039TIP3   OH233057   2.298   1.433   4.477
11039TIP3    H133058   2.279   1.431   4.570
11039TIP3    H233059   2.268   1.519   4.448
11040TIP3   OH233060   3.302   0.589   6.120
11040TIP3    H133061   3.357   0.664   6.142
11040TIP3    H233062   3.237   0.624   6.059
11041TIP3   OH233063   6.878   3.886   2.216
11041TIP3    H133064   6.838   3.805   2.245
11041TIP3    H233065   6.806   3.936   2.178
11042TIP3   OH233066   5.295   1.111   0.311
11042TIP3    H133067   5.355   1.038   0.327
11042TIP3    H233068   5.252   1.090   0.228
11043TIP3   OH233069   8.176   0.925   5.478
11043TIP3    H133070   8.222   0.959   5.555
11043TIP3    H233071   8.084   0.926   5.503
11044TIP3   OH233072   6.869   6.416   6.749
11044TIP3    H133073   6.933   6.380   6.688
11044TIP3    H233074   6.894   6.507   6.759
11045TIP3   OH233075   7.361   2.433   4.958
11045TIP3    H133076   7.324   2.473   5.037
11045TIP3    H233077   7.294   2.372   4.927
11046TIP3   OH233078   2.779   5.213   0.553
11046TIP3    H133079   2.755   5.146   0.489
11046TIP3    H233080   2.817   5.163   0.625
11047TIP3   OH233081   7.098   6.107   5.702
11047TIP3    H133082   7.068   6.087   5.614
11047TIP3    H233083   7.178   6.054   5.713
11048TIP3   OH233084   6.170   1.236   0.809
11048TIP3    H133085   6.101   1.238   0.742
11048TIP3    H233086   6.154   1.315   0.861
11049TIP3   OH233087   2.558   7.368   4.973
11049TIP3    H133088   2.531   7.337   5.059
11049TIP3    H233089   2.485   7.424   4.944
11050TIP3   OH233090   3.763   2.179   6.455
11050TIP3    H133091   3.707   2.200   6.530
11050TIP3    H233092   3.772   2.084   6.458
11051TIP3   OH233093   0.188   2.566   2.988
11051TIP3    H133094   0.113   2.624   2.992
11051TIP3    H233095   0.173   2.512   2.910
11052TIP3   OH233096   1.040   6.358   2.305
11052TIP3    H133097   0.957   6.310   2.310
11052TIP3    H233098   1.015   6.450   2.310
11053TIP3   OH233099   3.093   1.797   5.541
11053TIP3    H133100   3.148   1.830   5.612
11053TIP3    H233101   3.010   1.844   5.551
11054TIP3   OH233102   7.547   3.550   6.841
11054TIP3    H133103   7.618   3.493   6.811
11054TIP3    H233104   7.468   3.512   6.802
11055TIP3   OH233105   5.489   7.103   3.408
11055TIP3    H133106   5.450   7.177   3.455
11055TIP3    H233107   5.581   7.103   3.436
11056TIP3   OH233108   7.538   3.128   3.183
11056TIP3    H133109   7.609   3.069   3.156
11056TIP3    H233110   7.491   3.080   3.251
11057TIP3   OH233111   2.947   7.004   4.149
11057TIP3    H133112   2.942   6.920   4.196
11057TIP3    H233113   3.036   7.005   4.113
11058TIP3   OH233114   4.832   6.219   4.024
11058TIP3    H133115   4.783   6.262   4.093
11058TIP3    H233116   4.815   6.271   3.945
11059TIP3   OH233117   1.108   4.194   1.604
11059TIP3    H133118   1.168   4.183   1.677
11059TIP3    H233119   1.025   4.157   1.635
11060TIP3   OH233120   7.341   1.713   4.599
11060TIP3    H133121   7.278   1.724   4.671
11060TIP3    H233122   7.425   1.741   4.637
11061TIP3   OH233123   0.801   5.946   1.108
11061TIP3    H133124   0.892   5.952   1.081
11061TIP3    H233125   0.770   5.863   1.072
11062TIP3   OH233126   6.880   0.747   6.607
11062TIP3    H133127   6.865   0.730   6.514
11062TIP3    H233128   6.973   0.769   6.613
11063TIP3   OH233129   5.846   1.304   5.348
11063TIP3    H133130   5.759   1.307   5.387
11063TIP3    H233131   5.853   1.385   5.297
11064TIP3   OH233132   6.726   3.810   0.583
11064TIP3    H133133   6.673   3.797   0.661
11064TIP3    H233134   6.769   3.895   0.596
11065TIP3   OH233135   7.429   7.085   4.861
11065TIP3    H133136   7.470   7.002   4.836
11065TIP3    H233137   7.410   7.128   4.777
11066TIP3   OH233138   5.522   2.924   3.873
11066TIP3    H133139   5.496   2.873   3.949
11066TIP3    H233140   5.536   2.859   3.804
11067TIP3   OH233141   3.079   7.188   0.014
11067TIP3    H133142   3.172   7.172   0.000
11067TIP3    H233143   3.063   7.159   0.104
11068TIP3   OH233144   4.223   1.913   1.288
11068TIP3    H133145   4.129   1.895   1.284
11068TIP3    H233146   4.261   1.833   1.326
11069TIP3   OH233147   0.789   1.333   3.123
11069TIP3    H133148   0.880   1.327   3.151
11069TIP3    H233149   0.739   1.348   3.203
11070TIP3   OH233150   0.710   1.563   3.311
11070TIP3    H133151   0.646   1.566   3.382
11070TIP3    H233152   0.794   1.577   3.354
11071TIP3   OH233153   7.149   4.334   4.015
11071TIP3    H133154   7.146   4.423   4.050
11071TIP3    H233155   7.073   4.329   3.957
11072TIP3   OH233156   0.014   5.880   4.893
11072TIP3    H133157  -0.078   5.879   4.868
11072TIP3    H233158   0.058   5.929   4.824
11073TIP3   OH233159   5.434   1.608   0.901
11073TIP3    H133160   5.341   1.626   0.905
11073TIP3    H233161   5.443   1.538   0.836
11074TIP3   OH233162   5.830   1.111   1.093
11074TIP3    H133163   5.897   1.107   1.024
11074TIP3    H233164   5.748   1.118   1.046
11075TIP3   OH233165   4.627   2.898   2.143
11075TIP3    H133166   4.548   2.949   2.159
11075TIP3    H233167   4.600   2.807   2.156
11076TIP3   OH233168   0.406   6.094   5.621
11076TIP3    H133169   0.431   6.007   5.591
11076TIP3    H233170   0.394   6.084   5.716
11077TIP3   OH233171   0.971   0.313   2.807
11077TIP3    H133172   0.923   0.362   2.741
11077TIP3    H233173   0.973   0.223   2.774
11078TIP3   OH233174   4.362   6.296   6.487
11078TIP3    H133175   4.327   6.316   6.574
11078TIP3    H233176   4.340   6.373   6.434
11079TIP3   OH233177   3.337   7.779   6.150
11079TIP3    H133178   3.411   7.778   6.089
11079TIP3    H233179   3.334   7.690   6.185
11080TIP3   OH233180   7.471   5.706   3.449
11080TIP3    H133181   7.378   5.697   3.469
11080TIP3    H233182   7.514   5.711   3.534
11081TIP3   OH233183   7.193   7.295   2.337
11081TIP3    H133184   7.171   7.361   2.271
11081TIP3    H233185   7.287   7.281   2.326
11082TIP3   OH233186   1.409   7.756   3.372
11082TIP3    H133187   1.492   7.756   3.324
11082TIP3    H233188   1.367   7.673   3.347
11083TIP3   OH233189   8.111   1.596   1.187
11083TIP3    H133190   8.033   1.540   1.195
11083TIP3    H233191   8.184   1.535   1.194
11084TIP3   OH233192   7.496   2.930   2.036
11084TIP3    H133193   7.556   2.861   2.007
11084TIP3    H233194   7.410   2.890   2.032
11085TIP3   OH233195   1.054   4.960   6.257
11085TIP3    H133196   0.965   4.971   6.225
11085TIP3    H233197   1.065   5.029   6.322
11086TIP3   OH233198   3.612   4.822   1.221
11086TIP3    H133199   3.651   4.903   1.253
11086TIP3    H233200   3.638   4.756   1.284
11087TIP3   OH233201   6.108   2.260   1.258
11087TIP3    H133202   6.057   2.277   1.179
11087TIP3    H233203   6.053   2.293   1.329
11088TIP3   OH233204   4.495   4.313   6.454
11088TIP3    H133205   4.517   4.238   6.510
11088TIP3    H233206   4.421   4.283   6.402
11089TIP3   OH233207   3.811   4.634   5.033
11089TIP3    H133208   3.884   4.691   5.009
11089TIP3    H233209   3.851   4.558   5.072
11090TIP3   OH233210   8.204   5.150   1.782
11090TIP3    H133211   8.266   5.167   1.711
11090TIP3    H233212   8.223   5.061   1.811
11091TIP3   OH233213   0.007   7.868   5.327
11091TIP3    H133214   0.099   7.842   5.337
11091TIP3    H233215  -0.030   7.802   5.269
11092TIP3   OH233216   1.303   3.192   5.723
11092TIP3    H133217   1.330   3.132   5.792
11092TIP3    H233218   1.295   3.277   5.766
11093TIP3   OH233219   7.639   1.131   3.764
11093TIP3    H133220   7.569   1.095   3.709
11093TIP3    H233221   7.703   1.061   3.771
11094TIP3   OH233222   6.843   5.132   5.773
11094TIP3    H133223   6.918   5.099   5.724
11094TIP3    H233224   6.854   5.227   5.773
11095TIP3   OH233225   5.686   6.095   5.853
11095TIP3    H133226   5.772   6.094   5.896
11095TIP3    H233227   5.701   6.052   5.769
11096TIP3   OH233228   3.345   1.000   6.781
11096TIP3    H133229   3.295   0.923   6.809
11096TIP3    H233230   3.436   0.976   6.793
11097TIP3   OH233231   8.085   6.686   2.339
11097TIP3    H133232   8.083   6.601   2.383
11097TIP3    H233233   8.048   6.747   2.402
11098TIP3   OH233234   8.039   5.034   1.324
11098TIP3    H133235   8.117   5.036   1.269
11098TIP3    H233236   8.067   4.985   1.402
11099TIP3   OH233237   6.187   0.817   2.579
11099TIP3    H133238   6.193   0.784   2.490
11099TIP3    H233239   6.177   0.912   2.569
11100TIP3   OH233240   5.915   6.656   5.296
11100TIP3    H133241   5.971   6.605   5.238
11100TIP3    H233242   5.962   6.658   5.379
11101TIP3   OH233243   5.137   0.586   4.208
11101TIP3    H133244   5.223   0.627   4.220
11101TIP3    H233245   5.156   0.500   4.171
11102TIP3   OH233246   8.144   0.634   1.140
11102TIP3    H133247   8.177   0.702   1.080
11102TIP3    H233248   8.223   0.599   1.180
11103TIP3   OH233249   5.615   1.282   2.706
11103TIP3    H133250   5.535   1.324   2.740
11103TIP3    H233251   5.682   1.350   2.712
11104TIP3   OH233252   7.011   6.799   4.193
11104TIP3    H133253   7.039   6.885   4.162
11104TIP3    H233254   6.997   6.748   4.113
11105TIP3   OH233255   2.725   4.089   0.502
11105TIP3    H133256   2.774   4.066   0.581
11105TIP3    H233257   2.682   4.007   0.476
11106TIP3   OH233258   2.299   5.360   4.135
11106TIP3    H133259   2.376   5.417   4.140
11106TIP3    H233260   2.324   5.281   4.182
11107TIP3   OH233261   6.991   5.616   3.871
11107TIP3    H133262   7.030   5.549   3.816
11107TIP3    H233263   6.921   5.653   3.818
11108TIP3   OH233264   1.140   7.555   3.667
11108TIP3    H133265   1.064   7.612   3.668
11108TIP3    H233266   1.107   7.472   3.632
11109TIP3   OH233267   0.006   4.368   4.066
11109TIP3    H133268  -0.067   4.309   4.086
11109TIP3    H233269  -0.017   4.450   4.108
11110TIP3   OH233270   1.951   2.244   2.630
11110TIP3    H133271   1.908   2.261   2.714
11110TIP3    H233272   2.039   2.279   2.641
11111TIP3   OH233273   6.093   0.312   5.247
11111TIP3    H133274   6.064   0.382   5.188
11111TIP3    H233275   6.141   0.357   5.316
11112TIP3   OH233276   4.067   2.161   0.230
11112TIP3    H133277   3.984   2.201   0.254
11112TIP3    H233278   4.134   2.222   0.261
11113TIP3   OH233279   0.049   6.629   3.462
11113TIP3    H133280   0.052   6.552   3.404
11113TIP3    H233281   0.063   6.594   3.549
11114TIP3   OH233282   5.802   4.394   1.626
11114TIP3    H133283   5.723   4.375   1.575
11114TIP3    H233284   5.769   4.426   1.710
11115TIP3   OH233285   5.331   5.573   3.988
11115TIP3    H133286   5.246   5.607   3.958
11115TIP3    H233287   5.317   5.551   4.080
11116TIP3   OH233288   5.171   1.527   6.759
11116TIP3    H133289   5.196   1.443   6.796
11116TIP3    H233290   5.096   1.508   6.702
11117TIP3   OH233291   3.804   2.990   1.971
11117TIP3    H133292   3.878   3.045   1.997
11117TIP3    H233293   3.742   3.050   1.931
11118TIP3   OH233294   6.819   6.623   4.346
11118TIP3    H133295   6.866   6.652   4.267
11118TIP3    H233296   6.750   6.688   4.358
11119TIP3   OH233297   0.875   1.370   2.247
11119TIP3    H133298   0.963   1.386   2.211
11119TIP3    H233299   0.889   1.360   2.341
11120TIP3   OH233300   1.378   3.045   3.547
11120TIP3    H133301   1.346   2.968   3.595
11120TIP3    H233302   1.367   3.117   3.608
11121TIP3   OH233303   7.507   2.993   5.094
11121TIP3    H133304   7.545   2.973   5.180
11121TIP3    H233305   7.581   3.022   5.042
11122TIP3   OH233306   8.385   0.602   3.874
11122TIP3    H133307   8.451   0.635   3.934
11122TIP3    H233308   8.360   0.517   3.911
11123TIP3   OH233309   2.351   3.977   2.333
11123TIP3    H133310   2.318   4.065   2.351
11123TIP3    H233311   2.296   3.919   2.385
11124TIP3   OH233312   7.912   6.203   3.978
11124TIP3    H133313   7.865   6.187   4.059
11124TIP3    H233314   7.898   6.123   3.926
11125TIP3   OH233315   0.270   6.958   5.398
11125TIP3    H133316   0.204   7.016   5.358
11125TIP3    H233317   0.353   6.988   5.362
11126TIP3   OH233318   0.925   0.067   3.065
11126TIP3    H133319   0.968   0.021   2.993
11126TIP3    H233320   0.997   0.092   3.123
11127TIP3   OH233321   6.605   2.408   1.955
11127TIP3    H133322   6.540   2.464   1.996
11127TIP3    H233323   6.566   2.382   1.872
11128TIP3   OH233324   1.133   1.301   6.252
11128TIP3    H133325   1.218   1.261   6.235
11128TIP3    H233326   1.139   1.333   6.342
11129TIP3   OH233327   2.986   1.822   0.851
11129TIP3    H133328   2.963   1.898   0.797
11129TIP3    H233329   2.984   1.856   0.941
11130TIP3   OH233330   7.381   4.472   0.649
11130TIP3    H133331   7.364   4.448   0.558
11130TIP3    H233332   7.464   4.520   0.646
11131TIP3   OH233333   6.321   7.353   4.746
11131TIP3    H133334   6.308   7.448   4.746
11131TIP3    H233335   6.306   7.326   4.836
11132TIP3   OH233336   6.899   5.450   2.574
11132TIP3    H133337   6.853   5.523   2.615
11132TIP3    H233338   6.985   5.485   2.551
11133TIP3   OH233339   1.397   2.192   0.407
11133TIP3    H133340   1.334   2.253   0.368
11133TIP3    H233341   1.464   2.248   0.446
11134TIP3   OH233342   0.455   1.308   5.632
11134TIP3    H133343   0.487   1.228   5.674
11134TIP3    H233344   0.361   1.296   5.625
11135TIP3   OH233345   1.033   0.393   1.156
11135TIP3    H133346   1.125   0.417   1.143
11135TIP3    H233347   1.037   0.301   1.183
11136TIP3   OH233348   1.218   3.707   4.169
11136TIP3    H133349   1.183   3.618   4.175
11136TIP3    H233350   1.294   3.707   4.226
11137TIP3   OH233351   6.424   5.973   4.335
11137TIP3    H133352   6.337   5.973   4.376
11137TIP3    H233353   6.483   5.943   4.405
11138TIP3   OH233354   7.274   7.050   3.589
11138TIP3    H133355   7.310   7.057   3.501
11138TIP3    H233356   7.334   7.099   3.644
11139TIP3   OH233357   2.669   6.891   0.229
11139TIP3    H133358   2.629   6.859   0.310
11139TIP3    H233359   2.644   6.827   0.162
11140TIP3   OH233360   2.281   6.093   1.848
11140TIP3    H133361   2.272   6.004   1.883
11140TIP3    H233362   2.264   6.083   1.754
11141TIP3   OH233363   3.878   0.909   1.411
11141TIP3    H133364   3.865   0.823   1.451
11141TIP3    H233365   3.817   0.912   1.338
11142TIP3   OH233366   1.320   4.550   2.069
11142TIP3    H133367   1.353   4.473   2.023
11142TIP3    H233368   1.399   4.599   2.093
11143TIP3   OH233369   2.255   3.943   3.701
11143TIP3    H133370   2.181   3.920   3.645
11143TIP3    H233371   2.291   4.023   3.661
11144TIP3   OH233372   6.688   5.816   6.442
11144TIP3    H133373   6.616   5.761   6.474
11144TIP3    H233374   6.663   5.839   6.353
11145TIP3   OH233375   1.989   2.896   2.383
11145TIP3    H133376   2.019   2.938   2.302
11145TIP3    H233377   1.962   2.808   2.354
11146TIP3   OH233378   3.344   2.522   5.695
11146TIP3    H133379   3.437   2.526   5.718
11146TIP3    H233380   3.332   2.595   5.635
11147TIP3   OH233381   7.545   4.415   3.405
11147TIP3    H133382   7.460   4.431   3.363
11147TIP3    H233383   7.529   4.431   3.498
11148TIP3   OH233384   5.958   0.944   5.078
11148TIP3    H133385   6.024   0.887   5.118
11148TIP3    H233386   5.898   0.964   5.150
11149TIP3   OH233387   8.372   6.253   0.990
11149TIP3    H133388   8.418   6.178   1.027
11149TIP3    H233389   8.279   6.233   1.000
11150TIP3   OH233390   6.912   4.493   4.110
11150TIP3    H133391   6.861   4.479   4.031
11150TIP3    H233392   6.867   4.441   4.177
11151TIP3   OH233393   8.313   6.966   4.859
11151TIP3    H133394   8.310   6.887   4.806
11151TIP3    H233395   8.355   7.031   4.802
11152TIP3   OH233396   4.372   3.807   4.797
11152TIP3    H133397   4.422   3.854   4.730
11152TIP3    H233398   4.399   3.716   4.787
11153TIP3   OH233399   6.364   6.763   1.590
11153TIP3    H133400   6.406   6.743   1.506
11153TIP3    H233401   6.272   6.745   1.576
11154TIP3   OH233402   8.047   3.347   6.623
11154TIP3    H133403   8.085   3.264   6.597
11154TIP3    H233404   7.970   3.358   6.567
11155TIP3   OH233405   2.907   6.449   2.928
11155TIP3    H133406   2.839   6.385   2.904
11155TIP3    H233407   2.954   6.465   2.846
11156TIP3   OH233408   1.729   1.643   3.043
11156TIP3    H133409   1.708   1.627   2.951
11156TIP3    H233410   1.737   1.556   3.081
11157TIP3   OH233411   7.556   5.750   0.161
11157TIP3    H133412   7.492   5.821   0.168
11157TIP3    H233413   7.514   5.676   0.206
11158TIP3   OH233414   2.512   1.723   1.592
11158TIP3    H133415   2.563   1.784   1.539
11158TIP3    H233416   2.574   1.654   1.615
11159TIP3   OH233417   3.501   4.561   5.187
11159TIP3    H133418   3.539   4.473   5.197
11159TIP3    H233419   3.411   4.551   5.217
11160TIP3   OH233420   5.296   0.248   0.821
11160TIP3    H133421   5.293   0.154   0.838
11160TIP3    H233422   5.356   0.283   0.888
11161TIP3   OH233423   7.486   6.933   0.498
11161TIP3    H133424   7.574   6.957   0.470
11161TIP3    H233425   7.436   7.015   0.492
11162TIP3   OH233426   5.030   1.789   4.768
11162TIP3    H133427   5.077   1.861   4.726
11162TIP3    H233428   5.076   1.775   4.851
11163TIP3   OH233429   0.985   1.613   2.121
11163TIP3    H133430   1.006   1.694   2.167
11163TIP3    H233431   0.902   1.584   2.161
11164TIP3   OH233432   8.167   3.985   1.389
11164TIP3    H133433   8.178   3.910   1.447
11164TIP3    H233434   8.243   3.982   1.331
11165TIP3   OH233435   1.201   6.899   4.614
11165TIP3    H133436   1.194   6.849   4.695
11165TIP3    H233437   1.113   6.897   4.577
11166TIP3   OH233438   7.694   1.826   1.844
11166TIP3    H133439   7.604   1.854   1.864
11166TIP3    H233440   7.718   1.877   1.767
11167TIP3   OH233441   6.834   4.443   1.797
11167TIP3    H133442   6.922   4.463   1.828
11167TIP3    H233443   6.846   4.418   1.705
11168TIP3   OH233444   1.527   5.904   5.376
11168TIP3    H133445   1.440   5.864   5.380
11168TIP3    H233446   1.581   5.840   5.330
11169TIP3   OH233447   6.480   3.598   3.910
11169TIP3    H133448   6.422   3.527   3.938
11169TIP3    H233449   6.421   3.668   3.883
11170TIP3   OH233450   6.857   3.066   5.929
11170TIP3    H133451   6.778   3.011   5.932
11170TIP3    H233452   6.877   3.085   6.020
11171TIP3   OH233453   7.383   0.961   0.261
11171TIP3    H133454   7.290   0.947   0.281
11171TIP3    H233455   7.384   1.040   0.207
11172TIP3   OH233456   4.099   3.783   4.254
11172TIP3    H133457   4.049   3.724   4.197
11172TIP3    H233458   4.070   3.871   4.229
11173TIP3   OH233459   1.600   4.489   1.691
11173TIP3    H133460   1.666   4.430   1.726
11173TIP3    H233461   1.517   4.449   1.715
11174TIP3   OH233462   6.345   7.854   5.730
11174TIP3    H133463   6.254   7.866   5.704
11174TIP3    H233464   6.382   7.942   5.728
11175TIP3   OH233465   1.693   5.118   5.353
11175TIP3    H133466   1.758   5.099   5.421
11175TIP3    H233467   1.742   5.168   5.287
11176TIP3   OH233468   7.177   3.847   2.424
11176TIP3    H133469   7.249   3.833   2.363
11176TIP3    H233470   7.133   3.926   2.392
11177TIP3   OH233471   0.299   7.908   0.357
11177TIP3    H133472   0.268   7.862   0.279
11177TIP3    H233473   0.219   7.933   0.403
11178TIP3   OH233474   3.604   2.847   5.273
11178TIP3    H133475   3.683   2.793   5.267
11178TIP3    H233476   3.615   2.912   5.204
11179TIP3   OH233477   5.430   5.168   1.452
11179TIP3    H133478   5.521   5.189   1.427
11179TIP3    H233479   5.396   5.250   1.488
11180TIP3   OH233480   0.671   7.545   3.481
11180TIP3    H133481   0.742   7.574   3.424
11180TIP3    H233482   0.605   7.510   3.421
11181TIP3   OH233483   3.196   0.268   1.471
11181TIP3    H133484   3.262   0.292   1.537
11181TIP3    H233485   3.141   0.346   1.464
11182TIP3   OH233486   6.768   6.934   5.115
11182TIP3    H133487   6.746   6.871   5.047
11182TIP3    H233488   6.720   7.014   5.089
11183TIP3   OH233489   5.320   4.264   4.703
11183TIP3    H133490   5.372   4.195   4.744
11183TIP3    H233491   5.378   4.340   4.703
11184TIP3   OH233492   0.086   3.145   6.114
11184TIP3    H133493   0.140   3.202   6.059
11184TIP3    H233494   0.140   3.128   6.191
11185TIP3   OH233495   7.860   5.904   5.661
11185TIP3    H133496   7.780   5.935   5.705
11185TIP3    H233497   7.892   5.981   5.613
11186TIP3   OH233498   1.301   1.683   2.591
11186TIP3    H133499   1.327   1.766   2.551
11186TIP3    H233500   1.276   1.628   2.516
11187TIP3   OH233501   5.325   0.173   4.880
11187TIP3    H133502   5.262   0.245   4.886
11187TIP3    H233503   5.274   0.095   4.902
11188TIP3   OH233504   6.649   0.242   3.698
11188TIP3    H133505   6.657   0.282   3.611
11188TIP3    H233506   6.571   0.282   3.736
11189TIP3   OH233507   5.620   5.766   1.444
11189TIP3    H133508   5.651   5.742   1.356
11189TIP3    H233509   5.618   5.862   1.443
11190TIP3   OH233510   0.125   6.082   4.736
11190TIP3    H133511   0.194   6.033   4.691
11190TIP3    H233512   0.063   6.106   4.667
11191TIP3   OH233513   4.392   2.391   5.621
11191TIP3    H133514   4.407   2.485   5.626
11191TIP3    H233515   4.352   2.369   5.705
11192TIP3   OH233516   0.978   2.349   1.742
11192TIP3    H133517   1.008   2.328   1.653
11192TIP3    H233518   0.991   2.267   1.790
11193TIP3   OH233519   2.902   4.845   4.174
11193TIP3    H133520   2.916   4.893   4.092
11193TIP3    H233521   2.990   4.820   4.203
11194TIP3   OH233522   1.863   5.253   2.139
11194TIP3    H133523   1.955   5.258   2.111
11194TIP3    H233524   1.814   5.285   2.064
11195TIP3   OH233525   2.741   5.026   4.877
11195TIP3    H133526   2.721   4.960   4.811
11195TIP3    H233527   2.658   5.043   4.921
11196TIP3   OH233528   3.012   0.071   4.265
11196TIP3    H133529   3.038   0.076   4.174
11196TIP3    H233530   3.048  -0.012   4.296
11197TIP3   OH233531   0.208   4.887   0.216
11197TIP3    H133532   0.163   4.937   0.149
11197TIP3    H233533   0.301   4.902   0.198
11198TIP3   OH233534   3.871   0.109   5.207
11198TIP3    H133535   3.966   0.107   5.196
11198TIP3    H233536   3.840   0.028   5.167
11199TIP3   OH233537   6.305   4.448   5.417
11199TIP3    H133538   6.307   4.543   5.406
11199TIP3    H233539   6.248   4.417   5.348
11200TIP3   OH233540   4.479   2.449   6.654
11200TIP3    H133541   4.469   2.356   6.674
11200TIP3    H233542   4.570   2.459   6.628
11201TIP3   OH233543   2.979   1.378   2.711
11201TIP3    H133544   2.915   1.442   2.741
11201TIP3    H233545   3.025   1.422   2.639
11202TIP3   OH233546   0.328   1.681   1.203
11202TIP3    H133547   0.333   1.675   1.108
11202TIP3    H233548   0.417   1.662   1.232
11203TIP3   OH233549   1.128   1.845   2.173
11203TIP3    H133550   1.109   1.928   2.129
11203TIP3    H233551   1.220   1.851   2.196
11204TIP3   OH233552   0.491   0.414   6.522
11204TIP3    H133553   0.399   0.436   6.529
11204TIP3    H233554   0.492   0.323   6.493
11205TIP3   OH233555   4.389   0.001   6.007
11205TIP3    H133556   4.334   0.057   5.953
11205TIP3    H233557   4.327  -0.054   6.055
11206TIP3   OH233558   6.674   4.236   3.906
11206TIP3    H133559   6.635   4.212   3.990
11206TIP3    H233560   6.667   4.331   3.902
11207TIP3   OH233561   5.937   0.084   0.021
11207TIP3    H133562   6.031   0.066   0.018
11207TIP3    H233563   5.899   0.024  -0.044
11208TIP3   OH233564   4.647   1.022   2.121
11208TIP3    H133565   4.710   1.021   2.193
11208TIP3    H233566   4.699   1.049   2.045
11209TIP3   OH233567   7.852   0.480   1.699
11209TIP3    H133568   7.934   0.438   1.725
11209TIP3    H233569   7.807   0.413   1.646
11210TIP3   OH233570   1.864   2.646   0.807
11210TIP3    H133571   1.894   2.736   0.821
11210TIP3    H233572   1.779   2.642   0.850
11211TIP3   OH233573   3.525   6.096   6.123
11211TIP3    H133574   3.437   6.069   6.150
11211TIP3    H233575   3.564   6.017   6.086
11212TIP3   OH233576   5.334   4.499   6.086
11212TIP3    H133577   5.321   4.563   6.016
11212TIP3    H233578   5.314   4.548   6.166
11213TIP3   OH233579   0.373   3.518   2.109
11213TIP3    H133580   0.327   3.505   2.192
11213TIP3    H233581   0.441   3.583   2.129
11214TIP3   OH233582   0.794   4.544   1.185
11214TIP3    H133583   0.876   4.498   1.166
11214TIP3    H233584   0.819   4.613   1.247
11215TIP3   OH233585   5.228   0.080   3.663
11215TIP3    H133586   5.264   0.020   3.728
11215TIP3    H233587   5.288   0.075   3.589
11216TIP3   OH233588   1.578   7.768   2.493
11216TIP3    H133589   1.609   7.821   2.567
11216TIP3    H233590   1.585   7.677   2.524
11217TIP3   OH233591   5.038   3.858   5.467
11217TIP3    H133592   5.026   3.923   5.536
11217TIP3    H233593   4.951   3.818   5.458
11218TIP3   OH233594   0.453   7.795   0.564
11218TIP3    H133595   0.411   7.709   0.560
11218TIP3    H233596   0.415   7.844   0.492
11219TIP3   OH233597   2.117   1.419   5.304
11219TIP3    H133598   2.119   1.372   5.221
11219TIP3    H233599   2.149   1.507   5.283
11220TIP3   OH233600   0.955   5.811   4.777
11220TIP3    H133601   0.947   5.907   4.771
11220TIP3    H233602   0.987   5.795   4.866
11221TIP3   OH233603   3.759   5.135   0.639
11221TIP3    H133604   3.812   5.076   0.693
11221TIP3    H233605   3.668   5.116   0.666
11222TIP3   OH233606   7.801   0.366   4.902
11222TIP3    H133607   7.711   0.331   4.906
11222TIP3    H233608   7.840   0.320   4.828
11223TIP3   OH233609   2.164   2.792   0.559
11223TIP3    H133610   2.143   2.748   0.641
11223TIP3    H233611   2.186   2.721   0.499
11224TIP3   OH233612   7.205   1.083   1.704
11224TIP3    H133613   7.131   1.114   1.653
11224TIP3    H233614   7.168   1.017   1.763
11225TIP3   OH233615   5.817   3.096   0.133
11225TIP3    H133616   5.844   3.161   0.198
11225TIP3    H233617   5.829   3.012   0.177
11226TIP3   OH233618   7.935   3.068   2.172
11226TIP3    H133619   7.861   3.103   2.123
11226TIP3    H233620   7.908   2.979   2.196
11227TIP3   OH233621   4.917   0.387   5.205
11227TIP3    H133622   4.938   0.359   5.116
11227TIP3    H233623   4.843   0.447   5.194
11228TIP3   OH233624   4.352   0.482   2.934
11228TIP3    H133625   4.307   0.564   2.950
11228TIP3    H233626   4.445   0.502   2.947
11229TIP3   OH233627   6.963   7.021   3.302
11229TIP3    H133628   6.894   7.054   3.360
11229TIP3    H233629   7.042   7.067   3.330
11230TIP3   OH233630   0.717   6.364   0.713
11230TIP3    H133631   0.677   6.293   0.763
11230TIP3    H233632   0.806   6.372   0.749
11231TIP3   OH233633   2.987   4.028   4.989
11231TIP3    H133634   3.025   3.942   4.977
11231TIP3    H233635   3.060   4.084   5.015
11232TIP3   OH233636   4.829   0.405   4.118
11232TIP3    H133637   4.737   0.411   4.142
11232TIP3    H233638   4.862   0.495   4.125
11233TIP3   OH233639   4.601   3.752   5.200
11233TIP3    H133640   4.509   3.778   5.202
11233TIP3    H233641   4.602   3.670   5.152
11234TIP3   OH233642   0.871   1.105   4.211
11234TIP3    H133643   0.861   1.010   4.202
11234TIP3    H233644   0.783   1.136   4.232
11235TIP3   OH233645   0.321   0.979   6.587
11235TIP3    H133646   0.300   1.022   6.670
11235TIP3    H233647   0.359   1.049   6.533
11236TIP3   OH233648   0.211   3.921   3.294
11236TIP3    H133649   0.127   3.898   3.256
11236TIP3    H233650   0.276   3.882   3.234
11237TIP3   OH233651   4.046   1.058   3.895
11237TIP3    H133652   4.102   1.125   3.933
11237TIP3    H233653   4.106   0.987   3.872
11238TIP3   OH233654   7.598   2.397   5.650
11238TIP3    H133655   7.532   2.335   5.620
11238TIP3    H233656   7.610   2.457   5.576
11239TIP3   OH233657   5.491   2.183   1.170
11239TIP3    H133658   5.454   2.188   1.259
11239TIP3    H233659   5.446   2.108   1.130
11240TIP3   OH233660   1.258   4.995   6.801
11240TIP3    H133661   1.222   4.908   6.783
11240TIP3    H233662   1.250   5.004   6.896
11241TIP3   OH233663   4.365   2.807   3.020
11241TIP3    H133664   4.354   2.712   3.016
11241TIP3    H233665   4.416   2.828   2.942
11242TIP3   OH233666   5.283   2.496   0.604
11242TIP3    H133667   5.230   2.436   0.656
11242TIP3    H233668   5.222   2.566   0.579
11243TIP3   OH233669   0.904   4.049   2.474
11243TIP3    H133670   0.827   4.051   2.417
11243TIP3    H233671   0.880   3.990   2.545
11244TIP3   OH233672   0.778   2.006   6.052
11244TIP3    H133673   0.770   1.963   5.967
11244TIP3    H233674   0.741   2.094   6.037
11245TIP3   OH233675   1.199   2.218   3.670
11245TIP3    H133676   1.274   2.253   3.622
11245TIP3    H233677   1.142   2.182   3.602
11246TIP3   OH233678   0.659   0.228   1.323
11246TIP3    H133679   0.672   0.183   1.240
11246TIP3    H233680   0.566   0.247   1.327
11247TIP3   OH233681   4.842   5.919   0.149
11247TIP3    H133682   4.774   5.982   0.123
11247TIP3    H233683   4.895   5.908   0.070
11248TIP3   OH233684   6.111   1.712   4.362
11248TIP3    H133685   6.153   1.627   4.351
11248TIP3    H233686   6.022   1.691   4.390
11249TIP3   OH233687   5.813   6.731   6.032
11249TIP3    H133688   5.794   6.716   5.939
11249TIP3    H233689   5.868   6.809   6.033
11250TIP3   OH233690   4.775   7.638   6.769
11250TIP3    H133691   4.690   7.660   6.808
11250TIP3    H233692   4.839   7.681   6.825
11251TIP3   OH233693   1.927   5.836   4.184
11251TIP3    H133694   1.976   5.809   4.262
11251TIP3    H233695   1.930   5.761   4.126
11252TIP3   OH233696   4.755   1.988   0.976
11252TIP3    H133697   4.707   1.906   0.961
11252TIP3    H233698   4.839   1.960   1.013
11253TIP3   OH233699   1.202   0.055   6.640
11253TIP3    H133700   1.120   0.007   6.646
11253TIP3    H233701   1.200   0.116   6.714
11254TIP3   OH233702   1.216   2.898   5.593
11254TIP3    H133703   1.130   2.858   5.578
11254TIP3    H233704   1.210   2.984   5.549
11255TIP3   OH233705   3.406   7.542   6.274
11255TIP3    H133706   3.473   7.526   6.207
11255TIP3    H233707   3.454   7.540   6.357
11256TIP3   OH233708   0.741   7.739   2.393
11256TIP3    H133709   0.815   7.716   2.336
11256TIP3    H233710   0.714   7.826   2.364
11257TIP3   OH233711   6.229   2.872   0.652
11257TIP3    H133712   6.286   2.807   0.611
11257TIP3    H233713   6.172   2.903   0.581
11258TIP3   OH233714   6.883   5.518   4.483
11258TIP3    H133715   6.889   5.427   4.456
11258TIP3    H233716   6.970   5.539   4.517
11259TIP3   OH233717   1.226   3.827   1.635
11259TIP3    H133718   1.224   3.738   1.601
11259TIP3    H233719   1.319   3.844   1.653
11260TIP3   OH233720   5.528   6.213   0.688
11260TIP3    H133721   5.520   6.309   0.691
11260TIP3    H233722   5.612   6.195   0.731
11261TIP3   OH233723   6.354   0.428   3.068
11261TIP3    H133724   6.394   0.514   3.058
11261TIP3    H233725   6.332   0.422   3.161
11262TIP3   OH233726   3.865   4.584   2.932
11262TIP3    H133727   3.953   4.585   2.894
11262TIP3    H233728   3.865   4.659   2.991
11263TIP3   OH233729   5.733   7.665   3.108
11263TIP3    H133730   5.783   7.611   3.168
11263TIP3    H233731   5.643   7.661   3.140
11264TIP3   OH233732   1.991   4.464   4.801
11264TIP3    H133733   2.066   4.424   4.844
11264TIP3    H233734   1.924   4.470   4.869
11265TIP3   OH233735   6.261   7.861   2.082
11265TIP3    H133736   6.269   7.824   2.170
11265TIP3    H233737   6.183   7.916   2.085
11266TIP3   OH233738   1.887   6.456   2.947
11266TIP3    H133739   1.811   6.427   2.897
11266TIP3    H233740   1.859   6.448   3.039
11267TIP3   OH233741   8.226   0.952   2.917
11267TIP3    H133742   8.303   0.916   2.874
11267TIP3    H233743   8.164   0.967   2.846
11268TIP3   OH233744   5.099   1.715   6.256
11268TIP3    H133745   5.033   1.647   6.272
11268TIP3    H233746   5.178   1.667   6.231
11269TIP3   OH233747   8.227   1.802   2.940
11269TIP3    H133748   8.210   1.756   2.858
11269TIP3    H233749   8.254   1.890   2.914
11270TIP3   OH233750   4.086   0.781   6.035
11270TIP3    H133751   4.178   0.804   6.053
11270TIP3    H233752   4.091   0.694   5.994
11271TIP3   OH233753   5.584   7.297   6.382
11271TIP3    H133754   5.540   7.295   6.297
11271TIP3    H233755   5.661   7.351   6.368
11272TIP3   OH233756   4.268   3.248   3.791
11272TIP3    H133757   4.293   3.252   3.698
11272TIP3    H233758   4.183   3.203   3.791
11273TIP3   OH233759   3.612   4.876   4.566
11273TIP3    H133760   3.684   4.835   4.613
11273TIP3    H233761   3.594   4.956   4.615
11274TIP3   OH233762   5.898   5.768   2.341
11274TIP3    H133763   5.977   5.793   2.292
11274TIP3    H233764   5.927   5.765   2.432
11275TIP3   OH233765   0.107   6.927   5.064
11275TIP3    H133766   0.175   6.865   5.040
11275TIP3    H233767   0.073   6.960   4.981
11276TIP3   OH233768   4.475   1.486   6.159
11276TIP3    H133769   4.541   1.431   6.201
11276TIP3    H233770   4.525   1.552   6.112
11277TIP3   OH233771   8.300   0.040   4.574
11277TIP3    H133772   8.314   0.126   4.533
11277TIP3    H233773   8.223   0.005   4.531
11278TIP3   OH233774   4.687   0.766   2.946
11278TIP3    H133775   4.700   0.757   2.852
11278TIP3    H233776   4.636   0.847   2.955
11279TIP3   OH233777   5.840   0.933   0.689
11279TIP3    H133778   5.827   0.995   0.618
11279TIP3    H233779   5.770   0.869   0.679
11280TIP3   OH233780   3.591   4.807   0.946
11280TIP3    H133781   3.600   4.820   1.041
11280TIP3    H233782   3.650   4.734   0.927
11281TIP3   OH233783   1.553   4.987   1.186
11281TIP3    H133784   1.556   5.076   1.151
11281TIP3    H233785   1.577   4.931   1.111
11282TIP3   OH233786   7.287   3.621   5.514
11282TIP3    H133787   7.221   3.655   5.454
11282TIP3    H233788   7.240   3.559   5.569
11283TIP3   OH233789   5.995   0.792   1.971
11283TIP3    H133790   5.913   0.833   1.998
11283TIP3    H233791   5.983   0.770   1.879
11284TIP3   OH233792   0.312   0.149   0.568
11284TIP3    H133793   0.345   0.098   0.494
11284TIP3    H233794   0.391   0.169   0.620
11285TIP3   OH233795   7.485   6.194   4.062
11285TIP3    H133796   7.445   6.152   4.138
11285TIP3    H233797   7.411   6.221   4.008
11286TIP3   OH233798   3.878   6.691   2.112
11286TIP3    H133799   3.808   6.753   2.134
11286TIP3    H233800   3.955   6.727   2.155
11287TIP3   OH233801   1.659   7.005   4.642
11287TIP3    H133802   1.695   7.055   4.715
11287TIP3    H233803   1.735   6.975   4.593
11288TIP3   OH233804   2.337   2.511   5.578
11288TIP3    H133805   2.303   2.428   5.611
11288TIP3    H233806   2.269   2.575   5.599
11289TIP3   OH233807   8.069   2.728   3.294
11289TIP3    H133808   8.055   2.781   3.216
11289TIP3    H233809   7.989   2.739   3.346
11290TIP3   OH233810   4.883   7.811   1.016
11290TIP3    H133811   4.926   7.845   0.938
11290TIP3    H233812   4.861   7.888   1.068
11291TIP3   OH233813   0.317   3.838   4.958
11291TIP3    H133814   0.232   3.833   5.002
11291TIP3    H233815   0.361   3.756   4.982
11292TIP3   OH233816   3.065   3.271   1.165
11292TIP3    H133817   3.032   3.329   1.234
11292TIP3    H233818   3.068   3.185   1.206
11293TIP3   OH233819   4.616   0.275   1.556
11293TIP3    H133820   4.556   0.349   1.570
11293TIP3    H233821   4.696   0.315   1.521
11294TIP3   OH233822   3.850   1.458   5.163
11294TIP3    H133823   3.775   1.469   5.221
11294TIP3    H233824   3.840   1.526   5.096
11295TIP3   OH233825   2.921   7.386   6.327
11295TIP3    H133826   2.987   7.453   6.310
11295TIP3    H233827   2.935   7.359   6.417
11296TIP3   OH233828   3.176   1.691   2.845
11296TIP3    H133829   3.095   1.725   2.806
11296TIP3    H233830   3.227   1.768   2.866
11297TIP3   OH233831   3.517   3.175   0.960
11297TIP3    H133832   3.518   3.108   1.029
11297TIP3    H233833   3.424   3.190   0.943
11298TIP3   OH233834   3.623   6.060   5.083
11298TIP3    H133835   3.643   6.144   5.043
11298TIP3    H233836   3.543   6.031   5.039
11299TIP3   OH233837   0.495   6.859   0.255
11299TIP3    H133838   0.476   6.897   0.341
11299TIP3    H233839   0.591   6.859   0.250
11300TIP3   OH233840   0.777   6.155   0.397
11300TIP3    H133841   0.693   6.199   0.415
11300TIP3    H233842   0.806   6.193   0.314
11301TIP3   OH233843   3.558   6.744   1.314
11301TIP3    H133844   3.502   6.811   1.353
11301TIP3    H233845   3.569   6.679   1.384
11302TIP3   OH233846   3.323   1.623   0.356
11302TIP3    H133847   3.255   1.587   0.413
11302TIP3    H233848   3.318   1.571   0.276
11303TIP3   OH233849   4.238   0.057   3.886
11303TIP3    H133850   4.210   0.017   3.804
11303TIP3    H233851   4.260  -0.018   3.942
11304TIP3   OH233852   6.876   7.734   5.859
11304TIP3    H133853   6.854   7.655   5.908
11304TIP3    H233854   6.805   7.795   5.877
11305TIP3   OH233855   6.136   1.689   0.741
11305TIP3    H133856   6.203   1.668   0.676
11305TIP3    H233857   6.124   1.784   0.732
11306TIP3   OH233858   0.571   4.822   6.379
11306TIP3    H133859   0.517   4.781   6.312
11306TIP3    H233860   0.659   4.787   6.364
11307TIP3   OH233861   5.994   1.035   0.899
11307TIP3    H133862   6.053   1.092   0.849
11307TIP3    H233863   5.938   0.995   0.833
11308TIP3   OH233864   4.799   6.471   5.336
11308TIP3    H133865   4.865   6.473   5.404
11308TIP3    H233866   4.734   6.408   5.367
11309TIP3   OH233867   3.228   6.820   1.196
11309TIP3    H133868   3.181   6.743   1.228
11309TIP3    H233869   3.283   6.846   1.270
11310TIP3   OH233870   0.742   4.795   5.217
11310TIP3    H133871   0.770   4.705   5.199
11310TIP3    H233872   0.823   4.846   5.214
11311TIP3   OH233873   6.557   0.497   2.432
11311TIP3    H133874   6.620   0.555   2.388
11311TIP3    H233875   6.473   0.540   2.420
11312TIP3   OH233876   7.299   3.153   3.333
11312TIP3    H133877   7.356   3.098   3.386
11312TIP3    H233878   7.223   3.098   3.315
11313TIP3   OH233879   7.184   3.569   4.493
11313TIP3    H133880   7.114   3.550   4.430
11313TIP3    H233881   7.250   3.616   4.443
11314TIP3   OH233882   6.678   4.330   0.877
11314TIP3    H133883   6.622   4.260   0.843
11314TIP3    H233884   6.766   4.307   0.844
11315TIP3   OH233885   3.457   6.040   0.517
11315TIP3    H133886   3.538   6.060   0.470
11315TIP3    H233887   3.477   6.059   0.608
11316TIP3   OH233888   5.202   4.820   3.228
11316TIP3    H133889   5.276   4.759   3.234
11316TIP3    H233890   5.198   4.845   3.136
11317TIP3   OH233891   7.891   5.360   5.749
11317TIP3    H133892   7.950   5.286   5.761
11317TIP3    H233893   7.844   5.340   5.667
11318TIP3   OH233894   4.475   6.903   6.602
11318TIP3    H133895   4.524   6.980   6.629
11318TIP3    H233896   4.398   6.902   6.659
11319TIP3   OH233897   5.621   2.738   5.725
11319TIP3    H133898   5.679   2.754   5.650
11319TIP3    H233899   5.573   2.820   5.736
11320TIP3   OH233900   0.032   5.309   5.000
11320TIP3    H133901  -0.029   5.382   5.002
11320TIP3    H233902   0.119   5.350   4.993
11321TIP3   OH233903   0.522   6.093   3.939
11321TIP3    H133904   0.488   6.169   3.890
11321TIP3    H233905   0.468   6.090   4.018
11322TIP3   OH233906   3.715   1.606   1.978
11322TIP3    H133907   3.726   1.511   1.978
11322TIP3    H233908   3.734   1.633   1.888
11323TIP3   OH233909   1.161   0.745   3.793
11323TIP3    H133910   1.076   0.717   3.828
11323TIP3    H233911   1.189   0.814   3.852
11324TIP3   OH233912   7.172   0.252   5.281
11324TIP3    H133913   7.233   0.322   5.258
11324TIP3    H233914   7.127   0.283   5.359
11325TIP3   OH233915   5.423   4.078   0.456
11325TIP3    H133916   5.483   4.131   0.403
11325TIP3    H233917   5.424   3.992   0.415
11326TIP3   OH233918   7.921   6.524   5.002
11326TIP3    H133919   7.908   6.483   4.916
11326TIP3    H233920   7.898   6.616   4.988
11327TIP3   OH233921   1.408   4.558   3.399
11327TIP3    H133922   1.480   4.569   3.337
11327TIP3    H233923   1.443   4.591   3.482
11328TIP3   OH233924   5.756   0.666   3.553
11328TIP3    H133925   5.768   0.634   3.642
11328TIP3    H233926   5.830   0.632   3.504
11329TIP3   OH233927   8.073   7.177   3.941
11329TIP3    H133928   7.992   7.215   3.908
11329TIP3    H233929   8.052   7.084   3.956
11330TIP3   OH233930   1.559   0.434   2.672
11330TIP3    H133931   1.597   0.347   2.684
11330TIP3    H233932   1.501   0.446   2.747
11331TIP3   OH233933   0.152   6.209   3.543
11331TIP3    H133934   0.118   6.291   3.579
11331TIP3    H233935   0.139   6.145   3.613
11332TIP3   OH233936   4.625   4.720   3.378
11332TIP3    H133937   4.541   4.680   3.358
11332TIP3    H233938   4.631   4.720   3.473
11333TIP3   OH233939   7.679   0.217   5.456
11333TIP3    H133940   7.769   0.239   5.479
11333TIP3    H233941   7.658   0.141   5.511
11334TIP3   OH233942   6.590   0.824   0.449
11334TIP3    H133943   6.515   0.799   0.396
11334TIP3    H233944   6.664   0.776   0.410
11335TIP3   OH233945   6.806   6.411   5.341
11335TIP3    H133946   6.803   6.324   5.380
11335TIP3    H233947   6.824   6.470   5.414
11336TIP3   OH233948   3.464   1.184   5.570
11336TIP3    H133949   3.424   1.105   5.606
11336TIP3    H233950   3.407   1.210   5.498
11337TIP3   OH233951   2.250   6.538   1.557
11337TIP3    H133952   2.240   6.486   1.636
11337TIP3    H233953   2.273   6.474   1.489
11338TIP3   OH233954   8.185   6.420   6.297
11338TIP3    H133955   8.175   6.512   6.321
11338TIP3    H233956   8.278   6.402   6.310
11339TIP3   OH233957   5.687   6.325   2.024
11339TIP3    H133958   5.619   6.392   2.024
11339TIP3    H233959   5.765   6.370   1.992
11340TIP3   OH233960   8.088   3.516   2.962
11340TIP3    H133961   8.093   3.444   2.899
11340TIP3    H233962   8.110   3.476   3.046
11341TIP3   OH233963   4.101   2.816   1.833
11341TIP3    H133964   4.097   2.899   1.786
11341TIP3    H233965   4.185   2.819   1.879
11342TIP3   OH233966   2.086   2.590   3.226
11342TIP3    H133967   2.096   2.498   3.200
11342TIP3    H233968   2.130   2.640   3.157
11343TIP3   OH233969   4.038   1.597   0.055
11343TIP3    H133970   4.127   1.613   0.086
11343TIP3    H233971   4.035   1.639  -0.031
11344TIP3   OH233972   0.820   6.293   4.398
11344TIP3    H133973   0.874   6.331   4.328
11344TIP3    H233974   0.832   6.198   4.389
11345TIP3   OH233975   4.346   6.161   0.331
11345TIP3    H133976   4.425   6.194   0.288
11345TIP3    H233977   4.353   6.066   0.325
11346TIP3   OH233978   5.737   7.315   6.735
11346TIP3    H133979   5.818   7.367   6.728
11346TIP3    H233980   5.670   7.380   6.756
11347TIP3   OH233981   1.477   3.702   1.554
11347TIP3    H133982   1.424   3.650   1.494
11347TIP3    H233983   1.557   3.722   1.504
11348TIP3   OH233984   7.738   6.500   1.965
11348TIP3    H133985   7.807   6.503   2.031
11348TIP3    H233986   7.657   6.501   2.016
11349TIP3   OH233987   4.125   7.458   3.227
11349TIP3    H133988   4.085   7.462   3.314
11349TIP3    H233989   4.089   7.535   3.181
11350TIP3   OH233990   4.590   0.526   3.547
11350TIP3    H133991   4.629   0.457   3.601
11350TIP3    H233992   4.665   0.578   3.518
11351TIP3   OH233993   4.735   7.281   1.364
11351TIP3    H133994   4.666   7.225   1.397
11351TIP3    H233995   4.715   7.292   1.271
11352TIP3   OH233996   7.225   4.263   1.460
11352TIP3    H133997   7.232   4.186   1.404
11352TIP3    H233998   7.313   4.277   1.493
11353TIP3   OH233999   2.963   2.767   1.571
11353TIP3    H134000   3.050   2.764   1.532
11353TIP3    H234001   2.903   2.746   1.500
11354TIP3   OH234002   5.983   2.154   4.169
11354TIP3    H134003   6.030   2.218   4.221
11354TIP3    H234004   6.015   2.069   4.200
11355TIP3   OH234005   5.734   7.202   3.924
11355TIP3    H134006   5.810   7.254   3.899
11355TIP3    H234007   5.659   7.257   3.904
11356TIP3   OH234008   0.407   1.913   5.645
11356TIP3    H134009   0.496   1.880   5.643
11356TIP3    H234010   0.411   1.999   5.603
11357TIP3   OH234011   7.203   0.962   6.217
11357TIP3    H134012   7.216   1.015   6.139
11357TIP3    H234013   7.113   0.981   6.244
11358TIP3   OH234014   4.091   7.627   1.991
11358TIP3    H134015   4.099   7.617   2.086
11358TIP3    H234016   4.056   7.715   1.979
11359TIP3   OH234017   0.505   2.480   0.183
11359TIP3    H134018   0.545   2.450   0.101
11359TIP3    H234019   0.411   2.478   0.166
11360TIP3   OH234020   1.068   1.369   3.189
11360TIP3    H134021   1.089   1.288   3.236
11360TIP3    H234022   1.137   1.430   3.215
11361TIP3   OH234023   4.435   0.755   5.824
11361TIP3    H134024   4.479   0.720   5.746
11361TIP3    H234025   4.429   0.680   5.883
11362TIP3   OH234026   6.366   6.840   0.641
11362TIP3    H134027   6.340   6.754   0.672
11362TIP3    H234028   6.449   6.825   0.596
11363TIP3   OH234029   7.858   0.482   0.656
11363TIP3    H134030   7.916   0.546   0.696
11363TIP3    H234031   7.770   0.516   0.669
11364TIP3   OH234032   1.784   5.605   6.060
11364TIP3    H134033   1.767   5.545   5.987
11364TIP3    H234034   1.859   5.657   6.032
11365TIP3   OH234035   0.397   7.063   6.509
11365TIP3    H134036   0.380   6.970   6.525
11365TIP3    H234037   0.360   7.108   6.585
11366TIP3   OH234038   6.429   5.859   0.212
11366TIP3    H134039   6.424   5.878   0.306
11366TIP3    H234040   6.521   5.874   0.190
11367TIP3   OH234041   4.126   5.552   1.140
11367TIP3    H134042   4.044   5.568   1.186
11367TIP3    H234043   4.111   5.473   1.090
11368TIP3   OH234044   0.079   3.330   3.156
11368TIP3    H134045   0.140   3.401   3.135
11368TIP3    H234046   0.129   3.272   3.213
11369TIP3   OH234047   6.336   6.234   1.119
11369TIP3    H134048   6.352   6.236   1.213
11369TIP3    H234049   6.252   6.188   1.110
11370TIP3   OH234050   5.632   0.694   6.626
11370TIP3    H134051   5.709   0.747   6.605
11370TIP3    H234052   5.632   0.624   6.560
11371TIP3   OH234053   2.284   4.343   3.691
11371TIP3    H134054   2.273   4.295   3.609
11371TIP3    H234055   2.303   4.433   3.664
11372TIP3   OH234056   5.166   0.863   2.232
11372TIP3    H134057   5.092   0.806   2.250
11372TIP3    H234058   5.204   0.883   2.318
11373TIP3   OH234059   7.242   3.655   5.131
11373TIP3    H134060   7.330   3.690   5.118
11373TIP3    H234061   7.256   3.569   5.171
11374TIP3   OH234062   6.566   5.575   0.856
11374TIP3    H134063   6.576   5.493   0.808
11374TIP3    H234064   6.651   5.618   0.849
11375TIP3   OH234065   7.848   6.709   1.208
11375TIP3    H134066   7.916   6.695   1.274
11375TIP3    H234067   7.780   6.758   1.254
11376TIP3   OH234068   4.245   2.678   5.902
11376TIP3    H134069   4.229   2.584   5.906
11376TIP3    H234070   4.296   2.690   5.822
11377TIP3   OH234071   8.063   2.840   1.404
11377TIP3    H134072   8.092   2.923   1.442
11377TIP3    H234073   7.987   2.862   1.352
11378TIP3   OH234074   4.076   1.383   3.965
11378TIP3    H134075   3.998   1.351   3.920
11378TIP3    H234076   4.149   1.343   3.917
11379TIP3   OH234077   4.125   1.150   1.649
11379TIP3    H134078   4.061   1.162   1.579
11379TIP3    H234079   4.209   1.138   1.604
11380TIP3   OH234080   1.416   2.043   6.320
11380TIP3    H134081   1.375   1.971   6.368
11380TIP3    H234082   1.374   2.122   6.355
11381TIP3   OH234083   4.030   6.251   2.089
11381TIP3    H134084   3.982   6.310   2.148
11381TIP3    H234085   4.037   6.301   2.007
11382TIP3   OH234086   3.272   1.356   3.974
11382TIP3    H134087   3.265   1.438   3.926
11382TIP3    H234088   3.366   1.341   3.981
11383TIP3   OH234089   8.248   7.644   5.133
11383TIP3    H134090   8.324   7.588   5.118
11383TIP3    H234091   8.238   7.694   5.052
11384TIP3   OH234092   5.819   1.317   2.936
11384TIP3    H134093   5.906   1.299   2.971
11384TIP3    H234094   5.831   1.394   2.880
11385TIP3   OH234095   5.035   6.287   2.577
11385TIP3    H134096   4.956   6.251   2.618
11385TIP3    H234097   5.108   6.244   2.622
11386TIP3   OH234098   2.442   2.111   0.568
11386TIP3    H134099   2.371   2.047   0.573
11386TIP3    H234100   2.457   2.123   0.474
11387TIP3   OH234101   5.405   1.103   2.599
11387TIP3    H134102   5.473   1.113   2.666
11387TIP3    H234103   5.350   1.181   2.609
11388TIP3   OH234104   4.987   3.731   3.955
11388TIP3    H134105   5.043   3.679   3.897
11388TIP3    H234106   5.025   3.719   4.042
11389TIP3   OH234107   6.381   4.865   3.373
11389TIP3    H134108   6.399   4.778   3.337
11389TIP3    H234109   6.421   4.864   3.460
11390TIP3   OH234110   6.229   0.506   3.305
11390TIP3    H134111   6.195   0.576   3.361
11390TIP3    H234112   6.152   0.470   3.261
11391TIP3   OH234113   0.335   6.170   1.883
11391TIP3    H134114   0.240   6.157   1.885
11391TIP3    H234115   0.371   6.082   1.875
11392TIP3   OH234116   3.061   7.742   1.853
11392TIP3    H134117   3.129   7.745   1.785
11392TIP3    H234118   3.100   7.790   1.927
11393TIP3   OH234119   3.935   6.022   4.845
11393TIP3    H134120   3.909   6.075   4.770
11393TIP3    H234121   3.985   6.081   4.901
11394TIP3   OH234122   3.107   1.118   4.606
11394TIP3    H134123   3.083   1.094   4.696
11394TIP3    H234124   3.042   1.184   4.581
11395TIP3   OH234125   3.433   3.690   3.415
11395TIP3    H134126   3.449   3.719   3.505
11395TIP3    H234127   3.424   3.772   3.365
11396TIP3   OH234128   7.964   2.418   6.211
11396TIP3    H134129   8.023   2.491   6.231
11396TIP3    H234130   7.943   2.429   6.119
11397TIP3   OH234131   6.283   7.638   4.739
11397TIP3    H134132   6.376   7.658   4.734
11397TIP3    H234133   6.255   7.677   4.822
11398TIP3   OH234134   0.698   5.768   5.953
11398TIP3    H134135   0.724   5.786   5.863
11398TIP3    H234136   0.774   5.724   5.991
11399TIP3   OH234137   6.388   6.668   4.483
11399TIP3    H134138   6.322   6.638   4.546
11399TIP3    H234139   6.472   6.651   4.527
11400TIP3   OH234140   2.114   5.732   3.308
11400TIP3    H134141   2.163   5.658   3.274
11400TIP3    H234142   2.036   5.694   3.348
11401TIP3   OH234143   6.126   4.621   1.047
11401TIP3    H134144   6.179   4.548   1.014
11401TIP3    H234145   6.047   4.580   1.083
11402TIP3   OH234146   3.168   1.293   3.537
11402TIP3    H134147   3.196   1.377   3.501
11402TIP3    H234148   3.249   1.251   3.566
11403TIP3   OH234149   7.376   7.018   2.760
11403TIP3    H134150   7.467   7.042   2.743
11403TIP3    H234151   7.333   7.027   2.676
11404TIP3   OH234152   4.729   1.283   0.634
11404TIP3    H134153   4.822   1.263   0.643
11404TIP3    H234154   4.699   1.228   0.562
11405TIP3   OH234155   2.607   3.632   2.411
11405TIP3    H134156   2.572   3.667   2.329
11405TIP3    H234157   2.656   3.555   2.385
11406TIP3   OH234158   4.094   1.324   0.298
11406TIP3    H134159   4.124   1.407   0.335
11406TIP3    H234160   4.105   1.261   0.369
11407TIP3   OH234161   5.942   5.462   0.230
11407TIP3    H134162   5.976   5.519   0.161
11407TIP3    H234163   5.966   5.506   0.312
11408TIP3   OH234164   0.266   4.334   6.470
11408TIP3    H134165   0.176   4.306   6.488
11408TIP3    H234166   0.258   4.394   6.396
11409TIP3   OH234167   2.311   0.444   6.565
11409TIP3    H134168   2.238   0.475   6.512
11409TIP3    H234169   2.365   0.393   6.505
11410TIP3   OH234170   4.190   1.356   5.070
11410TIP3    H134171   4.271   1.405   5.089
11410TIP3    H234172   4.218   1.265   5.065
11411TIP3   OH234173   6.073   1.789   0.210
11411TIP3    H134174   6.081   1.694   0.219
11411TIP3    H234175   6.040   1.819   0.295
11412TIP3   OH234176   5.930   7.755   1.710
11412TIP3    H134177   5.845   7.727   1.743
11412TIP3    H234178   5.911   7.805   1.631
11413TIP3   OH234179   0.451   7.902   5.416
11413TIP3    H134180   0.508   7.922   5.342
11413TIP3    H234181   0.418   7.814   5.396
11414TIP3   OH234182   4.665   5.804   2.772
11414TIP3    H134183   4.712   5.866   2.715
11414TIP3    H234184   4.689   5.830   2.861
11415TIP3   OH234185   0.409   5.280   6.039
11415TIP3    H134186   0.474   5.239   6.096
11415TIP3    H234187   0.439   5.370   6.030
11416TIP3   OH234188   3.123   6.501   5.725
11416TIP3    H134189   3.028   6.492   5.729
11416TIP3    H234190   3.140   6.534   5.637
11417TIP3   OH234191   6.669   1.705   0.177
11417TIP3    H134192   6.714   1.778   0.135
11417TIP3    H234193   6.580   1.737   0.190
11418TIP3   OH234194   0.471   5.193   2.863
11418TIP3    H134195   0.557   5.155   2.880
11418TIP3    H234196   0.428   5.130   2.805
11419TIP3   OH234197   1.771   1.812   4.522
11419TIP3    H134198   1.697   1.774   4.474
11419TIP3    H234199   1.822   1.858   4.455
11420TIP3   OH234200   6.705   1.075   0.458
11420TIP3    H134201   6.662   0.990   0.468
11420TIP3    H234202   6.733   1.078   0.367
11421TIP3   OH234203   5.332   4.749   4.628
11421TIP3    H134204   5.409   4.730   4.574
11421TIP3    H234205   5.368   4.763   4.716
11422TIP3   OH234206   8.147   0.368   0.027
11422TIP3    H134207   8.208   0.303  -0.008
11422TIP3    H234208   8.065   0.351  -0.020
11423TIP3   OH234209   0.220   4.242   6.177
11423TIP3    H134210   0.152   4.214   6.239
11423TIP3    H234211   0.264   4.160   6.152
11424TIP3   OH234212   7.655   4.136   4.910
11424TIP3    H134213   7.622   4.177   4.991
11424TIP3    H234214   7.580   4.133   4.852
11425TIP3   OH234215   2.821   7.413   0.942
11425TIP3    H134216   2.767   7.468   0.885
11425TIP3    H234217   2.906   7.457   0.945
11426TIP3   OH234218   2.039   6.164   2.367
11426TIP3    H134219   2.087   6.111   2.431
11426TIP3    H234220   2.096   6.165   2.290
11427TIP3   OH234221   1.521   0.076   6.167
11427TIP3    H134222   1.594   0.058   6.227
11427TIP3    H234223   1.490  -0.011   6.141
11428TIP3   OH234224   8.015   6.906   0.288
11428TIP3    H134225   7.927   6.930   0.257
11428TIP3    H234226   8.031   6.965   0.361
11429TIP3   OH234227   0.216   3.865   6.717
11429TIP3    H134228   0.172   3.782   6.699
11429TIP3    H234229   0.200   3.918   6.639
11430TIP3   OH234230   3.156   7.663   5.242
11430TIP3    H134231   3.063   7.683   5.231
11430TIP3    H234232   3.202   7.733   5.197
11431TIP3   OH234233   3.554   5.503   1.229
11431TIP3    H134234   3.530   5.508   1.136
11431TIP3    H234235   3.649   5.508   1.230
11432TIP3   OH234236   8.107   7.228   2.011
11432TIP3    H134237   8.102   7.198   1.920
11432TIP3    H234238   8.062   7.160   2.062
11433TIP3   OH234239   6.887   1.432   2.979
11433TIP3    H134240   6.808   1.379   2.977
11433TIP3    H234241   6.862   1.514   2.935
11434TIP3   OH234242   0.781   0.364   4.999
11434TIP3    H134243   0.743   0.434   5.052
11434TIP3    H234244   0.820   0.410   4.924
11435TIP3   OH234245   5.360   3.104   1.918
11435TIP3    H134246   5.314   3.074   1.996
11435TIP3    H234247   5.448   3.126   1.949
11436TIP3   OH234248   7.145   5.750   1.720
11436TIP3    H134249   7.117   5.841   1.710
11436TIP3    H234250   7.106   5.705   1.645
11437TIP3   OH234251   0.020   0.380   3.479
11437TIP3    H134252   0.084   0.428   3.426
11437TIP3    H234253  -0.062   0.390   3.432
11438TIP3   OH234254   4.777   7.675   2.946
11438TIP3    H134255   4.688   7.657   2.977
11438TIP3    H234256   4.824   7.593   2.960
11439TIP3   OH234257   4.330   4.902   2.893
11439TIP3    H134258   4.301   4.814   2.916
11439TIP3    H234259   4.408   4.890   2.839
11440TIP3   OH234260   7.445   2.816   6.790
11440TIP3    H134261   7.416   2.807   6.700
11440TIP3    H234262   7.408   2.900   6.819
11441TIP3   OH234263   4.652   2.163   2.541
11441TIP3    H134264   4.614   2.078   2.517
11441TIP3    H234265   4.631   2.173   2.634
11442TIP3   OH234266   2.339   3.029   4.737
11442TIP3    H134267   2.424   2.998   4.766
11442TIP3    H234268   2.307   2.961   4.678
11443TIP3   OH234269   5.667   6.790   2.113
11443TIP3    H134270   5.585   6.761   2.153
11443TIP3    H234271   5.676   6.881   2.140
11444TIP3   OH234272   2.076   1.077   5.346
11444TIP3    H134273   2.114   1.067   5.259
11444TIP3    H234274   2.145   1.051   5.407
11445TIP3   OH234275   1.717   1.921   1.075
11445TIP3    H134276   1.751   1.961   1.155
11445TIP3    H234277   1.780   1.946   1.007
11446TIP3   OH234278   2.433   1.870   4.768
11446TIP3    H134279   2.385   1.950   4.788
11446TIP3    H234280   2.519   1.900   4.739
11447TIP3   OH234281   2.256   6.411   4.564
11447TIP3    H134282   2.181   6.417   4.623
11447TIP3    H234283   2.218   6.388   4.479
11448TIP3   OH234284   5.295   5.581   1.333
11448TIP3    H134285   5.245   5.652   1.292
11448TIP3    H234286   5.386   5.600   1.309
11449TIP3   OH234287   3.712   6.431   6.544
11449TIP3    H134288   3.722   6.361   6.608
11449TIP3    H234289   3.689   6.386   6.463
11450TIP3   OH234290   7.097   6.387   6.289
11450TIP3    H134291   7.028   6.440   6.249
11450TIP3    H234292   7.072   6.297   6.269
11451TIP3   OH234293   5.410   6.827   2.460
11451TIP3    H134294   5.394   6.738   2.492
11451TIP3    H234295   5.451   6.815   2.374
11452TIP3   OH234296   1.610   2.570   4.807
11452TIP3    H134297   1.662   2.643   4.774
11452TIP3    H234298   1.640   2.494   4.757
11453TIP3   OH234299   7.277   4.457   4.911
11453TIP3    H134300   7.327   4.444   4.830
11453TIP3    H234301   7.334   4.425   4.981
11454TIP3   OH234302   2.025   3.187   5.801
11454TIP3    H134303   1.972   3.139   5.865
11454TIP3    H234304   1.988   3.163   5.716
11455TIP3   OH234305   0.764   5.996   2.884
11455TIP3    H134306   0.690   6.029   2.935
11455TIP3    H234307   0.727   5.977   2.798
11456TIP3   OH234308   1.240   4.151   0.889
11456TIP3    H134309   1.226   4.245   0.885
11456TIP3    H234310   1.289   4.137   0.970
11457TIP3   OH234311   6.483   0.270   5.573
11457TIP3    H134312   6.517   0.318   5.648
11457TIP3    H234313   6.561   0.243   5.524
11458TIP3   OH234314   8.230   7.256   4.167
11458TIP3    H134315   8.253   7.164   4.179
11458TIP3    H234316   8.168   7.256   4.094
11459TIP3   OH234317   5.261   1.157   1.845
11459TIP3    H134318   5.339   1.166   1.790
11459TIP3    H234319   5.263   1.066   1.874
11460TIP3   OH234320   5.420   6.737   6.325
11460TIP3    H134321   5.447   6.744   6.416
11460TIP3    H234322   5.498   6.707   6.278
11461TIP3   OH234323   4.005   2.039   6.253
11461TIP3    H134324   4.100   2.036   6.243
11461TIP3    H234325   3.971   2.010   6.168
11462TIP3   OH234326   2.360   4.777   3.118
11462TIP3    H134327   2.349   4.693   3.161
11462TIP3    H234328   2.296   4.776   3.046
11463TIP3   OH234329   6.186   1.034   1.836
11463TIP3    H134330   6.222   0.946   1.827
11463TIP3    H234331   6.123   1.042   1.764
11464TIP3   OH234332   4.526   1.174   4.430
11464TIP3    H134333   4.538   1.106   4.364
11464TIP3    H234334   4.535   1.256   4.382
11465TIP3   OH234335   2.232   5.522   5.820
11465TIP3    H134336   2.301   5.547   5.760
11465TIP3    H234337   2.192   5.444   5.781
11466TIP3   OH234338   1.910   0.484   3.084
11466TIP3    H134339   1.822   0.468   3.121
11466TIP3    H234340   1.967   0.426   3.134
11467TIP3   OH234341   6.163   3.239   0.514
11467TIP3    H134342   6.136   3.291   0.590
11467TIP3    H234343   6.181   3.303   0.446
11468TIP3   OH234344   6.413   5.451   4.764
11468TIP3    H134345   6.374   5.386   4.821
11468TIP3    H234346   6.357   5.452   4.686
11469TIP3   OH234347   2.050   6.831   2.653
11469TIP3    H134348   1.968   6.796   2.689
11469TIP3    H234349   2.027   6.919   2.624
11470TIP3   OH234350   8.319   7.198   3.867
11470TIP3    H134351   8.229   7.189   3.898
11470TIP3    H234352   8.342   7.289   3.885
11471TIP3   OH234353   3.151   0.048   3.980
11471TIP3    H134354   3.238   0.017   3.955
11471TIP3    H234355   3.093  -0.025   3.961
11472TIP3   OH234356   2.748   3.232   3.786
11472TIP3    H134357   2.813   3.215   3.717
11472TIP3    H234358   2.770   3.319   3.818
11473TIP3   OH234359   0.327   7.862   5.862
11473TIP3    H134360   0.234   7.885   5.863
11473TIP3    H234361   0.347   7.839   5.953
11474TIP3   OH234362   6.268   1.608   6.196
11474TIP3    H134363   6.290   1.561   6.276
11474TIP3    H234364   6.198   1.557   6.156
11475TIP3   OH234365   8.317   3.087   5.891
11475TIP3    H134366   8.320   2.995   5.865
11475TIP3    H234367   8.357   3.089   5.978
11476TIP3   OH234368   3.581   3.930   2.090
11476TIP3    H134369   3.497   3.897   2.122
11476TIP3    H234370   3.641   3.919   2.164
11477TIP3   OH234371   0.329   2.488   3.956
11477TIP3    H134372   0.352   2.574   3.920
11477TIP3    H234373   0.343   2.427   3.883
11478TIP3   OH234374   1.131   4.044   2.327
11478TIP3    H134375   1.073   4.038   2.403
11478TIP3    H234376   1.206   3.989   2.349
11479TIP3   OH234377   1.241   3.142   5.433
11479TIP3    H134378   1.224   3.230   5.399
11479TIP3    H234379   1.269   3.156   5.524
11480TIP3   OH234380   2.162   3.935   1.910
11480TIP3    H134381   2.159   4.023   1.873
11480TIP3    H234382   2.080   3.895   1.883
11481TIP3   OH234383   5.360   1.056   5.971
11481TIP3    H134384   5.392   1.136   5.931
11481TIP3    H234385   5.430   0.992   5.957
11482TIP3   OH234386   0.738   5.557   5.299
11482TIP3    H134387   0.774   5.508   5.224
11482TIP3    H234388   0.790   5.527   5.373
11483TIP3   OH234389   2.409   6.999   0.816
11483TIP3    H134390   2.469   6.925   0.807
11483TIP3    H234391   2.413   7.022   0.909
11484TIP3   OH234392   2.977   7.316   4.151
11484TIP3    H134393   3.006   7.229   4.176
11484TIP3    H234394   2.938   7.305   4.065
11485TIP3   OH234395   6.734   1.375   2.225
11485TIP3    H134396   6.723   1.459   2.269
11485TIP3    H234397   6.820   1.382   2.182
11486TIP3   OH234398   6.561   3.735   2.569
11486TIP3    H134399   6.537   3.826   2.589
11486TIP3    H234400   6.490   3.683   2.605
11487TIP3   OH234401   0.574   7.292   6.367
11487TIP3    H134402   0.546   7.243   6.444
11487TIP3    H234403   0.667   7.269   6.358
11488TIP3   OH234404   5.232   7.137   1.519
11488TIP3    H134405   5.146   7.141   1.477
11488TIP3    H234406   5.240   7.220   1.565
11489TIP3   OH234407   1.336   3.644   3.481
11489TIP3    H134408   1.426   3.658   3.508
11489TIP3    H234409   1.325   3.549   3.482
11490TIP3   OH234410   0.341   0.831   0.525
11490TIP3    H134411   0.282   0.762   0.494
11490TIP3    H234412   0.327   0.833   0.620
11491TIP3   OH234413   3.521   5.890   3.641
11491TIP3    H134414   3.485   5.973   3.675
11491TIP3    H234415   3.516   5.830   3.715
11492TIP3   OH234416   3.298   1.800   0.954
11492TIP3    H134417   3.230   1.866   0.944
11492TIP3    H234418   3.288   1.768   1.044
11493TIP3   OH234419   0.041   5.950   2.619
11493TIP3    H134420  -0.008   5.874   2.652
11493TIP3    H234421   0.010   6.023   2.672
11494TIP3   OH234422   2.776   7.602   1.831
11494TIP3    H134423   2.745   7.627   1.743
11494TIP3    H234424   2.866   7.574   1.817
11495TIP3   OH234425   1.907   7.198   0.279
11495TIP3    H134426   1.932   7.182   0.370
11495TIP3    H234427   1.889   7.292   0.275
11496TIP3   OH234428   2.184   3.956   3.975
11496TIP3    H134429   2.208   3.995   3.891
11496TIP3    H234430   2.240   3.879   3.983
11497TIP3   OH234431   5.509   2.189   4.847
11497TIP3    H134432   5.422   2.227   4.861
11497TIP3    H234433   5.501   2.142   4.764
11498TIP3   OH234434   4.308   2.176   3.558
11498TIP3    H134435   4.365   2.223   3.620
11498TIP3    H234436   4.368   2.143   3.491
11499TIP3   OH234437   5.119   6.279   5.408
11499TIP3    H134438   5.198   6.315   5.369
11499TIP3    H234439   5.071   6.355   5.441
11500TIP3   OH234440   3.722   4.016   3.381
11500TIP3    H134441   3.788   4.072   3.422
11500TIP3    H234442   3.766   3.978   3.306
11501TIP3   OH234443   8.157   7.397   2.727
11501TIP3    H134444   8.064   7.378   2.720
11501TIP3    H234445   8.160   7.481   2.775
11502TIP3   OH234446   1.262   3.672   2.543
11502TIP3    H134447   1.231   3.736   2.607
11502TIP3    H234448   1.192   3.667   2.478
11503TIP3   OH234449   4.338   0.467   5.655
11503TIP3    H134450   4.264   0.462   5.595
11503TIP3    H234451   4.401   0.523   5.610
11504TIP3   OH234452   5.327   1.421   1.653
11504TIP3    H134453   5.271   1.441   1.578
11504TIP3    H234454   5.271   1.370   1.712
11505TIP3   OH234455   4.429   1.478   5.143
11505TIP3    H134456   4.503   1.497   5.201
11505TIP3    H234457   4.462   1.496   5.055
11506TIP3   OH234458   3.546   1.326   2.986
11506TIP3    H134459   3.504   1.273   2.918
11506TIP3    H234460   3.604   1.265   3.032
11507TIP3   OH234461   3.942   6.507   5.729
11507TIP3    H134462   4.025   6.554   5.740
11507TIP3    H234463   3.964   6.415   5.743
11508TIP3   OH234464   0.168   2.601   5.891
11508TIP3    H134465   0.245   2.561   5.851
11508TIP3    H234466   0.094   2.556   5.850
11509TIP3   OH234467   1.364   2.782   2.374
11509TIP3    H134468   1.295   2.827   2.423
11509TIP3    H234469   1.443   2.832   2.393
11510TIP3   OH234470   1.777   2.851   6.201
11510TIP3    H134471   1.766   2.922   6.264
11510TIP3    H234472   1.690   2.812   6.194
11511TIP3   OH234473   1.500   5.059   5.175
11511TIP3    H134474   1.562   5.063   5.248
11511TIP3    H234475   1.511   5.143   5.130
11512TIP3   OH234476   8.179   7.644   0.468
11512TIP3    H134477   8.129   7.628   0.549
11512TIP3    H234478   8.247   7.706   0.494
11513TIP3   OH234479   8.105   2.937   0.957
11513TIP3    H134480   8.196   2.942   0.926
11513TIP3    H234481   8.097   3.011   1.018
11514TIP3   OH234482   6.784   2.135   5.806
11514TIP3    H134483   6.857   2.088   5.848
11514TIP3    H234484   6.810   2.227   5.809
11515TIP3   OH234485   5.526   2.227   3.651
11515TIP3    H134486   5.565   2.178   3.579
11515TIP3    H234487   5.562   2.186   3.730
11516TIP3   OH234488   5.391   4.758   2.219
11516TIP3    H134489   5.311   4.749   2.271
11516TIP3    H234490   5.429   4.670   2.218
11517TIP3   OH234491   1.609   5.261   2.269
11517TIP3    H134492   1.703   5.273   2.254
11517TIP3    H234493   1.592   5.170   2.247
11518TIP3   OH234494   3.607   5.487   4.399
11518TIP3    H134495   3.669   5.434   4.449
11518TIP3    H234496   3.645   5.493   4.312
11519TIP3   OH234497   3.888   6.551   0.525
11519TIP3    H134498   3.828   6.494   0.477
11519TIP3    H234499   3.971   6.544   0.478
11520TIP3   OH234500   7.190   3.032   1.529
11520TIP3    H134501   7.108   3.036   1.481
11520TIP3    H234502   7.258   3.035   1.462
11521TIP3   OH234503   2.471   5.073   6.240
11521TIP3    H134504   2.547   5.023   6.268
11521TIP3    H234505   2.496   5.164   6.255
11522TIP3   OH234506   0.567   7.207   0.425
11522TIP3    H134507   0.635   7.197   0.492
11522TIP3    H234508   0.590   7.287   0.379
11523TIP3   OH234509   2.023   1.686   6.322
11523TIP3    H134510   2.091   1.739   6.280
11523TIP3    H234511   2.017   1.721   6.411
11524TIP3   OH234512   1.583   2.186   3.202
11524TIP3    H134513   1.653   2.121   3.202
11524TIP3    H234514   1.530   2.165   3.125
11525TIP3   OH234515   5.091   4.265   5.596
11525TIP3    H134516   5.122   4.298   5.681
11525TIP3    H234517   5.073   4.172   5.611
11526TIP3   OH234518   1.080   1.201   0.846
11526TIP3    H134519   1.053   1.254   0.921
11526TIP3    H234520   1.164   1.238   0.820
11527TIP3   OH234521   4.349   6.444   0.482
11527TIP3    H134522   4.350   6.373   0.418
11527TIP3    H234523   4.440   6.473   0.488
11528TIP3   OH234524   3.557   5.847   0.989
11528TIP3    H134525   3.546   5.775   1.051
11528TIP3    H234526   3.492   5.830   0.921
11529TIP3   OH234527   4.426   1.305   0.706
11529TIP3    H134528   4.398   1.269   0.622
11529TIP3    H234529   4.439   1.227   0.761
11530TIP3   OH234530   3.268   4.970   2.568
11530TIP3    H134531   3.335   4.967   2.499
11530TIP3    H234532   3.224   4.885   2.563
11531TIP3   OH234533   7.387   0.750   2.780
11531TIP3    H134534   7.314   0.774   2.837
11531TIP3    H234535   7.466   0.773   2.830
11532TIP3   OH234536   6.471   7.287   1.663
11532TIP3    H134537   6.460   7.325   1.576
11532TIP3    H234538   6.420   7.343   1.721
11533TIP3   OH234539   4.316   6.589   1.322
11533TIP3    H134540   4.366   6.616   1.245
11533TIP3    H234541   4.225   6.597   1.295
11534TIP3   OH234542   6.888   7.036   4.350
11534TIP3    H134543   6.964   7.093   4.360
11534TIP3    H234544   6.917   6.951   4.382
11535TIP3   OH234545   6.797   5.230   5.230
11535TIP3    H134546   6.810   5.240   5.324
11535TIP3    H234547   6.703   5.247   5.217
11536TIP3   OH234548   2.899   6.750   2.538
11536TIP3    H134549   2.803   6.755   2.542
11536TIP3    H234550   2.916   6.675   2.480
11537TIP3   OH234551   4.959   6.694   5.930
11537TIP3    H134552   4.987   6.736   6.011
11537TIP3    H234553   4.974   6.760   5.862
11538TIP3   OH234554   4.689   0.527   1.151
11538TIP3    H134555   4.624   0.549   1.085
11538TIP3    H234556   4.684   0.598   1.215
11539TIP3   OH234557   0.357   4.606   0.985
11539TIP3    H134558   0.381   4.623   0.894
11539TIP3    H234559   0.270   4.645   0.994
11540TIP3   OH234560   0.384   0.296   3.000
11540TIP3    H134561   0.445   0.302   2.927
11540TIP3    H234562   0.298   0.290   2.960
11541TIP3   OH234563   7.228   2.455   4.076
11541TIP3    H134564   7.284   2.441   3.999
11541TIP3    H234565   7.249   2.382   4.134
11542TIP3   OH234566   5.895   1.249   2.029
11542TIP3    H134567   5.896   1.285   1.940
11542TIP3    H234568   5.867   1.322   2.084
11543TIP3   OH234569   4.677   4.345   6.019
11543TIP3    H134570   4.627   4.358   6.100
11543TIP3    H234571   4.651   4.418   5.963
11544TIP3   OH234572   7.608   4.892   4.820
11544TIP3    H134573   7.531   4.928   4.776
11544TIP3    H234574   7.574   4.834   4.887
11545TIP3   OH234575   7.018   7.587   4.873
11545TIP3    H134576   6.984   7.539   4.797
11545TIP3    H234577   6.993   7.534   4.948
11546TIP3   OH234578   3.178   0.658   2.859
11546TIP3    H134579   3.162   0.752   2.852
11546TIP3    H234580   3.158   0.637   2.950
11547TIP3   OH234581   3.247   0.287   2.922
11547TIP3    H134582   3.196   0.206   2.910
11547TIP3    H234583   3.255   0.323   2.834
11548TIP3   OH234584   7.807   4.165   2.732
11548TIP3    H134585   7.877   4.102   2.715
11548TIP3    H234586   7.852   4.249   2.740
11549TIP3   OH234587   2.037   0.181   3.491
11549TIP3    H134588   2.027   0.110   3.556
11549TIP3    H234589   2.131   0.188   3.477
11550TIP3   OH234590   5.654   5.137   0.168
11550TIP3    H134591   5.683   5.047   0.182
11550TIP3    H234592   5.668   5.180   0.253
11551TIP3   OH234593   0.549   5.822   3.036
11551TIP3    H134594   0.487   5.870   3.091
11551TIP3    H234595   0.506   5.817   2.950
11552TIP3   OH234596   2.672   0.985   4.365
11552TIP3    H134597   2.618   0.967   4.442
11552TIP3    H234598   2.692   1.078   4.371
11553TIP3   OH234599   5.202   1.066   5.634
11553TIP3    H134600   5.153   0.993   5.596
11553TIP3    H234601   5.135   1.117   5.680
11554TIP3   OH234602   1.147   3.004   5.185
11554TIP3    H134603   1.158   3.017   5.279
11554TIP3    H234604   1.220   2.947   5.160
11555TIP3   OH234605   5.482   0.685   5.794
11555TIP3    H134606   5.566   0.641   5.781
11555TIP3    H234607   5.419   0.632   5.744
11556TIP3   OH234608   3.613   1.260   0.101
11556TIP3    H134609   3.666   1.225   0.029
11556TIP3    H234610   3.676   1.278   0.170
11557TIP3   OH234611   5.138   7.343   0.427
11557TIP3    H134612   5.047   7.367   0.445
11557TIP3    H234613   5.150   7.261   0.475
11558TIP3   OH234614   0.768   5.535   3.423
11558TIP3    H134615   0.854   5.533   3.380
11558TIP3    H234616   0.705   5.531   3.351
11559TIP3   OH234617   6.465   3.607   2.074
11559TIP3    H134618   6.414   3.600   1.993
11559TIP3    H234619   6.445   3.526   2.122
11560TIP3   OH234620   5.008   1.497   2.844
11560TIP3    H134621   4.930   1.498   2.899
11560TIP3    H234622   5.080   1.519   2.904
11561TIP3   OH234623   6.523   1.755   0.795
11561TIP3    H134624   6.488   1.673   0.829
11561TIP3    H234625   6.521   1.745   0.700
11562TIP3   OH234626   1.321   4.361   1.522
11562TIP3    H134627   1.301   4.337   1.613
11562TIP3    H234628   1.245   4.331   1.472
11563TIP3   OH234629   7.507   1.442   3.776
11563TIP3    H134630   7.580   1.501   3.756
11563TIP3    H234631   7.547   1.365   3.815
11564TIP3   OH234632   0.534   0.508   6.237
11564TIP3    H134633   0.464   0.542   6.292
11564TIP3    H234634   0.518   0.414   6.232
11565TIP3   OH234635   2.685   1.560   6.729
11565TIP3    H134636   2.731   1.569   6.812
11565TIP3    H234637   2.612   1.622   6.735
11566TIP3   OH234638   0.276   5.186   3.826
11566TIP3    H134639   0.309   5.174   3.915
11566TIP3    H234640   0.198   5.131   3.823
11567TIP3   OH234641   6.155   2.708   1.670
11567TIP3    H134642   6.175   2.701   1.576
11567TIP3    H234643   6.216   2.648   1.712
11568TIP3   OH234644   8.009   0.295   0.934
11568TIP3    H134645   8.098   0.269   0.911
11568TIP3    H234646   8.009   0.391   0.925
11569TIP3   OH234647   5.468   7.797   0.933
11569TIP3    H134648   5.479   7.714   0.887
11569TIP3    H234649   5.476   7.863   0.865
11570TIP3   OH234650   6.184   1.771   4.704
11570TIP3    H134651   6.130   1.702   4.742
11570TIP3    H234652   6.122   1.833   4.667
11571TIP3   OH234653   5.500   2.467   5.194
11571TIP3    H134654   5.424   2.496   5.143
11571TIP3    H234655   5.554   2.419   5.131
11572TIP3   OH234656   4.650   6.356   5.520
11572TIP3    H134657   4.578   6.414   5.494
11572TIP3    H234658   4.607   6.284   5.567
11573TIP3   OH234659   2.758   2.577   4.573
11573TIP3    H134660   2.734   2.613   4.488
11573TIP3    H234661   2.854   2.570   4.571
11574TIP3   OH234662   5.901   7.036   4.644
11574TIP3    H134663   5.942   7.082   4.717
11574TIP3    H234664   5.965   7.041   4.573
11575TIP3   OH234665   3.582   6.230   2.756
11575TIP3    H134666   3.566   6.242   2.662
11575TIP3    H234667   3.677   6.238   2.765
11576TIP3   OH234668   5.420   5.417   2.072
11576TIP3    H134669   5.386   5.347   2.018
11576TIP3    H234670   5.515   5.408   2.066
11577TIP3   OH234671   1.576   1.695   1.064
11577TIP3    H134672   1.533   1.701   0.978
11577TIP3    H234673   1.632   1.772   1.068
11578TIP3   OH234674   4.660   7.886   3.962
11578TIP3    H134675   4.662   7.793   3.985
11578TIP3    H234676   4.708   7.929   4.032
11579TIP3   OH234677   0.077   3.141   0.216
11579TIP3    H134678   0.022   3.109   0.287
11579TIP3    H234679   0.163   3.157   0.256
11580TIP3   OH234680   6.488   4.881   0.411
11580TIP3    H134681   6.488   4.801   0.462
11580TIP3    H234682   6.428   4.940   0.458
11581TIP3   OH234683   7.626   1.572   4.166
11581TIP3    H134684   7.605   1.662   4.143
11581TIP3    H234685   7.545   1.536   4.202
11582TIP3   OH234686   2.343   0.314   1.948
11582TIP3    H134687   2.318   0.222   1.944
11582TIP3    H234688   2.336   0.337   2.041
11583TIP3   OH234689   0.756   1.613   6.007
11583TIP3    H134690   0.757   1.539   5.946
11583TIP3    H234691   0.819   1.588   6.075
11584TIP3   OH234692   1.844   1.420   5.065
11584TIP3    H134693   1.844   1.493   5.128
11584TIP3    H234694   1.937   1.404   5.048
11585TIP3   OH234695   1.495   4.298   5.859
11585TIP3    H134696   1.525   4.208   5.876
11585TIP3    H234697   1.530   4.349   5.932
11586TIP3   OH234698   0.807   7.192   6.623
11586TIP3    H134699   0.798   7.287   6.613
11586TIP3    H234700   0.901   7.177   6.614
11587TIP3   OH234701   3.233   0.597   0.282
11587TIP3    H134702   3.293   0.526   0.303
11587TIP3    H234703   3.153   0.553   0.252
11588TIP3   OH234704   7.768   2.861   0.938
11588TIP3    H134705   7.689   2.906   0.906
11588TIP3    H234706   7.841   2.912   0.902
11589TIP3   OH234707   0.322   4.096   0.102
11589TIP3    H134708   0.345   4.013   0.062
11589TIP3    H234709   0.276   4.073   0.182
11590TIP3   OH234710   0.409   6.824   3.998
11590TIP3    H134711   0.395   6.782   3.913
11590TIP3    H234712   0.504   6.825   4.008
11591TIP3   OH234713   3.040   4.451   0.624
11591TIP3    H134714   3.099   4.502   0.569
11591TIP3    H234715   2.964   4.435   0.568
11592TIP3   OH234716   8.275   7.306   0.722
11592TIP3    H134717   8.270   7.268   0.809
11592TIP3    H234718   8.271   7.401   0.737
11593TIP3   OH234719   5.625   7.025   4.854
11593TIP3    H134720   5.658   6.995   4.769
11593TIP3    H234721   5.679   6.979   4.918
11594TIP3   OH234722   0.521   4.280   4.313
11594TIP3    H134723   0.439   4.252   4.353
11594TIP3    H234724   0.534   4.370   4.343
11595TIP3   OH234725   8.231   4.017   4.463
11595TIP3    H134726   8.187   4.093   4.501
11595TIP3    H234727   8.227   4.032   4.368
11596TIP3   OH234728   1.665   7.590   3.263
11596TIP3    H134729   1.671   7.511   3.210
11596TIP3    H234730   1.658   7.558   3.353
11597TIP3   OH234731   4.398   2.196   4.182
11597TIP3    H134732   4.408   2.104   4.205
11597TIP3    H234733   4.383   2.240   4.266
11598TIP3   OH234734   7.564   1.101   2.625
11598TIP3    H134735   7.527   1.188   2.613
11598TIP3    H234736   7.497   1.042   2.593
11599TIP3   OH234737   1.837   7.574   3.940
11599TIP3    H134738   1.811   7.653   3.987
11599TIP3    H234739   1.932   7.573   3.943
11600TIP3   OH234740   8.234   0.838   4.392
11600TIP3    H134741   8.202   0.928   4.392
11600TIP3    H234742   8.329   0.847   4.401
11601TIP3   OH234743   2.509   0.802   2.326
11601TIP3    H134744   2.495   0.826   2.235
11601TIP3    H234745   2.455   0.863   2.376
11602TIP3   OH234746   2.212   4.030   6.057
11602TIP3    H134747   2.241   3.956   6.004
11602TIP3    H234748   2.292   4.076   6.080
11603TIP3   OH234749   5.428   1.050   3.466
11603TIP3    H134750   5.394   1.039   3.377
11603TIP3    H234751   5.358   1.096   3.512
11604TIP3   OH234752   0.972   7.732   0.760
11604TIP3    H134753   1.002   7.748   0.671
11604TIP3    H234754   1.011   7.647   0.783
11605TIP3   OH234755   5.493   7.178   6.635
11605TIP3    H134756   5.549   7.253   6.654
11605TIP3    H234757   5.475   7.186   6.541
11606TIP3   OH234758   2.422   1.087   3.286
11606TIP3    H134759   2.458   1.138   3.213
11606TIP3    H234760   2.463   1.001   3.279
11607TIP3   OH234761   7.589   5.568   2.370
11607TIP3    H134762   7.581   5.655   2.410
11607TIP3    H234763   7.524   5.569   2.300
11608TIP3   OH234764   2.104   5.540   1.144
11608TIP3    H134765   2.063   5.458   1.170
11608TIP3    H234766   2.155   5.518   1.067
11609TIP3   OH234767   1.891   5.176   0.126
11609TIP3    H134768   1.809   5.217   0.099
11609TIP3    H234769   1.921   5.128   0.049
11610TIP3   OH234770   5.434   2.783   4.125
11610TIP3    H134771   5.422   2.877   4.134
11610TIP3    H234772   5.350   2.746   4.152
11611TIP3   OH234773   5.452   7.294   5.256
11611TIP3    H134774   5.474   7.227   5.320
11611TIP3    H234775   5.530   7.301   5.201
11612TIP3   OH234776   6.465   3.292   3.341
11612TIP3    H134777   6.505   3.315   3.425
11612TIP3    H234778   6.539   3.264   3.287
11613TIP3   OH234779   7.514   2.969   6.451
11613TIP3    H134780   7.605   2.995   6.436
11613TIP3    H234781   7.474   2.966   6.364
11614TIP3   OH234782   1.117   0.690   2.485
11614TIP3    H134783   1.030   0.652   2.474
11614TIP3    H234784   1.142   0.718   2.397
11615TIP3   OH234785   7.610   6.658   1.348
11615TIP3    H134786   7.547   6.588   1.366
11615TIP3    H234787   7.685   6.637   1.404
11616TIP3   OH234788   2.675   7.684   4.834
11616TIP3    H134789   2.596   7.665   4.784
11616TIP3    H234790   2.744   7.693   4.768
11617TIP3   OH234791   2.279   0.641   0.586
11617TIP3    H134792   2.242   0.722   0.551
11617TIP3    H234793   2.337   0.609   0.517
11618TIP3   OH234794   1.831   2.314   3.265
11618TIP3    H134795   1.748   2.269   3.250
11618TIP3    H234796   1.871   2.321   3.178
11619TIP3   OH234797   0.685   6.135   0.950
11619TIP3    H134798   0.605   6.133   1.003
11619TIP3    H234799   0.753   6.103   1.009
11620TIP3   OH234800   0.928   3.298   0.847
11620TIP3    H134801   0.887   3.345   0.919
11620TIP3    H234802   0.968   3.222   0.888
11621TIP3   OH234803   5.549   7.295   1.580
11621TIP3    H134804   5.532   7.389   1.582
11621TIP3    H234805   5.552   7.269   1.672
11622TIP3   OH234806   6.445   1.453   1.791
11622TIP3    H134807   6.455   1.459   1.886
11622TIP3    H234808   6.363   1.498   1.772
11623TIP3   OH234809   5.678   6.461   1.195
11623TIP3    H134810   5.708   6.381   1.152
11623TIP3    H234811   5.748   6.485   1.255
11624TIP3   OH234812   6.371   6.515   5.924
11624TIP3    H134813   6.351   6.569   6.000
11624TIP3    H234814   6.438   6.564   5.877
11625TIP3   OH234815   0.484   5.825   4.451
11625TIP3    H134816   0.560   5.813   4.394
11625TIP3    H234817   0.411   5.841   4.392
11626TIP3   OH234818   4.271   7.385   2.529
11626TIP3    H134819   4.178   7.361   2.534
11626TIP3    H234820   4.317   7.311   2.569
11627TIP3   OH234821   1.580   6.352   1.867
11627TIP3    H134822   1.667   6.393   1.874
11627TIP3    H234823   1.598   6.265   1.832
11628TIP3   OH234824   2.157   7.460   2.704
11628TIP3    H134825   2.110   7.472   2.786
11628TIP3    H234826   2.249   7.450   2.730
11629TIP3   OH234827   2.517   5.239   3.119
11629TIP3    H134828   2.474   5.210   3.038
11629TIP3    H234829   2.594   5.183   3.127
11630TIP3   OH234830   5.718   2.054   1.350
11630TIP3    H134831   5.661   2.104   1.291
11630TIP3    H234832   5.800   2.045   1.302
11631TIP3   OH234833   4.927   6.344   4.677
11631TIP3    H134834   5.008   6.297   4.662
11631TIP3    H234835   4.886   6.298   4.750
11632TIP3   OH234836   6.407   5.830   0.817
11632TIP3    H134837   6.459   5.753   0.842
11632TIP3    H234838   6.370   5.807   0.731
11633TIP3   OH234839   0.169   1.520   1.012
11633TIP3    H134840   0.098   1.570   1.053
11633TIP3    H234841   0.162   1.539   0.919
11634TIP3   OH234842   2.747   1.614   1.170
11634TIP3    H134843   2.771   1.635   1.260
11634TIP3    H234844   2.706   1.528   1.175
11635TIP3   OH234845   3.060   7.111   1.145
11635TIP3    H134846   3.000   7.077   1.211
11635TIP3    H234847   3.139   7.057   1.154
11636TIP3   OH234848   3.442   6.915   5.718
11636TIP3    H134849   3.509   6.846   5.713
11636TIP3    H234850   3.444   6.955   5.631
11637TIP3   OH234851   3.409   0.377   6.450
11637TIP3    H134852   3.443   0.387   6.539
11637TIP3    H234853   3.476   0.417   6.395
11638TIP3   OH234854   4.899   7.131   2.324
11638TIP3    H134855   4.895   7.068   2.253
11638TIP3    H234856   4.935   7.082   2.398
11639TIP3   OH234857   7.880   6.468   1.067
11639TIP3    H134858   7.861   6.409   1.140
11639TIP3    H234859   7.864   6.555   1.103
11640TIP3   OH234860   7.451   4.883   1.519
11640TIP3    H134861   7.508   4.916   1.589
11640TIP3    H234862   7.510   4.843   1.456
11641TIP3   OH234863   7.655   1.869   4.322
11641TIP3    H134864   7.710   1.928   4.271
11641TIP3    H234865   7.593   1.833   4.258
11642TIP3   OH234866   0.243   4.265   5.114
11642TIP3    H134867   0.160   4.229   5.082
11642TIP3    H234868   0.308   4.234   5.051
11643TIP3   OH234869   1.662   3.429   4.921
11643TIP3    H134870   1.619   3.375   4.988
11643TIP3    H234871   1.670   3.515   4.962
11644TIP3   OH234872   5.944   5.408   1.893
11644TIP3    H134873   5.933   5.360   1.974
11644TIP3    H234874   5.906   5.495   1.911
11645TIP3   OH234875   6.826   4.926   4.843
11645TIP3    H134876   6.828   4.913   4.749
11645TIP3    H234877   6.913   4.899   4.874
11646TIP3   OH234878   0.835   0.176   0.298
11646TIP3    H134879   0.914   0.208   0.342
11646TIP3    H234880   0.867   0.108   0.238
11647TIP3   OH234881   0.800   3.439   4.530
11647TIP3    H134882   0.860   3.452   4.456
11647TIP3    H234883   0.722   3.401   4.491
11648TIP3   OH234884   0.084   1.248   3.997
11648TIP3    H134885   0.098   1.154   3.996
11648TIP3    H234886  -0.011   1.258   3.989
11649TIP3   OH234887   5.208   6.075   3.285
11649TIP3    H134888   5.300   6.059   3.307
11649TIP3    H234889   5.164   5.992   3.302
11650TIP3   OH234890   4.433   4.136   1.012
11650TIP3    H134891   4.433   4.196   1.087
11650TIP3    H234892   4.347   4.148   0.972
11651TIP3   OH234893   1.186   6.364   3.811
11651TIP3    H134894   1.162   6.275   3.788
11651TIP3    H234895   1.102   6.408   3.827
11652TIP3   OH234896   1.718   3.021   1.358
11652TIP3    H134897   1.692   3.095   1.303
11652TIP3    H234898   1.814   3.025   1.361
11653TIP3   OH234899   3.662   6.280   3.520
11653TIP3    H134900   3.650   6.195   3.478
11653TIP3    H234901   3.626   6.269   3.608
11654TIP3   OH234902   5.985   1.078   4.173
11654TIP3    H134903   5.936   1.002   4.205
11654TIP3    H234904   5.965   1.083   4.080
11655TIP3   OH234905   0.309   4.591   2.357
11655TIP3    H134906   0.404   4.594   2.364
11655TIP3    H234907   0.285   4.506   2.394
11656TIP3   OH234908   0.208   4.326   3.161
11656TIP3    H134909   0.272   4.377   3.112
11656TIP3    H234910   0.233   4.338   3.253
11657TIP3   OH234911   2.781   1.651   1.454
11657TIP3    H134912   2.865   1.615   1.481
11657TIP3    H234913   2.717   1.584   1.480
11658TIP3   OH234914   5.867   3.005   3.503
11658TIP3    H134915   5.784   3.042   3.472
11658TIP3    H234916   5.903   3.073   3.561
11659TIP3   OH234917   2.909   2.061   0.720
11659TIP3    H134918   2.819   2.092   0.722
11659TIP3    H234919   2.960   2.131   0.761
11660TIP3   OH234920   4.016   2.264   4.503
11660TIP3    H134921   4.035   2.349   4.464
11660TIP3    H234922   4.013   2.203   4.429
11661TIP3   OH234923   3.324   5.728   3.246
11661TIP3    H134924   3.290   5.689   3.166
11661TIP3    H234925   3.296   5.820   3.242
11662TIP3   OH234926   7.246   2.816   2.051
11662TIP3    H134927   7.193   2.736   2.054
11662TIP3    H234928   7.266   2.828   1.959
11663TIP3   OH234929   3.541   0.942   3.373
11663TIP3    H134930   3.635   0.961   3.382
11663TIP3    H234931   3.522   0.881   3.444
11664TIP3   OH234932   1.003   6.920   6.508
11664TIP3    H134933   1.073   6.909   6.572
11664TIP3    H234934   0.926   6.881   6.550
11665TIP3   OH234935   2.936   2.218   3.705
11665TIP3    H134936   2.899   2.297   3.744
11665TIP3    H234937   2.995   2.184   3.772
11666TIP3   OH234938   1.488   2.366   2.071
11666TIP3    H134939   1.513   2.443   2.122
11666TIP3    H234940   1.544   2.296   2.104
11667TIP3   OH234941   7.106   1.627   5.540
11667TIP3    H134942   7.159   1.581   5.474
11667TIP3    H234943   7.120   1.720   5.521
11668TIP3   OH234944   4.459   6.945   3.520
11668TIP3    H134945   4.436   6.892   3.443
11668TIP3    H234946   4.391   7.012   3.524
11669TIP3   OH234947   2.278   6.650   2.012
11669TIP3    H134948   2.295   6.699   2.093
11669TIP3    H234949   2.297   6.713   1.942
11670TIP3   OH234950   4.271   0.734   2.026
11670TIP3    H134951   4.197   0.794   2.014
11670TIP3    H234952   4.230   0.647   2.027
11671TIP3   OH234953   6.509   7.860   5.036
11671TIP3    H134954   6.600   7.838   5.056
11671TIP3    H234955   6.512   7.893   4.946
11672TIP3   OH234956   8.185   3.869   2.191
11672TIP3    H134957   8.121   3.940   2.195
11672TIP3    H234958   8.133   3.790   2.209
11673TIP3   OH234959   6.101   6.292   5.560
11673TIP3    H134960   6.152   6.211   5.566
11673TIP3    H234961   6.162   6.358   5.527
11674TIP3   OH234962   5.602   0.103   4.814
11674TIP3    H134963   5.633   0.134   4.899
11674TIP3    H234964   5.506   0.111   4.819
11675TIP3   OH234965   7.383   3.386   6.392
11675TIP3    H134966   7.414   3.350   6.309
11675TIP3    H234967   7.374   3.310   6.450
11676TIP3   OH234968   5.089   6.321   2.910
11676TIP3    H134969   5.094   6.251   2.975
11676TIP3    H234970   5.069   6.399   2.961
11677TIP3   OH234971   6.964   2.946   5.381
11677TIP3    H134972   6.928   2.906   5.460
11677TIP3    H234973   6.894   2.939   5.316
11678TIP3   OH234974   4.826   2.432   3.302
11678TIP3    H134975   4.738   2.409   3.274
11678TIP3    H234976   4.814   2.497   3.371
11679TIP3   OH234977   0.012   5.605   3.579
11679TIP3    H134978   0.050   5.666   3.641
11679TIP3    H234979  -0.070   5.577   3.620
11680TIP3   OH234980   2.057   1.606   5.845
11680TIP3    H134981   2.102   1.574   5.767
11680TIP3    H234982   2.108   1.571   5.918
11681TIP3   OH234983   3.504   0.178   3.555
11681TIP3    H134984   3.574   0.114   3.538
11681TIP3    H234985   3.450   0.175   3.477
11682TIP3   OH234986   4.494   0.945   3.031
11682TIP3    H134987   4.433   0.996   3.084
11682TIP3    H234988   4.467   0.962   2.940
11683TIP3   OH234989   2.131   2.575   0.731
11683TIP3    H134990   2.159   2.571   0.823
11683TIP3    H234991   2.035   2.580   0.736
11684TIP3   OH234992   4.276   7.655   2.452
11684TIP3    H134993   4.250   7.671   2.543
11684TIP3    H234994   4.274   7.560   2.443
11685TIP3   OH234995   2.242   5.812   6.613
11685TIP3    H134996   2.169   5.808   6.675
11685TIP3    H234997   2.280   5.899   6.626
11686TIP3   OH234998   6.037   6.169   4.662
11686TIP3    H134999   5.990   6.173   4.745
11686TIP3    H235000   6.021   6.255   4.622
11687TIP3   OH235001   5.899   6.150   4.254
11687TIP3    H135002   5.844   6.129   4.329
11687TIP3    H235003   5.844   6.208   4.200
11688TIP3   OH235004   5.470   5.620   3.128
11688TIP3    H135005   5.444   5.704   3.091
11688TIP3    H235006   5.557   5.603   3.092
11689TIP3   OH235007   2.511   6.274   5.261
11689TIP3    H135008   2.493   6.182   5.241
11689TIP3    H235009   2.589   6.295   5.209
11690TIP3   OH235010   7.608   3.020   1.644
11690TIP3    H135011   7.574   2.938   1.677
11690TIP3    H235012   7.569   3.030   1.557
11691TIP3   OH235013   4.582   6.653   6.561
11691TIP3    H135014   4.658   6.686   6.512
11691TIP3    H235015   4.521   6.726   6.563
11692TIP3   OH235016   4.257   2.571   4.935
11692TIP3    H135017   4.233   2.490   4.980
11692TIP3    H235018   4.191   2.581   4.867
11693TIP3   OH235019   4.358   3.217   6.765
11693TIP3    H135020   4.327   3.199   6.854
11693TIP3    H235021   4.350   3.312   6.755
11694TIP3   OH235022   2.707   1.361   3.755
11694TIP3    H135023   2.622   1.330   3.787
11694TIP3    H235024   2.727   1.437   3.810
11695TIP3   OH235025   4.776   3.245   5.682
11695TIP3    H135026   4.820   3.179   5.630
11695TIP3    H235027   4.817   3.328   5.657
11696TIP3   OH235028   4.597   2.216   5.573
11696TIP3    H135029   4.555   2.143   5.619
11696TIP3    H235030   4.529   2.283   5.566
11697TIP3   OH235031   2.188   1.936   6.686
11697TIP3    H135032   2.231   1.973   6.608
11697TIP3    H235033   2.141   1.860   6.652
11698TIP3   OH235034   4.105   6.908   3.713
11698TIP3    H135035   4.034   6.882   3.655
11698TIP3    H235036   4.154   6.828   3.730
11699TIP3   OH235037   6.973   1.587   1.447
11699TIP3    H135038   7.023   1.506   1.438
11699TIP3    H235039   6.948   1.610   1.357
11700TIP3   OH235040   7.556   4.737   5.170
11700TIP3    H135041   7.525   4.827   5.160
11700TIP3    H235042   7.506   4.702   5.243
11701TIP3   OH235043   3.230   2.384   3.347
11701TIP3    H135044   3.319   2.361   3.319
11701TIP3    H235045   3.214   2.469   3.305
11702TIP3   OH235046   6.029   4.952   2.022
11702TIP3    H135047   5.948   4.912   1.989
11702TIP3    H235048   6.063   4.888   2.085
11703TIP3   OH235049   5.085   3.908   2.629
11703TIP3    H135050   4.996   3.896   2.663
11703TIP3    H235051   5.134   3.946   2.702
11704TIP3   OH235052   1.271   1.298   0.292
11704TIP3    H135053   1.262   1.353   0.215
11704TIP3    H235054   1.344   1.337   0.340
11705TIP3   OH235055   0.417   6.576   4.132
11705TIP3    H135056   0.498   6.533   4.106
11705TIP3    H235057   0.430   6.668   4.110
11706TIP3   OH235058   3.234   5.816   0.726
11706TIP3    H135059   3.208   5.841   0.638
11706TIP3    H235060   3.326   5.844   0.733
11707TIP3   OH235061   1.374   5.604   0.013
11707TIP3    H135062   1.292   5.557   0.024
11707TIP3    H235063   1.363   5.684   0.064
11708TIP3   OH235064   1.726   2.951   3.341
11708TIP3    H135065   1.638   2.914   3.338
11708TIP3    H235066   1.715   3.038   3.378
11709TIP3   OH235067   7.009   5.831   2.786
11709TIP3    H135068   6.917   5.817   2.763
11709TIP3    H235069   7.057   5.777   2.723
11710TIP3   OH235070   6.718   7.796   3.476
11710TIP3    H135071   6.709   7.719   3.421
11710TIP3    H235072   6.662   7.862   3.433
11711TIP3   OH235073   3.757   4.715   3.913
11711TIP3    H135074   3.782   4.736   3.823
11711TIP3    H235075   3.803   4.634   3.933
11712TIP3   OH235076   2.784   0.682   0.152
11712TIP3    H135077   2.740   0.760   0.186
11712TIP3    H235078   2.873   0.688   0.187
11713TIP3   OH235079   4.013   1.734   1.527
11713TIP3    H135080   4.073   1.702   1.459
11713TIP3    H235081   4.061   1.805   1.570
11714TIP3   OH235082   4.485   2.302   0.861
11714TIP3    H135083   4.464   2.345   0.778
11714TIP3    H235084   4.455   2.364   0.928
11715TIP3   OH235085   6.461   7.326   6.608
11715TIP3    H135086   6.463   7.350   6.701
11715TIP3    H235087   6.409   7.246   6.605
11716TIP3   OH235088   2.004   3.249   1.089
11716TIP3    H135089   1.991   3.192   1.165
11716TIP3    H235090   1.946   3.323   1.104
11717TIP3   OH235091   2.485   3.758   3.340
11717TIP3    H135092   2.462   3.693   3.274
11717TIP3    H235093   2.575   3.783   3.318
11718TIP3   OH235094   0.156   5.013   5.030
11718TIP3    H135095   0.122   4.933   4.990
11718TIP3    H235096   0.245   5.021   4.996
11719TIP3   OH235097   2.675   6.317   5.501
11719TIP3    H135098   2.662   6.223   5.490
11719TIP3    H235099   2.729   6.343   5.426
11720TIP3   OH235100   6.408   1.981   0.486
11720TIP3    H135101   6.445   2.059   0.444
11720TIP3    H235102   6.317   1.979   0.457
11721TIP3   OH235103   0.426   1.938   6.438
11721TIP3    H135104   0.350   1.929   6.495
11721TIP3    H235105   0.484   1.866   6.463
11722TIP3   OH235106   3.081   7.292   6.753
11722TIP3    H135107   3.077   7.203   6.789
11722TIP3    H235108   2.994   7.308   6.717
11723TIP3   OH235109   1.461   2.520   1.852
11723TIP3    H135110   1.492   2.446   1.905
11723TIP3    H235111   1.498   2.506   1.765
11724TIP3   OH235112   6.734   6.463   3.090
11724TIP3    H135113   6.808   6.472   3.151
11724TIP3    H235114   6.657   6.454   3.146
11725TIP3   OH235115   7.713   1.302   4.741
11725TIP3    H135116   7.673   1.215   4.740
11725TIP3    H235117   7.802   1.288   4.772
11726TIP3   OH235118   6.824   7.267   0.936
11726TIP3    H135119   6.755   7.326   0.967
11726TIP3    H235120   6.870   7.239   1.016
11727TIP3   OH235121   3.989   2.730   5.786
11727TIP3    H135122   3.922   2.671   5.821
11727TIP3    H235123   4.067   2.712   5.840
11728TIP3   OH235124   1.208   0.505   6.496
11728TIP3    H135125   1.144   0.522   6.564
11728TIP3    H235126   1.175   0.553   6.419
11729TIP3   OH235127   8.347   6.466   0.059
11729TIP3    H135128   8.335   6.561   0.052
11729TIP3    H235129   8.261   6.432   0.083
11730TIP3   OH235130   2.117   3.770   1.643
11730TIP3    H135131   2.184   3.704   1.627
11730TIP3    H235132   2.162   3.854   1.632
11731TIP3   OH235133   0.892   5.674   6.138
11731TIP3    H135134   0.888   5.722   6.221
11731TIP3    H235135   0.965   5.713   6.090
11732TIP3   OH235136   0.413   4.041   2.163
11732TIP3    H135137   0.472   4.029   2.237
11732TIP3    H235138   0.401   4.136   2.158
11733TIP3   OH235139   5.688   7.807   5.610
11733TIP3    H135140   5.595   7.815   5.591
11733TIP3    H235141   5.716   7.727   5.566
11734TIP3   OH235142   8.338   0.069   3.728
11734TIP3    H135143   8.307   0.010   3.797
11734TIP3    H235144   8.261   0.083   3.672
11735TIP3   OH235145   8.151   0.624   2.355
11735TIP3    H135146   8.095   0.552   2.327
11735TIP3    H235147   8.144   0.689   2.285
11736TIP3   OH235148   2.455   5.789   1.925
11736TIP3    H135149   2.501   5.705   1.920
11736TIP3    H235150   2.443   5.804   2.018
11737TIP3   OH235151   0.758   0.773   1.907
11737TIP3    H135152   0.671   0.783   1.946
11737TIP3    H235153   0.743   0.779   1.813
11738TIP3   OH235154   1.354   4.057   4.398
11738TIP3    H135155   1.447   4.035   4.391
11738TIP3    H235156   1.353   4.138   4.450
11739TIP3   OH235157   1.963   5.314   5.372
11739TIP3    H135158   1.933   5.316   5.281
11739TIP3    H235159   2.058   5.327   5.366
11740TIP3   OH235160   7.629   6.735   1.035
11740TIP3    H135161   7.680   6.739   0.954
11740TIP3    H235162   7.691   6.706   1.101
11741TIP3   OH235163   6.511   2.371   4.263
11741TIP3    H135164   6.474   2.287   4.291
11741TIP3    H235165   6.577   2.390   4.329
11742TIP3   OH235166   2.330   2.193   3.635
11742TIP3    H135167   2.361   2.280   3.659
11742TIP3    H235168   2.249   2.209   3.587
11743TIP3   OH235169   3.455   0.962   3.066
11743TIP3    H135170   3.508   1.017   3.124
11743TIP3    H235171   3.407   0.905   3.125
11744TIP3   OH235172   2.634   5.325   6.280
11744TIP3    H135173   2.723   5.311   6.247
11744TIP3    H235174   2.603   5.403   6.233
11745TIP3   OH235175   5.553   4.940   6.408
11745TIP3    H135176   5.457   4.937   6.402
11745TIP3    H235177   5.572   5.030   6.436
11746TIP3   OH235178   0.366   1.722   5.380
11746TIP3    H135179   0.456   1.709   5.350
11746TIP3    H235180   0.370   1.706   5.474
11747TIP3   OH235181   6.932   7.237   4.108
11747TIP3    H135182   6.857   7.294   4.089
11747TIP3    H235183   7.004   7.297   4.127
11748TIP3   OH235184   1.917   7.521   2.537
11748TIP3    H135185   2.004   7.501   2.570
11748TIP3    H235186   1.904   7.459   2.464
11749TIP3   OH235187   7.892   4.330   0.496
11749TIP3    H135188   7.850   4.291   0.420
11749TIP3    H235189   7.925   4.414   0.464
11750TIP3   OH235190   7.829   2.559   0.154
11750TIP3    H135191   7.812   2.508   0.232
11750TIP3    H235192   7.744   2.567   0.111
11751TIP3   OH235193   2.201   2.815   4.599
11751TIP3    H135194   2.122   2.802   4.547
11751TIP3    H235195   2.200   2.744   4.663
11752TIP3   OH235196   6.344   7.036   1.468
11752TIP3    H135197   6.364   7.009   1.558
11752TIP3    H235198   6.274   7.101   1.478
11753TIP3   OH235199   3.344   6.616   0.715
11753TIP3    H135200   3.385   6.629   0.801
11753TIP3    H235201   3.343   6.521   0.702
11754TIP3   OH235202   4.964   1.107   3.885
11754TIP3    H135203   4.906   1.051   3.834
11754TIP3    H235204   4.943   1.196   3.856
11755TIP3   OH235205   6.033   1.727   3.967
11755TIP3    H135206   6.085   1.799   4.002
11755TIP3    H235207   5.944   1.744   3.998
11756TIP3   OH235208   1.891   7.221   3.837
11756TIP3    H135209   1.859   7.140   3.798
11756TIP3    H235210   1.815   7.279   3.836
11757TIP3   OH235211   7.647   6.053   4.742
11757TIP3    H135212   7.656   6.058   4.647
11757TIP3    H235213   7.643   6.145   4.770
11758TIP3   OH235214   6.249   2.799   6.066
11758TIP3    H135215   6.270   2.808   6.159
11758TIP3    H235216   6.210   2.882   6.042
11759TIP3   OH235217   7.387   4.277   0.408
11759TIP3    H135218   7.418   4.217   0.340
11759TIP3    H235219   7.333   4.341   0.361
11760TIP3   OH235220   4.564   2.042   3.440
11760TIP3    H135221   4.514   1.960   3.435
11760TIP3    H235222   4.650   2.019   3.405
11761TIP3   OH235223   5.175   1.170   1.454
11761TIP3    H135224   5.252   1.129   1.414
11761TIP3    H235225   5.189   1.264   1.442
11762TIP3   OH235226   3.977   2.784   3.336
11762TIP3    H135227   3.895   2.832   3.327
11762TIP3    H235228   4.030   2.812   3.262
11763TIP3   OH235229   3.607   3.539   1.856
11763TIP3    H135230   3.613   3.525   1.761
11763TIP3    H235231   3.659   3.618   1.871
11764TIP3   OH235232   7.653   4.876   0.973
11764TIP3    H135233   7.733   4.926   0.989
11764TIP3    H235234   7.582   4.938   0.989
11765TIP3   OH235235   8.351   6.004   0.570
11765TIP3    H135236   8.428   5.967   0.527
11765TIP3    H235237   8.364   6.098   0.566
11766TIP3   OH235238   8.254   4.761   5.016
11766TIP3    H135239   8.282   4.781   5.105
11766TIP3    H235240   8.217   4.844   4.984
11767TIP3   OH235241   0.893   3.361   1.580
11767TIP3    H135242   0.887   3.379   1.486
11767TIP3    H235243   0.849   3.436   1.621
11768TIP3   OH235244   6.841   3.698   1.899
11768TIP3    H135245   6.860   3.708   1.806
11768TIP3    H235246   6.836   3.603   1.912
11769TIP3   OH235247   1.380   5.605   6.510
11769TIP3    H135248   1.378   5.617   6.415
11769TIP3    H235249   1.466   5.567   6.527
11770TIP3   OH235250   5.220   0.745   1.856
11770TIP3    H135251   5.196   0.658   1.823
11770TIP3    H235252   5.195   0.805   1.786
11771TIP3   OH235253   6.300   0.614   1.487
11771TIP3    H135254   6.284   0.531   1.443
11771TIP3    H235255   6.343   0.590   1.569
11772TIP3   OH235256   7.611   2.657   6.232
11772TIP3    H135257   7.651   2.737   6.196
11772TIP3    H235258   7.685   2.604   6.260
11773TIP3   OH235259   2.397   6.581   4.083
11773TIP3    H135260   2.342   6.554   4.010
11773TIP3    H235261   2.399   6.504   4.141
11774TIP3   OH235262   2.900   3.226   5.851
11774TIP3    H135263   2.828   3.209   5.790
11774TIP3    H235264   2.975   3.247   5.795
11775TIP3   OH235265   8.332   6.389   2.158
11775TIP3    H135266   8.288   6.469   2.128
11775TIP3    H235267   8.267   6.320   2.146
11776TIP3   OH235268   5.804   3.952   0.928
11776TIP3    H135269   5.842   4.028   0.972
11776TIP3    H235270   5.872   3.885   0.932
11777TIP3   OH235271   8.095   1.749   6.683
11777TIP3    H135272   8.139   1.724   6.602
11777TIP3    H235273   8.134   1.694   6.750
11778TIP3   OH235274   7.016   2.743   6.683
11778TIP3    H135275   7.027   2.809   6.751
11778TIP3    H235276   7.030   2.659   6.727
11779TIP3   OH235277   7.443   4.717   4.895
11779TIP3    H135278   7.452   4.627   4.864
11779TIP3    H235279   7.438   4.709   4.990
11780TIP3   OH235280   7.726   0.218   4.604
11780TIP3    H135281   7.640   0.243   4.571
11780TIP3    H235282   7.717   0.126   4.630
11781TIP3   OH235283   6.071   5.501   6.520
11781TIP3    H135284   6.073   5.552   6.439
11781TIP3    H235285   6.150   5.448   6.517
11782TIP3   OH235286   0.253   0.257   4.781
11782TIP3    H135287   0.301   0.323   4.831
11782TIP3    H235288   0.308   0.242   4.704
11783TIP3   OH235289   1.720   3.142   3.117
11783TIP3    H135290   1.771   3.086   3.174
11783TIP3    H235291   1.770   3.224   3.112
11784TIP3   OH235292   7.278   7.139   0.408
11784TIP3    H135293   7.293   7.230   0.431
11784TIP3    H235294   7.215   7.141   0.336
11785TIP3   OH235295   5.756   2.701   3.144
11785TIP3    H135296   5.776   2.740   3.229
11785TIP3    H235297   5.735   2.776   3.088
11786TIP3   OH235298   4.135   6.816   2.216
11786TIP3    H135299   4.191   6.893   2.205
11786TIP3    H235300   4.173   6.750   2.158
11787TIP3   OH235301   0.222   5.641   4.456
11787TIP3    H135302   0.232   5.608   4.545
11787TIP3    H235303   0.284   5.714   4.450
11788TIP3   OH235304   8.105   0.370   4.227
11788TIP3    H135305   8.017   0.335   4.244
11788TIP3    H235306   8.102   0.399   4.136
11789TIP3   OH235307   3.819   5.809   0.032
11789TIP3    H135308   3.856   5.897   0.022
11789TIP3    H235309   3.728   5.824   0.059
11790TIP3   OH235310   1.607   3.328   5.690
11790TIP3    H135311   1.595   3.358   5.780
11790TIP3    H235312   1.551   3.251   5.681
11791TIP3   OH235313   5.324   2.578   2.330
11791TIP3    H135314   5.311   2.661   2.376
11791TIP3    H235315   5.235   2.548   2.309
11792TIP3   OH235316   7.734   6.491   5.295
11792TIP3    H135317   7.767   6.403   5.276
11792TIP3    H235318   7.793   6.525   5.362
11793TIP3   OH235319   5.379   1.710   6.271
11793TIP3    H135320   5.474   1.718   6.261
11793TIP3    H235321   5.344   1.790   6.233
11794TIP3   OH235322   4.998   0.020   1.011
11794TIP3    H135323   4.992  -0.072   0.984
11794TIP3    H235324   4.931   0.065   0.960
11795TIP3   OH235325   3.137   2.261   5.016
11795TIP3    H135326   3.083   2.185   5.036
11795TIP3    H235327   3.204   2.262   5.085
11796TIP3   OH235328   4.348   0.637   0.337
11796TIP3    H135329   4.419   0.625   0.400
11796TIP3    H235330   4.310   0.721   0.361
11797TIP3   OH235331   5.456   1.252   5.767
11797TIP3    H135332   5.410   1.220   5.689
11797TIP3    H235333   5.472   1.344   5.750
11798TIP3   OH235334   7.898   7.725   2.632
11798TIP3    H135335   7.945   7.676   2.565
11798TIP3    H235336   7.954   7.801   2.649
11799TIP3   OH235337   0.968   5.640   1.881
11799TIP3    H135338   0.902   5.655   1.812
11799TIP3    H235339   0.953   5.550   1.908
11800TIP3   OH235340   7.930   4.057   0.017
11800TIP3    H135341   8.014   4.024   0.049
11800TIP3    H235342   7.948   4.083  -0.073
11801TIP3   OH235343   6.106   6.622   0.682
11801TIP3    H135344   6.036   6.628   0.617
11801TIP3    H235345   6.170   6.562   0.643
11802TIP3   OH235346   4.394   3.348   5.967
11802TIP3    H135347   4.374   3.268   6.017
11802TIP3    H235348   4.369   3.326   5.877
11803TIP3   OH235349   7.183   1.182   0.144
11803TIP3    H135350   7.141   1.268   0.147
11803TIP3    H235351   7.276   1.200   0.135
11804TIP3   OH235352   5.089   2.939   1.336
11804TIP3    H135353   5.172   2.986   1.332
11804TIP3    H235354   5.111   2.848   1.315
11805TIP3   OH235355   0.846   3.822   6.087
11805TIP3    H135356   0.753   3.831   6.065
11805TIP3    H235357   0.851   3.850   6.178
11806TIP3   OH235358   7.728   0.905   4.617
11806TIP3    H135359   7.747   0.988   4.574
11806TIP3    H235360   7.770   0.911   4.702
11807TIP3   OH235361   2.148   5.286   1.454
11807TIP3    H135362   2.105   5.204   1.428
11807TIP3    H235363   2.239   5.276   1.425
11808TIP3   OH235364   2.148   5.243   6.514
11808TIP3    H135365   2.084   5.186   6.471
11808TIP3    H235366   2.208   5.182   6.558
11809TIP3   OH235367   6.307   4.983   3.130
11809TIP3    H135368   6.342   4.922   3.195
11809TIP3    H235369   6.312   5.069   3.172
11810TIP3   OH235370   4.791   3.651   5.961
11810TIP3    H135371   4.809   3.613   6.047
11810TIP3    H235372   4.722   3.596   5.924
11811TIP3   OH235373   5.850   6.125   0.567
11811TIP3    H135374   5.901   6.045   0.583
11811TIP3    H235375   5.803   6.140   0.649
11812TIP3   OH235376   2.759   5.671   0.699
11812TIP3    H135377   2.832   5.722   0.664
11812TIP3    H235378   2.746   5.600   0.636
11813TIP3   OH235379   4.157   0.643   6.765
11813TIP3    H135380   4.138   0.558   6.805
11813TIP3    H235381   4.075   0.692   6.774
11814TIP3   OH235382   7.078   7.851   1.314
11814TIP3    H135383   7.039   7.938   1.303
11814TIP3    H235384   7.171   7.869   1.333
11815TIP3   OH235385   3.430   5.712   1.927
11815TIP3    H135386   3.522   5.691   1.912
11815TIP3    H235387   3.428   5.808   1.930
11816TIP3   OH235388   5.582   5.664   2.054
11816TIP3    H135389   5.620   5.623   2.131
11816TIP3    H235390   5.499   5.617   2.040
11817TIP3   OH235391   4.949   1.032   0.775
11817TIP3    H135392   4.916   1.061   0.690
11817TIP3    H235393   4.984   1.111   0.816
11818TIP3   OH235394   7.831   2.066   1.957
11818TIP3    H135395   7.896   1.997   1.967
11818TIP3    H235396   7.799   2.057   1.867
11819TIP3   OH235397   2.235   1.057   1.940
11819TIP3    H135398   2.190   1.114   2.002
11819TIP3    H235399   2.174   0.984   1.928
11820TIP3   OH235400   7.398   2.541   6.810
11820TIP3    H135401   7.485   2.502   6.798
11820TIP3    H235402   7.415   2.635   6.817
11821TIP3   OH235403   0.190   4.671   4.273
11821TIP3    H135404   0.196   4.733   4.346
11821TIP3    H235405   0.271   4.684   4.224
11822TIP3   OH235406   3.871   6.279   4.164
11822TIP3    H135407   3.835   6.213   4.103
11822TIP3    H235408   3.896   6.228   4.241
11823TIP3   OH235409   2.694   0.666   0.489
11823TIP3    H135410   2.686   0.571   0.475
11823TIP3    H235411   2.785   0.678   0.516
11824TIP3   OH235412   1.629   1.113   4.654
11824TIP3    H135413   1.707   1.167   4.670
11824TIP3    H235414   1.620   1.059   4.733
11825TIP3   OH235415   5.255   5.669   1.608
11825TIP3    H135416   5.250   5.639   1.517
11825TIP3    H235417   5.175   5.638   1.648
11826TIP3   OH235418   7.754   6.654   3.091
11826TIP3    H135419   7.827   6.594   3.077
11826TIP3    H235420   7.763   6.682   3.182
11827TIP3   OH235421   3.402   6.805   2.090
11827TIP3    H135422   3.491   6.838   2.087
11827TIP3    H235423   3.384   6.775   2.001
11828TIP3   OH235424   7.210   7.865   0.298
11828TIP3    H135425   7.119   7.892   0.300
11828TIP3    H235426   7.230   7.843   0.389
11829TIP3   OH235427   3.796   7.705   4.577
11829TIP3    H135428   3.771   7.615   4.598
11829TIP3    H235429   3.891   7.707   4.589
11830TIP3   OH235430   6.605   5.043   3.228
11830TIP3    H135431   6.530   5.059   3.285
11830TIP3    H235432   6.631   4.953   3.248
11831TIP3   OH235433   7.873   7.847   5.621
11831TIP3    H135434   7.924   7.893   5.556
11831TIP3    H235435   7.782   7.856   5.591
11832TIP3   OH235436   1.856   5.575   3.429
11832TIP3    H135437   1.851   5.541   3.518
11832TIP3    H235438   1.875   5.498   3.375
11833TIP3   OH235439   3.035   0.402   3.423
11833TIP3    H135440   3.131   0.410   3.417
11833TIP3    H235441   3.010   0.350   3.347
11834TIP3   OH235442   1.336   7.053   6.491
11834TIP3    H135443   1.428   7.041   6.470
11834TIP3    H235444   1.317   6.986   6.556
11835TIP3   OH235445   3.239   7.539   5.812
11835TIP3    H135446   3.311   7.476   5.819
11835TIP3    H235447   3.283   7.624   5.806
11836TIP3   OH235448   0.356   1.865   0.116
11836TIP3    H135449   0.280   1.823   0.156
11836TIP3    H235450   0.322   1.948   0.082
11837TIP3   OH235451   2.291   1.444   6.576
11837TIP3    H135452   2.212   1.416   6.529
11837TIP3    H235453   2.359   1.444   6.510
11838TIP3   OH235454   3.873   4.940   4.830
11838TIP3    H135455   3.870   4.886   4.751
11838TIP3    H235456   3.916   5.021   4.802
11839TIP3   OH235457   6.509   1.474   0.813
11839TIP3    H135458   6.558   1.398   0.781
11839TIP3    H235459   6.464   1.442   0.892
11840TIP3   OH235460   8.219   1.806   5.344
11840TIP3    H135461   8.128   1.787   5.319
11840TIP3    H235462   8.211   1.863   5.420
11841TIP3   OH235463   6.273   5.838   1.322
11841TIP3    H135464   6.218   5.775   1.274
11841TIP3    H235465   6.222   5.860   1.400
11842TIP3   OH235466   2.588   1.864   5.332
11842TIP3    H135467   2.633   1.853   5.248
11842TIP3    H235468   2.564   1.956   5.334
11843TIP3   OH235469   4.904   7.892   3.712
11843TIP3    H135470   4.838   7.960   3.726
11843TIP3    H235471   4.951   7.920   3.633
11844TIP3   OH235472   7.637   4.507   5.028
11844TIP3    H135473   7.638   4.587   5.079
11844TIP3    H235474   7.724   4.502   4.989
11845TIP3   OH235475   1.777   3.079   6.419
11845TIP3    H135476   1.818   3.151   6.467
11845TIP3    H235477   1.687   3.078   6.451
11846TIP3   OH235478   6.075   6.927   0.592
11846TIP3    H135479   6.036   6.954   0.675
11846TIP3    H235480   6.146   6.867   0.617
11847TIP3   OH235481   1.990   1.913   3.885
11847TIP3    H135482   1.999   1.862   3.966
11847TIP3    H235483   2.007   1.849   3.816
11848TIP3   OH235484   5.134   4.029   4.107
11848TIP3    H135485   5.186   4.057   4.182
11848TIP3    H235486   5.191   3.969   4.059
11849TIP3   OH235487   4.132   6.099   5.061
11849TIP3    H135488   4.172   6.158   4.998
11849TIP3    H235489   4.205   6.057   5.107
11850TIP3   OH235490   2.507   1.685   1.047
11850TIP3    H135491   2.583   1.659   1.098
11850TIP3    H235492   2.465   1.753   1.099
11851TIP3   OH235493   2.698   6.193   4.032
11851TIP3    H135494   2.735   6.108   4.006
11851TIP3    H235495   2.604   6.181   4.022
11852TIP3   OH235496   1.315   5.619   1.245
11852TIP3    H135497   1.363   5.702   1.249
11852TIP3    H235498   1.291   5.609   1.153
11853TIP3   OH235499   2.161   7.115   2.820
11853TIP3    H135500   2.207   7.033   2.802
11853TIP3    H235501   2.188   7.139   2.909
11854TIP3   OH235502   2.500   1.633   4.296
11854TIP3    H135503   2.543   1.703   4.247
11854TIP3    H235504   2.409   1.636   4.266
11855TIP3   OH235505   3.270   6.104   5.156
11855TIP3    H135506   3.176   6.117   5.168
11855TIP3    H235507   3.305   6.094   5.244
11856TIP3   OH235508   3.723   5.401   4.662
11856TIP3    H135509   3.703   5.423   4.753
11856TIP3    H235510   3.812   5.434   4.648
11857TIP3   OH235511   5.291   7.540   2.450
11857TIP3    H135512   5.316   7.457   2.491
11857TIP3    H235513   5.227   7.517   2.383
11858TIP3   OH235514   3.311   2.304   0.509
11858TIP3    H135515   3.218   2.313   0.488
11858TIP3    H235516   3.349   2.258   0.433
11859TIP3   OH235517   5.525   7.051   3.738
11859TIP3    H135518   5.460   7.060   3.808
11859TIP3    H235519   5.529   7.138   3.697
11860TIP3   OH235520   0.511   1.037   5.821
11860TIP3    H135521   0.563   1.005   5.894
11860TIP3    H235522   0.422   1.006   5.839
11861TIP3   OH235523   5.955   2.232   0.034
11861TIP3    H135524   5.950   2.227   0.129
11861TIP3    H235525   6.034   2.283   0.016
11862TIP3   OH235526   0.236   7.761   6.635
11862TIP3    H135527   0.192   7.808   6.706
11862TIP3    H235528   0.276   7.829   6.582
11863TIP3   OH235529   7.397   1.372   5.196
11863TIP3    H135530   7.312   1.408   5.219
11863TIP3    H235531   7.381   1.320   5.117
11864TIP3   OH235532   6.104   4.422   3.473
11864TIP3    H135533   6.055   4.344   3.499
11864TIP3    H235534   6.037   4.491   3.467
11865TIP3   OH235535   6.516   1.129   2.761
11865TIP3    H135536   6.533   1.091   2.675
11865TIP3    H235537   6.567   1.075   2.822
11866TIP3   OH235538   4.033   1.505   0.610
11866TIP3    H135539   4.111   1.506   0.666
11866TIP3    H235540   4.030   1.593   0.572
11867TIP3   OH235541   6.287   5.678   4.868
11867TIP3    H135542   6.310   5.606   4.809
11867TIP3    H235543   6.332   5.754   4.833
11868TIP3   OH235544   6.931   3.603   0.438
11868TIP3    H135545   6.908   3.646   0.520
11868TIP3    H235546   7.021   3.574   0.450
11869TIP3   OH235547   1.437   4.239   0.430
11869TIP3    H135548   1.394   4.158   0.400
11869TIP3    H235549   1.465   4.282   0.349
11870TIP3   OH235550   4.207   7.678   5.308
11870TIP3    H135551   4.116   7.650   5.303
11870TIP3    H235552   4.255   7.612   5.258
11871TIP3   OH235553   0.344   2.570   3.278
11871TIP3    H135554   0.318   2.480   3.301
11871TIP3    H235555   0.306   2.585   3.192
11872TIP3   OH235556   1.637   3.049   2.704
11872TIP3    H135557   1.621   3.141   2.679
11872TIP3    H235558   1.642   3.003   2.620
11873TIP3   OH235559   0.687   2.255   5.294
11873TIP3    H135560   0.661   2.336   5.339
11873TIP3    H235561   0.782   2.258   5.292
11874TIP3   OH235562   7.308   4.091   2.625
11874TIP3    H135563   7.367   4.018   2.641
11874TIP3    H235564   7.293   4.089   2.530
11875TIP3   OH235565   8.236   1.491   5.646
11875TIP3    H135566   8.182   1.484   5.567
11875TIP3    H235567   8.326   1.481   5.615
11876TIP3   OH235568   3.273   2.742   5.484
11876TIP3    H135569   3.206   2.785   5.430
11876TIP3    H235570   3.286   2.657   5.442
11877TIP3   OH235571   6.280   7.473   2.953
11877TIP3    H135572   6.266   7.425   3.035
11877TIP3    H235573   6.350   7.425   2.910
11878TIP3   OH235574   2.794   0.603   1.848
11878TIP3    H135575   2.760   0.547   1.918
11878TIP3    H235576   2.827   0.681   1.893
11879TIP3   OH235577   1.158   2.913   5.860
11879TIP3    H135578   1.066   2.921   5.835
11879TIP3    H235579   1.207   2.936   5.781
11880TIP3   OH235580   2.373   2.780   4.304
11880TIP3    H135581   2.392   2.780   4.210
11880TIP3    H235582   2.395   2.868   4.333
11881TIP3   OH235583   5.844   6.652   1.327
11881TIP3    H135584   5.903   6.727   1.323
11881TIP3    H235585   5.785   6.672   1.400
11882TIP3   OH235586   1.747   6.154   2.339
11882TIP3    H135587   1.843   6.164   2.338
11882TIP3    H235588   1.720   6.185   2.252
11883TIP3   OH235589   3.934   6.467   2.236
11883TIP3    H135590   3.891   6.464   2.321
11883TIP3    H235591   3.887   6.535   2.187
11884TIP3   OH235592   5.376   0.625   1.538
11884TIP3    H135593   5.436   0.596   1.469
11884TIP3    H235594   5.401   0.716   1.554
11885TIP3   OH235595   6.094   5.717   6.332
11885TIP3    H135596   6.172   5.676   6.294
11885TIP3    H235597   6.111   5.811   6.326
11886TIP3   OH235598   1.435   1.568   2.094
11886TIP3    H135599   1.506   1.547   2.033
11886TIP3    H235600   1.471   1.551   2.181
11887TIP3   OH235601   4.849   6.495   1.046
11887TIP3    H135602   4.837   6.413   1.093
11887TIP3    H235603   4.935   6.526   1.072
11888TIP3   OH235604   3.624   6.447   1.235
11888TIP3    H135605   3.661   6.500   1.164
11888TIP3    H235606   3.668   6.480   1.314
11889TIP3   OH235607   0.548   3.689   2.460
11889TIP3    H135608   0.497   3.718   2.536
11889TIP3    H235609   0.587   3.606   2.487
11890TIP3   OH235610   7.799   1.178   3.053
11890TIP3    H135611   7.721   1.186   3.000
11890TIP3    H235612   7.859   1.123   3.002
11891TIP3   OH235613   3.710   1.672   2.716
11891TIP3    H135614   3.626   1.649   2.677
11891TIP3    H235615   3.772   1.608   2.681
11892TIP3   OH235616   5.258   3.162   0.454
11892TIP3    H135617   5.329   3.227   0.451
11892TIP3    H235618   5.230   3.153   0.363
11893TIP3   OH235619   0.524   5.534   5.052
11893TIP3    H135620   0.574   5.455   5.035
11893TIP3    H235621   0.444   5.504   5.095
11894TIP3   OH235622   7.312   1.835   5.227
11894TIP3    H135623   7.264   1.917   5.239
11894TIP3    H235624   7.323   1.827   5.132
11895TIP3   OH235625   2.662   6.065   4.901
11895TIP3    H135626   2.622   6.085   4.816
11895TIP3    H235627   2.629   5.978   4.923
11896TIP3   OH235628   1.183   3.058   2.576
11896TIP3    H135629   1.216   3.088   2.491
11896TIP3    H235630   1.253   3.002   2.610
11897TIP3   OH235631   7.623   0.849   4.047
11897TIP3    H135632   7.675   0.816   4.120
11897TIP3    H235633   7.535   0.861   4.084
11898TIP3   OH235634   8.025   5.854   4.246
11898TIP3    H135635   8.071   5.770   4.238
11898TIP3    H235636   8.071   5.912   4.185
11899TIP3   OH235637   3.624   2.041   6.725
11899TIP3    H135638   3.604   2.021   6.817
11899TIP3    H235639   3.586   1.969   6.676
11900TIP3   OH235640   7.774   2.206   5.742
11900TIP3    H135641   7.704   2.255   5.698
11900TIP3    H235642   7.755   2.114   5.724
11901TIP3   OH235643   6.550   2.571   6.731
11901TIP3    H135644   6.624   2.630   6.744
11901TIP3    H235645   6.507   2.603   6.651
11902TIP3   OH235646   7.437   4.552   1.933
11902TIP3    H135647   7.429   4.461   1.961
11902TIP3    H235648   7.427   4.548   1.838
11903TIP3   OH235649   1.011   5.780   2.140
11903TIP3    H135650   1.034   5.687   2.146
11903TIP3    H235651   0.949   5.784   2.067
11904TIP3   OH235652   2.183   4.995   2.917
11904TIP3    H135653   2.153   4.930   2.854
11904TIP3    H235654   2.123   4.987   2.990
11905TIP3   OH235655   2.925   3.042   1.585
11905TIP3    H135656   2.924   2.948   1.602
11905TIP3    H235657   2.876   3.052   1.504
11906TIP3   OH235658   0.310   5.533   1.669
11906TIP3    H135659   0.342   5.557   1.756
11906TIP3    H235660   0.215   5.525   1.680
11907TIP3   OH235661   6.648   7.872   1.769
11907TIP3    H135662   6.710   7.943   1.784
11907TIP3    H235663   6.572   7.896   1.822
11908TIP3   OH235664   0.251   3.455   2.331
11908TIP3    H135665   0.284   3.397   2.399
11908TIP3    H235666   0.164   3.482   2.361
11909TIP3   OH235667   1.722   5.868   2.271
11909TIP3    H135668   1.719   5.815   2.351
11909TIP3    H235669   1.665   5.943   2.290
11910TIP3   OH235670   4.010   0.116   2.208
11910TIP3    H135671   3.934   0.115   2.150
11910TIP3    H235672   4.030   0.023   2.223
11911TIP3   OH235673   2.248   1.682   4.130
11911TIP3    H135674   2.188   1.713   4.198
11911TIP3    H235675   2.285   1.762   4.093
11912TIP3   OH235676   0.221   3.873   1.982
11912TIP3    H135677   0.175   3.853   2.064
11912TIP3    H235678   0.287   3.938   2.007
11913TIP3   OH235679   3.860   1.631   1.755
11913TIP3    H135680   3.873   1.674   1.670
11913TIP3    H235681   3.948   1.607   1.783
11914TIP3   OH235682   0.074   6.436   6.310
11914TIP3    H135683   0.162   6.466   6.287
11914TIP3    H235684   0.086   6.387   6.391
11915TIP3   OH235685   6.482   5.882   5.979
11915TIP3    H135686   6.543   5.912   6.047
11915TIP3    H235687   6.396   5.906   6.013
11916TIP3   OH235688   7.374   1.364   5.540
11916TIP3    H135689   7.414   1.431   5.484
11916TIP3    H235690   7.381   1.400   5.629
11917TIP3   OH235691   3.009   0.986   4.324
11917TIP3    H135692   3.083   0.962   4.379
11917TIP3    H235693   2.972   1.064   4.365
11918TIP3   OH235694   2.802   4.625   2.711
11918TIP3    H135695   2.817   4.718   2.697
11918TIP3    H235696   2.880   4.595   2.758
11919TIP3   OH235697   0.625   0.838   3.591
11919TIP3    H135698   0.708   0.808   3.628
11919TIP3    H235699   0.557   0.795   3.643
11920TIP3   OH235700   5.439   0.171   5.781
11920TIP3    H135701   5.499   0.239   5.751
11920TIP3    H235702   5.357   0.189   5.734
11921TIP3   OH235703   4.030   3.749   3.047
11921TIP3    H135704   4.069   3.668   3.081
11921TIP3    H235705   4.005   3.728   2.957
11922TIP3   OH235706   0.910   3.140   2.160
11922TIP3    H135707   0.956   3.060   2.184
11922TIP3    H235708   0.976   3.191   2.111
11923TIP3   OH235709   7.991   4.454   4.103
11923TIP3    H135710   7.975   4.456   4.009
11923TIP3    H235711   8.026   4.541   4.124
11924TIP3   OH235712   4.139   5.883   0.423
11924TIP3    H135713   4.200   5.850   0.356
11924TIP3    H235714   4.088   5.950   0.378
11925TIP3   OH235715   5.713   1.825   2.636
11925TIP3    H135716   5.669   1.875   2.568
11925TIP3    H235717   5.735   1.742   2.594
11926TIP3   OH235718   7.818   7.113   2.944
11926TIP3    H135719   7.805   7.025   2.909
11926TIP3    H235720   7.822   7.100   3.039
11927TIP3   OH235721   3.978   5.930   3.528
11927TIP3    H135722   3.985   5.848   3.577
11927TIP3    H235723   3.970   5.902   3.436
11928TIP3   OH235724   5.323   1.138   2.926
11928TIP3    H135725   5.363   1.059   2.890
11928TIP3    H235726   5.294   1.112   3.014
11929TIP3   OH235727   2.949   6.679   1.143
11929TIP3    H135728   2.997   6.632   1.212
11929TIP3    H235729   2.905   6.750   1.189
11930TIP3   OH235730   6.141   2.627   6.349
11930TIP3    H135731   6.194   2.561   6.305
11930TIP3    H235732   6.061   2.633   6.297
11931TIP3   OH235733   7.545   2.345   1.098
11931TIP3    H135734   7.464   2.366   1.051
11931TIP3    H235735   7.570   2.259   1.066
11932TIP3   OH235736   4.036   0.073   4.074
11932TIP3    H135737   4.104   0.093   4.011
11932TIP3    H235738   4.008  -0.016   4.051
11933TIP3   OH235739   8.249   3.573   1.127
11933TIP3    H135740   8.219   3.651   1.080
11933TIP3    H235741   8.344   3.585   1.135
11934TIP3   OH235742   7.826   3.854   5.288
11934TIP3    H135743   7.748   3.896   5.253
11934TIP3    H235744   7.801   3.828   5.377
11935TIP3   OH235745   1.075   3.219   3.042
11935TIP3    H135746   1.152   3.168   3.065
11935TIP3    H235747   1.086   3.303   3.087
11936TIP3   OH235748   2.200   7.406   6.133
11936TIP3    H135749   2.240   7.491   6.153
11936TIP3    H235750   2.121   7.429   6.083
11937TIP3   OH235751   6.257   3.868   1.770
11937TIP3    H135752   6.241   3.962   1.761
11937TIP3    H235753   6.325   3.862   1.837
11938TIP3   OH235754   5.421   1.694   1.445
11938TIP3    H135755   5.385   1.748   1.375
11938TIP3    H235756   5.371   1.718   1.523
11939TIP3   OH235757   1.937   0.828   5.371
11939TIP3    H135758   1.998   0.901   5.372
11939TIP3    H235759   1.852   0.868   5.353
11940TIP3   OH235760   3.429   0.197   6.820
11940TIP3    H135761   3.417   0.108   6.787
11940TIP3    H235762   3.382   0.253   6.758
11941TIP3   OH235763   3.055   5.886   1.704
11941TIP3    H135764   3.024   5.813   1.650
11941TIP3    H235765   3.088   5.844   1.784
11942TIP3   OH235766   7.785   2.372   1.883
11942TIP3    H135767   7.804   2.415   1.800
11942TIP3    H235768   7.868   2.370   1.930
11943TIP3   OH235769   5.592   2.699   0.105
11943TIP3    H135770   5.556   2.782   0.075
11943TIP3    H235771   5.524   2.635   0.084
11944TIP3   OH235772   3.693   1.546   3.044
11944TIP3    H135773   3.616   1.503   3.007
11944TIP3    H235774   3.765   1.525   2.984
11945TIP3   OH235775   7.916   5.590   2.401
11945TIP3    H135776   7.832   5.575   2.357
11945TIP3    H235777   7.976   5.617   2.331
11946TIP3   OH235778   4.933   0.252   1.194
11946TIP3    H135779   4.948   0.342   1.167
11946TIP3    H235780   4.966   0.199   1.121
11947TIP3   OH235781   2.232   3.717   3.455
11947TIP3    H135782   2.327   3.721   3.441
11947TIP3    H235783   2.207   3.806   3.477
11948TIP3   OH235784   5.767   0.339   4.638
11948TIP3    H135785   5.709   0.395   4.587
11948TIP3    H235786   5.714   0.261   4.657
11949TIP3   OH235787   7.793   3.298   5.177
11949TIP3    H135788   7.858   3.305   5.246
11949TIP3    H235789   7.812   3.214   5.134
11950TIP3   OH235790   1.691   0.216   5.995
11950TIP3    H135791   1.618   0.174   6.039
11950TIP3    H235792   1.693   0.305   6.031
11951TIP3   OH235793   3.394   7.667   0.107
11951TIP3    H135794   3.365   7.579   0.081
11951TIP3    H235795   3.482   7.654   0.142
11952TIP3   OH235796   7.625   4.773   1.921
11952TIP3    H135797   7.698   4.754   1.980
11952TIP3    H235798   7.556   4.713   1.949
11953TIP3   OH235799   5.770   3.374   3.886
11953TIP3    H135800   5.758   3.292   3.935
11953TIP3    H235801   5.820   3.430   3.945
11954TIP3   OH235802   3.120   2.192   5.933
11954TIP3    H135803   3.073   2.123   5.980
11954TIP3    H235804   3.111   2.269   5.990
11955TIP3   OH235805   4.759   2.393   6.211
11955TIP3    H135806   4.800   2.326   6.156
11955TIP3    H235807   4.666   2.385   6.192
11956TIP3   OH235808   0.607   7.687   6.394
11956TIP3    H135809   0.636   7.694   6.303
11956TIP3    H235810   0.521   7.645   6.388
11957TIP3   OH235811   4.755   7.579   5.853
11957TIP3    H135812   4.801   7.559   5.772
11957TIP3    H235813   4.800   7.657   5.887
11958TIP3   OH235814   6.083   4.218   6.553
11958TIP3    H135815   6.096   4.296   6.607
11958TIP3    H235816   5.987   4.211   6.545
11959TIP3   OH235817   3.598   0.819   3.593
11959TIP3    H135818   3.678   0.769   3.611
11959TIP3    H235819   3.552   0.823   3.676
11960TIP3   OH235820   7.255   4.850   1.294
11960TIP3    H135821   7.271   4.781   1.359
11960TIP3    H235822   7.319   4.918   1.316
11961TIP3   OH235823   0.211   6.813   4.443
11961TIP3    H135824   0.194   6.854   4.358
11961TIP3    H235825   0.194   6.720   4.429
11962TIP3   OH235826   5.210   3.966   2.351
11962TIP3    H135827   5.177   3.876   2.359
11962TIP3    H235828   5.233   3.975   2.259
11963TIP3   OH235829   3.017   6.361   4.553
11963TIP3    H135830   3.080   6.423   4.517
11963TIP3    H235831   2.943   6.364   4.491
11964TIP3   OH235832   5.220   6.321   1.261
11964TIP3    H135833   5.206   6.253   1.328
11964TIP3    H235834   5.164   6.393   1.289
11965TIP3   OH235835   1.708   2.072   3.960
11965TIP3    H135836   1.755   2.091   3.879
11965TIP3    H235837   1.730   2.145   4.018
11966TIP3   OH235838   3.973   5.593   2.883
11966TIP3    H135839   4.003   5.681   2.858
11966TIP3    H235840   3.913   5.609   2.956
11967TIP3   OH235841   0.626   2.540   2.099
11967TIP3    H135842   0.592   2.624   2.130
11967TIP3    H235843   0.558   2.476   2.123
11968TIP3   OH235844   4.307   3.171   1.421
11968TIP3    H135845   4.391   3.209   1.448
11968TIP3    H235846   4.246   3.195   1.491
11969TIP3   OH235847   2.292   4.899   0.810
11969TIP3    H135848   2.347   4.849   0.871
11969TIP3    H235849   2.269   4.836   0.741
11970TIP3   OH235850   3.004   4.541   3.300
11970TIP3    H135851   3.035   4.586   3.379
11970TIP3    H235852   3.072   4.558   3.235
11971TIP3   OH235853   1.639   4.824   4.702
11971TIP3    H135854   1.570   4.846   4.765
11971TIP3    H235855   1.674   4.741   4.734
11972TIP3   OH235856   1.703   6.425   0.854
11972TIP3    H135857   1.775   6.487   0.849
11972TIP3    H235858   1.716   6.366   0.780
11973TIP3   OH235859   3.216   2.720   5.854
11973TIP3    H135860   3.152   2.738   5.786
11973TIP3    H235861   3.259   2.639   5.826
11974TIP3   OH235862   5.187   1.209   3.587
11974TIP3    H135863   5.095   1.239   3.586
11974TIP3    H235864   5.231   1.269   3.526
11975TIP3   OH235865   4.547   6.756   1.910
11975TIP3    H135866   4.591   6.739   1.827
11975TIP3    H235867   4.556   6.675   1.960
11976TIP3   OH235868   5.658   3.946   5.368
11976TIP3    H135869   5.616   3.988   5.443
11976TIP3    H235870   5.702   4.018   5.322
11977TIP3   OH235871   5.499   4.033   5.932
11977TIP3    H135872   5.483   4.118   5.891
11977TIP3    H235873   5.588   4.040   5.968
11978TIP3   OH235874   4.319   5.195   3.019
11978TIP3    H135875   4.381   5.166   2.952
11978TIP3    H235876   4.337   5.138   3.094
11979TIP3   OH235877   0.587   2.393   1.748
11979TIP3    H135878   0.580   2.488   1.744
11979TIP3    H235879   0.637   2.369   1.670
11980TIP3   OH235880   4.037   5.511   2.479
11980TIP3    H135881   4.107   5.551   2.531
11980TIP3    H235882   3.991   5.586   2.440
11981TIP3   OH235883   3.720   6.397   1.875
11981TIP3    H135884   3.700   6.488   1.898
11981TIP3    H235885   3.642   6.348   1.902
11982TIP3   OH235886   5.476   7.767   2.752
11982TIP3    H135887   5.403   7.779   2.690
11982TIP3    H235888   5.452   7.821   2.827
11983TIP3   OH235889   4.157   4.984   6.749
11983TIP3    H135890   4.131   4.971   6.658
11983TIP3    H235891   4.225   4.919   6.764
11984TIP3   OH235892   5.819   1.608   5.445
11984TIP3    H135893   5.873   1.635   5.371
11984TIP3    H235894   5.769   1.686   5.468
11985TIP3   OH235895   0.279   6.822   6.557
11985TIP3    H135896   0.183   6.821   6.564
11985TIP3    H235897   0.307   6.747   6.609
11986TIP3   OH235898   2.129   2.497   2.962
11986TIP3    H135899   2.073   2.421   2.953
11986TIP3    H235900   2.085   2.566   2.911
11987TIP3   OH235901   2.169   5.009   1.541
11987TIP3    H135902   2.167   4.918   1.512
11987TIP3    H235903   2.246   5.046   1.499
11988TIP3   OH235904   0.653   0.753   6.170
11988TIP3    H135905   0.626   0.664   6.192
11988TIP3    H235906   0.588   0.810   6.211
11989TIP3   OH235907   4.117   4.708   0.577
11989TIP3    H135908   4.188   4.701   0.513
11989TIP3    H235909   4.054   4.641   0.549
11990TIP3   OH235910   3.627   0.436   4.749
11990TIP3    H135911   3.675   0.439   4.831
11990TIP3    H235912   3.594   0.525   4.736
11991TIP3   OH235913   7.171   3.385   4.095
11991TIP3    H135914   7.130   3.409   4.178
11991TIP3    H235915   7.262   3.366   4.118
11992TIP3   OH235916   3.861   0.111   1.107
11992TIP3    H135917   3.778   0.068   1.086
11992TIP3    H235918   3.837   0.202   1.121
11993TIP3   OH235919   4.379   2.938   5.670
11993TIP3    H135920   4.443   3.008   5.682
11993TIP3    H235921   4.325   2.966   5.597
11994TIP3   OH235922   3.549   2.497   1.083
11994TIP3    H135923   3.548   2.454   0.998
11994TIP3    H235924   3.539   2.590   1.064
11995TIP3   OH235925   0.572   0.164   6.736
11995TIP3    H135926   0.485   0.197   6.757
11995TIP3    H235927   0.620   0.167   6.818
11996TIP3   OH235928   3.795   5.593   6.806
11996TIP3    H135929   3.704   5.564   6.807
11996TIP3    H235930   3.813   5.621   6.896
11997TIP3   OH235931   3.344   4.408   1.550
11997TIP3    H135932   3.286   4.379   1.621
11997TIP3    H235933   3.425   4.432   1.594
11998TIP3   OH235934   2.433   7.087   2.163
11998TIP3    H135935   2.409   6.995   2.156
11998TIP3    H235936   2.406   7.126   2.080
11999TIP3   OH235937   4.638   6.489   2.410
11999TIP3    H135938   4.692   6.525   2.480
11999TIP3    H235939   4.699   6.468   2.340
12000TIP3   OH235940   7.656   6.284   2.579
12000TIP3    H135941   7.719   6.219   2.610
12000TIP3    H235942   7.667   6.359   2.637
12001TIP3   OH235943   0.676   4.818   0.393
12001TIP3    H135944   0.662   4.827   0.488
12001TIP3    H235945   0.766   4.787   0.385
12002TIP3   OH235946   5.306   2.941   6.249
12002TIP3    H135947   5.225   2.964   6.295
12002TIP3    H235948   5.340   3.025   6.217
12003TIP3   OH235949   2.331   7.219   1.934
12003TIP3    H135950   2.323   7.313   1.951
12003TIP3    H235951   2.273   7.203   1.859
12004TIP3   OH235952   8.380   3.904   1.206
12004TIP3    H135953   8.381   3.809   1.212
12004TIP3    H235954   8.439   3.924   1.133
12005TIP3   OH235955   0.147   0.490   0.007
12005TIP3    H135956   0.079   0.499   0.073
12005TIP3    H235957   0.226   0.524   0.049
12006TIP3   OH235958   1.339   5.869   3.508
12006TIP3    H135959   1.249   5.878   3.476
12006TIP3    H235960   1.392   5.858   3.429
12007TIP3   OH235961   5.111   6.637   0.051
12007TIP3    H135962   5.141   6.595   0.132
12007TIP3    H235963   5.185   6.630  -0.008
12008TIP3   OH235964   7.265   0.126   0.127
12008TIP3    H135965   7.342   0.134   0.183
12008TIP3    H235966   7.220   0.210   0.136
12009TIP3   OH235967   4.483   1.374   0.259
12009TIP3    H135968   4.506   1.354   0.350
12009TIP3    H235969   4.399   1.331   0.244
12010TIP3   OH235970   0.537   1.070   3.511
12010TIP3    H135971   0.465   1.084   3.573
12010TIP3    H235972   0.589   0.999   3.550
12011TIP3   OH235973   7.783   5.871   5.229
12011TIP3    H135974   7.737   5.949   5.195
12011TIP3    H235975   7.737   5.798   5.188
12012TIP3   OH235976   5.326   4.314   0.631
12012TIP3    H135977   5.405   4.365   0.611
12012TIP3    H235978   5.345   4.226   0.599
12013TIP3   OH235979   4.201   7.654   1.260
12013TIP3    H135980   4.152   7.606   1.194
12013TIP3    H235981   4.140   7.665   1.333
12014TIP3   OH235982   3.862   6.647   6.219
12014TIP3    H135983   3.868   6.737   6.187
12014TIP3    H235984   3.945   6.607   6.192
12015TIP3   OH235985   2.386   3.401   1.055
12015TIP3    H135986   2.449   3.329   1.047
12015TIP3    H235987   2.440   3.480   1.049
12016TIP3   OH235988   6.350   0.970   3.802
12016TIP3    H135989   6.262   0.981   3.839
12016TIP3    H235990   6.375   1.057   3.771
12017TIP3   OH235991   0.266   3.223   5.449
12017TIP3    H135992   0.220   3.156   5.398
12017TIP3    H235993   0.312   3.276   5.384
12018TIP3   OH235994   4.764   5.882   0.408
12018TIP3    H135995   4.848   5.885   0.454
12018TIP3    H235996   4.788   5.882   0.315
12019TIP3   OH235997   4.612   7.762   4.586
12019TIP3    H135998   4.688   7.711   4.612
12019TIP3    H235999   4.584   7.722   4.504
12020TIP3   OH236000   5.949   1.997   2.182
12020TIP3    H136001   5.974   1.949   2.103
12020TIP3    H236002   5.887   1.939   2.226
12021TIP3   OH236003   3.217   5.655   2.129
12021TIP3    H136004   3.312   5.660   2.129
12021TIP3    H236005   3.189   5.733   2.178
12022TIP3   OH236006   1.752   2.370   4.675
12022TIP3    H136007   1.798   2.317   4.610
12022TIP3    H236008   1.807   2.447   4.686
12023TIP3   OH236009   1.708   3.705   6.435
12023TIP3    H136010   1.636   3.663   6.481
12023TIP3    H236011   1.761   3.633   6.401
12024TIP3   OH236012   3.681   0.402   4.470
12024TIP3    H136013   3.670   0.421   4.563
12024TIP3    H236014   3.767   0.361   4.464
12025TIP3   OH236015   6.569   4.341   2.367
12025TIP3    H136016   6.552   4.252   2.399
12025TIP3    H236017   6.662   4.355   2.385
12026TIP3   OH236018   7.125   3.305   3.090
12026TIP3    H136019   7.120   3.305   2.994
12026TIP3    H236020   7.046   3.350   3.118
12027TIP3   OH236021   3.227   7.872   1.649
12027TIP3    H136022   3.261   7.941   1.706
12027TIP3    H236023   3.260   7.894   1.562
12028TIP3   OH236024   0.974   4.526   5.089
12028TIP3    H136025   0.878   4.522   5.095
12028TIP3    H236026   0.992   4.607   5.042
12029TIP3   OH236027   2.479   7.816   3.129
12029TIP3    H136028   2.501   7.783   3.216
12029TIP3    H236029   2.519   7.752   3.069
12030TIP3   OH236030   7.998   5.702   2.712
12030TIP3    H136031   7.993   5.657   2.627
12030TIP3    H236032   8.048   5.782   2.693
12031TIP3   OH236033   5.052   7.747   4.266
12031TIP3    H136034   4.991   7.693   4.316
12031TIP3    H236035   5.032   7.728   4.174
12032TIP3   OH236036   4.377   1.426   5.632
12032TIP3    H136037   4.319   1.421   5.555
12032TIP3    H236038   4.413   1.515   5.629
12033TIP3   OH236039   3.251   2.563   6.166
12033TIP3    H136040   3.196   2.639   6.149
12033TIP3    H236041   3.320   2.595   6.224
12034TIP3   OH236042   5.654   5.326   1.918
12034TIP3    H136043   5.625   5.376   1.842
12034TIP3    H236044   5.749   5.320   1.909
12035TIP3   OH236045   5.013   4.308   1.465
12035TIP3    H136046   4.974   4.227   1.497
12035TIP3    H236047   5.106   4.286   1.453
12036TIP3   OH236048   1.804   4.400   4.616
12036TIP3    H136049   1.878   4.445   4.656
12036TIP3    H236050   1.779   4.332   4.678
12037TIP3   OH236051   0.577   4.407   1.265
12037TIP3    H136052   0.525   4.391   1.186
12037TIP3    H236053   0.640   4.474   1.239
12038TIP3   OH236054   7.004   4.783   3.701
12038TIP3    H136055   7.063   4.708   3.691
12038TIP3    H236056   6.987   4.812   3.611
12039TIP3   OH236057   1.487   1.515   5.473
12039TIP3    H136058   1.444   1.430   5.473
12039TIP3    H236059   1.575   1.498   5.507
12040TIP3   OH236060   2.151   1.071   3.215
12040TIP3    H136061   2.212   1.025   3.273
12040TIP3    H236062   2.184   1.161   3.211
12041TIP3   OH236063   3.255   5.640   6.797
12041TIP3    H136064   3.187   5.596   6.747
12041TIP3    H236065   3.211   5.670   6.877
12042TIP3   OH236066   0.112   1.334   1.942
12042TIP3    H136067   0.080   1.312   1.855
12042TIP3    H236068   0.188   1.276   1.955
12043TIP3   OH236069   4.290   2.858   0.128
12043TIP3    H136070   4.269   2.821   0.214
12043TIP3    H236071   4.264   2.791   0.066
12044TIP3   OH236072   7.321   0.870   1.221
12044TIP3    H136073   7.276   0.880   1.306
12044TIP3    H236074   7.317   0.957   1.182
12045TIP3   OH236075   5.410   2.913   0.191
12045TIP3    H136076   5.350   2.984   0.212
12045TIP3    H236077   5.478   2.954   0.137
12046TIP3   OH236078   7.440   0.617   6.617
12046TIP3    H136079   7.536   0.619   6.617
12046TIP3    H236080   7.417   0.543   6.673
12047TIP3   OH236081   8.091   6.016   1.857
12047TIP3    H136082   8.035   6.044   1.785
12047TIP3    H236083   8.115   5.926   1.835
12048TIP3   OH236084   1.828   7.041   1.061
12048TIP3    H136085   1.859   7.074   0.977
12048TIP3    H236086   1.753   7.097   1.083
12049TIP3   OH236087   5.107   4.869   2.376
12049TIP3    H136088   5.107   4.777   2.347
12049TIP3    H236089   5.048   4.913   2.314
12050TIP3   OH236090   5.726   7.358   4.656
12050TIP3    H136091   5.671   7.297   4.704
12050TIP3    H236092   5.698   7.349   4.565
12051TIP3   OH236093   1.926   6.131   0.193
12051TIP3    H136094   1.880   6.110   0.273
12051TIP3    H236095   1.859   6.129   0.125
12052TIP3   OH236096   3.125   2.903   5.313
12052TIP3    H136097   3.142   2.997   5.310
12052TIP3    H236098   3.146   2.872   5.225
12053TIP3   OH236099   3.680   1.485   2.361
12053TIP3    H136100   3.735   1.498   2.438
12053TIP3    H236101   3.706   1.399   2.327
12054TIP3   OH236102   3.823   1.876   3.943
12054TIP3    H136103   3.830   1.845   3.853
12054TIP3    H236104   3.791   1.800   3.992
12055TIP3   OH236105   0.142   4.213   1.504
12055TIP3    H136106   0.228   4.252   1.488
12055TIP3    H236107   0.156   4.156   1.580
12056TIP3   OH236108   2.121   7.200   1.014
12056TIP3    H136109   2.169   7.119   0.995
12056TIP3    H236110   2.057   7.208   0.943
12057TIP3   OH236111   6.049   1.910   3.041
12057TIP3    H136112   5.969   1.960   3.027
12057TIP3    H236113   6.118   1.962   2.999
12058TIP3   OH236114   6.675   4.071   6.833
12058TIP3    H136115   6.580   4.082   6.829
12058TIP3    H236116   6.704   4.142   6.891
12059TIP3   OH236117   5.096   5.020   1.509
12059TIP3    H136118   5.136   5.074   1.578
12059TIP3    H236119   5.004   5.044   1.509
12060TIP3   OH236120   2.783   5.555   0.300
12060TIP3    H136121   2.774   5.648   0.280
12060TIP3    H236122   2.772   5.550   0.395
12061TIP3   OH236123   1.507   2.576   6.615
12061TIP3    H136124   1.424   2.612   6.646
12061TIP3    H236125   1.574   2.620   6.667
12062TIP3   OH236126   2.126   4.666   4.664
12062TIP3    H136127   2.079   4.613   4.728
12062TIP3    H236128   2.115   4.619   4.581
12063TIP3   OH236129   8.202   0.152   4.013
12063TIP3    H136130   8.126   0.202   4.042
12063TIP3    H236131   8.166   0.078   3.964
12064TIP3   OH236132   4.105   2.841   6.134
12064TIP3    H136133   4.129   2.824   6.225
12064TIP3    H236134   4.113   2.757   6.090
12065TIP3   OH236135   4.659   2.931   4.814
12065TIP3    H136136   4.748   2.897   4.803
12065TIP3    H236137   4.659   3.013   4.764
12066TIP3   OH236138   2.707   4.631   4.208
12066TIP3    H136139   2.777   4.570   4.230
12066TIP3    H236140   2.744   4.718   4.224
12067TIP3   OH236141   6.422   1.399   5.722
12067TIP3    H136142   6.349   1.452   5.756
12067TIP3    H236143   6.460   1.453   5.653
12068TIP3   OH236144   7.819   5.730   4.003
12068TIP3    H136145   7.792   5.821   3.995
12068TIP3    H236146   7.738   5.682   4.021
12069TIP3   OH236147   0.524   7.554   2.313
12069TIP3    H136148   0.535   7.492   2.241
12069TIP3    H236149   0.611   7.591   2.326
12070TIP3   OH236150   7.928   2.212   3.739
12070TIP3    H136151   7.916   2.132   3.790
12070TIP3    H236152   7.919   2.184   3.648
12071TIP3   OH236153   8.270   7.436   2.441
12071TIP3    H136154   8.191   7.470   2.484
12071TIP3    H236155   8.255   7.341   2.438
12072TIP3   OH236156   6.701   5.660   5.108
12072TIP3    H136157   6.702   5.656   5.013
12072TIP3    H236158   6.771   5.600   5.136
12073TIP3   OH236159   0.996   2.273   0.572
12073TIP3    H136160   0.960   2.346   0.522
12073TIP3    H236161   0.928   2.252   0.636
12074TIP3   OH236162   3.003   7.274   2.034
12074TIP3    H136163   2.999   7.242   1.945
12074TIP3    H236164   3.026   7.198   2.087
12075TIP3   OH236165   5.999   5.287   4.844
12075TIP3    H136166   5.978   5.371   4.884
12075TIP3    H236167   5.947   5.224   4.894
12076TIP3   OH236168   7.098   4.226   4.446
12076TIP3    H136169   7.133   4.159   4.503
12076TIP3    H236170   7.175   4.264   4.403
12077TIP3   OH236171   3.460   7.170   1.401
12077TIP3    H136172   3.395   7.208   1.460
12077TIP3    H236173   3.449   7.219   1.319
12078TIP3   OH236174   2.060   2.181   2.236
12078TIP3    H136175   1.996   2.185   2.164
12078TIP3    H236176   2.099   2.268   2.238
12079TIP3   OH236177   5.258   0.217   3.246
12079TIP3    H136178   5.283   0.295   3.197
12079TIP3    H236179   5.212   0.162   3.183
12080TIP3   OH236180   3.379   4.491   0.914
12080TIP3    H136181   3.360   4.575   0.871
12080TIP3    H236182   3.472   4.497   0.937
12081TIP3   OH236183   0.313   3.429   0.468
12081TIP3    H136184   0.357   3.513   0.458
12081TIP3    H236185   0.325   3.406   0.560
12082TIP3   OH236186   5.779   3.402   0.107
12082TIP3    H136187   5.798   3.344   0.180
12082TIP3    H236188   5.838   3.477   0.120
12083TIP3   OH236189   5.856   6.052   1.594
12083TIP3    H136190   5.792   6.123   1.591
12083TIP3    H236191   5.925   6.084   1.651
12084TIP3   OH236192   5.962   6.633   1.062
12084TIP3    H136193   5.890   6.662   1.118
12084TIP3    H236194   5.919   6.599   0.984
12085TIP3   OH236195   6.685   2.346   6.178
12085TIP3    H136196   6.633   2.307   6.248
12085TIP3    H236197   6.776   2.329   6.203
12086TIP3   OH236198   8.194   2.484   5.438
12086TIP3    H136199   8.101   2.503   5.448
12086TIP3    H236200   8.228   2.556   5.385
12087TIP3   OH236201   4.696   5.851   1.730
12087TIP3    H136202   4.631   5.790   1.695
12087TIP3    H236203   4.725   5.811   1.812
12088TIP3   OH236204   1.482   4.474   6.390
12088TIP3    H136205   1.538   4.547   6.363
12088TIP3    H236206   1.393   4.503   6.371
12089TIP3   OH236207   3.038   2.503   4.707
12089TIP3    H136208   3.079   2.491   4.622
12089TIP3    H236209   2.984   2.425   4.719
12090TIP3   OH236210   0.432   7.368   5.561
12090TIP3    H136211   0.360   7.413   5.606
12090TIP3    H236212   0.422   7.276   5.586
12091TIP3   OH236213   1.550   5.668   3.631
12091TIP3    H136214   1.626   5.654   3.687
12091TIP3    H236215   1.504   5.741   3.672
12092TIP3   OH236216   4.738   1.620   2.057
12092TIP3    H136217   4.799   1.691   2.081
12092TIP3    H236218   4.697   1.595   2.140
12093TIP3   OH236219   4.155   3.755   5.411
12093TIP3    H136220   4.168   3.845   5.440
12093TIP3    H236221   4.243   3.719   5.403
12094TIP3   OH236222   6.254   2.500   4.545
12094TIP3    H136223   6.242   2.507   4.640
12094TIP3    H236224   6.173   2.461   4.513
12095TIP3   OH236225   7.063   7.435   0.884
12095TIP3    H136226   7.104   7.425   0.970
12095TIP3    H236227   6.999   7.364   0.879
12096TIP3   OH236228   2.200   7.616   5.653
12096TIP3    H136229   2.257   7.543   5.631
12096TIP3    H236230   2.195   7.667   5.572
12097TIP3   OH236231   4.484   1.923   4.200
12097TIP3    H136232   4.431   1.883   4.132
12097TIP3    H236233   4.469   1.868   4.277
12098TIP3   OH236234   6.578   3.538   3.659
12098TIP3    H136235   6.567   3.559   3.752
12098TIP3    H236236   6.589   3.443   3.657
12099TIP3   OH236237   3.813   4.152   6.535
12099TIP3    H136238   3.771   4.169   6.619
12099TIP3    H236239   3.805   4.234   6.487
12100TIP3   OH236240   7.920   7.256   4.904
12100TIP3    H136241   7.865   7.210   4.840
12100TIP3    H236242   7.995   7.197   4.918
12101TIP3   OH236243   2.091   6.643   0.646
12101TIP3    H136244   2.157   6.575   0.633
12101TIP3    H236245   2.106   6.705   0.574
12102TIP3   OH236246   2.041   4.807   2.773
12102TIP3    H136247   2.130   4.780   2.750
12102TIP3    H236248   1.993   4.806   2.690
12103TIP3   OH236249   6.287   2.718   3.274
12103TIP3    H136250   6.216   2.665   3.311
12103TIP3    H236251   6.333   2.752   3.350
12104TIP3   OH236252   6.883   4.013   4.296
12104TIP3    H136253   6.795   3.982   4.319
12104TIP3    H236254   6.942   3.954   4.343
12105TIP3   OH236255   7.612   1.173   6.730
12105TIP3    H136256   7.612   1.107   6.661
12105TIP3    H236257   7.619   1.256   6.683
12106TIP3   OH236258   4.647   0.938   5.907
12106TIP3    H136259   4.576   0.875   5.902
12106TIP3    H236260   4.685   0.940   5.819
12107TIP3   OH236261   7.188   5.318   6.800
12107TIP3    H136262   7.247   5.247   6.777
12107TIP3    H236263   7.139   5.285   6.876
12108TIP3   OH236264   3.096   5.511   6.617
12108TIP3    H136265   3.027   5.445   6.608
12108TIP3    H236266   3.074   5.577   6.551
12109TIP3   OH236267   7.169   1.964   1.969
12109TIP3    H136268   7.168   2.057   1.945
12109TIP3    H236269   7.120   1.960   2.051
12110TIP3   OH236270   3.801   7.772   4.863
12110TIP3    H136271   3.797   7.698   4.924
12110TIP3    H236272   3.885   7.761   4.818
12111TIP3   OH236273   3.749   1.575   3.924
12111TIP3    H136274   3.810   1.539   3.860
12111TIP3    H236275   3.684   1.621   3.872
12112TIP3   OH236276   6.155   4.861   4.625
12112TIP3    H136277   6.136   4.774   4.662
12112TIP3    H236278   6.081   4.877   4.566
12113TIP3   OH236279   8.089   4.203   3.600
12113TIP3    H136280   8.104   4.274   3.538
12113TIP3    H236281   8.106   4.242   3.686
12114TIP3   OH236282   3.658   5.410   3.129
12114TIP3    H136283   3.565   5.408   3.150
12114TIP3    H236284   3.673   5.330   3.079
12115TIP3   OH236285   1.066   1.688   6.675
12115TIP3    H136286   1.057   1.754   6.744
12115TIP3    H236287   1.140   1.717   6.623
12116TIP3   OH236288   8.236   6.742   0.316
12116TIP3    H136289   8.156   6.794   0.313
12116TIP3    H236290   8.276   6.755   0.230
12117TIP3   OH236291   8.062   5.592   3.929
12117TIP3    H136292   7.984   5.646   3.944
12117TIP3    H236293   8.099   5.580   4.017
12118TIP3   OH236294   7.732   5.805   1.715
12118TIP3    H136295   7.638   5.807   1.694
12118TIP3    H236296   7.736   5.825   1.809
12119TIP3   OH236297   0.788   4.723   0.022
12119TIP3    H136298   0.707   4.761   0.056
12119TIP3    H236299   0.777   4.628   0.035
12120TIP3   OH236300   0.842   3.760   6.610
12120TIP3    H136301   0.788   3.837   6.593
12120TIP3    H236302   0.779   3.690   6.628
12121TIP3   OH236303   6.206   2.227   2.297
12121TIP3    H136304   6.233   2.198   2.210
12121TIP3    H236305   6.262   2.178   2.357
12122TIP3   OH236306   3.681   2.280   1.506
12122TIP3    H136307   3.628   2.203   1.486
12122TIP3    H236308   3.768   2.257   1.475
12123TIP3   OH236309   6.365   5.458   2.549
12123TIP3    H136310   6.277   5.446   2.584
12123TIP3    H236311   6.366   5.406   2.469
12124TIP3   OH236312   3.829   6.994   0.067
12124TIP3    H136313   3.840   7.085   0.094
12124TIP3    H236314   3.744   6.968   0.103
12125TIP3   OH236315   5.077   0.246   1.427
12125TIP3    H136316   5.028   0.267   1.347
12125TIP3    H236317   5.033   0.168   1.461
12126TIP3   OH236318   2.646   2.492   6.134
12126TIP3    H136319   2.605   2.408   6.154
12126TIP3    H236320   2.693   2.478   6.052
12127TIP3   OH236321   2.699   0.830   1.061
12127TIP3    H136322   2.605   0.816   1.061
12127TIP3    H236323   2.712   0.904   1.001
12128TIP3   OH236324   7.706   2.583   6.787
12128TIP3    H136325   7.719   2.619   6.875
12128TIP3    H236326   7.743   2.495   6.791
12129TIP3   OH236327   7.551   1.310   4.352
12129TIP3    H136328   7.507   1.347   4.275
12129TIP3    H236329   7.533   1.373   4.422
12130TIP3   OH236330   6.961   1.909   2.988
12130TIP3    H136331   6.960   1.826   3.037
12130TIP3    H236332   6.958   1.976   3.056
12131TIP3   OH236333   6.199   2.041   1.478
12131TIP3    H136334   6.193   2.135   1.498
12131TIP3    H236335   6.124   2.024   1.421
12132TIP3   OH236336   2.787   3.951   2.816
12132TIP3    H136337   2.807   3.878   2.875
12132TIP3    H236338   2.836   4.025   2.852
12133TIP3   OH236339   7.022   7.825   3.584
12133TIP3    H136340   6.951   7.786   3.534
12133TIP3    H236341   6.995   7.916   3.597
12134TIP3   OH236342   1.440   2.392   6.105
12134TIP3    H136343   1.425   2.341   6.025
12134TIP3    H236344   1.356   2.437   6.121
12135TIP3   OH236345   3.008   7.485   1.717
12135TIP3    H136346   2.961   7.506   1.636
12135TIP3    H236347   3.101   7.487   1.691
12136TIP3   OH236348   6.132   5.386   3.144
12136TIP3    H136349   6.194   5.458   3.155
12136TIP3    H236350   6.119   5.381   3.049
12137TIP3   OH236351   7.595   1.292   0.933
12137TIP3    H136352   7.535   1.354   0.891
12137TIP3    H236353   7.565   1.206   0.904
12138TIP3   OH236354   6.950   0.332   1.158
12138TIP3    H136355   6.990   0.250   1.128
12138TIP3    H236356   7.005   0.400   1.121
12139TIP3   OH236357   7.181   4.677   5.345
12139TIP3    H136358   7.150   4.588   5.362
12139TIP3    H236359   7.118   4.713   5.282
12140TIP3   OH236360   0.788   2.353   0.809
12140TIP3    H136361   0.835   2.437   0.811
12140TIP3    H236362   0.706   2.373   0.763
12141TIP3   OH236363   7.225   5.882   5.500
12141TIP3    H136364   7.228   5.850   5.410
12141TIP3    H236365   7.143   5.931   5.505
12142TIP3   OH236366   0.175   4.461   5.986
12142TIP3    H136367   0.190   4.388   6.046
12142TIP3    H236368   0.103   4.432   5.931
12143TIP3   OH236369   2.762   2.999   0.656
12143TIP3    H136370   2.688   3.053   0.684
12143TIP3    H236371   2.763   3.007   0.561
12144TIP3   OH236372   7.412   0.143   3.222
12144TIP3    H136373   7.500   0.112   3.245
12144TIP3    H236374   7.354   0.072   3.251
12145TIP3   OH236375   4.968   0.257   4.291
12145TIP3    H136376   4.898   0.192   4.294
12145TIP3    H236377   4.965   0.293   4.203
12146TIP3   OH236378   4.927   1.499   6.634
12146TIP3    H136379   4.844   1.539   6.658
12146TIP3    H236380   4.906   1.407   6.616
12147TIP3   OH236381   7.283   3.402   1.792
12147TIP3    H136382   7.237   3.318   1.792
12147TIP3    H236383   7.331   3.403   1.875
12148TIP3   OH236384   5.763   4.288   4.428
12148TIP3    H136385   5.758   4.309   4.522
12148TIP3    H236386   5.750   4.194   4.424
12149TIP3   OH236387   5.127   6.577   1.092
12149TIP3    H136388   5.173   6.520   1.030
12149TIP3    H236389   5.197   6.616   1.145
12150TIP3   OH236390   5.587   4.737   3.472
12150TIP3    H136391   5.570   4.772   3.559
12150TIP3    H236392   5.666   4.783   3.443
12151TIP3   OH236393   1.837   1.430   5.821
12151TIP3    H136394   1.897   1.504   5.809
12151TIP3    H236395   1.765   1.467   5.872
12152TIP3   OH236396   7.565   1.543   1.979
12152TIP3    H136397   7.653   1.539   1.942
12152TIP3    H236398   7.513   1.486   1.922
12153TIP3   OH236399   3.054   7.859   5.419
12153TIP3    H136400   3.049   7.767   5.392
12153TIP3    H236401   3.136   7.891   5.381
12154TIP3   OH236402   6.294   0.747   4.422
12154TIP3    H136403   6.357   0.676   4.430
12154TIP3    H236404   6.215   0.715   4.466
12155TIP3   OH236405   5.409   5.304   2.971
12155TIP3    H136406   5.488   5.358   2.968
12155TIP3    H236407   5.358   5.333   2.896
12156TIP3   OH236408   7.025   0.197   3.806
12156TIP3    H136409   7.043   0.210   3.899
12156TIP3    H236410   7.111   0.177   3.768
12157TIP3   OH236411   0.689   0.919   5.974
12157TIP3    H136412   0.771   0.897   5.930
12157TIP3    H236413   0.676   0.849   6.038
12158TIP3   OH236414   6.500   5.589   6.117
12158TIP3    H136415   6.458   5.661   6.070
12158TIP3    H236416   6.592   5.596   6.093
12159TIP3   OH236417   4.187   6.099   4.316
12159TIP3    H136418   4.229   6.013   4.309
12159TIP3    H236419   4.236   6.155   4.257
12160TIP3   OH236420   4.421   3.326   0.521
12160TIP3    H136421   4.342   3.361   0.564
12160TIP3    H236422   4.474   3.291   0.592
12161TIP3   OH236423   3.112   1.069   4.875
12161TIP3    H136424   3.149   0.984   4.850
12161TIP3    H236425   3.076   1.055   4.962
12162TIP3   OH236426   6.715   1.189   6.480
12162TIP3    H136427   6.681   1.150   6.399
12162TIP3    H236428   6.713   1.118   6.544
12163TIP3   OH236429   2.352   0.485   1.718
12163TIP3    H136430   2.262   0.471   1.689
12163TIP3    H236431   2.358   0.439   1.802
12164TIP3   OH236432   3.281   1.339   4.773
12164TIP3    H136433   3.263   1.405   4.705
12164TIP3    H236434   3.219   1.268   4.755
12165TIP3   OH236435   3.991   5.810   1.565
12165TIP3    H136436   3.985   5.715   1.551
12165TIP3    H236437   4.046   5.842   1.493
12166TIP3   OH236438   2.689   0.417   2.034
12166TIP3    H136439   2.713   0.360   2.107
12166TIP3    H236440   2.605   0.456   2.059
12167TIP3   OH236441   3.227   1.311   2.380
12167TIP3    H136442   3.201   1.391   2.426
12167TIP3    H236443   3.317   1.329   2.351
12168TIP3   OH236444   6.050   6.181   1.723
12168TIP3    H136445   6.089   6.134   1.797
12168TIP3    H236446   6.105   6.259   1.714
12169TIP3   OH236447   4.500   3.842   3.177
12169TIP3    H136448   4.477   3.818   3.267
12169TIP3    H236449   4.458   3.775   3.123
12170TIP3   OH236450   0.758   6.050   6.571
12170TIP3    H136451   0.824   6.037   6.638
12170TIP3    H236452   0.752   5.966   6.526
12171TIP3   OH236453   2.452   2.978   3.508
12171TIP3    H136454   2.380   2.920   3.485
12171TIP3    H236455   2.465   2.964   3.602
12172TIP3   OH236456   0.161   0.028   1.583
12172TIP3    H136457   0.068   0.027   1.608
12172TIP3    H236458   0.179   0.118   1.559
12173TIP3   OH236459   8.077   0.638   1.411
12173TIP3    H136460   7.985   0.666   1.410
12173TIP3    H236461   8.107   0.651   1.321
12174TIP3   OH236462   4.357   6.123   2.360
12174TIP3    H136463   4.437   6.123   2.412
12174TIP3    H236464   4.295   6.072   2.413
12175TIP3   OH236465   3.259   7.479   1.576
12175TIP3    H136466   3.289   7.505   1.489
12175TIP3    H236467   3.270   7.384   1.578
12176TIP3   OH236468   7.480   7.125   1.596
12176TIP3    H136469   7.490   7.090   1.685
12176TIP3    H236470   7.484   7.047   1.540
12177TIP3   OH236471   3.963   5.357   3.157
12177TIP3    H136472   3.949   5.449   3.135
12177TIP3    H236473   3.888   5.333   3.212
12178TIP3   OH236474   6.903   3.737   1.631
12178TIP3    H136475   6.898   3.805   1.563
12178TIP3    H236476   6.997   3.724   1.645
12179TIP3   OH236477   0.033   7.826   4.680
12179TIP3    H136478   0.012   7.881   4.604
12179TIP3    H236479   0.033   7.887   4.753
12180TIP3   OH236480   0.875   5.143   0.656
12180TIP3    H136481   0.866   5.124   0.562
12180TIP3    H236482   0.788   5.124   0.692
12181TIP3   OH236483   5.663   1.634   4.004
12181TIP3    H136484   5.733   1.588   4.050
12181TIP3    H236485   5.690   1.726   4.006
12182TIP3   OH236486   0.845   1.847   4.995
12182TIP3    H136487   0.857   1.926   4.943
12182TIP3    H236488   0.914   1.788   4.966
12183TIP3   OH236489   6.202   7.811   6.706
12183TIP3    H136490   6.203   7.904   6.728
12183TIP3    H236491   6.263   7.803   6.633
12184TIP3   OH236492   2.180   6.664   4.798
12184TIP3    H136493   2.128   6.738   4.829
12184TIP3    H236494   2.258   6.664   4.854
12185TIP3   OH236495   7.179   0.814   4.478
12185TIP3    H136496   7.192   0.741   4.538
12185TIP3    H236497   7.253   0.872   4.495
12186TIP3   OH236498   6.460   2.638   4.963
12186TIP3    H136499   6.519   2.676   4.898
12186TIP3    H236500   6.518   2.596   5.026
12187TIP3   OH236501   3.174   5.231   6.072
12187TIP3    H136502   3.147   5.145   6.103
12187TIP3    H236503   3.270   5.227   6.071
12188TIP3   OH236504   8.142   5.875   4.813
12188TIP3    H136505   8.072   5.867   4.877
12188TIP3    H236506   8.117   5.949   4.758
12189TIP3   OH236507   5.089   2.638   1.328
12189TIP3    H136508   5.067   2.592   1.409
12189TIP3    H236509   5.050   2.585   1.259
12190TIP3   OH236510   4.954   6.900   2.515
12190TIP3    H136511   5.034   6.898   2.463
12190TIP3    H236512   4.983   6.880   2.604
12191TIP3   OH236513   3.281   2.906   6.058
12191TIP3    H136514   3.294   2.988   6.010
12191TIP3    H236515   3.250   2.844   5.993
12192TIP3   OH236516   0.697   2.152   1.339
12192TIP3    H136517   0.750   2.188   1.268
12192TIP3    H236518   0.747   2.075   1.369
12193TIP3   OH236519   2.413   7.894   0.823
12193TIP3    H136520   2.342   7.922   0.766
12193TIP3    H236521   2.371   7.877   0.908
12194TIP3   OH236522   1.595   6.313   4.404
12194TIP3    H136523   1.571   6.398   4.441
12194TIP3    H236524   1.681   6.293   4.442
12195TIP3   OH236525   2.953   2.606   2.051
12195TIP3    H136526   2.900   2.661   2.109
12195TIP3    H236527   2.927   2.632   1.963
12196TIP3   OH236528   4.318   0.217   1.004
12196TIP3    H136529   4.259   0.189   1.073
12196TIP3    H236530   4.345   0.306   1.030
12197TIP3   OH236531   0.677   5.621   2.734
12197TIP3    H136532   0.601   5.670   2.764
12197TIP3    H236533   0.718   5.677   2.668
12198TIP3   OH236534   5.742   6.814   4.620
12198TIP3    H136535   5.752   6.779   4.532
12198TIP3    H236536   5.789   6.898   4.618
12199TIP3   OH236537   3.835   4.132   2.773
12199TIP3    H136538   3.902   4.148   2.839
12199TIP3    H236539   3.757   4.109   2.823
12200TIP3   OH236540   1.270   4.172   2.139
12200TIP3    H136541   1.218   4.131   2.208
12200TIP3    H236542   1.358   4.180   2.176
12201TIP3   OH236543   0.115   1.858   5.596
12201TIP3    H136544   0.111   1.808   5.514
12201TIP3    H236545   0.208   1.858   5.619
12202TIP3   OH236546   1.419   1.276   6.251
12202TIP3    H136547   1.502   1.250   6.211
12202TIP3    H236548   1.442   1.300   6.341
12203TIP3   OH236549   6.916   6.952   4.725
12203TIP3    H136550   6.935   6.928   4.816
12203TIP3    H236551   6.997   6.934   4.678
12204TIP3   OH236552   1.400   1.840   4.354
12204TIP3    H136553   1.405   1.920   4.406
12204TIP3    H236554   1.337   1.860   4.285
12205TIP3   OH236555   6.859   3.789   5.314
12205TIP3    H136556   6.943   3.826   5.288
12205TIP3    H236557   6.874   3.695   5.316
12206TIP3   OH236558   3.329   0.041   1.543
12206TIP3    H136559   3.270   0.018   1.614
12206TIP3    H236560   3.278   0.099   1.487
12207TIP3   OH236561   7.213   7.701   0.086
12207TIP3    H136562   7.250   7.619   0.120
12207TIP3    H236563   7.210   7.759   0.162
12208TIP3   OH236564   4.835   0.227   5.789
12208TIP3    H136565   4.787   0.305   5.760
12208TIP3    H236566   4.927   0.249   5.775
12209TIP3   OH236567   2.177   2.833   1.440
12209TIP3    H136568   2.217   2.831   1.353
12209TIP3    H236569   2.087   2.805   1.425
12210TIP3   OH236570   0.840   7.865   1.104
12210TIP3    H136571   0.758   7.861   1.153
12210TIP3    H236572   0.855   7.774   1.077
12211TIP3   OH236573   8.286   7.448   5.378
12211TIP3    H136574   8.192   7.460   5.392
12211TIP3    H236575   8.309   7.514   5.313
12212TIP3   OH236576   0.921   2.304   5.994
12212TIP3    H136577   0.910   2.259   5.910
12212TIP3    H236578   0.897   2.394   5.976
12213TIP3   OH236579   5.268   5.491   0.788
12213TIP3    H136580   5.175   5.478   0.769
12213TIP3    H236581   5.310   5.409   0.764
12214TIP3   OH236582   2.652   2.214   5.789
12214TIP3    H136583   2.692   2.295   5.821
12214TIP3    H236584   2.588   2.191   5.856
12215TIP3   OH236585   1.908   3.166   5.021
12215TIP3    H136586   1.961   3.112   5.080
12215TIP3    H236587   1.953   3.251   5.020
12216TIP3   OH236588   3.770   0.158   4.272
12216TIP3    H136589   3.745   0.140   4.181
12216TIP3    H236590   3.688   0.155   4.321
12217TIP3   OH236591   6.310   0.638   2.396
12217TIP3    H136592   6.252   0.562   2.400
12217TIP3    H236593   6.262   0.704   2.346
12218TIP3   OH236594   6.649   3.358   2.208
12218TIP3    H136595   6.714   3.292   2.229
12218TIP3    H236596   6.655   3.422   2.279
12219TIP3   OH236597   0.012   2.833   0.634
12219TIP3    H136598   0.092   2.876   0.604
12219TIP3    H236599   0.005   2.755   0.579
12220TIP3   OH236600   4.325   3.093   4.525
12220TIP3    H136601   4.381   3.166   4.498
12220TIP3    H236602   4.354   3.020   4.471
12221TIP3   OH236603   2.724   0.981   3.035
12221TIP3    H136604   2.658   0.936   3.088
12221TIP3    H236605   2.742   1.062   3.082
12222TIP3   OH236606   3.678   0.540   1.840
12222TIP3    H136607   3.680   0.445   1.847
12222TIP3    H236608   3.768   0.567   1.855
12223TIP3   OH236609   8.064   3.599   0.286
12223TIP3    H136610   8.125   3.624   0.217
12223TIP3    H236611   7.978   3.624   0.253
12224TIP3   OH236612   7.168   0.977   2.694
12224TIP3    H136613   7.085   0.932   2.678
12224TIP3    H236614   7.160   1.010   2.784
12225TIP3   OH236615   1.872   4.060   6.201
12225TIP3    H136616   1.937   4.023   6.260
12225TIP3    H236617   1.816   3.986   6.178
12226TIP3   OH236618   2.148   6.230   2.054
12226TIP3    H136619   2.172   6.165   1.988
12226TIP3    H236620   2.232   6.261   2.089
12227TIP3   OH236621   2.989   7.197   5.787
12227TIP3    H136622   2.932   7.123   5.806
12227TIP3    H236623   3.052   7.164   5.723
12228TIP3   OH236624   2.949   5.172   5.265
12228TIP3    H136625   3.000   5.227   5.324
12228TIP3    H236626   2.877   5.138   5.319
12229TIP3   OH236627   6.249   5.505   4.538
12229TIP3    H136628   6.174   5.451   4.562
12229TIP3    H236629   6.213   5.592   4.521
12230TIP3   OH236630   0.774   4.334   5.277
12230TIP3    H136631   0.865   4.305   5.267
12230TIP3    H236632   0.722   4.256   5.258
12231TIP3   OH236633   5.877   5.292   2.150
12231TIP3    H136634   5.807   5.227   2.158
12231TIP3    H236635   5.889   5.326   2.239
12232TIP3   OH236636   3.175   5.311   1.796
12232TIP3    H136637   3.199   5.395   1.756
12232TIP3    H236638   3.118   5.269   1.732
12233TIP3   OH236639   7.007   0.201   3.190
12233TIP3    H136640   6.940   0.238   3.248
12233TIP3    H236641   6.993   0.107   3.194
12234TIP3   OH236642   6.998   2.404   1.438
12234TIP3    H136643   7.090   2.385   1.421
12234TIP3    H236644   6.964   2.322   1.475
12235TIP3   OH236645   2.505   6.346   3.049
12235TIP3    H136646   2.567   6.336   3.121
12235TIP3    H236647   2.553   6.321   2.971
12236TIP3   OH236648   8.298   0.536   3.262
12236TIP3    H136649   8.286   0.469   3.195
12236TIP3    H236650   8.288   0.619   3.215
12237TIP3   OH236651   7.185   1.555   0.361
12237TIP3    H136652   7.145   1.638   0.388
12237TIP3    H236653   7.277   1.578   0.345
12238TIP3   OH236654   0.013   0.990   6.529
12238TIP3    H136655   0.016   0.985   6.434
12238TIP3    H236656   0.070   1.065   6.550
12239TIP3   OH236657   5.702   1.943   6.456
12239TIP3    H136658   5.620   1.981   6.423
12239TIP3    H236659   5.676   1.859   6.494
12240TIP3   OH236660   7.826   7.437   6.509
12240TIP3    H136661   7.875   7.464   6.587
12240TIP3    H236662   7.884   7.458   6.436
12241TIP3   OH236663   1.345   1.616   6.137
12241TIP3    H136664   1.328   1.522   6.134
12241TIP3    H236665   1.402   1.628   6.213
12242TIP3   OH236666   1.374   5.650   1.945
12242TIP3    H136667   1.462   5.685   1.938
12242TIP3    H236668   1.318   5.714   1.902
12243TIP3   OH236669   6.661   0.361   3.116
12243TIP3    H136670   6.669   0.266   3.114
12243TIP3    H236671   6.600   0.378   3.188
12244TIP3   OH236672   0.421   4.598   5.927
12244TIP3    H136673   0.338   4.555   5.903
12244TIP3    H236674   0.488   4.552   5.877
12245TIP3   OH236675   1.050   4.735   5.592
12245TIP3    H136676   1.136   4.715   5.631
12245TIP3    H236677   1.062   4.721   5.498
12246TIP3   OH236678   6.170   6.909   2.173
12246TIP3    H136679   6.188   6.995   2.137
12246TIP3    H236680   6.165   6.851   2.097
12247TIP3   OH236681   3.878   1.997   5.088
12247TIP3    H136682   3.801   2.054   5.096
12247TIP3    H236683   3.945   2.041   5.139
12248TIP3   OH236684   1.342   2.670   5.882
12248TIP3    H136685   1.294   2.750   5.901
12248TIP3    H236686   1.278   2.612   5.841
12249TIP3   OH236687   0.948   1.018   2.756
12249TIP3    H136688   0.925   0.940   2.807
12249TIP3    H236689   0.869   1.036   2.705
12250TIP3   OH236690   3.904   4.606   1.651
12250TIP3    H136691   3.894   4.701   1.647
12250TIP3    H236692   3.972   4.587   1.586
12251TIP3   OH236693   1.828   4.483   5.307
12251TIP3    H136694   1.808   4.444   5.393
12251TIP3    H236695   1.838   4.577   5.325
12252TIP3   OH236696   1.497   0.945   3.750
12252TIP3    H136697   1.462   0.930   3.838
12252TIP3    H236698   1.454   0.880   3.695
12253TIP3   OH236699   2.625   2.224   3.157
12253TIP3    H136700   2.626   2.211   3.063
12253TIP3    H236701   2.630   2.136   3.194
12254TIP3   OH236702   3.342   5.733   5.078
12254TIP3    H136703   3.258   5.768   5.048
12254TIP3    H236704   3.322   5.690   5.161
12255TIP3   OH236705   5.142   4.882   2.765
12255TIP3    H136706   5.181   4.926   2.689
12255TIP3    H236707   5.198   4.806   2.780
12256TIP3   OH236708   0.317   1.132   1.914
12256TIP3    H136709   0.288   1.074   1.984
12256TIP3    H236710   0.341   1.073   1.842
12257TIP3   OH236711   7.379   3.446   5.277
12257TIP3    H136712   7.356   3.388   5.349
12257TIP3    H236713   7.470   3.469   5.292
12258TIP3   OH236714   5.121   5.193   0.958
12258TIP3    H136715   5.186   5.187   0.887
12258TIP3    H236716   5.140   5.276   1.001
12259TIP3   OH236717   0.858   5.875   3.241
12259TIP3    H136718   0.770   5.845   3.266
12259TIP3    H236719   0.876   5.830   3.159
12260TIP3   OH236720   4.055   5.145   0.687
12260TIP3    H136721   3.982   5.195   0.651
12260TIP3    H236722   4.014   5.082   0.747
12261TIP3   OH236723   7.946   0.129   4.083
12261TIP3    H136724   7.887   0.202   4.095
12261TIP3    H236725   7.893   0.061   4.041
12262TIP3   OH236726   7.495   0.875   0.482
12262TIP3    H136727   7.429   0.810   0.505
12262TIP3    H236728   7.466   0.909   0.397
12263TIP3   OH236729   7.551   6.135   2.981
12263TIP3    H136730   7.492   6.203   2.947
12263TIP3    H236731   7.626   6.184   3.016
12264TIP3   OH236732   4.963   0.551   3.758
12264TIP3    H136733   4.981   0.466   3.799
12264TIP3    H236734   4.980   0.615   3.827
12265TIP3   OH236735   0.385   5.648   1.891
12265TIP3    H136736   0.369   5.671   1.982
12265TIP3    H236737   0.478   5.666   1.878
12266TIP3   OH236738   7.243   3.763   6.148
12266TIP3    H136739   7.291   3.789   6.226
12266TIP3    H236740   7.311   3.728   6.089
12267TIP3   OH236741   2.905   4.228   1.955
12267TIP3    H136742   2.878   4.235   1.863
12267TIP3    H236743   2.904   4.319   1.987
12268TIP3   OH236744   3.890   0.802   0.142
12268TIP3    H136745   3.799   0.820   0.165
12268TIP3    H236746   3.886   0.764   0.054
12269TIP3   OH236747   6.772   7.077   5.452
12269TIP3    H136748   6.844   7.139   5.441
12269TIP3    H236749   6.702   7.111   5.396
12270TIP3   OH236750   6.793   6.175   3.092
12270TIP3    H136751   6.767   6.146   3.179
12270TIP3    H236752   6.720   6.228   3.061
12271TIP3   OH236753   1.921   3.790   4.714
12271TIP3    H136754   1.902   3.698   4.697
12271TIP3    H236755   1.972   3.790   4.795
12272TIP3   OH236756   6.998   1.043   2.928
12272TIP3    H136757   7.030   0.956   2.952
12272TIP3    H236758   6.987   1.089   3.012
12273TIP3   OH236759   1.071   1.027   3.915
12273TIP3    H136760   1.070   1.015   4.009
12273TIP3    H236761   1.144   1.086   3.899
12274TIP3   OH236762   4.098   3.264   0.706
12274TIP3    H136763   4.074   3.280   0.797
12274TIP3    H236764   4.174   3.320   0.690
12275TIP3   OH236765   0.255   4.580   5.343
12275TIP3    H136766   0.252   4.676   5.348
12275TIP3    H236767   0.173   4.556   5.300
12276TIP3   OH236768   3.055   7.294   2.962
12276TIP3    H136769   3.023   7.381   2.985
12276TIP3    H236770   2.986   7.257   2.908
12277TIP3   OH236771   1.715   0.955   1.408
12277TIP3    H136772   1.749   0.963   1.497
12277TIP3    H236773   1.787   0.983   1.352
12278TIP3   OH236774   3.609   7.582   4.274
12278TIP3    H136775   3.634   7.665   4.315
12278TIP3    H236776   3.516   7.592   4.255
12279TIP3   OH236777   4.803   2.392   0.049
12279TIP3    H136778   4.783   2.328   0.118
12279TIP3    H236779   4.824   2.339  -0.027
12280TIP3   OH236780   7.869   5.191   1.449
12280TIP3    H136781   7.891   5.165   1.538
12280TIP3    H236782   7.936   5.150   1.395
12281TIP3   OH236783   4.649   2.017   6.356
12281TIP3    H136784   4.628   2.029   6.449
12281TIP3    H236785   4.608   2.092   6.313
12282TIP3   OH236786   0.074   3.633   0.056
12282TIP3    H136787   0.049   3.541   0.070
12282TIP3    H236788   0.114   3.634  -0.031
12283TIP3   OH236789   3.117   3.813   2.044
12283TIP3    H136790   3.146   3.726   2.018
12283TIP3    H236791   3.041   3.797   2.100
12284TIP3   OH236792   3.715   5.164   6.507
12284TIP3    H136793   3.752   5.253   6.505
12284TIP3    H236794   3.624   5.176   6.533
12285TIP3   OH236795   0.755   4.243   5.823
12285TIP3    H136796   0.743   4.246   5.728
12285TIP3    H236797   0.793   4.156   5.839
12286TIP3   OH236798   4.769   5.513   6.250
12286TIP3    H136799   4.710   5.446   6.285
12286TIP3    H236800   4.712   5.588   6.233
12287TIP3   OH236801   6.119   5.604   0.030
12287TIP3    H136802   6.214   5.598   0.038
12287TIP3    H236803   6.104   5.680  -0.025
12288TIP3   OH236804   1.379   2.445   4.924
12288TIP3    H136805   1.456   2.389   4.935
12288TIP3    H236806   1.407   2.512   4.862
12289TIP3   OH236807   2.707   5.274   4.785
12289TIP3    H136808   2.620   5.234   4.782
12289TIP3    H236809   2.763   5.206   4.821
12290TIP3   OH236810   4.225   0.970   5.784
12290TIP3    H136811   4.290   0.900   5.786
12290TIP3    H236812   4.237   1.015   5.868
12291TIP3   OH236813   1.296   4.633   1.546
12291TIP3    H136814   1.299   4.616   1.640
12291TIP3    H236815   1.334   4.555   1.506
12292TIP3   OH236816   0.601   5.674   6.594
12292TIP3    H136817   0.584   5.711   6.680
12292TIP3    H236818   0.614   5.580   6.609
12293TIP3   OH236819   3.409   5.391   5.381
12293TIP3    H136820   3.496   5.430   5.373
12293TIP3    H236821   3.414   5.337   5.460
12294TIP3   OH236822   7.933   1.751   0.996
12294TIP3    H136823   7.987   1.717   1.067
12294TIP3    H236824   7.957   1.699   0.919
12295TIP3   OH236825   6.820   0.868   5.980
12295TIP3    H136826   6.800   0.948   5.930
12295TIP3    H236827   6.762   0.874   6.056
12296TIP3   OH236828   0.930   1.025   1.528
12296TIP3    H136829   0.874   1.044   1.604
12296TIP3    H236830   0.869   0.994   1.461
12297TIP3   OH236831   6.854   6.659   0.372
12297TIP3    H136832   6.782   6.618   0.421
12297TIP3    H236833   6.922   6.672   0.438
12298TIP3   OH236834   1.779   2.785   2.195
12298TIP3    H136835   1.760   2.848   2.126
12298TIP3    H236836   1.843   2.725   2.155
12299TIP3   OH236837   5.023   5.289   1.290
12299TIP3    H136838   5.089   5.342   1.245
12299TIP3    H236839   5.024   5.322   1.380
12300TIP3   OH236840   0.944   6.262   4.653
12300TIP3    H136841   0.997   6.342   4.647
12300TIP3    H236842   0.872   6.276   4.591
12301TIP3   OH236843   7.498   0.931   6.842
12301TIP3    H136844   7.514   1.023   6.819
12301TIP3    H236845   7.417   0.908   6.797
12302TIP3   OH236846   0.014   5.441   2.661
12302TIP3    H136847   0.027   5.415   2.570
12302TIP3    H236848  -0.030   5.367   2.702
12303TIP3   OH236849   8.186   5.016   0.668
12303TIP3    H136850   8.195   5.112   0.674
12303TIP3    H236851   8.268   4.988   0.627
12304TIP3   OH236852   1.274   6.761   0.639
12304TIP3    H136853   1.340   6.822   0.607
12304TIP3    H236854   1.324   6.688   0.676
12305TIP3   OH236855   2.302   4.890   5.856
12305TIP3    H136856   2.365   4.893   5.929
12305TIP3    H236857   2.313   4.973   5.811
12306TIP3   OH236858   5.297   6.754   1.805
12306TIP3    H136859   5.271   6.684   1.866
12306TIP3    H236860   5.236   6.746   1.732
12307TIP3   OH236861   6.235   7.191   2.645
12307TIP3    H136862   6.284   7.170   2.565
12307TIP3    H236863   6.200   7.108   2.675
12308TIP3   OH236864   2.060   0.159   1.185
12308TIP3    H136865   1.972   0.195   1.170
12308TIP3    H236866   2.096   0.211   1.257
12309TIP3   OH236867   1.216   4.586   3.793
12309TIP3    H136868   1.242   4.538   3.872
12309TIP3    H236869   1.187   4.671   3.825
12310TIP3   OH236870   1.996   5.763   6.045
12310TIP3    H136871   1.987   5.791   6.136
12310TIP3    H236872   2.016   5.843   5.996
12311TIP3   OH236873   3.917   5.200   0.397
12311TIP3    H136874   3.855   5.231   0.463
12311TIP3    H236875   3.991   5.260   0.403
12312TIP3   OH236876   7.187   7.607   5.544
12312TIP3    H136877   7.093   7.588   5.554
12312TIP3    H236878   7.189   7.696   5.509
12313TIP3   OH236879   0.552   2.525   4.551
12313TIP3    H136880   0.604   2.579   4.611
12313TIP3    H236881   0.461   2.541   4.579
12314TIP3   OH236882   4.835   4.008   6.772
12314TIP3    H136883   4.806   4.003   6.863
12314TIP3    H236884   4.790   4.086   6.737
12315TIP3   OH236885   2.578   4.319   3.374
12315TIP3    H136886   2.560   4.230   3.404
12315TIP3    H236887   2.660   4.313   3.326
12316TIP3   OH236888   2.173   7.226   6.647
12316TIP3    H136889   2.186   7.320   6.638
12316TIP3    H236890   2.179   7.210   6.741
12317TIP3   OH236891   7.507   7.838   1.153
12317TIP3    H136892   7.445   7.809   1.220
12317TIP3    H236893   7.553   7.911   1.194
12318TIP3   OH236894   7.841   7.258   2.330
12318TIP3    H136895   7.889   7.185   2.291
12318TIP3    H236896   7.854   7.331   2.270
12319TIP3   OH236897   4.483   1.170   0.457
12319TIP3    H136898   4.415   1.152   0.393
12319TIP3    H236899   4.493   1.088   0.505
12320TIP3   OH236900   4.421   4.612   6.033
12320TIP3    H136901   4.442   4.653   6.116
12320TIP3    H236902   4.326   4.613   6.028
12321TIP3   OH236903   4.247   0.267   2.150
12321TIP3    H136904   4.289   0.189   2.112
12321TIP3    H236905   4.161   0.236   2.178
12322TIP3   OH236906   7.018   5.468   6.488
12322TIP3    H136907   6.987   5.490   6.400
12322TIP3    H236908   6.963   5.520   6.546
12323TIP3   OH236909   1.345   5.741   6.267
12323TIP3    H136910   1.328   5.831   6.239
12323TIP3    H236911   1.307   5.686   6.198
12324TIP3   OH236912   7.996   1.547   3.213
12324TIP3    H136913   8.020   1.465   3.258
12324TIP3    H236914   7.966   1.518   3.127
12325TIP3   OH236915   7.262   2.743   4.074
12325TIP3    H136916   7.290   2.651   4.074
12325TIP3    H236917   7.182   2.743   4.022
12326TIP3   OH236918   6.547   4.858   3.592
12326TIP3    H136919   6.638   4.880   3.572
12326TIP3    H236920   6.540   4.863   3.687
12327TIP3   OH236921   3.301   0.164   3.730
12327TIP3    H136922   3.380   0.185   3.681
12327TIP3    H236923   3.318   0.078   3.768
12328TIP3   OH236924   6.575   5.146   2.254
12328TIP3    H136925   6.622   5.074   2.213
12328TIP3    H236926   6.640   5.190   2.308
12329TIP3   OH236927   6.495   4.524   6.664
12329TIP3    H136928   6.587   4.500   6.654
12329TIP3    H236929   6.456   4.503   6.580
12330TIP3   OH236930   8.188   1.925   4.750
12330TIP3    H136931   8.240   1.920   4.830
12330TIP3    H236932   8.106   1.966   4.778
12331TIP3   OH236933   5.480   5.877   2.573
12331TIP3    H136934   5.532   5.890   2.494
12331TIP3    H236935   5.525   5.929   2.639
12332TIP3   OH236936   0.952   3.387   4.731
12332TIP3    H136937   0.995   3.471   4.742
12332TIP3    H236938   0.902   3.396   4.650
12333TIP3   OH236939   2.782   2.305   4.193
12333TIP3    H136940   2.740   2.267   4.270
12333TIP3    H236941   2.725   2.280   4.120
12334TIP3   OH236942   1.700   5.314   1.936
12334TIP3    H136943   1.722   5.388   1.879
12334TIP3    H236944   1.604   5.317   1.942
12335TIP3   OH236945   2.597   3.601   5.301
12335TIP3    H136946   2.503   3.588   5.314
12335TIP3    H236947   2.608   3.604   5.206
12336TIP3   OH236948   6.395   6.317   4.742
12336TIP3    H136949   6.446   6.263   4.681
12336TIP3    H236950   6.458   6.343   4.810
12337TIP3   OH236951   6.094   4.871   1.128
12337TIP3    H136952   6.131   4.939   1.073
12337TIP3    H236953   6.111   4.790   1.080
12338TIP3   OH236954   3.265   0.442   2.680
12338TIP3    H136955   3.209   0.495   2.736
12338TIP3    H236956   3.255   0.480   2.592
12339TIP3   OH236957   0.480   5.593   0.994
12339TIP3    H136958   0.405   5.538   1.016
12339TIP3    H236959   0.444   5.664   0.941
12340TIP3   OH236960   3.021   6.470   3.863
12340TIP3    H136961   3.041   6.559   3.837
12340TIP3    H236962   2.945   6.478   3.920
12341TIP3   OH236963   3.129   1.810   1.743
12341TIP3    H136964   3.137   1.723   1.782
12341TIP3    H236965   3.198   1.862   1.785
12342TIP3   OH236966   2.005   6.642   3.931
12342TIP3    H136967   1.932   6.601   3.885
12342TIP3    H236968   2.005   6.733   3.899
12343TIP3   OH236969   6.440   0.092   6.522
12343TIP3    H136970   6.384   0.050   6.457
12343TIP3    H236971   6.457   0.179   6.486
12344TIP3   OH236972   6.980   2.205   1.219
12344TIP3    H136973   7.029   2.209   1.301
12344TIP3    H236974   7.008   2.283   1.171
12345TIP3   OH236975   6.742   2.432   1.288
12345TIP3    H136976   6.834   2.418   1.311
12345TIP3    H236977   6.694   2.419   1.371
12346TIP3   OH236978   3.130   0.494   5.492
12346TIP3    H136979   3.188   0.470   5.420
12346TIP3    H236980   3.083   0.414   5.513
12347TIP3   OH236981   6.081   5.184   2.657
12347TIP3    H136982   6.135   5.152   2.729
12347TIP3    H236983   5.993   5.151   2.676
12348TIP3   OH236984   2.792   1.079   4.854
12348TIP3    H136985   2.753   1.064   4.940
12348TIP3    H236986   2.830   0.994   4.830
12349TIP3   OH236987   3.725   4.971   6.703
12349TIP3    H136988   3.780   5.027   6.758
12349TIP3    H236989   3.715   5.019   6.621
12350TIP3   OH236990   4.732   5.528   1.720
12350TIP3    H136991   4.730   5.489   1.807
12350TIP3    H236992   4.644   5.564   1.708
12351TIP3   OH236993   4.870   0.799   4.574
12351TIP3    H136994   4.858   0.841   4.489
12351TIP3    H236995   4.891   0.708   4.553
12352TIP3   OH236996   4.613   7.813   4.894
12352TIP3    H136997   4.626   7.884   4.832
12352TIP3    H236998   4.549   7.755   4.851
12353TIP3   OH236999   4.620   7.758   0.941
12353TIP3    H137000   4.562   7.713   1.003
12353TIP3    H237001   4.693   7.789   0.996
12354TIP3   OH237002   7.545   7.870   0.465
12354TIP3    H137003   7.603   7.845   0.536
12354TIP3    H237004   7.496   7.791   0.444
12355TIP3   OH237005   4.722   2.265   1.485
12355TIP3    H137006   4.707   2.239   1.394
12355TIP3    H237007   4.777   2.343   1.479
12356TIP3   OH237008   1.635   6.183   1.206
12356TIP3    H137009   1.576   6.163   1.278
12356TIP3    H237010   1.688   6.256   1.238
12357TIP3   OH237011   1.309   2.819   5.090
12357TIP3    H137012   1.405   2.825   5.088
12357TIP3    H237013   1.288   2.763   5.015
12358TIP3   OH237014   7.576   2.092   1.027
12358TIP3    H137015   7.518   2.103   0.952
12358TIP3    H237016   7.608   2.001   1.020
12359TIP3   OH237017   7.184   5.220   3.494
12359TIP3    H137018   7.212   5.138   3.535
12359TIP3    H237019   7.265   5.268   3.479
12360TIP3   OH237020   2.197   4.381   6.215
12360TIP3    H137021   2.251   4.302   6.210
12360TIP3    H237022   2.236   4.432   6.285
12361TIP3   OH237023   0.980   6.007   6.248
12361TIP3    H137024   0.940   6.092   6.267
12361TIP3    H237025   1.071   6.028   6.226
12362TIP3   OH237026   5.236   2.047   5.051
12362TIP3    H137027   5.190   2.075   5.130
12362TIP3    H237028   5.280   2.126   5.020
12363TIP3   OH237029   4.533   0.173   6.185
12363TIP3    H137030   4.491   0.227   6.252
12363TIP3    H237031   4.461   0.126   6.144
12364TIP3   OH237032   6.416   4.053   5.096
12364TIP3    H137033   6.432   4.096   5.011
12364TIP3    H237034   6.447   3.964   5.084
12365TIP3   OH237035   5.884   0.119   4.387
12365TIP3    H137036   5.829   0.106   4.464
12365TIP3    H237037   5.823   0.117   4.313
12366TIP3   OH237038   5.227   3.606   3.573
12366TIP3    H137039   5.186   3.589   3.657
12366TIP3    H237040   5.256   3.520   3.543
12367TIP3   OH237041   2.715   2.915   6.434
12367TIP3    H137042   2.731   3.005   6.462
12367TIP3    H237043   2.695   2.922   6.340
12368TIP3   OH237044   5.915   5.797   6.037
12368TIP3    H137045   5.979   5.732   6.066
12368TIP3    H237046   5.949   5.827   5.952
12369TIP3   OH237047   8.079   5.726   1.789
12369TIP3    H137048   7.989   5.741   1.761
12369TIP3    H237049   8.124   5.695   1.711
12370TIP3   OH237050   2.649   6.481   1.806
12370TIP3    H137051   2.680   6.462   1.894
12370TIP3    H237052   2.582   6.415   1.790
12371TIP3   OH237053   7.008   0.754   6.110
12371TIP3    H137054   7.090   0.773   6.063
12371TIP3    H237055   6.939   0.788   6.052
12372TIP3   OH237056   6.893   0.221   6.001
12372TIP3    H137057   6.931   0.156   6.059
12372TIP3    H237058   6.922   0.305   6.037
12373TIP3   OH237059   6.779   3.159   3.824
12373TIP3    H137060   6.844   3.117   3.769
12373TIP3    H237061   6.830   3.214   3.884
12374TIP3   OH237062   5.161   7.454   2.218
12374TIP3    H137063   5.137   7.511   2.145
12374TIP3    H237064   5.085   7.456   2.276
12375TIP3   OH237065   3.741   3.435   0.157
12375TIP3    H137066   3.710   3.370   0.220
12375TIP3    H237067   3.777   3.384   0.085
12376TIP3   OH237068   7.405   4.992   4.619
12376TIP3    H137069   7.317   4.955   4.621
12376TIP3    H237070   7.400   5.064   4.555
12377TIP3   OH237071   7.495   2.670   0.311
12377TIP3    H137072   7.579   2.655   0.355
12377TIP3    H237073   7.494   2.765   0.295
12378TIP3   OH237074   4.730   2.362   0.996
12378TIP3    H137075   4.786   2.387   0.923
12378TIP3    H237076   4.641   2.372   0.962
12379TIP3   OH237077   1.762   0.374   5.752
12379TIP3    H137078   1.738   0.466   5.760
12379TIP3    H237079   1.751   0.338   5.840
12380TIP3   OH237080   7.328   5.893   6.426
12380TIP3    H137081   7.241   5.867   6.457
12380TIP3    H237082   7.310   5.957   6.357
12381TIP3   OH237083   5.888   7.780   2.038
12381TIP3    H137084   5.812   7.758   1.984
12381TIP3    H237085   5.902   7.874   2.023
12382TIP3   OH237086   0.557   0.435   3.602
12382TIP3    H137087   0.476   0.454   3.648
12382TIP3    H237088   0.542   0.350   3.560
12383TIP3   OH237089   7.846   7.375   3.539
12383TIP3    H137090   7.933   7.413   3.551
12383TIP3    H237091   7.788   7.429   3.592
12384TIP3   OH237092   6.752   1.495   0.335
12384TIP3    H137093   6.770   1.541   0.417
12384TIP3    H237094   6.714   1.561   0.278
12385TIP3   OH237095   4.725   1.175   3.379
12385TIP3    H137096   4.697   1.087   3.353
12385TIP3    H237097   4.726   1.226   3.298
12386TIP3   OH237098   3.470   4.186   3.127
12386TIP3    H137099   3.493   4.241   3.203
12386TIP3    H237100   3.394   4.230   3.089
12387TIP3   OH237101   2.923   2.951   5.527
12387TIP3    H137102   2.866   2.900   5.469
12387TIP3    H237103   3.004   2.961   5.477
12388TIP3   OH237104   7.570   7.638   4.880
12388TIP3    H137105   7.505   7.688   4.930
12388TIP3    H237106   7.519   7.570   4.837
12389TIP3   OH237107   0.038   4.558   1.437
12389TIP3    H137108   0.007   4.494   1.501
12389TIP3    H237109   0.131   4.570   1.460
12390TIP3   OH237110   6.706   3.428   6.426
12390TIP3    H137111   6.778   3.461   6.480
12390TIP3    H237112   6.675   3.350   6.472
12391TIP3   OH237113   3.470   4.642   3.165
12391TIP3    H137114   3.375   4.634   3.153
12391TIP3    H237115   3.490   4.732   3.140
12392TIP3   OH237116   8.295   0.777   3.685
12392TIP3    H137117   8.263   0.844   3.745
12392TIP3    H237118   8.322   0.705   3.743
12393TIP3   OH237119   8.224   1.467   0.416
12393TIP3    H137120   8.131   1.466   0.440
12393TIP3    H237121   8.226   1.431   0.327
12394TIP3   OH237122   1.287   5.056   5.550
12394TIP3    H137123   1.218   5.093   5.495
12394TIP3    H237124   1.241   5.030   5.631
12395TIP3   OH237125   7.452   1.951   1.855
12395TIP3    H137126   7.486   2.040   1.847
12395TIP3    H237127   7.363   1.961   1.888
12396TIP3   OH237128   0.472   7.884   0.040
12396TIP3    H137129   0.481   7.838  -0.044
12396TIP3    H237130   0.384   7.863   0.069
12397TIP3   OH237131   5.724   3.016   4.334
12397TIP3    H137132   5.764   2.977   4.412
12397TIP3    H237133   5.727   2.946   4.268
12398TIP3   OH237134   0.504   6.947   5.905
12398TIP3    H137135   0.410   6.962   5.916
12398TIP3    H237136   0.545   6.999   5.975
12399TIP3   OH237137   1.676   5.216   4.650
12399TIP3    H137138   1.690   5.141   4.707
12399TIP3    H237139   1.637   5.282   4.707
12400TIP3   OH237140   3.106   3.007   2.932
12400TIP3    H137141   3.198   2.989   2.913
12400TIP3    H237142   3.097   3.102   2.921
12401TIP3   OH237143   5.459   6.764   3.836
12401TIP3    H137144   5.532   6.819   3.807
12401TIP3    H237145   5.458   6.774   3.931
12402TIP3   OH237146   6.346   0.838   0.279
12402TIP3    H137147   6.315   0.750   0.257
12402TIP3    H237148   6.341   0.886   0.197
12403TIP3   OH237149   0.582   2.187   4.304
12403TIP3    H137150   0.673   2.183   4.332
12403TIP3    H237151   0.579   2.259   4.241
12404TIP3   OH237152   0.455   1.709   4.164
12404TIP3    H137153   0.376   1.763   4.158
12404TIP3    H237154   0.525   1.771   4.186
12405TIP3   OH237155   4.545   0.234   4.273
12405TIP3    H137156   4.455   0.221   4.302
12405TIP3    H237157   4.548   0.326   4.245
12406TIP3   OH237158   1.272   6.499   0.113
12406TIP3    H137159   1.365   6.479   0.125
12406TIP3    H237160   1.255   6.482   0.020
12407TIP3   OH237161   0.338   6.268   3.835
12407TIP3    H137162   0.278   6.237   3.903
12407TIP3    H237163   0.314   6.359   3.821
12408TIP3   OH237164   2.078   7.303   5.252
12408TIP3    H137165   2.038   7.281   5.335
12408TIP3    H237166   2.088   7.398   5.255
12409TIP3   OH237167   4.080   4.899   5.332
12409TIP3    H137168   4.176   4.892   5.327
12409TIP3    H237169   4.052   4.903   5.241
12410TIP3   OH237170   0.242   7.209   6.716
12410TIP3    H137171   0.277   7.282   6.665
12410TIP3    H237172   0.230   7.245   6.804
12411TIP3   OH237173   8.236   5.097   3.546
12411TIP3    H137174   8.159   5.100   3.490
12411TIP3    H237175   8.295   5.034   3.504
12412TIP3   OH237176   1.518   1.686   6.569
12412TIP3    H137177   1.451   1.752   6.554
12412TIP3    H237178   1.495   1.645   6.652
12413TIP3   OH237179   5.637   4.679   2.892
12413TIP3    H137180   5.698   4.753   2.898
12413TIP3    H237181   5.680   4.617   2.832
12414TIP3   OH237182   2.708   7.767   1.040
12414TIP3    H137183   2.765   7.764   0.963
12414TIP3    H237184   2.665   7.852   1.034
12415TIP3   OH237185   5.230   6.337   3.360
12415TIP3    H137186   5.311   6.355   3.312
12415TIP3    H237187   5.225   6.241   3.363
12416TIP3   OH237188   0.762   6.437   2.656
12416TIP3    H137189   0.786   6.379   2.584
12416TIP3    H237190   0.683   6.398   2.694
12417TIP3   OH237191   6.205   7.363   0.586
12417TIP3    H137192   6.128   7.390   0.537
12417TIP3    H237193   6.192   7.400   0.674
12418TIP3   OH237194   7.006   7.444   5.811
12418TIP3    H137195   6.939   7.449   5.879
12418TIP3    H237196   6.967   7.389   5.743
12419TIP3   OH237197   3.510   5.658   3.482
12419TIP3    H137198   3.525   5.738   3.534
12419TIP3    H237199   3.469   5.690   3.401
12420TIP3   OH237200   2.494   3.009   4.362
12420TIP3    H137201   2.575   3.040   4.322
12420TIP3    H237202   2.465   3.081   4.417
12421TIP3   OH237203   5.466   3.411   6.762
12421TIP3    H137204   5.414   3.337   6.733
12421TIP3    H237205   5.546   3.372   6.797
12422TIP3   OH237206   2.309   5.690   6.039
12422TIP3    H137207   2.306   5.635   5.961
12422TIP3    H237208   2.248   5.762   6.021
12423TIP3   OH237209   6.598   4.601   4.162
12423TIP3    H137210   6.528   4.665   4.150
12423TIP3    H237211   6.615   4.567   4.074
12424TIP3   OH237212   0.387   5.282   2.507
12424TIP3    H137213   0.353   5.242   2.586
12424TIP3    H237214   0.476   5.310   2.530
12425TIP3   OH237215   2.917   2.885   3.055
12425TIP3    H137216   2.963   2.942   2.994
12425TIP3    H237217   2.859   2.833   3.000
12426TIP3   OH237218   6.188   5.144   4.675
12426TIP3    H137219   6.119   5.190   4.724
12426TIP3    H237220   6.150   5.058   4.655
12427TIP3   OH237221   6.425   7.175   3.574
12427TIP3    H137222   6.495   7.113   3.556
12427TIP3    H237223   6.346   7.121   3.584
12428TIP3   OH237224   5.110   7.145   5.164
12428TIP3    H137225   5.027   7.112   5.199
12428TIP3    H237226   5.166   7.067   5.157
12429TIP3   OH237227   1.866   2.376   1.502
12429TIP3    H137228   1.840   2.419   1.421
12429TIP3    H237229   1.902   2.291   1.474
12430TIP3   OH237230   1.718   7.891   5.343
12430TIP3    H137231   1.737   7.936   5.424
12430TIP3    H237232   1.625   7.869   5.348
12431TIP3   OH237233   6.849   0.017   5.001
12431TIP3    H137234   6.837   0.039   4.909
12431TIP3    H237235   6.919   0.075   5.031
12432TIP3   OH237236   7.379   5.757   2.406
12432TIP3    H137237   7.327   5.815   2.351
12432TIP3    H237238   7.407   5.811   2.480
12433TIP3   OH237239   7.469   3.658   1.240
12433TIP3    H137240   7.397   3.609   1.280
12433TIP3    H237241   7.457   3.647   1.146
12434TIP3   OH237242   1.098   1.948   3.127
12434TIP3    H137243   1.184   1.954   3.170
12434TIP3    H237244   1.090   1.856   3.104
12435TIP3   OH237245   0.631   1.837   5.166
12435TIP3    H137246   0.681   1.809   5.243
12435TIP3    H237247   0.697   1.849   5.097
12436TIP3   OH237248   0.046   6.657   0.899
12436TIP3    H137249  -0.032   6.689   0.944
12436TIP3    H237250   0.103   6.734   0.892
12437TIP3   OH237251   7.217   3.838   1.169
12437TIP3    H137252   7.281   3.774   1.201
12437TIP3    H237253   7.133   3.793   1.177
12438TIP3   OH237254   4.791   5.490   3.538
12438TIP3    H137255   4.734   5.565   3.522
12438TIP3    H237256   4.879   5.523   3.519
12439TIP3   OH237257   4.347   5.376   2.046
12439TIP3    H137258   4.361   5.467   2.074
12439TIP3    H237259   4.257   5.357   2.072
12440TIP3   OH237260   1.048   0.568   0.140
12440TIP3    H137261   0.982   0.543   0.205
12440TIP3    H237262   1.009   0.644   0.095
12441TIP3   OH237263   6.341   3.978   5.344
12441TIP3    H137264   6.352   3.913   5.275
12441TIP3    H237265   6.429   4.011   5.360
12442TIP3   OH237266   5.962   3.325   6.759
12442TIP3    H137267   5.966   3.232   6.783
12442TIP3    H237268   5.870   3.348   6.767
12443TIP3   OH237269   4.152   4.453   0.076
12443TIP3    H137270   4.227   4.440   0.018
12443TIP3    H237271   4.157   4.545   0.102
12444TIP3   OH237272   3.876   5.926   2.089
12444TIP3    H137273   3.909   5.996   2.145
12444TIP3    H237274   3.945   5.912   2.024
12445TIP3   OH237275   4.844   4.027   1.314
12445TIP3    H137276   4.836   4.017   1.219
12445TIP3    H237277   4.764   3.988   1.349
12446TIP3   OH237278   4.020   2.455   2.107
12446TIP3    H137279   4.091   2.519   2.102
12446TIP3    H237280   3.945   2.500   2.069
12447TIP3   OH237281   7.710   5.704   3.304
12447TIP3    H137282   7.727   5.701   3.398
12447TIP3    H237283   7.625   5.747   3.296
12448TIP3   OH237284   7.759   7.738   1.480
12448TIP3    H137285   7.716   7.670   1.532
12448TIP3    H237286   7.695   7.809   1.478
12449TIP3   OH237287   7.003   4.255   1.168
12449TIP3    H137288   6.992   4.340   1.211
12449TIP3    H237289   7.087   4.223   1.200
12450TIP3   OH237290   5.186   7.364   1.671
12450TIP3    H137291   5.095   7.390   1.654
12450TIP3    H237292   5.193   7.362   1.766
12451TIP3   OH237293   4.992   1.571   0.274
12451TIP3    H137294   5.036   1.531   0.199
12451TIP3    H237295   4.938   1.641   0.235
12452TIP3   OH237296   3.931   0.579   4.303
12452TIP3    H137297   3.933   0.494   4.258
12452TIP3    H237298   4.023   0.596   4.325
12453TIP3   OH237299   5.626   6.176   3.795
12453TIP3    H137300   5.555   6.194   3.856
12453TIP3    H237301   5.598   6.099   3.746
12454TIP3   OH237302   4.392   4.731   1.555
12454TIP3    H137303   4.455   4.672   1.595
12454TIP3    H237304   4.443   4.810   1.535
12455TIP3   OH237305   4.903   2.238   2.471
12455TIP3    H137306   4.940   2.250   2.559
12455TIP3    H237307   4.809   2.225   2.487
12456TIP3   OH237308   4.475   3.446   2.735
12456TIP3    H137309   4.542   3.486   2.790
12456TIP3    H237310   4.426   3.519   2.698
12457TIP3   OH237311   2.414   4.691   4.525
12457TIP3    H137312   2.473   4.664   4.595
12457TIP3    H237313   2.331   4.648   4.547
12458TIP3   OH237314   6.609   3.488   5.636
12458TIP3    H137315   6.702   3.483   5.613
12458TIP3    H237316   6.596   3.413   5.695
12459TIP3   OH237317   7.324   1.123   3.920
12459TIP3    H137318   7.358   1.087   4.001
12459TIP3    H237319   7.265   1.193   3.948
12460TIP3   OH237320   4.251   1.409   5.381
12460TIP3    H137321   4.196   1.361   5.319
12460TIP3    H237322   4.314   1.455   5.326
12461TIP3   OH237323   3.344   1.042   6.150
12461TIP3    H137324   3.403   0.967   6.158
12461TIP3    H237325   3.395   1.108   6.103
12462TIP3   OH237326   0.879   0.150   2.560
12462TIP3    H137327   0.864   0.087   2.631
12462TIP3    H237328   0.967   0.129   2.528
12463TIP3   OH237329   1.370   5.967   2.031
12463TIP3    H137330   1.294   5.994   2.083
12463TIP3    H237331   1.335   5.948   1.945
12464TIP3   OH237332   3.367   0.087   1.065
12464TIP3    H137333   3.339   0.006   1.108
12464TIP3    H237334   3.361   0.068   0.971
12465TIP3   OH237335   5.123   3.961   4.955
12465TIP3    H137336   5.165   4.020   5.017
12465TIP3    H237337   5.141   3.998   4.869
12466TIP3   OH237338   3.219   5.560   5.240
12466TIP3    H137339   3.239   5.480   5.190
12466TIP3    H237340   3.126   5.552   5.261
12467TIP3   OH237341   1.801   7.820   0.755
12467TIP3    H137342   1.778   7.827   0.662
12467TIP3    H237343   1.719   7.838   0.801
12468TIP3   OH237344   0.875   7.586   1.991
12468TIP3    H137345   0.965   7.617   1.977
12468TIP3    H237346   0.821   7.665   1.984
12469TIP3   OH237347   1.195   1.761   1.811
12469TIP3    H137348   1.288   1.766   1.831
12469TIP3    H237349   1.151   1.766   1.896
12470TIP3   OH237350   6.984   5.202   2.643
12470TIP3    H137351   7.043   5.232   2.712
12470TIP3    H237352   6.958   5.282   2.597
12471TIP3   OH237353   3.967   7.276   2.103
12471TIP3    H137354   3.934   7.243   2.187
12471TIP3    H237355   3.918   7.356   2.087
12472TIP3   OH237356   3.413   1.581   1.698
12472TIP3    H137357   3.443   1.648   1.637
12472TIP3    H237358   3.335   1.544   1.657
12473TIP3   OH237359   2.533   6.609   0.440
12473TIP3    H137360   2.501   6.675   0.502
12473TIP3    H237361   2.628   6.611   0.450
12474TIP3   OH237362   2.949   6.010   6.847
12474TIP3    H137363   2.853   6.005   6.846
12474TIP3    H237364   2.968   6.100   6.871
12475TIP3   OH237365   2.464   6.483   5.469
12475TIP3    H137366   2.418   6.441   5.541
12475TIP3    H237367   2.526   6.417   5.438
12476TIP3   OH237368   2.248   7.483   6.685
12476TIP3    H137369   2.262   7.560   6.740
12476TIP3    H237370   2.308   7.496   6.611
12477TIP3   OH237371   7.319   4.014   4.895
12477TIP3    H137372   7.229   4.023   4.925
12477TIP3    H237373   7.334   4.089   4.838
12478TIP3   OH237374   4.461   0.358   0.253
12478TIP3    H137375   4.476   0.450   0.232
12478TIP3    H237376   4.525   0.311   0.200
12479TIP3   OH237377   1.885   5.008   5.513
12479TIP3    H137378   1.937   5.056   5.449
12479TIP3    H237379   1.948   4.983   5.581
12480TIP3   OH237380   6.915   4.244   0.789
12480TIP3    H137381   7.002   4.229   0.826
12480TIP3    H237382   6.931   4.267   0.698
12481TIP3   OH237383   2.233   1.334   3.259
12481TIP3    H137384   2.317   1.355   3.219
12481TIP3    H237385   2.170   1.393   3.216
12482TIP3   OH237386   6.494   3.048   5.420
12482TIP3    H137387   6.520   2.984   5.486
12482TIP3    H237388   6.492   3.132   5.468
12483TIP3   OH237389   8.380   1.966   5.852
12483TIP3    H137390   8.291   1.931   5.854
12483TIP3    H237391   8.414   1.938   5.766
12484TIP3   OH237392   5.239   3.961   2.077
12484TIP3    H137393   5.193   3.878   2.059
12484TIP3    H237394   5.299   3.970   2.003
12485TIP3   OH237395   7.203   1.960   5.761
12485TIP3    H137396   7.203   1.979   5.667
12485TIP3    H237397   7.226   2.042   5.803
12486TIP3   OH237398   5.614   5.195   5.048
12486TIP3    H137399   5.573   5.260   5.105
12486TIP3    H237400   5.631   5.242   4.966
12487TIP3   OH237401   2.070   0.850   0.587
12487TIP3    H137402   2.040   0.849   0.496
12487TIP3    H237403   1.992   0.830   0.638
12488TIP3   OH237404   7.984   4.715   5.331
12488TIP3    H137405   7.947   4.666   5.404
12488TIP3    H237406   8.047   4.655   5.291
12489TIP3   OH237407   2.382   1.425   2.490
12489TIP3    H137408   2.303   1.384   2.526
12489TIP3    H237409   2.358   1.447   2.400
12490TIP3   OH237410   7.837   3.857   0.462
12490TIP3    H137411   7.767   3.897   0.411
12490TIP3    H237412   7.874   3.930   0.513
12491TIP3   OH237413   5.709   5.826   0.859
12491TIP3    H137414   5.695   5.732   0.850
12491TIP3    H237415   5.639   5.856   0.917
12492TIP3   OH237416   1.551   0.268   6.751
12492TIP3    H137417   1.646   0.259   6.748
12492TIP3    H237418   1.530   0.328   6.679
12493TIP3   OH237419   0.990   7.217   5.122
12493TIP3    H137420   0.922   7.253   5.180
12493TIP3    H237421   0.995   7.280   5.050
12494TIP3   OH237422   4.162   5.634   3.283
12494TIP3    H137423   4.156   5.705   3.219
12494TIP3    H237424   4.193   5.559   3.232
12495TIP3   OH237425   0.250   1.883   0.526
12495TIP3    H137426   0.327   1.841   0.565
12495TIP3    H237427   0.221   1.821   0.459
12496TIP3   OH237428   2.180   1.209   2.528
12496TIP3    H137429   2.244   1.138   2.538
12496TIP3    H237430   2.118   1.176   2.463
12497TIP3   OH237431   1.872   6.306   2.046
12497TIP3    H137432   1.847   6.214   2.037
12497TIP3    H237433   1.967   6.304   2.056
12498TIP3   OH237434   5.411   5.802   5.024
12498TIP3    H137435   5.359   5.722   5.013
12498TIP3    H237436   5.379   5.860   4.955
12499TIP3   OH237437   6.580   7.259   4.754
12499TIP3    H137438   6.619   7.244   4.668
12499TIP3    H237439   6.495   7.299   4.736
12500TIP3   OH237440   7.888   1.477   2.951
12500TIP3    H137441   7.796   1.459   2.969
12500TIP3    H237442   7.896   1.572   2.960
12501TIP3   OH237443   1.317   5.053   0.859
12501TIP3    H137444   1.321   5.020   0.949
12501TIP3    H237445   1.246   5.117   0.861
12502TIP3   OH237446   0.418   4.851   3.014
12502TIP3    H137447   0.342   4.908   3.002
12502TIP3    H237448   0.425   4.802   2.933
12503TIP3   OH237449   8.099   4.398   5.819
12503TIP3    H137450   8.064   4.400   5.729
12503TIP3    H237451   8.116   4.490   5.840
12504TIP3   OH237452   1.039   0.321   0.419
12504TIP3    H137453   1.115   0.378   0.422
12504TIP3    H237454   0.993   0.337   0.501
12505TIP3   OH237455   2.948   0.825   4.866
12505TIP3    H137456   3.002   0.747   4.877
12505TIP3    H237457   2.979   0.886   4.934
12506TIP3   OH237458   7.863   3.293   4.409
12506TIP3    H137459   7.861   3.348   4.331
12506TIP3    H237460   7.904   3.211   4.381
12507TIP3   OH237461   1.835   2.977   1.962
12507TIP3    H137462   1.745   2.963   1.934
12507TIP3    H237463   1.888   2.955   1.886
12508TIP3   OH237464   3.122   7.732   1.122
12508TIP3    H137465   3.110   7.681   1.042
12508TIP3    H237466   3.103   7.822   1.096
12509TIP3   OH237467   4.540   3.236   4.707
12509TIP3    H137468   4.629   3.265   4.727
12509TIP3    H237469   4.483   3.295   4.756
12510TIP3   OH237470   1.521   1.335   6.494
12510TIP3    H137471   1.444   1.313   6.547
12510TIP3    H237472   1.595   1.298   6.543
12511TIP3   OH237473   1.453   7.073   5.332
12511TIP3    H137474   1.411   6.993   5.301
12511TIP3    H237475   1.448   7.067   5.427
12512TIP3   OH237476   0.635   6.614   5.048
12512TIP3    H137477   0.600   6.525   5.041
12512TIP3    H237478   0.694   6.611   5.123
12513TIP3   OH237479   3.201   4.232   5.063
12513TIP3    H137480   3.249   4.263   4.987
12513TIP3    H237481   3.267   4.189   5.117
12514TIP3   OH237482   4.236   3.698   4.473
12514TIP3    H137483   4.201   3.726   4.388
12514TIP3    H237484   4.165   3.717   4.535
12515TIP3   OH237485   7.740   1.626   3.875
12515TIP3    H137486   7.692   1.566   3.932
12515TIP3    H237487   7.787   1.684   3.936
12516TIP3   OH237488   7.497   7.783   2.969
12516TIP3    H137489   7.492   7.868   2.926
12516TIP3    H237490   7.563   7.735   2.918
12517TIP3   OH237491   3.951   5.530   1.568
12517TIP3    H137492   3.878   5.506   1.625
12517TIP3    H237493   3.917   5.520   1.479
12518TIP3   OH237494   0.424   6.562   0.765
12518TIP3    H137495   0.382   6.485   0.802
12518TIP3    H237496   0.351   6.615   0.731
12519TIP3   OH237497   0.865   0.814   0.474
12519TIP3    H137498   0.929   0.772   0.416
12519TIP3    H237499   0.860   0.904   0.443
12520TIP3   OH237500   3.990   6.759   0.778
12520TIP3    H137501   4.083   6.743   0.788
12520TIP3    H237502   3.948   6.682   0.815
12521TIP3   OH237503   1.098   4.491   2.883
12521TIP3    H137504   1.093   4.408   2.930
12521TIP3    H237505   1.187   4.523   2.900
12522TIP3   OH237506   0.620   5.551   4.264
12522TIP3    H137507   0.542   5.518   4.308
12522TIP3    H237508   0.673   5.473   4.246
12523TIP3   OH237509   2.177   1.506   4.760
12523TIP3    H137510   2.085   1.486   4.773
12523TIP3    H237511   2.223   1.424   4.776
12524TIP3   OH237512   4.917   3.110   1.493
12524TIP3    H137513   4.983   3.051   1.457
12524TIP3    H237514   4.842   3.102   1.433
12525TIP3   OH237515   1.114   1.201   4.135
12525TIP3    H137516   1.021   1.185   4.155
12525TIP3    H237517   1.112   1.249   4.052
12526TIP3   OH237518   1.292   3.964   6.832
12526TIP3    H137519   1.198   3.975   6.843
12526TIP3    H237520   1.308   3.872   6.848
12527TIP3   OH237521   3.043   7.310   5.476
12527TIP3    H137522   3.014   7.361   5.552
12527TIP3    H237523   2.970   7.317   5.414
12528TIP3   OH237524   3.255   6.536   6.568
12528TIP3    H137525   3.242   6.587   6.488
12528TIP3    H237526   3.169   6.538   6.611
12529TIP3   OH237527   1.944   2.972   6.609
12529TIP3    H137528   1.894   2.985   6.529
12529TIP3    H237529   1.883   2.929   6.669
12530TIP3   OH237530   6.087   2.666   0.915
12530TIP3    H137531   6.037   2.727   0.969
12530TIP3    H237532   6.175   2.666   0.953
12531TIP3   OH237533   0.637   3.169   4.488
12531TIP3    H137534   0.650   3.166   4.393
12531TIP3    H237535   0.571   3.238   4.500
12532TIP3   OH237536   1.479   4.838   2.423
12532TIP3    H137537   1.401   4.783   2.428
12532TIP3    H237538   1.533   4.796   2.356
12533TIP3   OH237539   4.607   1.703   0.492
12533TIP3    H137540   4.628   1.629   0.435
12533TIP3    H237541   4.690   1.725   0.534
12534TIP3   OH237542   2.598   4.012   2.421
12534TIP3    H137543   2.583   3.988   2.513
12534TIP3    H237544   2.513   3.997   2.379
12535TIP3   OH237545   6.860   0.304   5.723
12535TIP3    H137546   6.910   0.228   5.695
12535TIP3    H237547   6.880   0.312   5.817
12536TIP3   OH237548   2.538   4.262   1.515
12536TIP3    H137549   2.601   4.234   1.449
12536TIP3    H237550   2.547   4.358   1.517
12537TIP3   OH237551   0.361   6.493   1.432
12537TIP3    H137552   0.281   6.455   1.398
12537TIP3    H237553   0.389   6.433   1.502
12538TIP3   OH237554   7.504   6.502   4.375
12538TIP3    H137555   7.422   6.458   4.399
12538TIP3    H237556   7.476   6.575   4.320
12539TIP3   OH237557   4.284   0.920   2.363
12539TIP3    H137558   4.325   0.944   2.280
12539TIP3    H237559   4.190   0.924   2.346
12540TIP3   OH237560   5.342   2.954   0.628
12540TIP3    H137561   5.303   2.879   0.583
12540TIP3    H237562   5.331   3.027   0.568
12541TIP3   OH237563   4.329   1.981   6.845
12541TIP3    H137564   4.273   2.039   6.795
12541TIP3    H237565   4.328   2.016   6.934
12542TIP3   OH237566   3.164   5.555   4.640
12542TIP3    H137567   3.097   5.618   4.612
12542TIP3    H237568   3.230   5.558   4.571
12543TIP3   OH237569   5.277   4.343   1.100
12543TIP3    H137570   5.365   4.376   1.079
12543TIP3    H237571   5.293   4.259   1.143
12544TIP3   OH237572   1.521   5.022   0.421
12544TIP3    H137573   1.612   5.012   0.394
12544TIP3    H237574   1.471   4.997   0.343
12545TIP3   OH237575   6.426   0.202   4.364
12545TIP3    H137576   6.421   0.230   4.272
12545TIP3    H237577   6.493   0.258   4.402
12546TIP3   OH237578   5.376   4.674   6.316
12546TIP3    H137579   5.422   4.644   6.394
12546TIP3    H237580   5.298   4.718   6.350
12547TIP3   OH237581   7.941   0.966   6.195
12547TIP3    H137582   7.876   0.954   6.126
12547TIP3    H237583   8.009   1.020   6.154
12548TIP3   OH237584   4.590   2.526   3.546
12548TIP3    H137585   4.651   2.561   3.610
12548TIP3    H237586   4.642   2.518   3.466
12549TIP3   OH237587   4.132   4.080   4.473
12549TIP3    H137588   4.103   4.022   4.543
12549TIP3    H237589   4.221   4.106   4.499
12550TIP3   OH237590   7.623   0.621   5.686
12550TIP3    H137591   7.540   0.628   5.733
12550TIP3    H237592   7.680   0.572   5.744
12551TIP3   OH237593   1.999   2.103   4.117
12551TIP3    H137594   1.949   2.185   4.110
12551TIP3    H237595   1.985   2.059   4.034
12552TIP3   OH237596   6.437   1.783   6.513
12552TIP3    H137597   6.463   1.867   6.550
12552TIP3    H237598   6.515   1.753   6.465
12553TIP3   OH237599   3.323   6.934   4.950
12553TIP3    H137600   3.401   6.944   5.005
12553TIP3    H237601   3.300   7.023   4.924
12554TIP3   OH237602   2.854   6.934   4.882
12554TIP3    H137603   2.915   7.008   4.880
12554TIP3    H237604   2.808   6.942   4.965
12555TIP3   OH237605   3.444   5.850   2.321
12555TIP3    H137606   3.521   5.901   2.297
12555TIP3    H237607   3.477   5.762   2.339
12556TIP3   OH237608   8.146   5.870   5.396
12556TIP3    H137609   8.139   5.835   5.485
12556TIP3    H237610   8.115   5.799   5.340
12557TIP3   OH237611   1.509   0.259   4.102
12557TIP3    H137612   1.457   0.201   4.046
12557TIP3    H237613   1.447   0.324   4.133
12558TIP3   OH237614   1.848   1.096   3.569
12558TIP3    H137615   1.922   1.075   3.625
12558TIP3    H237616   1.846   1.026   3.504
12559TIP3   OH237617   7.324   2.302   6.215
12559TIP3    H137618   7.274   2.221   6.223
12559TIP3    H237619   7.415   2.273   6.208
12560TIP3   OH237620   6.612   1.763   0.503
12560TIP3    H137621   6.678   1.806   0.449
12560TIP3    H237622   6.530   1.807   0.481
12561TIP3   OH237623   3.346   3.687   0.075
12561TIP3    H137624   3.403   3.705   0.149
12561TIP3    H237625   3.369   3.753   0.010
12562TIP3   OH237626   0.491   6.878   5.051
12562TIP3    H137627   0.450   6.817   4.991
12562TIP3    H237628   0.517   6.825   5.126
12563TIP3   OH237629   5.262   4.422   3.632
12563TIP3    H137630   5.290   4.389   3.546
12563TIP3    H237631   5.246   4.344   3.684
12564TIP3   OH237632   6.959   2.385   2.380
12564TIP3    H137633   7.028   2.449   2.394
12564TIP3    H237634   6.878   2.435   2.382
12565TIP3   OH237635   7.662   2.888   5.318
12565TIP3    H137636   7.623   2.945   5.385
12565TIP3    H237637   7.750   2.871   5.350
12566TIP3   OH237638   0.664   7.314   0.898
12566TIP3    H137639   0.583   7.269   0.924
12566TIP3    H237640   0.718   7.245   0.859
12567TIP3   OH237641   2.491   5.993   3.366
12567TIP3    H137642   2.519   6.080   3.394
12567TIP3    H237643   2.397   6.003   3.350
12568TIP3   OH237644   2.560   1.447   1.863
12568TIP3    H137645   2.603   1.532   1.866
12568TIP3    H237646   2.469   1.466   1.844
12569TIP3   OH237647   0.927   0.419   4.015
12569TIP3    H137648   0.985   0.350   3.981
12569TIP3    H237649   0.914   0.396   4.107
12570TIP3   OH237650   4.605   7.034   0.713
12570TIP3    H137651   4.556   7.100   0.761
12570TIP3    H237652   4.654   7.084   0.647
12571TIP3   OH237653   4.182   4.070   3.397
12571TIP3    H137654   4.171   4.030   3.310
12571TIP3    H237655   4.103   4.122   3.410
12572TIP3   OH237656   3.149   1.535   3.398
12572TIP3    H137657   3.112   1.514   3.313
12572TIP3    H237658   3.099   1.611   3.428
12573TIP3   OH237659   4.104   7.565   6.513
12573TIP3    H137660   4.119   7.473   6.492
12573TIP3    H237661   4.010   7.570   6.531
12574TIP3   OH237662   3.333   3.871   2.204
12574TIP3    H137663   3.268   3.848   2.137
12574TIP3    H237664   3.290   3.939   2.256
12575TIP3   OH237665   8.216   1.993   3.617
12575TIP3    H137666   8.162   1.914   3.630
12575TIP3    H237667   8.212   2.039   3.701
12576TIP3   OH237668   2.332   7.794   0.401
12576TIP3    H137669   2.414   7.839   0.420
12576TIP3    H237670   2.266   7.864   0.398
12577TIP3   OH237671   3.319   2.636   2.934
12577TIP3    H137672   3.395   2.581   2.913
12577TIP3    H237673   3.354   2.704   2.991
12578TIP3   OH237674   8.036   5.288   0.316
12578TIP3    H137675   8.036   5.301   0.411
12578TIP3    H237676   8.127   5.262   0.296
12579TIP3   OH237677   0.566   2.488   6.194
12579TIP3    H137678   0.571   2.550   6.122
12579TIP3    H237679   0.496   2.427   6.169
12580TIP3   OH237680   8.344   4.370   1.608
12580TIP3    H137681   8.408   4.299   1.604
12580TIP3    H237682   8.259   4.327   1.598
12581TIP3   OH237683   7.389   1.628   0.948
12581TIP3    H137684   7.395   1.694   1.017
12581TIP3    H237685   7.323   1.661   0.888
12582TIP3   OH237686   7.019   0.596   2.858
12582TIP3    H137687   7.094   0.584   2.916
12582TIP3    H237688   6.948   0.546   2.901
12583TIP3   OH237689   1.126   1.913   6.311
12583TIP3    H137690   1.071   1.991   6.300
12583TIP3    H237691   1.167   1.925   6.397
12584TIP3   OH237692   2.248   6.732   3.726
12584TIP3    H137693   2.241   6.665   3.794
12584TIP3    H237694   2.161   6.733   3.685
12585TIP3   OH237695   7.444   3.885   2.331
12585TIP3    H137696   7.464   3.899   2.238
12585TIP3    H237697   7.419   3.972   2.363
12586TIP3   OH237698   7.229   1.444   0.612
12586TIP3    H137699   7.272   1.361   0.591
12586TIP3    H237700   7.185   1.469   0.531
12587TIP3   OH237701   6.250   4.583   4.539
12587TIP3    H137702   6.248   4.593   4.634
12587TIP3    H237703   6.212   4.496   4.523
12588TIP3   OH237704   3.656   4.454   0.918
12588TIP3    H137705   3.636   4.365   0.949
12588TIP3    H237706   3.711   4.441   0.842
12589TIP3   OH237707   0.104   0.585   2.066
12589TIP3    H137708   0.121   0.523   2.136
12589TIP3    H237709   0.095   0.669   2.111
12590TIP3   OH237710   4.158   0.831   4.663
12590TIP3    H137711   4.211   0.900   4.703
12590TIP3    H237712   4.069   0.867   4.661
12591TIP3   OH237713   6.998   7.841   6.477
12591TIP3    H137714   6.947   7.765   6.448
12591TIP3    H237715   6.949   7.874   6.552
12592TIP3   OH237716   3.235   7.170   1.532
12592TIP3    H137717   3.298   7.132   1.594
12592TIP3    H237718   3.177   7.097   1.510
12593TIP3   OH237719   1.872   2.240   1.753
12593TIP3    H137720   1.881   2.299   1.678
12593TIP3    H237721   1.882   2.152   1.715
12594TIP3   OH237722   3.128   2.295   1.938
12594TIP3    H137723   3.057   2.269   1.998
12594TIP3    H237724   3.158   2.379   1.971
12595TIP3   OH237725   8.221   5.416   3.815
12595TIP3    H137726   8.190   5.327   3.835
12595TIP3    H237727   8.155   5.473   3.855
12596TIP3   OH237728   3.260   1.642   0.681
12596TIP3    H137729   3.295   1.686   0.759
12596TIP3    H237730   3.235   1.555   0.712
12597TIP3   OH237731   2.710   6.748   3.866
12597TIP3    H137732   2.672   6.703   3.942
12597TIP3    H237733   2.804   6.745   3.882
12598TIP3   OH237734   4.503   4.488   0.763
12598TIP3    H137735   4.552   4.421   0.715
12598TIP3    H237736   4.528   4.475   0.855
12599TIP3   OH237737   4.967   7.543   5.681
12599TIP3    H137738   4.974   7.448   5.670
12599TIP3    H237739   4.949   7.576   5.593
12600TIP3   OH237740   1.404   5.698   0.736
12600TIP3    H137741   1.473   5.728   0.676
12600TIP3    H237742   1.384   5.609   0.706
12601TIP3   OH237743   7.792   4.630   3.976
12601TIP3    H137744   7.866   4.665   4.026
12601TIP3    H237745   7.793   4.536   3.994
12602TIP3   OH237746   6.880   6.925   1.246
12602TIP3    H137747   6.907   7.009   1.210
12602TIP3    H237748   6.962   6.880   1.267
12603TIP3   OH237749   3.332   7.220   6.654
12603TIP3    H137750   3.257   7.265   6.693
12603TIP3    H237751   3.376   7.178   6.728
12604TIP3   OH237752   6.606   6.699   6.576
12604TIP3    H137753   6.693   6.668   6.551
12604TIP3    H237754   6.622   6.783   6.619
12605TIP3   OH237755   2.104   3.125   1.579
12605TIP3    H137756   2.142   3.048   1.622
12605TIP3    H237757   2.030   3.150   1.634
12606TIP3   OH237758   4.232   5.094   3.604
12606TIP3    H137759   4.215   5.022   3.543
12606TIP3    H237760   4.270   5.052   3.681
12607TIP3   OH237761   6.705   6.946   5.847
12607TIP3    H137762   6.675   6.883   5.912
12607TIP3    H237763   6.695   6.901   5.763
12608TIP3   OH237764   8.020   4.740   1.933
12608TIP3    H137765   8.058   4.738   2.020
12608TIP3    H237766   7.975   4.824   1.927
12609TIP3   OH237767   2.554   4.919   0.463
12609TIP3    H137768   2.548   4.865   0.384
12609TIP3    H237769   2.594   4.862   0.528
12610TIP3   OH237770   7.104   1.645   4.464
12610TIP3    H137771   7.110   1.693   4.382
12610TIP3    H237772   7.191   1.653   4.503
12611TIP3   OH237773   3.447   0.795   0.345
12611TIP3    H137774   3.385   0.729   0.315
12611TIP3    H237775   3.411   0.826   0.428
12612TIP3   OH237776   5.172   1.561   3.076
12612TIP3    H137777   5.265   1.571   3.097
12612TIP3    H237778   5.130   1.637   3.116
12613TIP3   OH237779   0.161   5.805   1.200
12613TIP3    H137780   0.104   5.856   1.258
12613TIP3    H237781   0.212   5.750   1.259
12614TIP3   OH237782   6.150   7.669   4.299
12614TIP3    H137783   6.189   7.610   4.363
12614TIP3    H237784   6.072   7.624   4.268
12615TIP3   OH237785   0.108   5.184   4.751
12615TIP3    H137786   0.146   5.205   4.836
12615TIP3    H237787   0.056   5.261   4.728
12616TIP3   OH237788   5.885   1.147   6.405
12616TIP3    H137789   5.846   1.092   6.337
12616TIP3    H237790   5.871   1.099   6.486
12617TIP3   OH237791   1.852   4.668   2.901
12617TIP3    H137792   1.939   4.701   2.877
12617TIP3    H237793   1.867   4.617   2.981
12618TIP3   OH237794   4.398   5.445   5.775
12618TIP3    H137795   4.392   5.428   5.681
12618TIP3    H237796   4.363   5.534   5.785
12619TIP3   OH237797   5.841   3.833   4.452
12619TIP3    H137798   5.905   3.900   4.429
12619TIP3    H237799   5.893   3.756   4.474
12620TIP3   OH237800   6.979   2.917   5.718
12620TIP3    H137801   6.899   2.877   5.752
12620TIP3    H237802   7.017   2.850   5.660
12621TIP3   OH237803   0.213   7.418   5.378
12621TIP3    H137804   0.298   7.376   5.386
12621TIP3    H237805   0.150   7.347   5.391
12622TIP3   OH237806   6.236   6.407   1.699
12622TIP3    H137807   6.325   6.436   1.678
12622TIP3    H237808   6.223   6.434   1.790
12623TIP3   OH237809   8.066   5.019   4.161
12623TIP3    H137810   7.974   5.015   4.189
12623TIP3    H237811   8.062   5.046   4.070
12624TIP3   OH237812   7.642   7.134   6.499
12624TIP3    H137813   7.623   7.056   6.551
12624TIP3    H237814   7.737   7.138   6.494
12625TIP3   OH237815   3.486   2.001   5.521
12625TIP3    H137816   3.555   2.058   5.555
12625TIP3    H237817   3.408   2.057   5.519
12626TIP3   OH237818   0.968   0.070   4.776
12626TIP3    H137819   1.053   0.110   4.757
12626TIP3    H237820   0.945   0.023   4.696
12627TIP3   OH237821   3.882   0.134   2.453
12627TIP3    H137822   3.935   0.132   2.373
12627TIP3    H237823   3.800   0.092   2.430
12628TIP3   OH237824   5.654   0.971   6.811
12628TIP3    H137825   5.691   0.892   6.772
12628TIP3    H237826   5.693   1.043   6.761
12629TIP3   OH237827   1.134   1.872   0.444
12629TIP3    H137828   1.059   1.921   0.411
12629TIP3    H237829   1.171   1.927   0.513
12630TIP3   OH237830   4.178   1.801   2.928
12630TIP3    H137831   4.237   1.734   2.892
12630TIP3    H237832   4.183   1.873   2.865
12631TIP3   OH237833   6.977   5.670   2.290
12631TIP3    H137834   6.934   5.595   2.248
12631TIP3    H237835   6.906   5.719   2.330
12632TIP3   OH237836   0.877   0.942   6.770
12632TIP3    H137837   0.822   0.983   6.836
12632TIP3    H237838   0.847   0.978   6.687
12633TIP3   OH237839   3.634   2.662   0.077
12633TIP3    H137840   3.724   2.651   0.107
12633TIP3    H237841   3.634   2.631  -0.013
12634TIP3   OH237842   7.478   0.107   6.786
12634TIP3    H137843   7.526   0.163   6.725
12634TIP3    H237844   7.529   0.111   6.867
12635TIP3   OH237845   3.521   5.358   0.736
12635TIP3    H137846   3.609   5.394   0.747
12635TIP3    H237847   3.530   5.293   0.666
12636TIP3   OH237848   7.360   3.831   1.463
12636TIP3    H137849   7.439   3.810   1.513
12636TIP3    H237850   7.390   3.891   1.395
12637TIP3   OH237851   1.720   2.862   0.661
12637TIP3    H137852   1.795   2.868   0.721
12637TIP3    H237853   1.645   2.848   0.719
12638TIP3   OH237854   0.520   1.415   0.091
12638TIP3    H137855   0.479   1.477   0.152
12638TIP3    H237856   0.461   1.414   0.015
12639TIP3   OH237857   4.266   0.586   3.264
12639TIP3    H137858   4.348   0.541   3.280
12639TIP3    H237859   4.221   0.533   3.197
12640TIP3   OH237860   4.761   1.221   2.447
12640TIP3    H137861   4.802   1.154   2.392
12640TIP3    H237862   4.788   1.199   2.536
12641TIP3   OH237863   4.176   2.307   5.463
12641TIP3    H137864   4.190   2.212   5.462
12641TIP3    H237865   4.225   2.337   5.540
12642TIP3   OH237866   4.135   0.845   0.510
12642TIP3    H137867   4.109   0.841   0.418
12642TIP3    H237868   4.054   0.862   0.558
12643TIP3   OH237869   2.827   4.416   5.730
12643TIP3    H137870   2.882   4.487   5.763
12643TIP3    H237871   2.790   4.450   5.649
12644TIP3   OH237872   5.767   3.435   2.020
12644TIP3    H137873   5.829   3.486   2.073
12644TIP3    H237874   5.820   3.364   1.984
12645TIP3   OH237875   7.099   4.222   1.998
12645TIP3    H137876   7.190   4.235   1.971
12645TIP3    H237877   7.065   4.157   1.937
12646TIP3   OH237878   4.507   5.887   6.012
12646TIP3    H137879   4.509   5.794   5.990
12646TIP3    H237880   4.592   5.904   6.051
12647TIP3   OH237881   7.626   4.408   2.942
12647TIP3    H137882   7.611   4.484   2.997
12647TIP3    H237883   7.667   4.443   2.863
12648TIP3   OH237884   1.761   2.700   3.819
12648TIP3    H137885   1.803   2.718   3.903
12648TIP3    H237886   1.800   2.764   3.759
12649TIP3   OH237887   7.020   1.466   1.779
12649TIP3    H137888   7.070   1.547   1.776
12649TIP3    H237889   6.934   1.492   1.811
12650TIP3   OH237890   5.667   5.530   2.704
12650TIP3    H137891   5.582   5.569   2.723
12650TIP3    H237892   5.681   5.467   2.775
12651TIP3   OH237893   7.698   7.151   3.490
12651TIP3    H137894   7.751   7.230   3.486
12651TIP3    H237895   7.642   7.163   3.567
12652TIP3   OH237896   6.421   6.830   1.180
12652TIP3    H137897   6.415   6.863   1.090
12652TIP3    H237898   6.458   6.902   1.230
12653TIP3   OH237899   8.020   3.171   1.800
12653TIP3    H137900   7.939   3.203   1.839
12653TIP3    H237901   8.053   3.107   1.864
12654TIP3   OH237902   2.706   7.695   6.139
12654TIP3    H137903   2.682   7.733   6.055
12654TIP3    H237904   2.788   7.648   6.123
12655TIP3   OH237905   2.407   2.124   0.992
12655TIP3    H137906   2.360   2.191   0.941
12655TIP3    H237907   2.477   2.173   1.035
12656TIP3   OH237908   6.312   4.222   2.695
12656TIP3    H137909   6.374   4.150   2.685
12656TIP3    H237910   6.234   4.182   2.735
12657TIP3   OH237911   4.032   3.910   0.529
12657TIP3    H137912   4.059   3.868   0.448
12657TIP3    H237913   3.963   3.971   0.504
12658TIP3   OH237914   1.241   5.628   2.969
12658TIP3    H137915   1.173   5.597   2.908
12658TIP3    H237916   1.322   5.627   2.918
12659TIP3   OH237917   2.436   7.526   2.651
12659TIP3    H137918   2.470   7.445   2.614
12659TIP3    H237919   2.463   7.594   2.589
12660TIP3   OH237920   0.917   2.893   5.718
12660TIP3    H137921   0.875   2.811   5.691
12660TIP3    H237922   0.844   2.949   5.745
12661TIP3   OH237923   5.133   3.518   6.509
12661TIP3    H137924   5.137   3.423   6.499
12661TIP3    H237925   5.207   3.539   6.566
12662TIP3   OH237926   5.765   3.926   0.488
12662TIP3    H137927   5.689   3.869   0.478
12662TIP3    H237928   5.764   3.982   0.410
12663TIP3   OH237929   5.280   6.897   0.426
12663TIP3    H137930   5.328   6.930   0.350
12663TIP3    H237931   5.349   6.871   0.487
12664TIP3   OH237932   1.222   6.857   1.675
12664TIP3    H137933   1.127   6.860   1.666
12664TIP3    H237934   1.256   6.898   1.596
12665TIP3   OH237935   6.336   7.446   6.815
12665TIP3    H137936   6.382   7.451   6.899
12665TIP3    H237937   6.262   7.505   6.824
12666TIP3   OH237938   5.618   4.182   1.997
12666TIP3    H137939   5.658   4.107   1.953
12666TIP3    H237940   5.647   4.257   1.946
12667TIP3   OH237941   4.946   0.221   4.974
12667TIP3    H137942   4.869   0.205   4.920
12667TIP3    H237943   5.002   0.276   4.921
12668TIP3   OH237944   6.590   2.718   4.612
12668TIP3    H137945   6.630   2.767   4.540
12668TIP3    H237946   6.652   2.727   4.684
12669TIP3   OH237947   3.460   0.513   0.530
12669TIP3    H137948   3.370   0.542   0.542
12669TIP3    H237949   3.454   0.418   0.520
12670TIP3   OH237950   7.062   6.648   4.784
12670TIP3    H137951   7.094   6.664   4.695
12670TIP3    H237952   7.063   6.553   4.794
12671TIP3   OH237953   2.175   1.319   2.129
12671TIP3    H137954   2.240   1.266   2.176
12671TIP3    H237955   2.198   1.410   2.151
12672TIP3   OH237956   0.124   2.336   4.164
12672TIP3    H137957   0.165   2.394   4.227
12672TIP3    H237958   0.159   2.363   4.079
12673TIP3   OH237959   5.683   0.772   1.540
12673TIP3    H137960   5.676   0.718   1.619
12673TIP3    H237961   5.682   0.862   1.572
12674TIP3   OH237962   5.921   3.065   3.015
12674TIP3    H137963   5.894   2.985   2.969
12674TIP3    H237964   5.856   3.076   3.084
12675TIP3   OH237965   7.660   2.317   4.432
12675TIP3    H137966   7.583   2.261   4.429
12675TIP3    H237967   7.686   2.318   4.524
12676TIP3   OH237968   5.800   3.685   6.659
12676TIP3    H137969   5.729   3.695   6.723
12676TIP3    H237970   5.796   3.593   6.633
12677TIP3   OH237971   8.350   7.368   2.047
12677TIP3    H137972   8.387   7.400   1.965
12677TIP3    H237973   8.260   7.343   2.025
12678TIP3   OH237974   2.829   7.425   5.059
12678TIP3    H137975   2.872   7.393   4.980
12678TIP3    H237976   2.737   7.437   5.034
12679TIP3   OH237977   7.070   7.479   2.543
12679TIP3    H137978   7.017   7.509   2.470
12679TIP3    H237979   7.151   7.449   2.503
12680TIP3   OH237980   3.290   5.208   5.208
12680TIP3    H137981   3.262   5.260   5.133
12680TIP3    H237982   3.344   5.267   5.260
12681TIP3   OH237983   8.381   0.966   5.034
12681TIP3    H137984   8.415   0.877   5.025
12681TIP3    H237985   8.344   0.969   5.122
12682TIP3   OH237986   4.086   0.454   0.965
12682TIP3    H137987   3.999   0.470   0.929
12682TIP3    H237988   4.077   0.472   1.059
12683TIP3   OH237989   3.645   6.011   3.386
12683TIP3    H137990   3.693   5.983   3.308
12683TIP3    H237991   3.682   5.959   3.457
12684TIP3   OH237992   4.545   5.757   0.082
12684TIP3    H137993   4.571   5.799   0.000
12684TIP3    H237994   4.559   5.663   0.067
12685TIP3   OH237995   6.783   6.023   6.573
12685TIP3    H137996   6.723   5.982   6.510
12685TIP3    H237997   6.860   6.047   6.521
12686TIP3   OH237998   7.475   5.099   0.438
12686TIP3    H137999   7.542   5.118   0.373
12686TIP3    H238000   7.398   5.148   0.408
12687TIP3   OH238001   0.208   2.005   3.293
12687TIP3    H138002   0.296   1.968   3.295
12687TIP3    H238003   0.193   2.037   3.382
12688TIP3   OH238004   0.654   3.086   1.476
12688TIP3    H138005   0.711   3.158   1.502
12688TIP3    H238006   0.612   3.117   1.396
12689TIP3   OH238007   3.320   5.706   6.264
12689TIP3    H138008   3.272   5.713   6.181
12689TIP3    H238009   3.412   5.718   6.240
12690TIP3   OH238010   3.509   7.023   4.721
12690TIP3    H138011   3.444   6.984   4.663
12690TIP3    H238012   3.481   7.114   4.732
12691TIP3   OH238013   7.493   7.637   1.965
12691TIP3    H138014   7.513   7.564   2.023
12691TIP3    H238015   7.553   7.706   1.992
12692TIP3   OH238016   0.988   6.656   1.932
12692TIP3    H138017   0.927   6.601   1.981
12692TIP3    H238018   0.952   6.745   1.939
12693TIP3   OH238019   0.852   3.657   3.954
12693TIP3    H138020   0.798   3.731   3.926
12693TIP3    H238021   0.940   3.694   3.962
12694TIP3   OH238022   1.944   5.603   4.411
12694TIP3    H138023   1.985   5.533   4.460
12694TIP3    H238024   1.865   5.563   4.373
12695TIP3   OH238025   4.322   4.631   0.411
12695TIP3    H138026   4.324   4.538   0.437
12695TIP3    H238027   4.409   4.648   0.376
12696TIP3   OH238028   3.171   3.120   3.324
12696TIP3    H138029   3.182   3.184   3.253
12696TIP3    H238030   3.161   3.036   3.279
12697TIP3   OH238031   3.381   5.153   1.440
12697TIP3    H138032   3.299   5.107   1.455
12697TIP3    H238033   3.447   5.083   1.436
12698TIP3   OH238034   1.820   0.576   5.115
12698TIP3    H138035   1.912   0.584   5.137
12698TIP3    H238036   1.783   0.520   5.183
12699TIP3   OH238037   0.788   6.522   5.834
12699TIP3    H138038   0.711   6.563   5.795
12699TIP3    H238039   0.835   6.484   5.760
12700TIP3   OH238040   7.102   1.724   1.818
12700TIP3    H138041   7.116   1.764   1.732
12700TIP3    H238042   7.101   1.799   1.878
12701TIP3   OH238043   1.390   6.187   3.334
12701TIP3    H138044   1.429   6.099   3.331
12701TIP3    H238045   1.297   6.173   3.319
12702TIP3   OH238046   3.026   5.516   0.589
12702TIP3    H138047   2.987   5.603   0.597
12702TIP3    H238048   3.050   5.510   0.496
12703TIP3   OH238049   5.268   7.895   3.823
12703TIP3    H138050   5.195   7.861   3.875
12703TIP3    H238051   5.240   7.982   3.796
12704TIP3   OH238052   1.013   6.028   4.106
12704TIP3    H138053   0.989   5.939   4.131
12704TIP3    H238054   0.955   6.050   4.033
12705TIP3   OH238055   7.439   5.611   6.136
12705TIP3    H138056   7.470   5.520   6.135
12705TIP3    H238057   7.519   5.663   6.141
12706TIP3   OH238058   3.867   3.648   6.695
12706TIP3    H138059   3.929   3.720   6.690
12706TIP3    H238060   3.841   3.632   6.604
12707TIP3   OH238061   7.701   7.433   4.997
12707TIP3    H138062   7.673   7.487   4.923
12707TIP3    H238063   7.774   7.382   4.963
12708TIP3   OH238064   7.990   6.649   1.426
12708TIP3    H138065   8.050   6.588   1.469
12708TIP3    H238066   7.910   6.645   1.479
12709TIP3   OH238067   0.266   3.763   5.434
12709TIP3    H138068   0.174   3.748   5.457
12709TIP3    H238069   0.262   3.814   5.353
12710TIP3   OH238070   3.963   6.492   1.920
12710TIP3    H138071   3.884   6.441   1.907
12710TIP3    H238072   3.935   6.569   1.970
12711TIP3   OH238073   6.761   5.427   3.677
12711TIP3    H138074   6.741   5.519   3.693
12711TIP3    H238075   6.856   5.422   3.681
12712TIP3   OH238076   5.651   3.245   2.318
12712TIP3    H138077   5.571   3.288   2.347
12712TIP3    H238078   5.714   3.317   2.308
12713TIP3   OH238079   3.786   6.836   6.762
12713TIP3    H138080   3.867   6.825   6.811
12713TIP3    H238081   3.811   6.829   6.671
12714TIP3   OH238082   6.371   1.033   0.082
12714TIP3    H138083   6.375   1.125   0.107
12714TIP3    H238084   6.439   1.023   0.016
12715TIP3   OH238085   3.785   6.986   4.734
12715TIP3    H138086   3.690   6.991   4.725
12715TIP3    H238087   3.812   7.076   4.752
12716TIP3   OH238088   1.009   7.271   3.607
12716TIP3    H138089   1.035   7.184   3.637
12716TIP3    H238090   1.001   7.262   3.512
12717TIP3   OH238091   3.719   1.906   3.419
12717TIP3    H138092   3.722   1.853   3.339
12717TIP3    H238093   3.672   1.985   3.395
12718TIP3   OH238094   1.148   1.052   6.744
12718TIP3    H138095   1.095   0.991   6.795
12718TIP3    H238096   1.113   1.044   6.655
12719TIP3   OH238097   6.342   2.634   0.550
12719TIP3    H138098   6.395   2.557   0.530
12719TIP3    H238099   6.256   2.600   0.574
12720TIP3   OH238100   6.003   7.528   2.868
12720TIP3    H138101   6.094   7.504   2.852
12720TIP3    H238102   5.993   7.523   2.963
12721TIP3   OH238103   7.345   6.684   5.907
12721TIP3    H138104   7.280   6.698   5.838
12721TIP3    H238105   7.417   6.744   5.885
12722TIP3   OH238106   5.239   4.139   2.742
12722TIP3    H138107   5.270   4.089   2.667
12722TIP3    H238108   5.283   4.224   2.733
12723TIP3   OH238109   1.532   1.046   2.730
12723TIP3    H138110   1.521   0.953   2.708
12723TIP3    H238111   1.453   1.088   2.697
12724TIP3   OH238112   5.412   7.190   0.441
12724TIP3    H138113   5.351   7.118   0.458
12724TIP3    H238114   5.356   7.261   0.410
12725TIP3   OH238115   3.381   4.140   1.896
12725TIP3    H138116   3.368   4.133   1.990
12725TIP3    H238117   3.300   4.107   1.858
12726TIP3   OH238118   7.330   3.292   2.289
12726TIP3    H138119   7.386   3.351   2.340
12726TIP3    H238120   7.326   3.332   2.202
12727TIP3   OH238121   5.596   0.812   2.252
12727TIP3    H138122   5.525   0.753   2.277
12727TIP3    H238123   5.607   0.799   2.158
12728TIP3   OH238124   5.223   0.145   1.840
12728TIP3    H138125   5.221   0.182   1.928
12728TIP3    H238126   5.138   0.168   1.802
12729TIP3   OH238127   8.387   3.072   6.654
12729TIP3    H138128   8.316   3.008   6.659
12729TIP3    H238129   8.369   3.133   6.726
12730TIP3   OH238130   1.358   4.795   1.095
12730TIP3    H138131   1.379   4.862   1.160
12730TIP3    H238132   1.435   4.791   1.039
12731TIP3   OH238133   1.660   7.019   6.505
12731TIP3    H138134   1.679   7.045   6.415
12731TIP3    H238135   1.737   7.046   6.555
12732TIP3   OH238136   0.612   1.179   3.928
12732TIP3    H138137   0.580   1.268   3.911
12732TIP3    H238138   0.623   1.176   4.023
12733TIP3   OH238139   7.415   2.344   2.977
12733TIP3    H138140   7.499   2.302   2.993
12733TIP3    H238141   7.350   2.274   2.987
12734TIP3   OH238142   1.451   6.848   4.500
12734TIP3    H138143   1.367   6.870   4.541
12734TIP3    H238144   1.512   6.842   4.573
12735TIP3   OH238145   6.063   5.508   5.206
12735TIP3    H138146   5.982   5.529   5.252
12735TIP3    H238147   6.097   5.431   5.251
12736TIP3   OH238148   7.111   7.789   1.029
12736TIP3    H138149   7.102   7.875   1.069
12736TIP3    H238150   7.086   7.728   1.098
12737TIP3   OH238151   2.540   2.292   6.604
12737TIP3    H138152   2.631   2.285   6.631
12737TIP3    H238153   2.492   2.236   6.665
12738TIP3   OH238154   3.176   7.583   3.729
12738TIP3    H138155   3.083   7.574   3.706
12738TIP3    H238156   3.215   7.500   3.704
12739TIP3   OH238157   6.499   3.951   1.495
12739TIP3    H138158   6.520   3.964   1.588
12739TIP3    H238159   6.585   3.952   1.452
12740TIP3   OH238160   7.842   2.912   1.281
12740TIP3    H138161   7.774   2.846   1.268
12740TIP3    H238162   7.859   2.946   1.193
12741TIP3   OH238163   6.696   2.872   0.123
12741TIP3    H138164   6.629   2.812   0.155
12741TIP3    H238165   6.667   2.959   0.150
12742TIP3   OH238166   3.471   4.621   0.286
12742TIP3    H138167   3.532   4.587   0.221
12742TIP3    H238168   3.456   4.712   0.259
12743TIP3   OH238169   2.479   2.513   3.094
12743TIP3    H138170   2.427   2.535   3.171
12743TIP3    H238171   2.568   2.502   3.126
12744TIP3   OH238172   5.772   0.455   0.501
12744TIP3    H138173   5.776   0.365   0.534
12744TIP3    H238174   5.702   0.453   0.435
12745TIP3   OH238175   5.866   1.651   1.790
12745TIP3    H138176   5.817   1.617   1.864
12745TIP3    H238177   5.803   1.651   1.717
12746TIP3   OH238178   8.333   6.923   4.429
12746TIP3    H138179   8.320   6.859   4.500
12746TIP3    H238180   8.423   6.954   4.441
12747TIP3   OH238181   2.064   1.240   6.605
12747TIP3    H138182   2.029   1.167   6.657
12747TIP3    H238183   2.131   1.200   6.550
12748TIP3   OH238184   0.436   3.957   3.796
12748TIP3    H138185   0.420   3.954   3.701
12748TIP3    H238186   0.351   3.942   3.836
12749TIP3   OH238187   7.599   0.459   0.821
12749TIP3    H138188   7.509   0.462   0.789
12749TIP3    H238189   7.590   0.451   0.916
12750TIP3   OH238190   2.038   7.789   6.410
12750TIP3    H138191   2.021   7.854   6.342
12750TIP3    H238192   2.126   7.756   6.390
12751TIP3   OH238193   5.090   1.436   5.973
12751TIP3    H138194   5.019   1.461   6.033
12751TIP3    H238195   5.153   1.390   6.029
12752TIP3   OH238196   5.995   0.381   3.194
12752TIP3    H138197   5.932   0.386   3.267
12752TIP3    H238198   5.969   0.453   3.135
12753TIP3   OH238199   0.481   2.274   5.073
12753TIP3    H138200   0.432   2.325   5.137
12753TIP3    H238201   0.556   2.240   5.121
12754TIP3   OH238202   5.825   4.122   6.543
12754TIP3    H138203   5.786   4.097   6.627
12754TIP3    H238204   5.862   4.040   6.509
12755TIP3   OH238205   6.261   1.676   2.706
12755TIP3    H138206   6.185   1.734   2.696
12755TIP3    H238207   6.333   1.735   2.729
12756TIP3   OH238208   4.049   2.456   0.179
12756TIP3    H138209   4.074   2.434   0.090
12756TIP3    H238210   4.007   2.542   0.172
12757TIP3   OH238211   5.108   6.979   3.341
12757TIP3    H138212   5.113   7.074   3.351
12757TIP3    H238213   5.200   6.950   3.339
12758TIP3   OH238214   8.260   7.801   3.396
12758TIP3    H138215   8.173   7.814   3.433
12758TIP3    H238216   8.306   7.884   3.413
12759TIP3   OH238217   5.507   5.713   5.997
12759TIP3    H138218   5.432   5.768   6.021
12759TIP3    H238219   5.570   5.728   6.067
12760TIP3   OH238220   4.190   0.022   1.623
12760TIP3    H138221   4.207   0.022   1.717
12760TIP3    H238222   4.228   0.104   1.592
12761TIP3   OH238223   6.450   5.077   4.734
12761TIP3    H138224   6.473   5.148   4.793
12761TIP3    H238225   6.371   5.107   4.688
12762TIP3   OH238226   1.497   2.330   1.303
12762TIP3    H138227   1.485   2.348   1.210
12762TIP3    H238228   1.416   2.287   1.330
12763TIP3   OH238229   2.244   5.297   3.749
12763TIP3    H138230   2.225   5.315   3.657
12763TIP3    H238231   2.273   5.205   3.750
12764TIP3   OH238232   3.473   3.794   5.622
12764TIP3    H138233   3.569   3.790   5.618
12764TIP3    H238234   3.449   3.861   5.558
12765TIP3   OH238235   6.943   4.242   3.849
12765TIP3    H138236   6.963   4.165   3.795
12765TIP3    H238237   6.851   4.231   3.873
12766TIP3   OH238238   4.836   2.732   3.106
12766TIP3    H138239   4.909   2.675   3.127
12766TIP3    H238240   4.759   2.686   3.139
12767TIP3   OH238241   0.846   4.403   6.374
12767TIP3    H138242   0.889   4.435   6.454
12767TIP3    H238243   0.918   4.370   6.320
12768TIP3   OH238244   1.076   7.513   5.118
12768TIP3    H138245   1.061   7.481   5.207
12768TIP3    H238246   1.166   7.546   5.119
12769TIP3   OH238247   4.831   1.193   1.029
12769TIP3    H138248   4.881   1.184   1.109
12769TIP3    H238249   4.890   1.238   0.968
12770TIP3   OH238250   3.246   1.623   3.850
12770TIP3    H138251   3.158   1.585   3.843
12770TIP3    H238252   3.289   1.600   3.768
12771TIP3   OH238253   0.478   6.567   2.573
12771TIP3    H138254   0.403   6.619   2.599
12771TIP3    H238255   0.542   6.579   2.643
12772TIP3   OH238256   8.268   1.685   2.291
12772TIP3    H138257   8.281   1.645   2.377
12772TIP3    H238258   8.285   1.614   2.229
12773TIP3   OH238259   2.137   5.175   6.005
12773TIP3    H138260   2.081   5.191   5.929
12773TIP3    H238261   2.131   5.080   6.020
12774TIP3   OH238262   8.355   3.275   3.503
12774TIP3    H138263   8.421   3.281   3.434
12774TIP3    H238264   8.276   3.245   3.458
12775TIP3   OH238265   4.483   1.734   2.364
12775TIP3    H138266   4.442   1.725   2.451
12775TIP3    H238267   4.565   1.780   2.381
12776TIP3   OH238268   6.878   6.467   6.135
12776TIP3    H138269   6.910   6.546   6.090
12776TIP3    H238270   6.825   6.422   6.068
12777TIP3   OH238271   3.345   6.525   0.121
12777TIP3    H138272   3.330   6.553   0.031
12777TIP3    H238273   3.438   6.542   0.136
12778TIP3   OH238274   1.855   7.348   6.601
12778TIP3    H138275   1.861   7.255   6.580
12778TIP3    H238276   1.774   7.356   6.651
12779TIP3   OH238277   7.956   4.970   5.778
12779TIP3    H138278   8.004   4.890   5.802
12779TIP3    H238279   8.001   5.002   5.701
12780TIP3   OH238280   1.812   3.394   5.525
12780TIP3    H138281   1.744   3.366   5.586
12780TIP3    H238282   1.798   3.340   5.447
12781TIP3   OH238283   0.791   6.433   6.470
12781TIP3    H138284   0.747   6.507   6.427
12781TIP3    H238285   0.834   6.472   6.546
12782TIP3   OH238286   4.788   2.212   5.998
12782TIP3    H138287   4.836   2.131   6.016
12782TIP3    H238288   4.806   2.230   5.906
12783TIP3   OH238289   1.204   6.709   3.789
12783TIP3    H138290   1.269   6.639   3.786
12783TIP3    H238291   1.176   6.719   3.698
12784TIP3   OH238292   7.357   2.398   0.923
12784TIP3    H138293   7.378   2.415   0.831
12784TIP3    H238294   7.265   2.373   0.923
12785TIP3   OH238295   0.303   0.467   3.420
12785TIP3    H138296   0.263   0.413   3.352
12785TIP3    H238297   0.394   0.479   3.391
12786TIP3   OH238298   3.123   4.703   2.136
12786TIP3    H138299   3.083   4.762   2.072
12786TIP3    H238300   3.077   4.619   2.124
12787TIP3   OH238301   7.088   4.321   2.522
12787TIP3    H138302   7.005   4.311   2.569
12787TIP3    H238303   7.131   4.236   2.533
12788TIP3   OH238304   5.024   0.475   1.939
12788TIP3    H138305   5.067   0.432   2.013
12788TIP3    H238306   5.082   0.460   1.865
12789TIP3   OH238307   7.270   5.884   5.176
12789TIP3    H138308   7.265   5.872   5.082
12789TIP3    H238309   7.242   5.974   5.191
12790TIP3   OH238310   2.591   7.407   1.879
12790TIP3    H138311   2.611   7.322   1.842
12790TIP3    H238312   2.667   7.462   1.858
12791TIP3   OH238313   0.988   0.080   0.714
12791TIP3    H138314   0.970   0.009   0.776
12791TIP3    H238315   0.918   0.074   0.649
12792TIP3   OH238316   6.084   4.458   5.833
12792TIP3    H138317   6.118   4.431   5.918
12792TIP3    H238318   6.162   4.488   5.785
12793TIP3   OH238319   3.279   2.412   1.734
12793TIP3    H138320   3.200   2.433   1.684
12793TIP3    H238321   3.247   2.374   1.815
12794TIP3   OH238322   3.572   0.287   1.851
12794TIP3    H138323   3.537   0.239   1.927
12794TIP3    H238324   3.638   0.228   1.814
12795TIP3   OH238325   1.182   3.496   0.746
12795TIP3    H138326   1.191   3.503   0.841
12795TIP3    H238327   1.138   3.412   0.732
12796TIP3   OH238328   7.833   5.903   6.467
12796TIP3    H138329   7.738   5.892   6.465
12796TIP3    H238330   7.849   5.960   6.542
12797TIP3   OH238331   5.761   6.485   3.993
12797TIP3    H138332   5.838   6.498   4.048
12797TIP3    H238333   5.702   6.430   4.045
12798TIP3   OH238334   4.670   1.450   5.625
12798TIP3    H138335   4.592   1.506   5.625
12798TIP3    H238336   4.741   1.508   5.599
12799TIP3   OH238337   7.995   2.997   4.512
12799TIP3    H138338   8.072   2.967   4.463
12799TIP3    H238339   7.933   2.925   4.506
12800TIP3   OH238340   5.534   0.439   6.214
12800TIP3    H138341   5.494   0.509   6.163
12800TIP3    H238342   5.499   0.358   6.176
12801TIP3   OH238343   5.287   5.423   0.151
12801TIP3    H138344   5.289   5.329   0.173
12801TIP3    H238345   5.380   5.447   0.144
12802TIP3   OH238346   2.854   6.136   2.658
12802TIP3    H138347   2.920   6.119   2.726
12802TIP3    H238348   2.878   6.077   2.587
12803TIP3   OH238349   0.197   5.124   0.420
12803TIP3    H138350   0.195   5.147   0.327
12803TIP3    H238351   0.123   5.172   0.458
12804TIP3   OH238352   0.976   7.016   2.215
12804TIP3    H138353   0.883   7.009   2.240
12804TIP3    H238354   0.983   7.102   2.174
12805TIP3   OH238355   5.796   0.722   3.231
12805TIP3    H138356   5.771   0.736   3.323
12805TIP3    H238357   5.866   0.656   3.236
12806TIP3   OH238358   3.619   4.422   0.091
12806TIP3    H138359   3.534   4.436   0.050
12806TIP3    H238360   3.674   4.493   0.058
12807TIP3   OH238361   8.363   7.383   5.704
12807TIP3    H138362   8.335   7.466   5.664
12807TIP3    H238363   8.337   7.316   5.641
12808TIP3   OH238364   0.063   4.330   3.583
12808TIP3    H138365   0.044   4.241   3.614
12808TIP3    H238366  -0.020   4.361   3.547
12809TIP3   OH238367   7.208   4.683   3.074
12809TIP3    H138368   7.225   4.771   3.040
12809TIP3    H238369   7.204   4.628   2.996
12810TIP3   OH238370   7.580   7.387   6.636
12810TIP3    H138371   7.566   7.303   6.592
12810TIP3    H238372   7.665   7.417   6.604
12811TIP3   OH238373   2.635   2.605   3.494
12811TIP3    H138374   2.725   2.637   3.492
12811TIP3    H238375   2.644   2.509   3.493
12812TIP3   OH238376   6.414   4.153   3.193
12812TIP3    H138377   6.508   4.139   3.206
12812TIP3    H238378   6.406   4.180   3.101
12813TIP3   OH238379   6.230   2.395   4.028
12813TIP3    H138380   6.157   2.443   3.991
12813TIP3    H238381   6.270   2.457   4.090
12814TIP3   OH238382   1.232   2.591   1.719
12814TIP3    H138383   1.306   2.558   1.769
12814TIP3    H238384   1.235   2.542   1.637
12815TIP3   OH238385   2.502   5.554   5.781
12815TIP3    H138386   2.565   5.564   5.852
12815TIP3    H238387   2.532   5.476   5.734
12816TIP3   OH238388   6.857   0.031   1.417
12816TIP3    H138389   6.843   0.121   1.444
12816TIP3    H238390   6.913  -0.007   1.485
12817TIP3   OH238391   4.585   2.206   2.815
12817TIP3    H138392   4.680   2.198   2.826
12817TIP3    H238393   4.549   2.191   2.903
12818TIP3   OH238394   4.320   3.661   2.597
12818TIP3    H138395   4.298   3.742   2.550
12818TIP3    H238396   4.303   3.591   2.534
12819TIP3   OH238397   6.167   6.874   1.280
12819TIP3    H138398   6.220   6.935   1.331
12819TIP3    H238399   6.230   6.826   1.226
12820TIP3   OH238400   0.172   0.765   0.747
12820TIP3    H138401   0.133   0.678   0.736
12820TIP3    H238402   0.193   0.771   0.840
12821TIP3   OH238403   1.071   7.599   6.230
12821TIP3    H138404   1.131   7.668   6.205
12821TIP3    H238405   1.048   7.556   6.148
12822TIP3   OH238406   3.094   5.462   1.112
12822TIP3    H138407   3.147   5.390   1.148
12822TIP3    H238408   3.143   5.492   1.036
12823TIP3   OH238409   8.246   3.021   4.099
12823TIP3    H138410   8.206   2.959   4.159
12823TIP3    H238411   8.213   3.107   4.127
12824TIP3   OH238412   7.468   0.914   6.044
12824TIP3    H138413   7.428   0.849   6.102
12824TIP3    H238414   7.407   0.924   5.972
12825TIP3   OH238415   7.068   3.461   3.765
12825TIP3    H138416   7.051   3.427   3.852
12825TIP3    H238417   7.159   3.439   3.748
12826TIP3   OH238418   1.977   1.305   1.432
12826TIP3    H138419   1.994   1.217   1.400
12826TIP3    H238420   1.967   1.295   1.527
12827TIP3   OH238421   6.523   1.322   6.609
12827TIP3    H138422   6.596   1.290   6.556
12827TIP3    H238423   6.533   1.417   6.607
12828TIP3   OH238424   6.436   4.203   4.839
12828TIP3    H138425   6.528   4.218   4.860
12828TIP3    H238426   6.437   4.129   4.778
12829TIP3   OH238427   6.787   1.450   1.111
12829TIP3    H138428   6.789   1.409   1.025
12829TIP3    H238429   6.696   1.474   1.124
12830TIP3   OH238430   2.407   6.949   5.935
12830TIP3    H138431   2.393   7.009   6.009
12830TIP3    H238432   2.362   6.868   5.961
12831TIP3   OH238433   1.515   2.981   6.376
12831TIP3    H138434   1.528   2.887   6.362
12831TIP3    H238435   1.535   2.994   6.468
12832TIP3   OH238436   4.339   4.965   3.831
12832TIP3    H138437   4.257   4.965   3.881
12832TIP3    H238438   4.405   4.936   3.894
12833TIP3   OH238439   2.534   7.818   3.846
12833TIP3    H138440   2.485   7.751   3.893
12833TIP3    H238441   2.607   7.840   3.904
12834TIP3   OH238442   1.100   0.527   3.580
12834TIP3    H138443   1.089   0.548   3.487
12834TIP3    H238444   1.010   0.516   3.612
12835TIP3   OH238445   5.378   2.923   5.213
12835TIP3    H138446   5.430   2.894   5.138
12835TIP3    H238447   5.337   3.004   5.183
12836TIP3   OH238448   4.012   3.744   1.664
12836TIP3    H138449   4.101   3.775   1.680
12836TIP3    H238450   3.995   3.767   1.572
12837TIP3   OH238451   8.160   7.695   5.983
12837TIP3    H138452   8.136   7.754   5.912
12837TIP3    H238453   8.076   7.671   6.023
12838TIP3   OH238454   5.454   7.040   2.606
12838TIP3    H138455   5.452   7.002   2.694
12838TIP3    H238456   5.430   6.968   2.548
12839TIP3   OH238457   0.367   6.130   5.917
12839TIP3    H138458   0.285   6.094   5.950
12839TIP3    H238459   0.433   6.105   5.982
12840TIP3   OH238460   3.239   4.138   4.203
12840TIP3    H138461   3.157   4.092   4.189
12840TIP3    H238462   3.222   4.195   4.279
12841TIP3   OH238463   3.486   6.103   6.417
12841TIP3    H138464   3.563   6.147   6.380
12841TIP3    H238465   3.413   6.161   6.398
12842TIP3   OH238466   1.740   2.634   2.546
12842TIP3    H138467   1.832   2.610   2.536
12842TIP3    H238468   1.698   2.555   2.580
12843TIP3   OH238469   5.724   0.807   0.415
12843TIP3    H138470   5.758   0.897   0.423
12843TIP3    H238471   5.766   0.773   0.336
12844TIP3   OH238472   1.940   2.908   0.849
12844TIP3    H138473   1.914   2.923   0.940
12844TIP3    H238474   2.000   2.979   0.828
12845TIP3   OH238475   5.416   5.308   0.525
12845TIP3    H138476   5.490   5.363   0.552
12845TIP3    H238477   5.340   5.366   0.531
12846TIP3   OH238478   4.828   3.619   6.784
12846TIP3    H138479   4.761   3.682   6.756
12846TIP3    H238480   4.784   3.534   6.780
12847TIP3   OH238481   4.438   4.105   1.969
12847TIP3    H138482   4.371   4.167   1.998
12847TIP3    H238483   4.519   4.155   1.971
12848TIP3   OH238484   5.235   0.926   1.635
12848TIP3    H138485   5.306   0.989   1.648
12848TIP3    H238486   5.159   0.979   1.613
12849TIP3   OH238487   8.281   1.101   3.148
12849TIP3    H138488   8.375   1.090   3.160
12849TIP3    H238489   8.259   1.043   3.075
12850TIP3   OH238490   3.479   5.495   0.972
12850TIP3    H138491   3.393   5.530   0.946
12850TIP3    H238492   3.510   5.450   0.893
12851TIP3   OH238493   2.214   6.943   3.202
12851TIP3    H138494   2.208   6.914   3.111
12851TIP3    H238495   2.306   6.932   3.225
12852TIP3   OH238496   2.174   5.662   1.778
12852TIP3    H138497   2.131   5.637   1.696
12852TIP3    H238498   2.259   5.696   1.751
12853TIP3   OH238499   3.336   6.960   4.526
12853TIP3    H138500   3.311   7.036   4.472
12853TIP3    H238501   3.261   6.901   4.520
12854TIP3   OH238502   1.290   4.989   0.595
12854TIP3    H138503   1.332   4.993   0.681
12854TIP3    H238504   1.361   5.006   0.533
12855TIP3   OH238505   5.949   7.892   3.439
12855TIP3    H138506   5.873   7.837   3.460
12855TIP3    H238507   5.952   7.956   3.510
12856TIP3   OH238508   6.312   1.893   2.013
12856TIP3    H138509   6.311   1.977   2.057
12856TIP3    H238510   6.226   1.886   1.971
12857TIP3   OH238511   2.137   2.583   0.381
12857TIP3    H138512   2.214   2.565   0.328
12857TIP3    H238513   2.136   2.513   0.446
12858TIP3   OH238514   7.023   0.627   3.533
12858TIP3    H138515   7.061   0.541   3.516
12858TIP3    H238516   7.056   0.652   3.619
12859TIP3   OH238517   7.721   5.725   2.573
12859TIP3    H138518   7.776   5.669   2.517
12859TIP3    H238519   7.776   5.743   2.649
12860TIP3   OH238520   1.359   0.960   5.974
12860TIP3    H138521   1.423   1.031   5.977
12860TIP3    H238522   1.302   0.982   5.901
12861TIP3   OH238523   7.507   2.511   4.240
12861TIP3    H138524   7.457   2.451   4.296
12861TIP3    H238525   7.537   2.580   4.299
12862TIP3   OH238526   1.205   2.542   6.705
12862TIP3    H138527   1.145   2.543   6.630
12862TIP3    H238528   1.152   2.569   6.779
12863TIP3   OH238529   5.485   3.177   2.902
12863TIP3    H138530   5.496   3.224   2.985
12863TIP3    H238531   5.409   3.217   2.860
12864TIP3   OH238532   4.821   0.547   2.185
12864TIP3    H138533   4.749   0.514   2.239
12864TIP3    H238534   4.856   0.470   2.142
12865TIP3   OH238535   4.460   6.117   5.543
12865TIP3    H138536   4.431   6.060   5.615
12865TIP3    H238537   4.487   6.057   5.474
12866TIP3   OH238538   7.186   7.408   4.480
12866TIP3    H138539   7.191   7.420   4.385
12866TIP3    H238540   7.195   7.313   4.491
12867TIP3   OH238541   1.205   4.394   6.726
12867TIP3    H138542   1.259   4.316   6.733
12867TIP3    H238543   1.179   4.414   6.816
12868TIP3   OH238544   3.809   4.374   2.624
12868TIP3    H138545   3.885   4.377   2.566
12868TIP3    H238546   3.824   4.299   2.681
12869TIP3   OH238547   8.088   3.380   1.250
12869TIP3    H138548   8.084   3.405   1.343
12869TIP3    H238549   8.149   3.442   1.210
12870TIP3   OH238550   8.297   2.583   4.666
12870TIP3    H138551   8.226   2.538   4.621
12870TIP3    H238552   8.278   2.573   4.759
12871TIP3   OH238553   8.059   3.403   1.521
12871TIP3    H138554   8.082   3.315   1.549
12871TIP3    H238555   7.966   3.411   1.539
12872TIP3   OH238556   6.744   6.336   2.624
12872TIP3    H138557   6.806   6.396   2.667
12872TIP3    H238558   6.765   6.250   2.661
12873TIP3   OH238559   4.557   1.852   2.102
12873TIP3    H138560   4.584   1.821   2.016
12873TIP3    H238561   4.467   1.822   2.111
12874TIP3   OH238562   4.646   3.447   0.756
12874TIP3    H138563   4.695   3.400   0.689
12874TIP3    H238564   4.636   3.384   0.828
12875TIP3   OH238565   0.303   5.856   5.315
12875TIP3    H138566   0.221   5.809   5.329
12875TIP3    H238567   0.370   5.787   5.311
12876TIP3   OH238568   3.191   0.273   1.127
12876TIP3    H138569   3.269   0.218   1.135
12876TIP3    H238570   3.217   0.357   1.164
12877TIP3   OH238571   0.675   7.339   1.851
12877TIP3    H138572   0.601   7.371   1.800
12877TIP3    H238573   0.753   7.368   1.802
12878TIP3   OH238574   0.066   0.798   5.626
12878TIP3    H138575   0.063   0.886   5.589
12878TIP3    H238576   0.142   0.757   5.585
12879TIP3   OH238577   6.549   3.806   0.794
12879TIP3    H138578   6.459   3.822   0.767
12879TIP3    H238579   6.563   3.865   0.868
12880TIP3   OH238580   3.948   7.387   0.780
12880TIP3    H138581   3.924   7.411   0.869
12880TIP3    H238582   3.874   7.334   0.749
12881TIP3   OH238583   8.212   1.357   3.237
12881TIP3    H138584   8.211   1.266   3.208
12881TIP3    H238585   8.281   1.398   3.185
12882TIP3   OH238586   0.144   6.954   1.242
12882TIP3    H138587   0.192   6.871   1.244
12882TIP3    H238588   0.134   6.974   1.149
12883TIP3   OH238589   5.213   3.311   1.278
12883TIP3    H138590   5.216   3.299   1.183
12883TIP3    H238591   5.275   3.247   1.313
12884TIP3   OH238592   2.607   3.557   4.580
12884TIP3    H138593   2.631   3.612   4.654
12884TIP3    H238594   2.514   3.574   4.566
12885TIP3   OH238595   6.580   4.091   2.501
12885TIP3    H138596   6.593   4.147   2.577
12885TIP3    H238597   6.649   4.025   2.507
12886TIP3   OH238598   3.517   4.172   3.522
12886TIP3    H138599   3.570   4.106   3.476
12886TIP3    H238600   3.432   4.129   3.534
12887TIP3   OH238601   8.337   6.746   2.880
12887TIP3    H138602   8.427   6.775   2.865
12887TIP3    H238603   8.287   6.827   2.892
12888TIP3   OH238604   2.903   5.189   6.257
12888TIP3    H138605   2.895   5.226   6.344
12888TIP3    H238606   2.993   5.158   6.252
12889TIP3   OH238607   4.868   5.242   0.452
12889TIP3    H138608   4.882   5.222   0.359
12889TIP3    H238609   4.779   5.276   0.456
12890TIP3   OH238610   1.581   0.744   5.240
12890TIP3    H138611   1.531   0.706   5.312
12890TIP3    H238612   1.633   0.672   5.206
12891TIP3   OH238613   4.915   0.386   6.043
12891TIP3    H138614   4.832   0.371   6.087
12891TIP3    H238615   4.903   0.354   5.954
12892TIP3   OH238616   3.015   3.350   4.050
12892TIP3    H138617   3.032   3.443   4.035
12892TIP3    H238618   3.068   3.305   3.983
12893TIP3   OH238619   6.245   0.034   6.733
12893TIP3    H138620   6.281   0.084   6.659
12893TIP3    H238621   6.283   0.075   6.810
12894TIP3   OH238622   3.079   7.579   6.223
12894TIP3    H138623   3.110   7.668   6.207
12894TIP3    H238624   3.115   7.528   6.150
12895TIP3   OH238625   4.767   3.926   5.979
12895TIP3    H138626   4.787   3.832   5.979
12895TIP3    H238627   4.689   3.934   5.924
12896TIP3   OH238628   0.140   6.706   6.090
12896TIP3    H138629   0.082   6.678   6.162
12896TIP3    H238630   0.135   6.801   6.090
12897TIP3   OH238631   5.360   2.934   1.093
12897TIP3    H138632   5.364   2.966   1.183
12897TIP3    H238633   5.358   3.014   1.040
12898TIP3   OH238634   1.751   7.533   2.881
12898TIP3    H138635   1.740   7.496   2.968
12898TIP3    H238636   1.845   7.531   2.866
12899TIP3   OH238637   2.009   1.392   1.157
12899TIP3    H138638   2.051   1.318   1.112
12899TIP3    H238639   2.011   1.368   1.250
12900TIP3   OH238640   4.834   5.861   1.489
12900TIP3    H138641   4.765   5.871   1.554
12900TIP3    H238642   4.809   5.784   1.439
12901TIP3   OH238643   2.135   7.024   0.367
12901TIP3    H138644   2.149   7.107   0.414
12901TIP3    H238645   2.136   7.049   0.275
12902TIP3   OH238646   2.505   7.656   1.357
12902TIP3    H138647   2.527   7.748   1.340
12902TIP3    H238648   2.517   7.613   1.272
12903TIP3   OH238649   1.972   7.016   5.801
12903TIP3    H138650   2.001   7.031   5.712
12903TIP3    H238651   2.009   7.088   5.852
12904TIP3   OH238652   5.432   7.341   0.093
12904TIP3    H138653   5.406   7.404   0.160
12904TIP3    H238654   5.349   7.314   0.053
12905TIP3   OH238655   1.666   0.784   1.985
12905TIP3    H138656   1.632   0.856   1.933
12905TIP3    H238657   1.743   0.821   2.030
12906TIP3   OH238658   2.333   1.572   1.759
12906TIP3    H138659   2.309   1.661   1.786
12906TIP3    H238660   2.393   1.585   1.686
12907TIP3   OH238661   3.360   4.853   6.116
12907TIP3    H138662   3.362   4.896   6.202
12907TIP3    H238663   3.441   4.802   6.113
12908TIP3   OH238664   7.868   1.928   5.700
12908TIP3    H138665   7.850   1.863   5.633
12908TIP3    H238666   7.839   1.887   5.782
12909TIP3   OH238667   3.514   0.291   4.110
12909TIP3    H138668   3.594   0.257   4.071
12909TIP3    H238669   3.537   0.380   4.138
12910TIP3   OH238670   3.451   7.610   0.408
12910TIP3    H138671   3.452   7.681   0.472
12910TIP3    H238672   3.363   7.573   0.415
12911TIP3   OH238673   7.951   5.825   4.524
12911TIP3    H138674   7.951   5.921   4.518
12911TIP3    H238675   7.988   5.796   4.441
12912TIP3   OH238676   8.131   7.902   4.686
12912TIP3    H138677   8.040   7.928   4.677
12912TIP3    H238678   8.133   7.811   4.655
12913TIP3   OH238679   7.756   1.591   6.417
12913TIP3    H138680   7.815   1.666   6.417
12913TIP3    H238681   7.769   1.550   6.502
12914TIP3   OH238682   0.021   0.515   0.803
12914TIP3    H138683   0.083   0.448   0.775
12914TIP3    H238684  -0.030   0.473   0.872
12915TIP3   OH238685   3.079   3.156   4.280
12915TIP3    H138686   3.109   3.212   4.208
12915TIP3    H238687   3.142   3.084   4.283
12916TIP3   OH238688   8.024   2.242   4.204
12916TIP3    H138689   8.081   2.283   4.269
12916TIP3    H238690   8.073   2.165   4.174
12917TIP3   OH238691   3.617   7.750   2.926
12917TIP3    H138692   3.639   7.669   2.971
12917TIP3    H238693   3.540   7.728   2.874
12918TIP3   OH238694   0.868   0.599   3.128
12918TIP3    H138695   0.869   0.621   3.222
12918TIP3    H238696   0.850   0.505   3.127
12919TIP3   OH238697   5.091   7.406   3.713
12919TIP3    H138698   5.069   7.489   3.755
12919TIP3    H238699   5.054   7.339   3.770
12920TIP3   OH238700   8.370   5.685   4.323
12920TIP3    H138701   8.452   5.664   4.368
12920TIP3    H238702   8.334   5.758   4.374
12921TIP3   OH238703   8.067   0.984   2.410
12921TIP3    H138704   8.022   0.973   2.326
12921TIP3    H238705   8.063   1.078   2.426
12922TIP3   OH238706   2.267   4.195   0.271
12922TIP3    H138707   2.212   4.139   0.327
12922TIP3    H238708   2.214   4.273   0.256
12923TIP3   OH238709   6.072   6.300   0.557
12923TIP3    H138710   6.064   6.322   0.464
12923TIP3    H238711   5.998   6.241   0.574
12924TIP3   OH238712   1.404   0.378   5.391
12924TIP3    H138713   1.491   0.416   5.407
12924TIP3    H238714   1.350   0.410   5.463
12925TIP3   OH238715   4.499   4.880   2.525
12925TIP3    H138716   4.503   4.853   2.617
12925TIP3    H238717   4.437   4.953   2.524
12926TIP3   OH238718   2.587   6.769   1.897
12926TIP3    H138719   2.587   6.698   1.832
12926TIP3    H238720   2.655   6.744   1.959
12927TIP3   OH238721   7.291   6.597   1.440
12927TIP3    H138722   7.368   6.542   1.428
12927TIP3    H238723   7.271   6.590   1.533
12928TIP3   OH238724   6.664   0.998   5.466
12928TIP3    H138725   6.678   1.075   5.520
12928TIP3    H238726   6.571   1.001   5.442
12929TIP3   OH238727   0.011   6.504   4.797
12929TIP3    H138728  -0.027   6.439   4.856
12929TIP3    H238729   0.094   6.465   4.769
12930TIP3   OH238730   2.812   0.288   2.253
12930TIP3    H138731   2.907   0.291   2.261
12930TIP3    H238732   2.780   0.334   2.331
12931TIP3   OH238733   2.908   3.536   3.436
12931TIP3    H138734   2.846   3.534   3.509
12931TIP3    H238735   2.931   3.444   3.421
12932TIP3   OH238736   6.529   5.156   4.464
12932TIP3    H138737   6.553   5.149   4.556
12932TIP3    H238738   6.541   5.248   4.442
12933TIP3   OH238739   3.591   0.428   3.475
12933TIP3    H138740   3.548   0.357   3.523
12933TIP3    H238741   3.529   0.449   3.404
12934TIP3   OH238742   5.969   7.498   6.470
12934TIP3    H138743   6.062   7.515   6.485
12934TIP3    H238744   5.938   7.463   6.554
12935TIP3   OH238745   2.112   4.110   5.702
12935TIP3    H138746   2.162   4.055   5.642
12935TIP3    H238747   2.144   4.198   5.686
12936TIP3   OH238748   2.652   1.568   5.325
12936TIP3    H138749   2.613   1.653   5.347
12936TIP3    H238750   2.747   1.584   5.326
12937TIP3   OH238751   0.706   0.270   5.765
12937TIP3    H138752   0.636   0.284   5.701
12937TIP3    H238753   0.662   0.234   5.842
12938TIP3   OH238754   6.979   7.897   2.377
12938TIP3    H138755   7.017   7.984   2.386
12938TIP3    H238756   6.892   7.905   2.417
12939TIP3   OH238757   6.789   7.124   3.461
12939TIP3    H138758   6.762   7.214   3.483
12939TIP3    H238759   6.766   7.073   3.539
12940TIP3   OH238760   0.494   3.303   5.297
12940TIP3    H138761   0.453   3.389   5.292
12940TIP3    H238762   0.531   3.288   5.210
12941TIP3   OH238763   1.947   1.851   5.784
12941TIP3    H138764   1.983   1.772   5.823
12941TIP3    H238765   1.875   1.876   5.841
12942TIP3   OH238766   7.188   5.413   5.481
12942TIP3    H138767   7.166   5.389   5.391
12942TIP3    H238768   7.240   5.493   5.472
12943TIP3   OH238769   4.802   6.126   4.515
12943TIP3    H138770   4.771   6.068   4.445
12943TIP3    H238771   4.840   6.201   4.468
12944TIP3   OH238772   2.769   6.387   1.478
12944TIP3    H138773   2.828   6.345   1.541
12944TIP3    H238774   2.699   6.424   1.531
12945TIP3   OH238775   1.941   6.458   5.839
12945TIP3    H138776   1.948   6.551   5.817
12945TIP3    H238777   1.965   6.412   5.759
12946TIP3   OH238778   0.021   2.773   6.583
12946TIP3    H138779   0.000   2.825   6.505
12946TIP3    H238780   0.108   2.803   6.609
12947TIP3   OH238781   3.794   1.348   5.581
12947TIP3    H138782   3.707   1.379   5.606
12947TIP3    H238783   3.783   1.254   5.568
12948TIP3   OH238784   2.135   2.091   2.939
12948TIP3    H138785   2.059   2.144   2.960
12948TIP3    H238786   2.137   2.024   3.007
12949TIP3   OH238787   2.026   5.955   3.773
12949TIP3    H138788   1.988   5.892   3.712
12949TIP3    H238789   2.090   5.905   3.823
12950TIP3   OH238790   2.882   2.226   2.445
12950TIP3    H138791   2.796   2.241   2.404
12950TIP3    H238792   2.938   2.295   2.408
12951TIP3   OH238793   3.413   6.726   4.771
12951TIP3    H138794   3.409   6.806   4.824
12951TIP3    H238795   3.482   6.744   4.707
12952TIP3   OH238796   5.643   2.844   6.343
12952TIP3    H138797   5.669   2.886   6.261
12952TIP3    H238798   5.549   2.861   6.350
12953TIP3   OH238799   0.089   1.658   6.042
12953TIP3    H138800   0.161   1.719   6.060
12953TIP3    H238801   0.013   1.699   6.084
12954TIP3   OH238802   7.462   3.205   0.911
12954TIP3    H138803   7.522   3.130   0.919
12954TIP3    H238804   7.509   3.277   0.953
12955TIP3   OH238805   0.786   7.571   3.964
12955TIP3    H138806   0.799   7.522   4.045
12955TIP3    H238807   0.804   7.509   3.894
12956TIP3   OH238808   5.095   3.970   1.380
12956TIP3    H138809   5.004   3.986   1.358
12956TIP3    H238810   5.093   3.898   1.444
12957TIP3   OH238811   2.404   7.230   3.845
12957TIP3    H138812   2.370   7.150   3.886
12957TIP3    H238813   2.331   7.263   3.793
12958TIP3   OH238814   2.500   4.926   4.369
12958TIP3    H138815   2.522   4.975   4.448
12958TIP3    H238816   2.465   4.843   4.400
12959TIP3   OH238817   4.069   0.039   0.839
12959TIP3    H138818   4.104   0.122   0.805
12959TIP3    H238819   4.076   0.048   0.934
12960TIP3   OH238820   4.666   4.598   5.944
12960TIP3    H138821   4.700   4.682   5.973
12960TIP3    H238822   4.575   4.598   5.971
12961TIP3   OH238823   0.181   6.510   6.783
12961TIP3    H138824   0.246   6.574   6.755
12961TIP3    H238825   0.130   6.555   6.850
12962TIP3   OH238826   7.183   3.810   2.936
12962TIP3    H138827   7.183   3.814   3.032
12962TIP3    H238828   7.243   3.879   2.909
12963TIP3   OH238829   1.049   2.471   1.084
12963TIP3    H138830   1.113   2.466   1.012
12963TIP3    H238831   1.089   2.531   1.147
12964TIP3   OH238832   6.086   5.242   5.376
12964TIP3    H138833   5.999   5.256   5.414
12964TIP3    H238834   6.143   5.223   5.451
12965TIP3   OH238835   1.629   4.860   6.481
12965TIP3    H138836   1.606   4.951   6.497
12965TIP3    H238837   1.680   4.861   6.401
12966TIP3   OH238838   7.422   5.013   0.942
12966TIP3    H138839   7.384   5.097   0.967
12966TIP3    H238840   7.428   5.017   0.846
12967TIP3   OH238841   4.846   3.875   2.001
12967TIP3    H138842   4.933   3.839   2.015
12967TIP3    H238843   4.804   3.816   1.938
12968TIP3   OH238844   1.171   2.712   4.116
12968TIP3    H138845   1.194   2.766   4.041
12968TIP3    H238846   1.224   2.633   4.105
12969TIP3   OH238847   5.589   1.176   1.875
12969TIP3    H138848   5.559   1.265   1.894
12969TIP3    H238849   5.655   1.157   1.942
12970TIP3   OH238850   4.417   1.800   6.235
12970TIP3    H138851   4.381   1.711   6.239
12970TIP3    H238852   4.427   1.818   6.141
12971TIP3   OH238853   2.820   4.182   2.596
12971TIP3    H138854   2.915   4.196   2.602
12971TIP3    H238855   2.808   4.089   2.611
12972TIP3   OH238856   5.098   2.994   6.607
12972TIP3    H138857   5.025   2.948   6.648
12972TIP3    H238858   5.175   2.941   6.628
12973TIP3   OH238859   4.543   0.252   3.975
12973TIP3    H138860   4.560   0.219   4.063
12973TIP3    H238861   4.543   0.347   3.985
12974TIP3   OH238862   0.188   1.373   6.839
12974TIP3    H138863   0.122   1.381   6.907
12974TIP3    H238864   0.271   1.368   6.887
12975TIP3   OH238865   4.392   7.905   1.403
12975TIP3    H138866   4.342   7.940   1.329
12975TIP3    H238867   4.452   7.841   1.364
12976TIP3   OH238868   2.093   5.632   4.748
12976TIP3    H138869   2.072   5.716   4.708
12976TIP3    H238870   2.141   5.584   4.680
12977TIP3   OH238871   0.810   5.925   0.121
12977TIP3    H138872   0.740   5.958   0.065
12977TIP3    H238873   0.773   5.929   0.210
12978TIP3   OH238874   5.098   6.851   6.117
12978TIP3    H138875   5.128   6.790   6.185
12978TIP3    H238876   5.140   6.934   6.139
12979TIP3   OH238877   1.520   0.551   4.827
12979TIP3    H138878   1.489   0.489   4.892
12979TIP3    H238879   1.474   0.632   4.847
12980TIP3   OH238880   4.617   3.434   2.007
12980TIP3    H138881   4.618   3.513   2.061
12980TIP3    H238882   4.668   3.458   1.929
12981TIP3   OH238883   0.079   4.953   0.737
12981TIP3    H138884   0.145   4.962   0.807
12981TIP3    H238885   0.070   4.858   0.726
12982TIP3   OH238886   3.136   0.605   3.933
12982TIP3    H138887   3.165   0.695   3.921
12982TIP3    H238888   3.178   0.556   3.861
12983TIP3   OH238889   7.184   5.557   3.477
12983TIP3    H138890   7.177   5.647   3.507
12983TIP3    H238891   7.171   5.562   3.383
12984TIP3   OH238892   4.240   6.343   4.946
12984TIP3    H138893   4.333   6.321   4.934
12984TIP3    H238894   4.209   6.366   4.859
12985TIP3   OH238895   7.137   4.176   0.929
12985TIP3    H138896   7.220   4.198   0.972
12985TIP3    H238897   7.070   4.210   0.987
12986TIP3   OH238898   5.000   5.943   4.649
12986TIP3    H138899   4.980   5.920   4.740
12986TIP3    H238900   4.933   6.007   4.626
12987TIP3   OH238901   0.483   1.452   3.144
12987TIP3    H138902   0.556   1.471   3.202
12987TIP3    H238903   0.480   1.356   3.139
12988TIP3   OH238904   8.075   7.587   1.001
12988TIP3    H138905   8.042   7.501   1.026
12988TIP3    H238906   7.997   7.641   0.990
12989TIP3   OH238907   6.049   7.554   5.006
12989TIP3    H138908   6.120   7.613   4.981
12989TIP3    H238909   6.024   7.511   4.924
12990TIP3   OH238910   6.388   7.524   0.213
12990TIP3    H138911   6.448   7.560   0.278
12990TIP3    H238912   6.320   7.590   0.204
12991TIP3   OH238913   5.366   7.807   0.489
12991TIP3    H138914   5.318   7.725   0.479
12991TIP3    H238915   5.455   7.786   0.460
12992TIP3   OH238916   4.855   3.093   0.291
12992TIP3    H138917   4.922   3.161   0.299
12992TIP3    H238918   4.810   3.112   0.209
12993TIP3   OH238919   3.001   4.453   2.822
12993TIP3    H138920   2.988   4.389   2.892
12993TIP3    H238921   3.082   4.426   2.779
12994TIP3   OH238922   8.359   3.582   3.985
12994TIP3    H138923   8.278   3.531   3.980
12994TIP3    H238924   8.426   3.517   4.005
12995TIP3   OH238925   5.656   7.732   1.849
12995TIP3    H138926   5.588   7.671   1.875
12995TIP3    H238927   5.625   7.817   1.878
12996TIP3   OH238928   5.261   5.322   4.431
12996TIP3    H138929   5.226   5.264   4.363
12996TIP3    H238930   5.233   5.282   4.513
12997TIP3   OH238931   4.501   6.266   5.249
12997TIP3    H138932   4.443   6.192   5.227
12997TIP3    H238933   4.499   6.321   5.171
12998TIP3   OH238934   1.105   1.870   1.292
12998TIP3    H138935   1.137   1.819   1.217
12998TIP3    H238936   1.127   1.816   1.368
12999TIP3   OH238937   1.753   3.810   6.183
12999TIP3    H138938   1.824   3.765   6.137
12999TIP3    H238939   1.748   3.766   6.268
13000TIP3   OH238940   6.611   1.795   3.380
13000TIP3    H138941   6.627   1.704   3.355
13000TIP3    H238942   6.584   1.790   3.472
13001TIP3   OH238943   4.116   0.287   0.744
13001TIP3    H138944   4.116   0.344   0.821
13001TIP3    H238945   4.122   0.347   0.670
13002TIP3   OH238946   0.464   7.086   2.753
13002TIP3    H138947   0.467   7.173   2.715
13002TIP3    H238948   0.411   7.035   2.691
13003TIP3   OH238949   1.354   1.013   4.356
13003TIP3    H138950   1.270   1.015   4.400
13003TIP3    H238951   1.395   1.096   4.378
13004TIP3   OH238952   6.020   2.939   5.772
13004TIP3    H138953   5.974   2.859   5.799
13004TIP3    H238954   6.098   2.907   5.727
13005TIP3   OH238955   5.678   0.253   2.808
13005TIP3    H138956   5.679   0.322   2.741
13005TIP3    H238957   5.711   0.296   2.886
13006TIP3   OH238958   1.140   5.076   3.166
13006TIP3    H138959   1.106   5.119   3.087
13006TIP3    H238960   1.209   5.018   3.133
13007TIP3   OH238961   0.869   1.297   6.558
13007TIP3    H138962   0.874   1.202   6.572
13007TIP3    H238963   0.956   1.321   6.528
13008TIP3   OH238964   3.519   6.149   6.684
13008TIP3    H138965   3.504   6.064   6.727
13008TIP3    H238966   3.510   6.130   6.590
13009TIP3   OH238967   2.532   7.272   0.039
13009TIP3    H138968   2.601   7.206   0.037
13009TIP3    H238969   2.480   7.255  -0.040
13010TIP3   OH238970   2.654   6.448   0.156
13010TIP3    H138971   2.694   6.385   0.096
13010TIP3    H238972   2.604   6.394   0.217
13011TIP3   OH238973   6.683   4.051   2.134
13011TIP3    H138974   6.674   4.082   2.044
13011TIP3    H238975   6.702   4.130   2.185
13012TIP3   OH238976   5.918   1.480   4.388
13012TIP3    H138977   5.841   1.471   4.443
13012TIP3    H238978   5.956   1.392   4.385
13013TIP3   OH238979   7.856   5.511   6.322
13013TIP3    H138980   7.830   5.552   6.239
13013TIP3    H238981   7.944   5.476   6.304
13014TIP3   OH238982   4.335   5.062   2.431
13014TIP3    H138983   4.389   5.121   2.377
13014TIP3    H238984   4.251   5.059   2.386
13015TIP3   OH238985   4.226   4.726   0.163
13015TIP3    H138986   4.174   4.696   0.238
13015TIP3    H238987   4.295   4.780   0.202
13016TIP3   OH238988   6.981   1.992   6.277
13016TIP3    H138989   6.981   2.084   6.300
13016TIP3    H238990   6.942   1.948   6.353
13017TIP3   OH238991   8.336   2.926   5.594
13017TIP3    H138992   8.305   2.869   5.665
13017TIP3    H238993   8.424   2.894   5.575
13018TIP3   OH238994   5.921   0.722   1.137
13018TIP3    H138995   5.873   0.687   1.062
13018TIP3    H238996   5.875   0.685   1.213
13019TIP3   OH238997   6.102   5.266   0.172
13019TIP3    H138998   6.120   5.212   0.249
13019TIP3    H238999   6.043   5.334   0.203
13020TIP3   OH239000   4.186   2.069   2.787
13020TIP3    H139001   4.109   2.099   2.738
13020TIP3    H239002   4.207   2.142   2.846
13021TIP3   OH239003   6.036   1.053   6.722
13021TIP3    H139004   6.098   0.985   6.748
13021TIP3    H239005   6.086   1.134   6.729
13022TIP3   OH239006   4.835   4.750   3.932
13022TIP3    H139007   4.891   4.672   3.938
13022TIP3    H239008   4.895   4.821   3.912
13023TIP3   OH239009   0.431   2.387   2.460
13023TIP3    H139010   0.412   2.345   2.376
13023TIP3    H239011   0.525   2.406   2.457
13024TIP3   OH239012   3.788   3.768   4.187
13024TIP3    H139013   3.792   3.678   4.219
13024TIP3    H239014   3.790   3.760   4.091
13025TIP3   OH239015   3.643   2.083   2.424
13025TIP3    H139016   3.718   2.045   2.378
13025TIP3    H239017   3.610   2.150   2.364
13026TIP3   OH239018   8.153   6.341   4.015
13026TIP3    H139019   8.202   6.259   4.018
13026TIP3    H239020   8.063   6.316   3.997
13027TIP3   OH239021   2.269   4.232   2.399
13027TIP3    H139022   2.303   4.308   2.352
13027TIP3    H239023   2.241   4.267   2.484
13028TIP3   OH239024   2.632   6.735   0.843
13028TIP3    H139025   2.686   6.656   0.855
13028TIP3    H239026   2.673   6.800   0.900
13029TIP3   OH239027   0.561   7.341   1.233
13029TIP3    H139028   0.511   7.286   1.293
13029TIP3    H239029   0.626   7.281   1.195
13030TIP3   OH239030   1.915   2.146   2.004
13030TIP3    H139031   1.893   2.218   1.945
13030TIP3    H239032   2.002   2.118   1.977
13031TIP3   OH239033   6.901   2.357   2.972
13031TIP3    H139034   6.869   2.438   2.933
13031TIP3    H239035   6.989   2.377   3.003
13032TIP3   OH239036   6.640   3.017   0.493
13032TIP3    H139037   6.578   3.073   0.539
13032TIP3    H239038   6.636   3.047   0.402
13033TIP3   OH239039   7.901   3.105   6.714
13033TIP3    H139040   7.985   3.060   6.718
13033TIP3    H239041   7.836   3.035   6.722
13034TIP3   OH239042   4.550   0.706   2.431
13034TIP3    H139043   4.546   0.713   2.336
13034TIP3    H239044   4.522   0.616   2.449
13035TIP3   OH239045   5.343   1.361   3.405
13035TIP3    H139046   5.394   1.441   3.417
13035TIP3    H239047   5.390   1.313   3.338
13036TIP3   OH239048   0.697   2.739   6.754
13036TIP3    H139049   0.701   2.644   6.766
13036TIP3    H239050   0.664   2.750   6.665
13037TIP3   OH239051   6.800   0.059   4.732
13037TIP3    H139052   6.729  -0.003   4.713
13037TIP3    H239053   6.760   0.145   4.722
13038TIP3   OH239054   1.294   1.730   4.887
13038TIP3    H139055   1.288   1.641   4.921
13038TIP3    H239056   1.205   1.763   4.891
13039TIP3   OH239057   6.270   1.086   2.909
13039TIP3    H139058   6.287   1.004   2.956
13039TIP3    H239059   6.341   1.093   2.846
13040TIP3   OH239060   4.235   5.231   0.876
13040TIP3    H139061   4.208   5.231   0.784
13040TIP3    H239062   4.235   5.139   0.901
13041TIP3   OH239063   1.187   5.250   6.728
13041TIP3    H139064   1.209   5.156   6.726
13041TIP3    H239065   1.129   5.259   6.804
13042TIP3   OH239066   8.036   5.354   5.024
13042TIP3    H139067   8.031   5.286   4.957
13042TIP3    H239068   8.017   5.309   5.106
13043TIP3   OH239069   0.876   1.979   3.282
13043TIP3    H139070   0.865   2.067   3.319
13043TIP3    H239071   0.950   1.987   3.221
13044TIP3   OH239072   1.817   6.062   4.115
13044TIP3    H139073   1.762   6.048   4.038
13044TIP3    H239074   1.846   5.974   4.140
13045TIP3   OH239075   7.007   1.644   4.976
13045TIP3    H139076   7.093   1.635   4.933
13045TIP3    H239077   6.952   1.686   4.910
13046TIP3   OH239078   5.093   4.765   0.034
13046TIP3    H139079   5.031   4.739   0.102
13046TIP3    H239080   5.162   4.812   0.081
13047TIP3   OH239081   1.064   4.309   1.988
13047TIP3    H139082   1.047   4.377   2.054
13047TIP3    H239083   1.140   4.262   2.021
13048TIP3   OH239084   3.006   3.514   0.684
13048TIP3    H139085   3.076   3.463   0.645
13048TIP3    H239086   2.931   3.454   0.686
13049TIP3   OH239087   0.161   3.036   1.911
13049TIP3    H139088   0.146   3.021   1.818
13049TIP3    H239089   0.121   3.121   1.928
13050TIP3   OH239090   4.030   7.670   4.769
13050TIP3    H139091   4.056   7.708   4.853
13050TIP3    H239092   4.106   7.682   4.712
13051TIP3   OH239093   5.181   4.743   6.513
13051TIP3    H139094   5.128   4.679   6.559
13051TIP3    H239095   5.236   4.782   6.581
13052TIP3   OH239096   1.065   0.123   1.097
13052TIP3    H139097   1.124   0.157   1.165
13052TIP3    H239098   0.995   0.081   1.146
13053TIP3   OH239099   0.376   0.418   2.741
13053TIP3    H139100   0.427   0.438   2.662
13053TIP3    H239101   0.301   0.478   2.736
13054TIP3   OH239102   5.982   7.462   6.737
13054TIP3    H139103   6.054   7.401   6.754
13054TIP3    H239104   5.954   7.489   6.824
13055TIP3   OH239105   6.506   0.536   0.089
13055TIP3    H139106   6.457   0.480   0.029
13055TIP3    H239107   6.516   0.484   0.168
13056TIP3   OH239108   6.508   5.610   1.565
13056TIP3    H139109   6.432   5.596   1.509
13056TIP3    H239110   6.514   5.706   1.573
13057TIP3   OH239111   4.553   5.453   3.759
13057TIP3    H139112   4.553   5.400   3.679
13057TIP3    H239113   4.645   5.476   3.772
13058TIP3   OH239114   4.168   6.591   2.053
13058TIP3    H139115   4.250   6.542   2.057
13058TIP3    H239116   4.108   6.531   2.008
13059TIP3   OH239117   2.719   6.493   6.635
13059TIP3    H139118   2.752   6.447   6.557
13059TIP3    H239119   2.753   6.582   6.625
13060TIP3   OH239120   7.487   7.526   4.320
13060TIP3    H139121   7.577   7.531   4.351
13060TIP3    H239122   7.445   7.603   4.357
13061TIP3   OH239123   6.022   3.330   5.682
13061TIP3    H139124   6.077   3.273   5.735
13061TIP3    H239125   5.957   3.272   5.643
13062TIP3   OH239126   0.421   4.987   0.518
13062TIP3    H139127   0.382   4.912   0.563
13062TIP3    H239128   0.349   5.022   0.465
13063TIP3   OH239129   4.364   5.497   0.620
13063TIP3    H139130   4.374   5.557   0.547
13063TIP3    H239131   4.420   5.422   0.598
13064TIP3   OH239132   2.881   4.378   2.226
13064TIP3    H139133   2.865   4.455   2.281
13064TIP3    H239134   2.798   4.331   2.228
13065TIP3   OH239135   0.846   6.177   3.269
13065TIP3    H139136   0.780   6.200   3.333
13065TIP3    H239137   0.836   6.082   3.258
13066TIP3   OH239138   0.910   3.883   2.707
13066TIP3    H139139   0.893   3.866   2.800
13066TIP3    H239140   0.997   3.848   2.692
13067TIP3   OH239141   6.139   6.004   2.696
13067TIP3    H139142   6.110   5.932   2.639
13067TIP3    H239143   6.129   6.082   2.643
13068TIP3   OH239144   1.869   7.353   0.872
13068TIP3    H139145   1.915   7.391   0.948
13068TIP3    H239146   1.915   7.388   0.796
13069TIP3   OH239147   7.971   0.895   5.843
13069TIP3    H139148   7.956   0.801   5.853
13069TIP3    H239149   7.905   0.936   5.900
13070TIP3   OH239150   3.620   4.075   2.923
13070TIP3    H139151   3.595   4.087   3.015
13070TIP3    H239152   3.615   3.980   2.909
13071TIP3   OH239153   3.814   2.594   6.348
13071TIP3    H139154   3.765   2.579   6.429
13071TIP3    H239155   3.812   2.510   6.303
13072TIP3   OH239156   1.656   6.550   6.476
13072TIP3    H139157   1.627   6.460   6.493
13072TIP3    H239158   1.638   6.597   6.557
13073TIP3   OH239159   6.078   6.390   4.919
13073TIP3    H139160   6.148   6.417   4.860
13073TIP3    H239161   6.005   6.450   4.898
13074TIP3   OH239162   1.461   6.845   4.877
13074TIP3    H139163   1.484   6.768   4.825
13074TIP3    H239164   1.369   6.832   4.900
13075TIP3   OH239165   3.350   5.448   6.504
13075TIP3    H139166   3.341   5.505   6.427
13075TIP3    H239167   3.301   5.494   6.573
13076TIP3   OH239168   0.606   3.090   2.200
13076TIP3    H139169   0.528   3.145   2.198
13076TIP3    H239170   0.679   3.151   2.184
13077TIP3   OH239171   3.271   1.924   3.851
13077TIP3    H139172   3.264   1.937   3.946
13077TIP3    H239173   3.234   1.838   3.835
13078TIP3   OH239174   3.843   3.516   5.824
13078TIP3    H139175   3.851   3.423   5.803
13078TIP3    H239176   3.776   3.520   5.892
13079TIP3   OH239177   3.061   4.442   1.476
13079TIP3    H139178   3.044   4.417   1.385
13079TIP3    H239179   3.154   4.464   1.479
13080TIP3   OH239180   6.110   3.683   4.681
13080TIP3    H139181   6.098   3.589   4.682
13080TIP3    H239182   6.199   3.696   4.647
13081TIP3   OH239183   2.024   3.724   4.953
13081TIP3    H139184   2.037   3.766   5.037
13081TIP3    H239185   2.065   3.638   4.963
13082TIP3   OH239186   3.345   5.693   5.514
13082TIP3    H139187   3.308   5.641   5.443
13082TIP3    H239188   3.412   5.636   5.554
13083TIP3   OH239189   6.047   6.744   4.656
13083TIP3    H139190   6.004   6.779   4.734
13083TIP3    H239191   6.121   6.693   4.689
13084TIP3   OH239192   3.101   1.293   4.182
13084TIP3    H139193   3.160   1.300   4.107
13084TIP3    H239194   3.016   1.320   4.147
13085TIP3   OH239195   5.752   3.406   6.591
13085TIP3    H139196   5.733   3.377   6.502
13085TIP3    H239197   5.707   3.342   6.646
13086TIP3   OH239198   4.925   3.929   6.190
13086TIP3    H139199   4.833   3.925   6.163
13086TIP3    H239200   4.975   3.909   6.111
13087TIP3   OH239201   2.771   5.848   0.225
13087TIP3    H139202   2.790   5.908   0.298
13087TIP3    H239203   2.677   5.860   0.209
13088TIP3   OH239204   0.569   0.241   6.209
13088TIP3    H139205   0.554   0.199   6.294
13088TIP3    H239206   0.611   0.173   6.156
13089TIP3   OH239207   8.372   0.374   4.127
13089TIP3    H139208   8.299   0.428   4.156
13089TIP3    H239209   8.332   0.306   4.073
13090TIP3   OH239210   4.915   2.291   1.931
13090TIP3    H139211   4.879   2.246   1.854
13090TIP3    H239212   4.977   2.229   1.968
13091TIP3   OH239213   5.213   5.757   5.667
13091TIP3    H139214   5.215   5.799   5.580
13091TIP3    H239215   5.126   5.778   5.701
13092TIP3   OH239216   1.953   7.160   1.599
13092TIP3    H139217   1.863   7.132   1.619
13092TIP3    H239218   2.001   7.144   1.680
13093TIP3   OH239219   4.755   4.959   0.233
13093TIP3    H139220   4.704   5.020   0.180
13093TIP3    H239221   4.720   4.969   0.321
13094TIP3   OH239222   5.589   0.849   0.903
13094TIP3    H139223   5.577   0.905   0.981
13094TIP3    H239224   5.651   0.782   0.932
13095TIP3   OH239225   8.138   6.645   6.438
13095TIP3    H139226   8.141   6.662   6.533
13095TIP3    H239227   8.063   6.696   6.407
13096TIP3   OH239228   4.518   6.943   6.321
13096TIP3    H139229   4.610   6.968   6.318
13096TIP3    H239230   4.506   6.905   6.409
13097TIP3   OH239231   7.822   1.252   6.418
13097TIP3    H139232   7.831   1.300   6.501
13097TIP3    H239233   7.903   1.202   6.410
13098TIP3   OH239234   7.874   4.461   4.897
13098TIP3    H139235   7.925   4.431   4.822
13098TIP3    H239236   7.904   4.407   4.970
13099TIP3   OH239237   6.554   0.170   0.830
13099TIP3    H139238   6.500   0.190   0.754
13099TIP3    H239239   6.525   0.230   0.898
13100TIP3   OH239240   5.354   5.840   3.343
13100TIP3    H139241   5.269   5.797   3.335
13100TIP3    H239242   5.390   5.807   3.425
13101TIP3   OH239243   1.751   4.817   5.324
13101TIP3    H139244   1.701   4.779   5.397
13101TIP3    H239245   1.765   4.908   5.349
13102TIP3   OH239246   5.859   1.986   0.912
13102TIP3    H139247   5.773   1.944   0.907
13102TIP3    H239248   5.852   2.047   0.986
13103TIP3   OH239249   0.572   3.004   0.340
13103TIP3    H139250   0.651   3.057   0.344
13103TIP3    H239251   0.591   2.928   0.395
13104TIP3   OH239252   4.478   6.685   5.054
13104TIP3    H139253   4.496   6.761   4.998
13104TIP3    H239254   4.383   6.687   5.067
13105TIP3   OH239255   3.227   5.188   2.296
13105TIP3    H139256   3.137   5.165   2.322
13105TIP3    H239257   3.216   5.234   2.213
13106TIP3   OH239258   5.671   6.386   2.621
13106TIP3    H139259   5.683   6.464   2.566
13106TIP3    H239260   5.753   6.338   2.612
13107TIP3   OH239261   6.357   3.721   1.380
13107TIP3    H139262   6.351   3.675   1.464
13107TIP3    H239263   6.385   3.810   1.404
13108TIP3   OH239264   4.810   6.403   2.213
13108TIP3    H139265   4.786   6.473   2.152
13108TIP3    H239266   4.885   6.360   2.171
13109TIP3   OH239267   0.001   0.980   0.722
13109TIP3    H139268   0.077   0.926   0.743
13109TIP3    H239269  -0.015   1.030   0.802
13110TIP3   OH239270   2.761   5.184   3.847
13110TIP3    H139271   2.852   5.201   3.823
13110TIP3    H239272   2.752   5.089   3.836
13111TIP3   OH239273   6.226   4.162   4.471
13111TIP3    H139274   6.287   4.212   4.524
13111TIP3    H239275   6.147   4.154   4.525
13112TIP3   OH239276   4.969   4.003   5.709
13112TIP3    H139277   4.902   4.071   5.711
13112TIP3    H239278   4.962   3.961   5.795
13113TIP3   OH239279   4.374   2.180   5.263
13113TIP3    H139280   4.425   2.106   5.230
13113TIP3    H239281   4.439   2.247   5.286
13114TIP3   OH239282   3.082   2.492   5.190
13114TIP3    H139283   3.097   2.432   5.117
13114TIP3    H239284   2.989   2.514   5.185
13115TIP3   OH239285   7.173   3.135   0.861
13115TIP3    H139286   7.227   3.056   0.865
13115TIP3    H239287   7.224   3.201   0.909
13116TIP3   OH239288   5.228   5.784   2.529
13116TIP3    H139289   5.318   5.817   2.532
13116TIP3    H239290   5.230   5.714   2.464
13117TIP3   OH239291   1.489   2.856   4.825
13117TIP3    H139292   1.416   2.803   4.855
13117TIP3    H239293   1.567   2.804   4.845
13118TIP3   OH239294   5.038   2.479   6.362
13118TIP3    H139295   5.049   2.435   6.446
13118TIP3    H239296   5.072   2.417   6.297
13119TIP3   OH239297   6.565   4.493   3.620
13119TIP3    H139298   6.478   4.530   3.638
13119TIP3    H239299   6.621   4.569   3.606
13120TIP3   OH239300   0.829   1.713   0.484
13120TIP3    H139301   0.918   1.678   0.484
13120TIP3    H239302   0.837   1.800   0.444
13121TIP3   OH239303   3.826   1.791   4.515
13121TIP3    H139304   3.780   1.821   4.592
13121TIP3    H239305   3.761   1.794   4.445
13122TIP3   OH239306   3.171   3.471   5.406
13122TIP3    H139307   3.199   3.382   5.427
13122TIP3    H239308   3.253   3.519   5.391
13123TIP3   OH239309   2.650   2.240   2.893
13123TIP3    H139310   2.732   2.266   2.851
13123TIP3    H239311   2.582   2.270   2.832
13124TIP3   OH239312   3.906   2.401   4.942
13124TIP3    H139313   3.821   2.444   4.933
13124TIP3    H239314   3.969   2.467   4.914
13125TIP3   OH239315   2.857   0.462   1.179
13125TIP3    H139316   2.910   0.399   1.229
13125TIP3    H239317   2.769   0.424   1.179
13126TIP3   OH239318   2.090   7.461   1.852
13126TIP3    H139319   2.052   7.425   1.932
13126TIP3    H239320   2.157   7.522   1.883
13127TIP3   OH239321   2.951   3.300   1.664
13127TIP3    H139322   2.934   3.208   1.643
13127TIP3    H239323   2.926   3.347   1.584
13128TIP3   OH239324   7.093   7.139   0.173
13128TIP3    H139325   7.075   7.046   0.183
13128TIP3    H239326   7.015   7.183   0.208
13129TIP3   OH239327   2.375   1.369   1.379
13129TIP3    H139328   2.385   1.351   1.285
13129TIP3    H239329   2.339   1.289   1.416
13130TIP3   OH239330   0.199   7.349   0.437
13130TIP3    H139331   0.108   7.363   0.410
13130TIP3    H239332   0.219   7.260   0.410
13131TIP3   OH239333   7.197   0.381   4.122
13131TIP3    H139334   7.230   0.471   4.125
13131TIP3    H239335   7.102   0.391   4.127
13132TIP3   OH239336   7.041   7.387   3.617
13132TIP3    H139337   7.122   7.432   3.639
13132TIP3    H239338   7.028   7.324   3.688
13133TIP3   OH239339   8.324   3.270   2.935
13133TIP3    H139340   8.349   3.317   3.015
13133TIP3    H239341   8.231   3.292   2.923
13134TIP3   OH239342   2.244   3.313   1.797
13134TIP3    H139343   2.159   3.349   1.823
13134TIP3    H239344   2.225   3.263   1.717
13135TIP3   OH239345   1.019   7.333   4.079
13135TIP3    H139346   1.067   7.251   4.081
13135TIP3    H239347   1.066   7.391   4.138
13136TIP3   OH239348   4.300   5.231   1.208
13136TIP3    H139349   4.338   5.226   1.121
13136TIP3    H239350   4.343   5.306   1.249
13137TIP3   OH239351   5.383   4.304   2.391
13137TIP3    H139352   5.399   4.265   2.304
13137TIP3    H239353   5.319   4.246   2.432
13138TIP3   OH239354   4.147   0.972   1.310
13138TIP3    H139355   4.056   0.953   1.334
13138TIP3    H239356   4.172   0.900   1.252
13139TIP3   OH239357   3.988   2.637   4.798
13139TIP3    H139358   3.972   2.706   4.862
13139TIP3    H239359   3.954   2.672   4.716
13140TIP3   OH239360   7.093   1.903   5.441
13140TIP3    H139361   7.003   1.892   5.411
13140TIP3    H239362   7.095   1.992   5.476
13141TIP3   OH239363   3.811   2.651   3.880
13141TIP3    H139364   3.883   2.623   3.824
13141TIP3    H239365   3.743   2.681   3.819
13142TIP3   OH239366   4.858   2.174   4.307
13142TIP3    H139367   4.896   2.222   4.380
13142TIP3    H239368   4.801   2.237   4.263
13143TIP3   OH239369   3.646   4.360   4.777
13143TIP3    H139370   3.739   4.378   4.791
13143TIP3    H239371   3.628   4.395   4.690
13144TIP3   OH239372   4.783   2.622   4.370
13144TIP3    H139373   4.855   2.565   4.399
13144TIP3    H239374   4.718   2.616   4.440
13145TIP3   OH239375   7.326   6.422   1.689
13145TIP3    H139376   7.330   6.332   1.723
13145TIP3    H239377   7.391   6.470   1.741
13146TIP3   OH239378   6.462   6.913   3.903
13146TIP3    H139379   6.436   7.004   3.888
13146TIP3    H239380   6.557   6.918   3.916
13147TIP3   OH239381   7.203   2.231   1.960
13147TIP3    H139382   7.280   2.257   2.010
13147TIP3    H239383   7.133   2.224   2.025
13148TIP3   OH239384   4.192   1.229   1.074
13148TIP3    H139385   4.130   1.163   1.044
13148TIP3    H239386   4.190   1.297   1.007
13149TIP3   OH239387   6.067   5.064   5.744
13149TIP3    H139388   6.123   5.132   5.707
13149TIP3    H239389   6.069   5.080   5.839
13150TIP3   OH239390   7.099   1.872   4.763
13150TIP3    H139391   7.098   1.959   4.723
13150TIP3    H239392   7.018   1.831   4.734
13151TIP3   OH239393   0.076   0.230   4.438
13151TIP3    H139394   0.097   0.204   4.348
13151TIP3    H239395   0.160   0.255   4.476
13152TIP3   OH239396   3.611   4.032   0.696
13152TIP3    H139397   3.575   4.105   0.646
13152TIP3    H239398   3.583   4.049   0.786
13153TIP3   OH239399   8.129   2.292   0.952
13153TIP3    H139400   8.182   2.297   0.872
13153TIP3    H239401   8.122   2.198   0.970
13154TIP3   OH239402   0.281   2.894   4.451
13154TIP3    H139403   0.327   2.922   4.372
13154TIP3    H239404   0.197   2.940   4.447
13155TIP3   OH239405   1.004   7.278   2.411
13155TIP3    H139406   0.971   7.209   2.353
13155TIP3    H239407   1.056   7.334   2.354
13156TIP3   OH239408   2.131   3.158   3.359
13156TIP3    H139409   2.096   3.163   3.448
13156TIP3    H239410   2.147   3.249   3.334
13157TIP3   OH239411   0.242   1.702   1.720
13157TIP3    H139412   0.258   1.611   1.696
13157TIP3    H239413   0.216   1.699   1.812
13158TIP3   OH239414   2.491   3.268   6.400
13158TIP3    H139415   2.420   3.316   6.442
13158TIP3    H239416   2.457   3.179   6.389
13159TIP3   OH239417   5.870   5.707   4.265
13159TIP3    H139418   5.775   5.708   4.279
13159TIP3    H239419   5.895   5.800   4.265
13160TIP3   OH239420   4.775   0.411   1.365
13160TIP3    H139421   4.717   0.448   1.300
13160TIP3    H239422   4.822   0.342   1.319
13161TIP3   OH239423   7.517   7.737   6.736
13161TIP3    H139424   7.457   7.678   6.781
13161TIP3    H239425   7.504   7.717   6.643
13162TIP3   OH239426   5.414   3.981   1.029
13162TIP3    H139427   5.334   3.928   1.029
13162TIP3    H239428   5.430   4.000   0.937
13163TIP3   OH239429   2.616   4.735   0.705
13163TIP3    H139430   2.541   4.733   0.764
13163TIP3    H239431   2.690   4.761   0.761
13164TIP3   OH239432   7.510   2.952   0.358
13164TIP3    H139433   7.468   3.037   0.346
13164TIP3    H239434   7.597   2.973   0.391
13165TIP3   OH239435   2.747   2.447   3.739
13165TIP3    H139436   2.721   2.526   3.786
13165TIP3    H239437   2.775   2.478   3.653
13166TIP3   OH239438   5.296   2.206   3.536
13166TIP3    H139439   5.368   2.213   3.599
13166TIP3    H239440   5.275   2.112   3.534
13167TIP3   OH239441   7.753   5.640   3.040
13167TIP3    H139442   7.751   5.656   3.134
13167TIP3    H239443   7.832   5.587   3.026
13168TIP3   OH239444   5.534   5.326   3.852
13168TIP3    H139445   5.529   5.417   3.825
13168TIP3    H239446   5.457   5.284   3.815
13169TIP3   OH239447   8.226   7.628   5.623
13169TIP3    H139448   8.191   7.660   5.540
13169TIP3    H239449   8.273   7.703   5.660
13170TIP3   OH239450   6.012   7.371   2.595
13170TIP3    H139451   6.092   7.318   2.592
13170TIP3    H239452   5.955   7.324   2.656
13171TIP3   OH239453   2.060   0.832   2.793
13171TIP3    H139454   1.966   0.852   2.794
13171TIP3    H239455   2.100   0.904   2.841
13172TIP3   OH239456   5.308   2.833   1.648
13172TIP3    H139457   5.297   2.928   1.646
13172TIP3    H239458   5.225   2.800   1.682
13173TIP3   OH239459   8.315   2.653   1.648
13173TIP3    H139460   8.338   2.663   1.740
13173TIP3    H239461   8.366   2.577   1.619
13174TIP3   OH239462   5.054   3.112   6.012
13174TIP3    H139463   4.990   3.041   6.004
13174TIP3    H239464   5.043   3.163   5.932
13175TIP3   OH239465   3.501   5.226   6.659
13175TIP3    H139466   3.424   5.283   6.653
13175TIP3    H239467   3.521   5.223   6.752
13176TIP3   OH239468   3.053   5.193   4.871
13176TIP3    H139469   3.040   5.120   4.931
13176TIP3    H239470   3.006   5.167   4.791
13177TIP3   OH239471   7.201   6.963   4.951
13177TIP3    H139472   7.157   6.975   4.867
13177TIP3    H239473   7.289   6.998   4.938
13178TIP3   OH239474   1.030   6.366   6.834
13178TIP3    H139475   1.020   6.438   6.771
13178TIP3    H239476   1.080   6.405   6.906
13179TIP3   OH239477   1.496   3.311   3.343
13179TIP3    H139478   1.580   3.267   3.358
13179TIP3    H239479   1.499   3.388   3.399
13180TIP3   OH239480   3.223   4.981   1.240
13180TIP3    H139481   3.167   5.057   1.255
13180TIP3    H239482   3.281   5.007   1.169
13181TIP3   OH239483   8.229   2.166   3.882
13181TIP3    H139484   8.319   2.197   3.873
13181TIP3    H239485   8.175   2.243   3.865
13182TIP3   OH239486   4.988   0.780   1.427
13182TIP3    H139487   5.006   0.685   1.431
13182TIP3    H239488   4.981   0.806   1.519
13183TIP3   OH239489   1.854   4.689   2.256
13183TIP3    H139490   1.876   4.746   2.182
13183TIP3    H239491   1.930   4.632   2.266
13184TIP3   OH239492   1.047   5.165   6.456
13184TIP3    H139493   0.993   5.237   6.488
13184TIP3    H239494   1.134   5.181   6.493
13185TIP3   OH239495   4.955   5.586   3.778
13185TIP3    H139496   4.939   5.495   3.752
13185TIP3    H239497   4.868   5.623   3.792
13186TIP3   OH239498   4.315   0.358   6.010
13186TIP3    H139499   4.394   0.314   5.979
13186TIP3    H239500   4.346   0.416   6.079
13187TIP3   OH239501   0.002   6.775   0.541
13187TIP3    H139502   0.010   6.863   0.579
13187TIP3    H239503  -0.039   6.788   0.456
13188TIP3   OH239504   6.293   3.522   6.129
13188TIP3    H139505   6.311   3.545   6.220
13188TIP3    H239506   6.354   3.576   6.078
13189TIP3   OH239507   7.719   6.730   0.246
13189TIP3    H139508   7.649   6.676   0.212
13189TIP3    H239509   7.682   6.818   0.250
13190TIP3   OH239510   4.528   0.286   0.788
13190TIP3    H139511   4.488   0.204   0.816
13190TIP3    H239512   4.474   0.354   0.828
13191TIP3   OH239513   3.298   7.401   4.393
13191TIP3    H139514   3.358   7.384   4.321
13191TIP3    H239515   3.341   7.469   4.445
13192TIP3   OH239516   2.316   1.658   2.941
13192TIP3    H139517   2.314   1.641   3.035
13192TIP3    H239518   2.224   1.661   2.916
13193TIP3   OH239519   3.899   4.350   4.856
13193TIP3    H139520   3.962   4.281   4.835
13193TIP3    H239521   3.923   4.379   4.944
13194TIP3   OH239522   7.085   2.344   2.741
13194TIP3    H139523   7.128   2.281   2.799
13194TIP3    H239524   7.124   2.428   2.764
13195TIP3   OH239525   2.077   6.104   6.126
13195TIP3    H139526   2.091   6.115   6.220
13195TIP3    H239527   2.096   6.190   6.089
13196TIP3   OH239528   1.911   6.614   4.304
13196TIP3    H139529   1.913   6.705   4.275
13196TIP3    H239530   1.858   6.569   4.238
13197TIP3   OH239531   4.465   7.608   2.178
13197TIP3    H139532   4.383   7.566   2.202
13197TIP3    H239533   4.452   7.700   2.202
13198TIP3   OH239534   1.000   1.531   0.335
13198TIP3    H139535   1.067   1.505   0.272
13198TIP3    H239536   1.020   1.480   0.414
13199TIP3   OH239537   4.018   5.273   4.222
13199TIP3    H139538   4.008   5.222   4.303
13199TIP3    H239539   4.064   5.352   4.249
13200TIP3   OH239540   4.695   7.002   2.000
13200TIP3    H139541   4.618   7.034   1.952
13200TIP3    H239542   4.658   6.965   2.081
13201TIP3   OH239543   4.140   4.607   1.264
13201TIP3    H139544   4.143   4.545   1.337
13201TIP3    H239545   4.232   4.622   1.242
13202TIP3   OH239546   1.490   0.181   4.465
13202TIP3    H139547   1.573   0.150   4.430
13202TIP3    H239548   1.513   0.225   4.546
13203TIP3   OH239549   7.860   0.542   2.692
13203TIP3    H139550   7.901   0.627   2.675
13203TIP3    H239551   7.830   0.513   2.606
13204TIP3   OH239552   3.688   1.783   3.182
13204TIP3    H139553   3.648   1.817   3.102
13204TIP3    H239554   3.700   1.690   3.165
13205TIP3   OH239555   4.190   1.910   1.692
13205TIP3    H139556   4.266   1.937   1.744
13205TIP3    H239557   4.116   1.918   1.752
13206TIP3   OH239558   4.889   3.368   3.293
13206TIP3    H139559   4.947   3.443   3.305
13206TIP3    H239560   4.936   3.294   3.331
13207TIP3   OH239561   7.293   7.404   0.455
13207TIP3    H139562   7.233   7.478   0.468
13207TIP3    H239563   7.354   7.434   0.387
13208TIP3   OH239564   7.058   1.113   5.987
13208TIP3    H139565   7.013   1.127   5.904
13208TIP3    H239566   7.131   1.175   5.986
13209TIP3   OH239567   6.407   2.129   6.248
13209TIP3    H139568   6.495   2.113   6.283
13209TIP3    H239569   6.379   2.045   6.212
13210TIP3   OH239570   3.345   6.021   3.275
13210TIP3    H139571   3.435   6.041   3.300
13210TIP3    H239572   3.316   6.097   3.225
13211TIP3   OH239573   1.168   0.074   2.520
13211TIP3    H139574   1.222   0.073   2.599
13211TIP3    H239575   1.186   0.158   2.479
13212TIP3   OH239576   3.264   3.478   3.476
13212TIP3    H139577   3.325   3.531   3.425
13212TIP3    H239578   3.309   3.394   3.488
13213TIP3   OH239579   2.839   6.848   1.624
13213TIP3    H139580   2.839   6.873   1.532
13213TIP3    H239581   2.746   6.843   1.648
13214TIP3   OH239582   6.652   6.302   6.478
13214TIP3    H139583   6.609   6.372   6.527
13214TIP3    H239584   6.745   6.314   6.496
13215TIP3   OH239585   4.627   1.776   4.769
13215TIP3    H139586   4.709   1.767   4.720
13215TIP3    H239587   4.611   1.871   4.772
13216TIP3   OH239588   2.593   7.466   0.696
13216TIP3    H139589   2.581   7.371   0.694
13216TIP3    H239590   2.515   7.502   0.654
13217TIP3   OH239591   6.851   1.539   4.416
13217TIP3    H139592   6.841   1.505   4.327
13217TIP3    H239593   6.932   1.590   4.413
13218TIP3   OH239594   4.571   1.467   3.592
13218TIP3    H139595   4.549   1.555   3.621
13218TIP3    H239596   4.522   1.456   3.510
13219TIP3   OH239597   0.601   7.647   1.524
13219TIP3    H139598   0.532   7.707   1.493
13219TIP3    H239599   0.559   7.594   1.591
13220TIP3   OH239600   3.420   2.985   0.388
13220TIP3    H139601   3.488   2.934   0.429
13220TIP3    H239602   3.407   3.060   0.446
13221TIP3   OH239603   7.785   5.853   2.849
13221TIP3    H139604   7.762   5.792   2.919
13221TIP3    H239605   7.875   5.829   2.826
13222TIP3   OH239606   6.607   7.047   1.268
13222TIP3    H139607   6.697   7.046   1.234
13222TIP3    H239608   6.612   6.995   1.348
13223TIP3   OH239609   0.617   7.071   3.702
13223TIP3    H139610   0.664   7.115   3.631
13223TIP3    H239611   0.612   7.136   3.772
13224TIP3   OH239612   2.305   5.550   3.172
13224TIP3    H139613   2.383   5.578   3.125
13224TIP3    H239614   2.263   5.487   3.114
13225TIP3   OH239615   3.217   5.909   0.452
13225TIP3    H139616   3.192   5.951   0.369
13225TIP3    H239617   3.301   5.949   0.475
13226TIP3   OH239618   0.668   1.805   5.590
13226TIP3    H139619   0.703   1.851   5.514
13226TIP3    H239620   0.670   1.713   5.565
13227TIP3   OH239621   0.191   6.439   2.918
13227TIP3    H139622   0.202   6.515   2.974
13227TIP3    H239623   0.272   6.435   2.867
13228TIP3   OH239624   5.508   4.187   5.553
13228TIP3    H139625   5.483   4.232   5.633
13228TIP3    H239626   5.509   4.094   5.577
13229TIP3   OH239627   4.257   2.368   3.350
13229TIP3    H139628   4.171   2.410   3.347
13229TIP3    H239629   4.246   2.295   3.411
13230TIP3   OH239630   7.271   1.301   5.988
13230TIP3    H139631   7.311   1.323   5.903
13230TIP3    H239632   7.293   1.375   6.044
13231TIP3   OH239633   4.657   7.302   5.904
13231TIP3    H139634   4.695   7.367   5.963
13231TIP3    H239635   4.662   7.344   5.817
13232TIP3   OH239636   3.523   2.739   4.179
13232TIP3    H139637   3.444   2.719   4.130
13232TIP3    H239638   3.537   2.663   4.235
13233TIP3   OH239639   1.186   5.238   6.040
13233TIP3    H139640   1.131   5.279   6.107
13233TIP3    H239641   1.200   5.307   5.975
13234TIP3   OH239642   6.734   3.495   1.366
13234TIP3    H139643   6.669   3.427   1.349
13234TIP3    H239644   6.703   3.538   1.446
13235TIP3   OH239645   6.858   7.277   0.219
13235TIP3    H139646   6.781   7.295   0.273
13235TIP3    H239647   6.840   7.322   0.136
13236TIP3   OH239648   3.162   1.321   0.084
13236TIP3    H139649   3.249   1.359   0.095
13236TIP3    H239650   3.134   1.297   0.172
13237TIP3   OH239651   0.503   2.735   0.449
13237TIP3    H139652   0.435   2.801   0.432
13237TIP3    H239653   0.476   2.692   0.530
13238TIP3   OH239654   1.812   6.253   5.973
13238TIP3    H139655   1.873   6.316   5.934
13238TIP3    H239656   1.824   6.265   6.068
13239TIP3   OH239657   1.820   0.004   6.132
13239TIP3    H139658   1.812  -0.084   6.095
13239TIP3    H239659   1.791   0.062   6.062
13240TIP3   OH239660   7.715   6.205   5.210
13240TIP3    H139661   7.784   6.147   5.243
13240TIP3    H239662   7.653   6.146   5.167
13241TIP3   OH239663   3.305   2.198   4.537
13241TIP3    H139664   3.278   2.171   4.625
13241TIP3    H239665   3.281   2.290   4.532
13242TIP3   OH239666   6.756   5.273   3.226
13242TIP3    H139667   6.717   5.186   3.216
13242TIP3    H239668   6.846   5.263   3.196
13243TIP3   OH239669   0.681   4.106   5.170
13243TIP3    H139670   0.725   4.121   5.086
13243TIP3    H239671   0.623   4.032   5.153
13244TIP3   OH239672   6.017   0.561   2.965
13244TIP3    H139673   5.972   0.541   2.883
13244TIP3    H239674   6.080   0.630   2.941
13245TIP3   OH239675   0.308   7.098   0.398
13245TIP3    H139676   0.388   7.150   0.401
13245TIP3    H239677   0.315   7.038   0.472
13246TIP3   OH239678   5.139   4.946   6.219
13246TIP3    H139679   5.221   4.992   6.200
13246TIP3    H239680   5.121   4.965   6.311
13247TIP3   OH239681   2.946   4.096   4.002
13247TIP3    H139682   2.927   4.125   3.913
13247TIP3    H239683   2.930   4.174   4.056
13248TIP3   OH239684   2.798   2.607   1.462
13248TIP3    H139685   2.713   2.565   1.475
13248TIP3    H239686   2.816   2.595   1.369
13249TIP3   OH239687   0.965   1.159   5.914
13249TIP3    H139688   1.015   1.200   5.984
13249TIP3    H239689   0.978   1.065   5.928
13250TIP3   OH239690   3.744   7.327   5.848
13250TIP3    H139691   3.829   7.368   5.834
13250TIP3    H239692   3.758   7.234   5.831
13251TIP3   OH239693   7.734   2.508   3.423
13251TIP3    H139694   7.688   2.509   3.339
13251TIP3    H239695   7.684   2.448   3.478
13252TIP3   OH239696   5.101   6.590   4.393
13252TIP3    H139697   5.015   6.605   4.353
13252TIP3    H239698   5.162   6.590   4.319
13253TIP3   OH239699   7.114   0.404   1.982
13253TIP3    H139700   7.028   0.427   2.016
13253TIP3    H239701   7.146   0.336   2.042
13254TIP3   OH239702   6.127   6.578   3.648
13254TIP3    H139703   6.114   6.672   3.644
13254TIP3    H239704   6.148   6.560   3.739
13255TIP3   OH239705   1.008   5.032   5.894
13255TIP3    H139706   1.060   5.095   5.944
13255TIP3    H239707   0.918   5.045   5.924
13256TIP3   OH239708   3.701   7.225   2.912
13256TIP3    H139709   3.750   7.301   2.882
13256TIP3    H239710   3.755   7.150   2.888
13257TIP3   OH239711   8.370   5.689   5.647
13257TIP3    H139712   8.275   5.687   5.656
13257TIP3    H239713   8.386   5.679   5.553
13258TIP3   OH239714   3.469   7.270   1.730
13258TIP3    H139715   3.525   7.330   1.681
13258TIP3    H239716   3.505   7.270   1.819
13259TIP3   OH239717   4.429   7.829   2.787
13259TIP3    H139718   4.465   7.914   2.813
13259TIP3    H239719   4.384   7.797   2.865
13260TIP3   OH239720   0.772   6.776   6.847
13260TIP3    H139721   0.719   6.711   6.892
13260TIP3    H239722   0.836   6.725   6.796
13261TIP3   OH239723   7.051   3.737   0.172
13261TIP3    H139724   7.010   3.656   0.142
13261TIP3    H239725   6.992   3.770   0.240
13262TIP3   OH239726   2.905   5.653   5.744
13262TIP3    H139727   2.888   5.566   5.708
13262TIP3    H239728   2.866   5.650   5.832
13263TIP3   OH239729   6.521   1.650   1.451
13263TIP3    H139730   6.562   1.735   1.469
13263TIP3    H239731   6.431   1.661   1.484
13264TIP3   OH239732   1.303   2.794   0.065
13264TIP3    H139733   1.397   2.792   0.085
13264TIP3    H239734   1.284   2.707   0.031
13265TIP3   OH239735   7.100   1.353   1.371
13265TIP3    H139736   7.188   1.317   1.361
13265TIP3    H239737   7.071   1.372   1.281
13266TIP3   OH239738   7.071   7.287   1.347
13266TIP3    H139739   7.132   7.222   1.382
13266TIP3    H239740   7.021   7.316   1.423
13267TIP3   OH239741   0.734   6.200   2.146
13267TIP3    H139742   0.707   6.238   2.063
13267TIP3    H239743   0.709   6.108   2.140
13268TIP3   OH239744   3.030   3.248   2.017
13268TIP3    H139745   3.079   3.179   2.061
13268TIP3    H239746   3.075   3.260   1.933
13269TIP3   OH239747   3.631   5.078   2.693
13269TIP3    H139748   3.567   5.025   2.741
13269TIP3    H239749   3.580   5.148   2.653
13270TIP3   OH239750   5.488   1.665   4.923
13270TIP3    H139751   5.440   1.742   4.894
13270TIP3    H239752   5.517   1.686   5.012
13271TIP3   OH239753   2.093   0.018   4.180
13271TIP3    H139754   2.160  -0.051   4.173
13271TIP3    H239755   2.138   0.097   4.148
13272TIP3   OH239756   6.860   7.167   2.260
13272TIP3    H139757   6.770   7.196   2.244
13272TIP3    H239758   6.903   7.172   2.175
13273TIP3   OH239759   2.056   2.169   3.451
13273TIP3    H139760   2.049   2.255   3.493
13273TIP3    H239761   1.973   2.159   3.403
13274TIP3   OH239762   3.977   2.287   5.861
13274TIP3    H139763   3.936   2.367   5.828
13274TIP3    H239764   3.964   2.291   5.955
13275TIP3   OH239765   1.744   7.255   2.710
13275TIP3    H139766   1.656   7.249   2.749
13275TIP3    H239767   1.800   7.281   2.783
13276TIP3   OH239768   6.444   6.933   2.079
13276TIP3    H139769   6.410   7.010   2.034
13276TIP3    H239770   6.539   6.945   2.077
13277TIP3   OH239771   7.648   0.203   6.597
13277TIP3    H139772   7.735   0.173   6.570
13277TIP3    H239773   7.665   0.273   6.660
13278TIP3   OH239774   1.279   5.773   5.411
13278TIP3    H139775   1.188   5.774   5.441
13278TIP3    H239776   1.273   5.739   5.321
13279TIP3   OH239777   8.039   7.589   3.063
13279TIP3    H139778   7.955   7.553   3.034
13279TIP3    H239779   8.059   7.540   3.143
13280TIP3   OH239780   5.774   4.221   0.576
13280TIP3    H139781   5.862   4.231   0.540
13280TIP3    H239782   5.759   4.127   0.576
13281TIP3   OH239783   6.675   3.553   2.415
13281TIP3    H139784   6.638   3.627   2.463
13281TIP3    H239785   6.703   3.591   2.331
13282TIP3   OH239786   2.840   0.043   0.496
13282TIP3    H139787   2.757   0.017   0.536
13282TIP3    H239788   2.891   0.081   0.568
13283TIP3   OH239789   4.983   4.238   2.919
13283TIP3    H139790   4.967   4.248   3.013
13283TIP3    H239791   5.078   4.232   2.911
13284TIP3   OH239792   2.458   0.310   2.536
13284TIP3    H139793   2.425   0.297   2.625
13284TIP3    H239794   2.413   0.244   2.484
13285TIP3   OH239795   1.307   3.468   5.877
13285TIP3    H139796   1.259   3.543   5.841
13285TIP3    H239797   1.370   3.507   5.938
13286TIP3   OH239798   7.484   2.963   3.405
13286TIP3    H139799   7.452   2.875   3.384
13286TIP3    H239800   7.553   2.948   3.469
13287TIP3   OH239801   7.730   2.052   1.653
13287TIP3    H139802   7.723   2.065   1.559
13287TIP3    H239803   7.693   2.131   1.692
13288TIP3   OH239804   0.867   0.759   4.388
13288TIP3    H139805   0.848   0.666   4.376
13288TIP3    H239806   0.867   0.796   4.300
13289TIP3   OH239807   4.193   3.282   0.070
13289TIP3    H139808   4.156   3.277   0.158
13289TIP3    H239809   4.132   3.336   0.020
13290TIP3   OH239810   2.255   5.438   6.368
13290TIP3    H139811   2.211   5.365   6.411
13290TIP3    H239812   2.184   5.489   6.328
13291TIP3   OH239813   6.093   7.165   2.081
13291TIP3    H139814   6.083   7.101   2.010
13291TIP3    H239815   6.038   7.239   2.054
13292TIP3   OH239816   1.080   1.116   5.408
13292TIP3    H139817   1.063   1.184   5.343
13292TIP3    H239818   1.074   1.034   5.359
13293TIP3   OH239819   3.731   5.610   5.845
13293TIP3    H139820   3.649   5.585   5.886
13293TIP3    H239821   3.704   5.663   5.770
13294TIP3   OH239822   2.279   4.137   3.479
13294TIP3    H139823   2.190   4.100   3.474
13294TIP3    H239824   2.328   4.091   3.411
13295TIP3   OH239825   1.888   0.368   3.635
13295TIP3    H139826   1.957   0.310   3.603
13295TIP3    H239827   1.881   0.436   3.569
13296TIP3   OH239828   1.176   0.209   4.443
13296TIP3    H139829   1.159   0.303   4.442
13296TIP3    H239830   1.253   0.199   4.387
13297TIP3   OH239831   6.388   2.682   6.522
13297TIP3    H139832   6.380   2.770   6.559
13297TIP3    H239833   6.312   2.672   6.465
13298TIP3   OH239834   1.674   4.254   1.980
13298TIP3    H139835   1.681   4.212   1.894
13298TIP3    H239836   1.733   4.203   2.036
13299TIP3   OH239837   6.858   7.375   5.557
13299TIP3    H139838   6.885   7.378   5.466
13299TIP3    H239839   6.834   7.465   5.578
13300TIP3   OH239840   0.017   4.094   6.271
13300TIP3    H139841   0.035   4.023   6.209
13300TIP3    H239842  -0.022   4.050   6.347
13301TIP3   OH239843   2.929   5.044   2.311
13301TIP3    H139844   2.906   5.134   2.287
13301TIP3    H239845   2.849   4.993   2.293
13302TIP3   OH239846   7.938   1.225   1.073
13302TIP3    H139847   7.881   1.287   1.117
13302TIP3    H239848   7.959   1.266   0.989
13303TIP3   OH239849   1.928   4.889   0.345
13303TIP3    H139850   1.903   4.829   0.415
13303TIP3    H239851   1.847   4.935   0.322
13304TIP3   OH239852   4.611   3.243   5.073
13304TIP3    H139853   4.642   3.154   5.088
13304TIP3    H239854   4.518   3.233   5.055
13305TIP3   OH239855   3.479   0.936   4.128
13305TIP3    H139856   3.422   0.936   4.205
13305TIP3    H239857   3.543   0.866   4.146
13306TIP3   OH239858   0.792   0.970   4.547
13306TIP3    H139859   0.864   1.025   4.518
13306TIP3    H239860   0.807   0.886   4.504
13307TIP3   OH239861   1.479   4.501   2.383
13307TIP3    H139862   1.495   4.550   2.303
13307TIP3    H239863   1.566   4.490   2.422
13308TIP3   OH239864   6.751   5.128   3.720
13308TIP3    H139865   6.716   5.217   3.725
13308TIP3    H239866   6.789   5.123   3.632
13309TIP3   OH239867   4.889   7.748   4.868
13309TIP3    H139868   4.935   7.791   4.940
13309TIP3    H239869   4.798   7.774   4.879
13310TIP3   OH239870   2.123   4.461   5.500
13310TIP3    H139871   2.160   4.439   5.585
13310TIP3    H239872   2.064   4.388   5.480
13311TIP3   OH239873   7.278   1.740   1.365
13311TIP3    H139874   7.333   1.789   1.304
13311TIP3    H239875   7.225   1.683   1.309
13312TIP3   OH239876   4.522   3.572   2.243
13312TIP3    H139877   4.476   3.496   2.209
13312TIP3    H239878   4.552   3.545   2.330
13313TIP3   OH239879   5.352   2.125   2.140
13313TIP3    H139880   5.379   2.181   2.213
13313TIP3    H239881   5.314   2.048   2.183
13314TIP3   OH239882   2.890   2.893   5.912
13314TIP3    H139883   2.920   2.841   5.838
13314TIP3    H239884   2.805   2.856   5.935
13315TIP3   OH239885   1.131   3.134   4.685
13315TIP3    H139886   1.069   3.208   4.693
13315TIP3    H239887   1.076   3.060   4.660
13316TIP3   OH239888   2.108   2.625   4.799
13316TIP3    H139889   2.081   2.703   4.848
13316TIP3    H239890   2.059   2.554   4.839
13317TIP3   OH239891   0.315   4.286   2.120
13317TIP3    H139892   0.244   4.278   2.057
13317TIP3    H239893   0.272   4.293   2.205
13318TIP3   OH239894   0.711   7.131   5.619
13318TIP3    H139895   0.763   7.145   5.540
13318TIP3    H239896   0.711   7.215   5.663
13319TIP3   OH239897   5.542   0.848   4.846
13319TIP3    H139898   5.551   0.892   4.930
13319TIP3    H239899   5.546   0.919   4.781
13320TIP3   OH239900   1.566   2.121   2.679
13320TIP3    H139901   1.618   2.077   2.612
13320TIP3    H239902   1.475   2.104   2.655
13321TIP3   OH239903   0.903   4.121   6.484
13321TIP3    H139904   0.905   4.123   6.579
13321TIP3    H239905   0.819   4.081   6.462
13322TIP3   OH239906   0.955   5.606   2.829
13322TIP3    H139907   0.875   5.561   2.803
13322TIP3    H239908   0.925   5.683   2.878
13323TIP3   OH239909   7.807   2.705   5.687
13323TIP3    H139910   7.719   2.726   5.657
13323TIP3    H239911   7.796   2.684   5.780
13324TIP3   OH239912   6.030   2.306   0.740
13324TIP3    H139913   6.072   2.309   0.826
13324TIP3    H239914   6.031   2.397   0.710
13325TIP3   OH239915   6.295   6.131   0.289
13325TIP3    H139916   6.378   6.152   0.246
13325TIP3    H239917   6.258   6.059   0.238
13326TIP3   OH239918   3.844   0.570   6.355
13326TIP3    H139919   3.868   0.480   6.331
13326TIP3    H239920   3.927   0.617   6.354
13327TIP3   OH239921   1.827   3.761   5.578
13327TIP3    H139922   1.735   3.766   5.603
13327TIP3    H239923   1.872   3.737   5.659
13328TIP3   OH239924   1.549   2.067   1.714
13328TIP3    H139925   1.586   2.143   1.669
13328TIP3    H239926   1.456   2.088   1.722
13329TIP3   OH239927   3.411   4.869   6.399
13329TIP3    H139928   3.436   4.782   6.365
13329TIP3    H239929   3.405   4.857   6.494
13330TIP3   OH239930   0.792   4.191   0.199
13330TIP3    H139931   0.787   4.108   0.246
13330TIP3    H239932   0.700   4.218   0.188
13331TIP3   OH239933   3.201   4.892   0.363
13331TIP3    H139934   3.185   4.986   0.372
13331TIP3    H239935   3.116   4.852   0.382
13332TIP3   OH239936   3.067   6.319   1.154
13332TIP3    H139937   3.118   6.240   1.137
13332TIP3    H239938   3.132   6.385   1.179
13333TIP3   OH239939   6.536   1.239   0.664
13333TIP3    H139940   6.583   1.192   0.595
13333TIP3    H239941   6.487   1.306   0.619
13334TIP3   OH239942   6.498   4.660   0.544
13334TIP3    H139943   6.491   4.577   0.497
13334TIP3    H239944   6.504   4.636   0.636
13335TIP3   OH239945   2.344   7.560   0.549
13335TIP3    H139946   2.352   7.635   0.491
13335TIP3    H239947   2.300   7.493   0.497
13336TIP3   OH239948   2.733   1.048   0.898
13336TIP3    H139949   2.658   1.103   0.875
13336TIP3    H239950   2.786   1.103   0.956
13337TIP3   OH239951   2.636   3.857   3.117
13337TIP3    H139952   2.571   3.798   3.079
13337TIP3    H239953   2.715   3.803   3.126
13338TIP3   OH239954   2.000   0.395   4.312
13338TIP3    H139955   2.003   0.491   4.312
13338TIP3    H239956   1.932   0.373   4.376
13339TIP3   OH239957   1.519   4.822   0.882
13339TIP3    H139958   1.525   4.736   0.839
13339TIP3    H239959   1.526   4.885   0.810
13340TIP3   OH239960   5.545   7.179   2.210
13340TIP3    H139961   5.569   7.167   2.118
13340TIP3    H239962   5.450   7.171   2.212
13341TIP3   OH239963   3.531   7.640   2.029
13341TIP3    H139964   3.461   7.579   2.053
13341TIP3    H239965   3.521   7.651   1.935
13342TIP3   OH239966   6.456   1.351   0.105
13342TIP3    H139967   6.477   1.388   0.019
13342TIP3    H239968   6.537   1.307   0.132
13343TIP3   OH239969   2.568   1.516   6.143
13343TIP3    H139970   2.562   1.447   6.077
13343TIP3    H239971   2.547   1.596   6.096
13344TIP3   OH239972   7.568   5.951   6.558
13344TIP3    H139973   7.539   5.996   6.637
13344TIP3    H239974   7.488   5.936   6.508
13345TIP3   OH239975   6.754   2.689   3.856
13345TIP3    H139976   6.794   2.726   3.935
13345TIP3    H239977   6.817   2.708   3.787
13346TIP3   OH239978   6.236   5.580   0.580
13346TIP3    H139979   6.295   5.505   0.575
13346TIP3    H239980   6.291   5.655   0.556
13347TIP3   OH239981   1.649   4.040   3.927
13347TIP3    H139982   1.691   3.955   3.941
13347TIP3    H239983   1.632   4.073   4.015
13348TIP3   OH239984   0.169   2.777   2.648
13348TIP3    H139985   0.227   2.717   2.603
13348TIP3    H239986   0.104   2.721   2.690
13349TIP3   OH239987   2.174   5.064   1.228
13349TIP3    H139988   2.256   5.042   1.273
13349TIP3    H239989   2.155   4.987   1.174
13350TIP3   OH239990   2.141   7.305   3.807
13350TIP3    H139991   2.049   7.294   3.785
13350TIP3    H239992   2.145   7.391   3.849
13351TIP3   OH239993   3.273   4.609   3.485
13351TIP3    H139994   3.298   4.523   3.451
13351TIP3    H239995   3.325   4.619   3.564
13352TIP3   OH239996   7.398   6.813   4.511
13352TIP3    H139997   7.466   6.876   4.487
13352TIP3    H239998   7.391   6.755   4.435
13353TIP3   OH239999   6.464   7.040   2.995
13353TIP3    H140000   6.507   7.082   3.071
13353TIP3    H240001   6.519   6.965   2.976
13354TIP3   OH240002   2.716   4.531   0.996
13354TIP3    H140003   2.674   4.448   0.969
13354TIP3    H240004   2.804   4.526   0.958
13355TIP3   OH240005   5.570   7.569   2.483
13355TIP3    H140006   5.474   7.566   2.484
13355TIP3    H240007   5.596   7.533   2.568
13356TIP3   OH240008   6.035   2.279   6.434
13356TIP3    H140009   6.017   2.186   6.445
13356TIP3    H240010   5.955   2.315   6.395
13357TIP3   OH240011   6.630   2.397   3.136
13357TIP3    H140012   6.631   2.304   3.160
13357TIP3    H240013   6.665   2.398   3.047
13358TIP3   OH240014   1.133   6.177   1.325
13358TIP3    H140015   1.096   6.264   1.313
13358TIP3    H240016   1.123   6.159   1.418
13359TIP3   OH240017   8.262   4.409   5.513
13359TIP3    H140018   8.245   4.487   5.460
13359TIP3    H240019   8.336   4.434   5.568
13360TIP3   OH240020   7.822   7.240   3.815
13360TIP3    H140021   7.732   7.249   3.784
13360TIP3    H240022   7.875   7.234   3.736
13361TIP3   OH240023   4.145   3.417   6.649
13361TIP3    H140024   4.117   3.334   6.611
13361TIP3    H240025   4.132   3.482   6.579
13362TIP3   OH240026   1.827   4.444   0.065
13362TIP3    H140027   1.736   4.446   0.037
13362TIP3    H240028   1.828   4.494   0.147
13363TIP3   OH240029   3.155   2.479   2.189
13363TIP3    H140030   3.082   2.531   2.155
13363TIP3    H240031   3.150   2.490   2.284
13364TIP3   OH240032   3.012   0.337   0.919
13364TIP3    H140033   3.071   0.324   0.993
13364TIP3    H240034   2.973   0.423   0.934
13365TIP3   OH240035   5.969   5.609   0.492
13365TIP3    H140036   6.048   5.597   0.546
13365TIP3    H240037   5.977   5.698   0.458
13366TIP3   OH240038   1.642   5.713   0.612
13366TIP3    H140039   1.703   5.684   0.544
13366TIP3    H240040   1.697   5.758   0.676
13367TIP3   OH240041   2.766   6.117   6.328
13367TIP3    H140042   2.815   6.197   6.307
13367TIP3    H240043   2.683   6.126   6.283
13368TIP3   OH240044   3.362   5.874   6.529
13368TIP3    H140045   3.361   5.799   6.469
13368TIP3    H240046   3.418   5.939   6.486
13369TIP3   OH240047   2.429   2.532   5.857
13369TIP3    H140048   2.395   2.555   5.771
13369TIP3    H240049   2.351   2.509   5.908
13370TIP3   OH240050   0.591   2.298   5.745
13370TIP3    H140051   0.623   2.237   5.678
13370TIP3    H240052   0.635   2.380   5.725
13371TIP3   OH240053   6.686   5.462   5.577
13371TIP3    H140054   6.747   5.536   5.587
13371TIP3    H240055   6.739   5.385   5.596
13372TIP3   OH240056   0.555   5.849   3.653
13372TIP3    H140057   0.491   5.812   3.713
13372TIP3    H240058   0.519   5.935   3.629
13373TIP3   OH240059   0.173   2.024   6.590
13373TIP3    H140060   0.208   2.107   6.620
13373TIP3    H240061   0.103   2.047   6.529
13374TIP3   OH240062   2.892   2.271   2.731
13374TIP3    H140063   2.953   2.207   2.766
13374TIP3    H240064   2.892   2.257   2.637
13375TIP3   OH240065   7.268   6.602   3.993
13375TIP3    H140066   7.255   6.662   3.920
13375TIP3    H240067   7.226   6.645   4.068
13376TIP3   OH240068   0.791   1.025   1.271
13376TIP3    H140069   0.872   0.989   1.235
13376TIP3    H240070   0.725   1.008   1.204
13377TIP3   OH240071   5.140   7.112   0.580
13377TIP3    H140072   5.176   7.103   0.668
13377TIP3    H240073   5.126   7.023   0.550
13378TIP3   OH240074   6.567   5.224   6.276
13378TIP3    H140075   6.536   5.181   6.356
13378TIP3    H240076   6.513   5.186   6.207
13379TIP3   OH240077   6.165   3.329   0.947
13379TIP3    H140078   6.132   3.338   0.858
13379TIP3    H240079   6.242   3.272   0.939
13380TIP3   OH240080   3.362   3.408   6.773
13380TIP3    H140081   3.415   3.344   6.820
13380TIP3    H240082   3.273   3.394   6.805
13381TIP3   OH240083   4.669   4.701   0.021
13381TIP3    H140084   4.743   4.761   0.031
13381TIP3    H240085   4.640   4.685   0.111
13382TIP3   OH240086   2.355   0.389   5.634
13382TIP3    H140087   2.296   0.333   5.686
13382TIP3    H240088   2.316   0.389   5.547
13383TIP3   OH240089   0.798   4.663   3.331
13383TIP3    H140090   0.735   4.617   3.388
13383TIP3    H240091   0.883   4.628   3.357
13384TIP3   OH240092   7.857   3.767   0.957
13384TIP3    H140093   7.812   3.732   1.034
13384TIP3    H240094   7.894   3.690   0.914
13385TIP3   OH240095   2.492   6.575   3.719
13385TIP3    H140096   2.533   6.656   3.750
13385TIP3    H240097   2.415   6.604   3.670
13386TIP3   OH240098   7.356   1.821   4.367
13386TIP3    H140099   7.285   1.884   4.383
13386TIP3    H240100   7.372   1.782   4.453
13387TIP3   OH240101   4.099   4.392   6.266
13387TIP3    H140102   4.131   4.471   6.223
13387TIP3    H240103   4.174   4.333   6.269
13388TIP3   OH240104   7.369   1.618   3.914
13388TIP3    H140105   7.279   1.607   3.884
13388TIP3    H240106   7.418   1.549   3.871
13389TIP3   OH240107   6.336   6.824   3.661
13389TIP3    H140108   6.393   6.824   3.738
13389TIP3    H240109   6.250   6.849   3.695
13390TIP3   OH240110   3.519   4.383   2.600
13390TIP3    H140111   3.604   4.388   2.643
13390TIP3    H240112   3.512   4.463   2.549
13391TIP3   OH240113   1.357   6.215   2.267
13391TIP3    H140114   1.401   6.274   2.206
13391TIP3    H240115   1.428   6.171   2.313
13392TIP3   OH240116   5.788   2.646   5.079
13392TIP3    H140117   5.726   2.577   5.053
13392TIP3    H240118   5.815   2.686   4.996
13393TIP3   OH240119   5.852   4.596   2.117
13393TIP3    H140120   5.944   4.607   2.142
13393TIP3    H240121   5.803   4.632   2.190
13394TIP3   OH240122   5.103   5.337   0.543
13394TIP3    H140123   5.077   5.429   0.540
13394TIP3    H240124   5.034   5.291   0.496
13395TIP3   OH240125   6.519   5.050   6.480
13395TIP3    H140126   6.429   5.020   6.491
13395TIP3    H240127   6.560   5.035   6.565
13396TIP3   OH240128   1.994   4.809   0.606
13396TIP3    H140129   2.081   4.822   0.568
13396TIP3    H240130   1.971   4.895   0.642
13397TIP3   OH240131   2.341   1.767   2.678
13397TIP3    H140132   2.365   1.755   2.770
13397TIP3    H240133   2.315   1.859   2.672
13398TIP3   OH240134   4.895   3.089   4.495
13398TIP3    H140135   4.890   3.071   4.588
13398TIP3    H240136   4.844   3.019   4.453
13399TIP3   OH240137   5.469   0.451   5.359
13399TIP3    H140138   5.506   0.378   5.408
13399TIP3    H240139   5.530   0.465   5.287
13400TIP3   OH240140   7.438   5.688   3.904
13400TIP3    H140141   7.459   5.609   3.853
13400TIP3    H240142   7.343   5.688   3.910
13401TIP3   OH240143   1.082   7.693   0.517
13401TIP3    H140144   1.092   7.707   0.423
13401TIP3    H240145   1.088   7.599   0.529
13402TIP3   OH240146   0.286   6.749   2.956
13402TIP3    H140147   0.226   6.776   3.025
13402TIP3    H240148   0.279   6.818   2.890
13403TIP3   OH240149   5.051   4.327   0.171
13403TIP3    H140150   4.956   4.321   0.159
13403TIP3    H240151   5.088   4.283   0.095
13404TIP3   OH240152   5.522   5.932   0.569
13404TIP3    H140153   5.506   6.014   0.617
13404TIP3    H240154   5.570   5.877   0.632
13405TIP3   OH240155   0.219   0.967   2.083
13405TIP3    H140156   0.212   0.882   2.125
13405TIP3    H240157   0.171   0.958   2.001
13406TIP3   OH240158   6.180   0.113   2.617
13406TIP3    H140159   6.271   0.117   2.646
13406TIP3    H240160   6.149   0.204   2.621
13407TIP3   OH240161   5.763   4.464   4.786
13407TIP3    H140162   5.822   4.432   4.855
13407TIP3    H240163   5.796   4.551   4.765
13408TIP3   OH240164   6.191   7.200   5.714
13408TIP3    H140165   6.110   7.150   5.716
13408TIP3    H240166   6.260   7.136   5.729
13409TIP3   OH240167   2.127   5.568   0.588
13409TIP3    H140168   2.054   5.522   0.546
13409TIP3    H240169   2.122   5.657   0.554
13410TIP3   OH240170   6.054   0.540   0.354
13410TIP3    H140171   5.984   0.478   0.373
13410TIP3    H240172   6.028   0.581   0.271
13411TIP3   OH240173   4.590   5.433   6.651
13411TIP3    H140174   4.563   5.415   6.740
13411TIP3    H240175   4.662   5.496   6.659
13412TIP3   OH240176   6.443   3.467   4.920
13412TIP3    H140177   6.378   3.397   4.931
13412TIP3    H240178   6.527   3.423   4.929
13413TIP3   OH240179   7.929   7.469   4.551
13413TIP3    H140180   7.845   7.427   4.565
13413TIP3    H240181   7.913   7.532   4.480
13414TIP3   OH240182   5.828   4.868   3.458
13414TIP3    H140183   5.764   4.918   3.407
13414TIP3    H240184   5.903   4.926   3.466
13415TIP3   OH240185   0.793   4.004   0.571
13415TIP3    H140186   0.808   3.941   0.642
13415TIP3    H240187   0.877   4.050   0.562
13416TIP3   OH240188   1.845   4.038   3.075
13416TIP3    H140189   1.826   4.102   3.144
13416TIP3    H240190   1.818   4.080   2.994
13417TIP3   OH240191   3.351   6.359   6.764
13417TIP3    H140192   3.402   6.280   6.744
13417TIP3    H240193   3.334   6.399   6.678
13418TIP3   OH240194   5.807   2.123   5.894
13418TIP3    H140195   5.800   2.174   5.975
13418TIP3    H240196   5.868   2.052   5.916
13419TIP3   OH240197   8.219   3.119   6.198
13419TIP3    H140198   8.156   3.185   6.169
13419TIP3    H240199   8.304   3.151   6.165
13420TIP3   OH240200   8.119   3.096   4.745
13420TIP3    H140201   8.074   3.048   4.675
13420TIP3    H240202   8.157   3.028   4.800
13421TIP3   OH240203   2.468   2.015   4.371
13421TIP3    H140204   2.423   2.085   4.419
13421TIP3    H240205   2.468   2.045   4.280
13422TIP3   OH240206   0.183   1.186   5.708
13422TIP3    H140207   0.196   1.236   5.788
13422TIP3    H240208   0.210   1.097   5.730
13423TIP3   OH240209   7.453   1.034   0.861
13423TIP3    H140210   7.531   0.979   0.860
13423TIP3    H240211   7.380   0.973   0.868
13424TIP3   OH240212   2.329   6.430   5.152
13424TIP3    H140213   2.393   6.401   5.218
13424TIP3    H240214   2.378   6.431   5.070
13425TIP3   OH240215   1.995   2.100   6.390
13425TIP3    H140216   2.001   2.007   6.369
13425TIP3    H240217   1.917   2.130   6.343
13426TIP3   OH240218   7.711   3.004   4.291
13426TIP3    H140219   7.736   2.913   4.280
13426TIP3    H240220   7.793   3.053   4.284
13427TIP3   OH240221   2.099   7.872   3.243
13427TIP3    H140222   2.083   7.966   3.254
13427TIP3    H240223   2.020   7.830   3.277
13428TIP3   OH240224   4.366   4.681   3.302
13428TIP3    H140225   4.318   4.744   3.355
13428TIP3    H240226   4.303   4.650   3.237
13429TIP3   OH240227   2.961   7.235   4.511
13429TIP3    H140228   2.956   7.140   4.524
13429TIP3    H240229   2.873   7.267   4.533
13430TIP3   OH240230   1.333   6.766   2.387
13430TIP3    H140231   1.275   6.837   2.415
13430TIP3    H240232   1.344   6.779   2.293
13431TIP3   OH240233   7.173   2.472   6.619
13431TIP3    H140234   7.256   2.493   6.662
13431TIP3    H240235   7.182   2.511   6.531
13432TIP3   OH240236   0.679   6.707   2.698
13432TIP3    H140237   0.724   6.623   2.698
13432TIP3    H240238   0.747   6.771   2.717
13433TIP3   OH240239   0.219   4.913   4.408
13433TIP3    H140240   0.256   4.970   4.476
13433TIP3    H240241   0.126   4.938   4.405
13434TIP3   OH240242   0.230   0.274   3.234
13434TIP3    H140243   0.207   0.181   3.230
13434TIP3    H240244   0.293   0.286   3.163
13435TIP3   OH240245   7.490   6.749   2.104
13435TIP3    H140246   7.542   6.691   2.159
13435TIP3    H240247   7.445   6.807   2.166
13436TIP3   OH240248   0.740   3.869   3.791
13436TIP3    H140249   0.784   3.945   3.827
13436TIP3    H240250   0.647   3.883   3.810
13437TIP3   OH240251   1.574   5.430   4.796
13437TIP3    H140252   1.655   5.447   4.844
13437TIP3    H240253   1.541   5.517   4.772
13438TIP3   OH240254   4.754   5.107   4.406
13438TIP3    H140255   4.766   5.020   4.443
13438TIP3    H240256   4.808   5.164   4.462
13439TIP3   OH240257   6.332   5.238   1.833
13439TIP3    H140258   6.260   5.288   1.795
13439TIP3    H240259   6.317   5.241   1.928
13440TIP3   OH240260   0.347   0.267   4.511
13440TIP3    H140261   0.375   0.181   4.481
13440TIP3    H240262   0.378   0.327   4.444
13441TIP3   OH240263   2.691   1.236   2.859
13441TIP3    H140264   2.780   1.215   2.829
13441TIP3    H240265   2.647   1.268   2.781
13442TIP3   OH240266   4.204   3.848   2.448
13442TIP3    H140267   4.149   3.924   2.466
13442TIP3    H240268   4.225   3.855   2.355
13443TIP3   OH240269   6.853   1.642   2.739
13443TIP3    H140270   6.900   1.722   2.715
13443TIP3    H240271   6.894   1.573   2.687
13444TIP3   OH240272   8.073   4.420   2.866
13444TIP3    H140273   8.161   4.387   2.847
13444TIP3    H240274   8.039   4.360   2.932
13445TIP3   OH240275   6.335   3.074   4.408
13445TIP3    H140276   6.239   3.066   4.409
13445TIP3    H240277   6.363   3.032   4.490
13446TIP3   OH240278   4.634   6.814   2.237
13446TIP3    H140279   4.650   6.845   2.326
13446TIP3    H240280   4.557   6.757   2.244
13447TIP3   OH240281   5.876   6.452   1.869
13447TIP3    H140282   5.851   6.470   1.778
13447TIP3    H240283   5.969   6.432   1.865
13448TIP3   OH240284   2.067   3.451   0.601
13448TIP3    H140285   2.004   3.473   0.532
13448TIP3    H240286   2.092   3.536   0.638
13449TIP3   OH240287   4.872   2.911   5.942
13449TIP3    H140288   4.787   2.872   5.962
13449TIP3    H240289   4.897   2.873   5.858
13450TIP3   OH240290   2.481   7.624   2.907
13450TIP3    H140291   2.450   7.713   2.891
13450TIP3    H240292   2.452   7.575   2.830
13451TIP3   OH240293   4.908   6.765   6.721
13451TIP3    H140294   4.851   6.740   6.793
13451TIP3    H240295   4.855   6.752   6.643
13452TIP3   OH240296   3.249   2.095   6.525
13452TIP3    H140297   3.274   2.144   6.603
13452TIP3    H240298   3.230   2.161   6.459
13453TIP3   OH240299   1.396   7.370   4.833
13453TIP3    H140300   1.375   7.285   4.872
13453TIP3    H240301   1.337   7.378   4.758
13454TIP3   OH240302   5.205   4.006   4.414
13454TIP3    H140303   5.207   4.096   4.383
13454TIP3    H240304   5.112   3.984   4.416
13455TIP3   OH240305   6.890   6.803   5.497
13455TIP3    H140306   6.866   6.895   5.494
13455TIP3    H240307   6.961   6.795   5.434
13456TIP3   OH240308   5.711   1.073   3.451
13456TIP3    H140309   5.763   1.084   3.372
13456TIP3    H240310   5.620   1.077   3.421
13457TIP3   OH240311   3.601   4.743   3.501
13457TIP3    H140312   3.536   4.673   3.500
13457TIP3    H240313   3.652   4.730   3.422
13458TIP3   OH240314   0.775   4.463   0.704
13458TIP3    H140315   0.814   4.550   0.693
13458TIP3    H240316   0.850   4.405   0.716
13459TIP3   OH240317   6.028   2.336   5.642
13459TIP3    H140318   6.002   2.244   5.653
13459TIP3    H240319   6.072   2.338   5.557
13460TIP3   OH240320   6.774   3.769   3.602
13460TIP3    H140321   6.726   3.809   3.674
13460TIP3    H240322   6.749   3.677   3.603
13461TIP3   OH240323   3.916   7.295   1.414
13461TIP3    H140324   3.866   7.325   1.338
13461TIP3    H240325   3.899   7.201   1.419
13462TIP3   OH240326   1.872   6.356   1.584
13462TIP3    H140327   1.812   6.426   1.608
13462TIP3    H240328   1.896   6.315   1.667
13463TIP3   OH240329   3.969   5.226   4.765
13463TIP3    H140330   3.947   5.307   4.812
13463TIP3    H240331   4.064   5.232   4.752
13464TIP3   OH240332   1.747   3.745   0.081
13464TIP3    H140333   1.724   3.819   0.025
13464TIP3    H240334   1.678   3.742   0.147
13465TIP3   OH240335   3.518   3.259   4.508
13465TIP3    H140336   3.436   3.248   4.556
13465TIP3    H240337   3.494   3.252   4.416
13466TIP3   OH240338   3.194   4.688   6.505
13466TIP3    H140339   3.149   4.771   6.495
13466TIP3    H240340   3.202   4.654   6.416
13467TIP3   OH240341   7.159   4.916   3.884
13467TIP3    H140342   7.097   4.933   3.955
13467TIP3    H240343   7.106   4.884   3.812
13468TIP3   OH240344   7.359   7.551   4.078
13468TIP3    H140345   7.394   7.473   4.035
13468TIP3    H240346   7.411   7.560   4.158
13469TIP3   OH240347   7.076   4.329   0.255
13469TIP3    H140348   7.102   4.415   0.288
13469TIP3    H240349   7.109   4.326   0.166
13470TIP3   OH240350   7.287   0.927   3.730
13470TIP3    H140351   7.371   0.889   3.756
13470TIP3    H240352   7.278   1.004   3.786
13471TIP3   OH240353   3.665   1.971   4.725
13471TIP3    H140354   3.724   2.046   4.726
13471TIP3    H240355   3.630   1.967   4.814
13472TIP3   OH240356   1.513   5.300   5.029
13472TIP3    H140357   1.444   5.362   5.053
13472TIP3    H240358   1.546   5.332   4.945
13473TIP3   OH240359   5.246   5.889   0.604
13473TIP3    H140360   5.337   5.873   0.631
13473TIP3    H240361   5.216   5.959   0.661
13474TIP3   OH240362   3.868   5.670   6.136
13474TIP3    H140363   3.899   5.583   6.109
13474TIP3    H240364   3.947   5.714   6.167
13475TIP3   OH240365   3.783   3.030   1.265
13475TIP3    H140366   3.741   3.062   1.345
13475TIP3    H240367   3.831   2.952   1.293
13476TIP3   OH240368   5.637   4.605   6.166
13476TIP3    H140369   5.561   4.615   6.224
13476TIP3    H240370   5.608   4.642   6.083
13477TIP3   OH240371   2.297   2.505   4.616
13477TIP3    H140372   2.233   2.450   4.572
13477TIP3    H240373   2.252   2.533   4.697
13478TIP3   OH240374   8.146   0.740   6.347
13478TIP3    H140375   8.145   0.788   6.264
13478TIP3    H240376   8.063   0.762   6.389
13479TIP3   OH240377   2.668   1.237   0.576
13479TIP3    H140378   2.678   1.145   0.551
13479TIP3    H240379   2.752   1.259   0.617
13480TIP3   OH240380   1.047   2.229   2.208
13480TIP3    H140381   1.068   2.178   2.130
13480TIP3    H240382   0.953   2.246   2.200
13481TIP3   OH240383   4.408   2.206   4.938
13481TIP3    H140384   4.467   2.266   4.892
13481TIP3    H240385   4.379   2.255   5.015
13482TIP3   OH240386   5.187   7.163   5.805
13482TIP3    H140387   5.207   7.117   5.724
13482TIP3    H240388   5.225   7.108   5.874
13483TIP3   OH240389   2.107   6.514   3.417
13483TIP3    H140390   2.078   6.603   3.397
13483TIP3    H240391   2.135   6.479   3.332
13484TIP3   OH240392   7.715   3.941   6.666
13484TIP3    H140393   7.706   4.025   6.710
13484TIP3    H240394   7.630   3.898   6.678
13485TIP3   OH240395   2.080   0.801   3.137
13485TIP3    H140396   2.175   0.789   3.131
13485TIP3    H240397   2.067   0.895   3.140
13486TIP3   OH240398   0.910   2.584   3.973
13486TIP3    H140399   0.965   2.553   3.901
13486TIP3    H240400   0.969   2.585   4.049
13487TIP3   OH240401   7.440   3.431   2.893
13487TIP3    H140402   7.426   3.482   2.972
13487TIP3    H240403   7.407   3.343   2.915
13488TIP3   OH240404   5.803   4.280   5.916
13488TIP3    H140405   5.745   4.290   5.992
13488TIP3    H240406   5.817   4.369   5.884
13489TIP3   OH240407   1.299   2.490   0.915
13489TIP3    H140408   1.381   2.452   0.947
13489TIP3    H240409   1.278   2.436   0.838
13490TIP3   OH240410   7.629   5.068   0.184
13490TIP3    H140411   7.703   5.092   0.240
13490TIP3    H240412   7.654   5.102   0.097
13491TIP3   OH240413   8.249   6.100   0.304
13491TIP3    H140414   8.224   6.169   0.243
13491TIP3    H240415   8.179   6.098   0.369
13492TIP3   OH240416   7.278   0.811   6.704
13492TIP3    H140417   7.341   0.740   6.695
13492TIP3    H240418   7.246   0.826   6.615
13493TIP3   OH240419   2.019   4.242   3.242
13493TIP3    H140420   2.041   4.308   3.307
13493TIP3    H240421   2.008   4.161   3.291
13494TIP3   OH240422   1.386   1.521   2.920
13494TIP3    H140423   1.411   1.475   3.000
13494TIP3    H240424   1.296   1.493   2.904
13495TIP3   OH240425   4.047   4.711   4.927
13495TIP3    H140426   4.074   4.748   4.843
13495TIP3    H240427   4.121   4.659   4.956
13496TIP3   OH240428   0.400   4.102   6.032
13496TIP3    H140429   0.352   4.032   5.988
13496TIP3    H240430   0.442   4.151   5.962
13497TIP3   OH240431   3.282   4.524   1.251
13497TIP3    H140432   3.360   4.469   1.244
13497TIP3    H240433   3.285   4.578   1.172
13498TIP3   OH240434   1.470   3.282   2.959
13498TIP3    H140435   1.478   3.313   2.869
13498TIP3    H240436   1.559   3.287   2.994
13499TIP3   OH240437   3.477   7.369   2.709
13499TIP3    H140438   3.477   7.298   2.773
13499TIP3    H240439   3.388   7.371   2.674
13500TIP3   OH240440   0.296   2.122   6.242
13500TIP3    H140441   0.356   2.052   6.269
13500TIP3    H240442   0.209   2.083   6.249
13501TIP3   OH240443   5.133   6.047   1.169
13501TIP3    H140444   5.073   6.053   1.244
13501TIP3    H240445   5.114   6.125   1.117
13502TIP3   OH240446   8.373   6.072   3.045
13502TIP3    H140447   8.424   5.991   3.033
13502TIP3    H240448   8.409   6.111   3.125
13503TIP3   OH240449   6.142   2.000   0.448
13503TIP3    H140450   6.135   1.972   0.539
13503TIP3    H240451   6.056   1.979   0.410
13504TIP3   OH240452   1.563   5.825   6.465
13504TIP3    H140453   1.612   5.805   6.385
13504TIP3    H240454   1.471   5.823   6.437
13505TIP3   OH240455   1.465   1.043   6.837
13505TIP3    H140456   1.443   0.963   6.789
13505TIP3    H240457   1.407   1.041   6.913
13506TIP3   OH240458   0.511   1.768   0.583
13506TIP3    H140459   0.602   1.745   0.561
13506TIP3    H240460   0.494   1.724   0.666
13507TIP3   OH240461   1.236   4.827   4.822
13507TIP3    H140462   1.283   4.746   4.806
13507TIP3    H240463   1.285   4.870   4.892
13508TIP3   OH240464   3.231   0.414   0.035
13508TIP3    H140465   3.262   0.329   0.066
13508TIP3    H240466   3.310   0.462   0.012
13509TIP3   OH240467   0.639   1.907   2.194
13509TIP3    H140468   0.681   1.924   2.110
13509TIP3    H240469   0.707   1.925   2.259
13510TIP3   OH240470   6.022   7.634   2.531
13510TIP3    H140471   5.940   7.677   2.508
13510TIP3    H240472   5.995   7.555   2.578
13511TIP3   OH240473   3.005   0.910   0.023
13511TIP3    H140474   3.049   0.985  -0.017
13511TIP3    H240475   2.948   0.876  -0.045
13512TIP3   OH240476   0.291   3.892   5.864
13512TIP3    H140477   0.360   3.896   5.797
13512TIP3    H240478   0.210   3.879   5.814
13513TIP3   OH240479   2.072   1.546   4.339
13513TIP3    H140480   2.035   1.603   4.271
13513TIP3    H240481   2.112   1.474   4.290
13514TIP3   OH240482   5.955   3.090   0.919
13514TIP3    H140483   5.890   3.066   0.985
13514TIP3    H240484   6.020   3.142   0.967
13515TIP3   OH240485   5.968   6.937   6.028
13515TIP3    H140486   6.031   6.991   6.076
13515TIP3    H240487   5.984   6.958   5.936
13516TIP3   OH240488   6.980   0.635   4.755
13516TIP3    H140489   6.986   0.561   4.816
13516TIP3    H240490   7.066   0.640   4.715
13517TIP3   OH240491   1.148   3.508   0.194
13517TIP3    H140492   1.147   3.422   0.237
13517TIP3    H240493   1.062   3.516   0.153
13518TIP3   OH240494   4.419   2.858   3.297
13518TIP3    H140495   4.395   2.842   3.206
13518TIP3    H240496   4.335   2.865   3.343
13519TIP3   OH240497   8.079   0.224   6.214
13519TIP3    H140498   8.051   0.159   6.149
13519TIP3    H240499   8.052   0.187   6.298
13520TIP3   OH240500   5.745   4.464   3.716
13520TIP3    H140501   5.826   4.422   3.747
13520TIP3    H240502   5.773   4.521   3.645
13521TIP3   OH240503   5.343   5.209   0.784
13521TIP3    H140504   5.353   5.231   0.692
13521TIP3    H240505   5.393   5.129   0.796
13522TIP3   OH240506   0.264   0.867   5.302
13522TIP3    H140507   0.215   0.916   5.367
13522TIP3    H240508   0.198   0.815   5.256
13523TIP3   OH240509   3.440   1.473   0.905
13523TIP3    H140510   3.444   1.390   0.858
13523TIP3    H240511   3.486   1.535   0.849
13524TIP3   OH240512   7.561   2.151   6.303
13524TIP3    H140513   7.590   2.071   6.348
13524TIP3    H240514   7.565   2.219   6.370
13525TIP3   OH240515   5.835   1.562   0.597
13525TIP3    H140516   5.813   1.651   0.623
13525TIP3    H240517   5.897   1.572   0.525
13526TIP3   OH240518   6.378   0.535   0.791
13526TIP3    H140519   6.358   0.622   0.824
13526TIP3    H240520   6.313   0.519   0.723
13527TIP3   OH240521   1.353   0.300   6.209
13527TIP3    H140522   1.417   0.229   6.208
13527TIP3    H240523   1.299   0.281   6.286
13528TIP3   OH240524   3.763   1.061   3.461
13528TIP3    H140525   3.701   1.133   3.470
13528TIP3    H240526   3.798   1.048   3.549
13529TIP3   OH240527   0.385   4.734   5.629
13529TIP3    H140528   0.403   4.720   5.722
13529TIP3    H240529   0.433   4.813   5.607
13530TIP3   OH240530   1.348   7.469   4.346
13530TIP3    H140531   1.424   7.524   4.361
13530TIP3    H240532   1.382   7.380   4.345
13531TIP3   OH240533   5.527   0.620   0.465
13531TIP3    H140534   5.620   0.640   0.449
13531TIP3    H240535   5.528   0.571   0.547
13532TIP3   OH240536   5.270   7.741   3.383
13532TIP3    H140537   5.193   7.798   3.378
13532TIP3    H240538   5.235   7.655   3.405
13533TIP3   OH240539   8.091   5.810   1.083
13533TIP3    H140540   8.110   5.754   1.158
13533TIP3    H240541   8.174   5.814   1.035
13534TIP3   OH240542   7.137   2.850   1.184
13534TIP3    H140543   7.043   2.848   1.165
13534TIP3    H240544   7.150   2.779   1.247
13535TIP3   OH240545   1.695   2.546   1.648
13535TIP3    H140546   1.774   2.508   1.609
13535TIP3    H240547   1.700   2.639   1.626
13536TIP3   OH240548   3.045   4.734   3.598
13536TIP3    H140549   3.057   4.713   3.691
13536TIP3    H240550   3.131   4.720   3.559
13537TIP3   OH240551   1.799   4.495   3.404
13537TIP3    H140552   1.759   4.427   3.350
13537TIP3    H240553   1.803   4.572   3.346
13538TIP3   OH240554   6.393   4.139   3.858
13538TIP3    H140555   6.373   4.233   3.867
13538TIP3    H240556   6.476   4.128   3.904
13539TIP3   OH240557   1.529   2.727   0.183
13539TIP3    H140558   1.557   2.809   0.225
13539TIP3    H240559   1.538   2.661   0.252
13540TIP3   OH240560   3.520   2.993   1.167
13540TIP3    H140561   3.559   2.915   1.207
13540TIP3    H240562   3.500   3.050   1.240
13541TIP3   OH240563   7.455   6.677   0.167
13541TIP3    H140564   7.477   6.585   0.154
13541TIP3    H240565   7.393   6.677   0.240
13542TIP3   OH240566   5.651   6.439   3.342
13542TIP3    H140567   5.660   6.411   3.433
13542TIP3    H240568   5.737   6.472   3.318
13543TIP3   OH240569   6.873   0.680   6.343
13543TIP3    H140570   6.792   0.639   6.314
13543TIP3    H240571   6.902   0.733   6.269
13544TIP3   OH240572   1.564   7.715   1.526
13544TIP3    H140573   1.489   7.772   1.547
13544TIP3    H240574   1.641   7.771   1.538
13545TIP3   OH240575   4.111   5.011   6.454
13545TIP3    H140576   4.177   4.972   6.396
13545TIP3    H240577   4.036   5.029   6.398
13546TIP3   OH240578   3.345   0.036   4.498
13546TIP3    H140579   3.370  -0.053   4.521
13546TIP3    H240580   3.404   0.092   4.549
13547TIP3   OH240581   6.879   6.517   1.701
13547TIP3    H140582   6.901   6.465   1.778
13547TIP3    H240583   6.840   6.454   1.640
13548TIP3   OH240584   0.618   0.565   0.835
13548TIP3    H140585   0.658   0.583   0.750
13548TIP3    H240586   0.683   0.512   0.881
13549TIP3   OH240587   0.719   7.577   0.977
13549TIP3    H140588   0.677   7.494   1.000
13549TIP3    H240589   0.659   7.618   0.915
13550TIP3   OH240590   2.088   6.445   6.363
13550TIP3    H140591   2.046   6.530   6.379
13550TIP3    H240592   2.173   6.451   6.407
13551TIP3   OH240593   7.469   5.482   3.041
13551TIP3    H140594   7.529   5.535   2.989
13551TIP3    H240595   7.389   5.477   2.989
13552TIP3   OH240596   1.100   4.333   6.451
13552TIP3    H140597   1.057   4.253   6.483
13552TIP3    H240598   1.173   4.346   6.512
13553TIP3   OH240599   3.149   1.105   5.864
13553TIP3    H140600   3.203   1.158   5.922
13553TIP3    H240601   3.208   1.079   5.793
13554TIP3   OH240602   3.833   2.626   0.649
13554TIP3    H140603   3.840   2.589   0.561
13554TIP3    H240604   3.920   2.616   0.686
13555TIP3   OH240605   6.484   7.900   2.764
13555TIP3    H140606   6.419   7.836   2.792
13555TIP3    H240607   6.567   7.864   2.794
13556TIP3   OH240608   0.514   3.729   1.893
13556TIP3    H140609   0.464   3.664   1.844
13556TIP3    H240610   0.482   3.722   1.983
13557TIP3   OH240611   2.194   2.002   0.214
13557TIP3    H140612   2.226   1.914   0.234
13557TIP3    H240613   2.112   2.009   0.263
13558TIP3   OH240614   1.814   1.023   2.989
13558TIP3    H140615   1.731   1.071   2.987
13558TIP3    H240616   1.788   0.931   2.987
13559TIP3   OH240617   1.646   7.102   0.773
13559TIP3    H140618   1.732   7.138   0.793
13559TIP3    H240619   1.624   7.049   0.849
13560TIP3   OH240620   5.481   2.358   1.646
13560TIP3    H140621   5.478   2.444   1.687
13560TIP3    H240622   5.409   2.309   1.687
13561TIP3   OH240623   3.388   0.468   1.220
13561TIP3    H140624   3.444   0.536   1.257
13561TIP3    H240625   3.392   0.481   1.126
13562TIP3   OH240626   7.802   3.822   3.624
13562TIP3    H140627   7.826   3.913   3.603
13562TIP3    H240628   7.722   3.830   3.676
13563TIP3   OH240629   6.435   4.632   3.230
13563TIP3    H140630   6.454   4.614   3.138
13563TIP3    H240631   6.463   4.553   3.277
13564TIP3   OH240632   4.031   4.639   3.495
13564TIP3    H140633   3.948   4.659   3.538
13564TIP3    H240634   4.065   4.563   3.541
13565TIP3   OH240635   3.548   4.618   2.474
13565TIP3    H140636   3.602   4.624   2.553
13565TIP3    H240637   3.606   4.647   2.404
13566TIP3   OH240638   3.086   6.977   1.440
13566TIP3    H140639   3.139   6.899   1.461
13566TIP3    H240640   3.015   6.943   1.385
13567TIP3   OH240641   3.318   7.241   0.356
13567TIP3    H140642   3.256   7.176   0.324
13567TIP3    H240643   3.398   7.191   0.374
13568TIP3   OH240644   5.486   3.968   4.076
13568TIP3    H140645   5.550   3.944   4.009
13568TIP3    H240646   5.533   3.962   4.159
13569TIP3   OH240647   7.395   4.561   6.071
13569TIP3    H140648   7.399   4.647   6.031
13569TIP3    H240649   7.443   4.570   6.154
13570TIP3   OH240650   6.225   2.025   1.129
13570TIP3    H140651   6.176   2.087   1.184
13570TIP3    H240652   6.248   2.075   1.051
13571TIP3   OH240653   4.568   5.342   5.974
13571TIP3    H140654   4.487   5.343   5.923
13571TIP3    H240655   4.547   5.391   6.054
13572TIP3   OH240656   5.092   4.604   6.746
13572TIP3    H140657   5.045   4.544   6.802
13572TIP3    H240658   5.184   4.595   6.772
13573TIP3   OH240659   0.125   3.363   6.340
13573TIP3    H140660   0.170   3.280   6.352
13573TIP3    H240661   0.105   3.393   6.429
13574TIP3   OH240662   4.046   5.207   5.791
13574TIP3    H140663   4.036   5.300   5.769
13574TIP3    H240664   3.993   5.196   5.870
13575TIP3   OH240665   2.236   6.810   2.973
13575TIP3    H140666   2.279   6.747   3.031
13575TIP3    H240667   2.224   6.762   2.890
13576TIP3   OH240668   1.799   5.884   2.619
13576TIP3    H140669   1.881   5.857   2.579
13576TIP3    H240670   1.737   5.815   2.594
13577TIP3   OH240671   4.956   2.637   0.841
13577TIP3    H140672   4.893   2.581   0.795
13577TIP3    H240673   5.041   2.596   0.823
13578TIP3   OH240674   7.726   5.202   1.978
13578TIP3    H140675   7.773   5.252   2.044
13578TIP3    H240676   7.654   5.161   2.026
13579TIP3   OH240677   7.407   5.417   2.698
13579TIP3    H140678   7.360   5.465   2.630
13579TIP3    H240679   7.500   5.430   2.676
13580TIP3   OH240680   1.199   7.699   3.957
13580TIP3    H140681   1.217   7.639   3.884
13580TIP3    H240682   1.222   7.649   4.035
13581TIP3   OH240683   1.093   7.568   1.802
13581TIP3    H140684   1.114   7.638   1.741
13581TIP3    H240685   1.167   7.564   1.862
13582TIP3   OH240686   1.316   6.433   3.138
13582TIP3    H140687   1.383   6.389   3.085
13582TIP3    H240688   1.239   6.376   3.131
13583TIP3   OH240689   3.594   4.409   3.234
13583TIP3    H140690   3.578   4.413   3.329
13583TIP3    H240691   3.557   4.491   3.201
13584TIP3   OH240692   4.798   3.437   0.055
13584TIP3    H140693   4.795   3.529   0.082
13584TIP3    H240694   4.787   3.439  -0.040
13585TIP3   OH240695   7.640   7.631   4.540
13585TIP3    H140696   7.599   7.718   4.541
13585TIP3    H240697   7.732   7.647   4.522
13586TIP3   OH240698   6.698   4.557   5.757
13586TIP3    H140699   6.656   4.473   5.771
13586TIP3    H240700   6.630   4.611   5.715
13587TIP3   OH240701   2.803   2.581   0.053
13587TIP3    H140702   2.797   2.495   0.096
13587TIP3    H240703   2.785   2.563  -0.039
13588TIP3   OH240704   1.188   4.957   3.672
13588TIP3    H140705   1.188   4.902   3.750
13588TIP3    H240706   1.271   5.006   3.678
13589TIP3   OH240707   8.183   6.664   1.060
13589TIP3    H140708   8.142   6.594   1.111
13589TIP3    H240709   8.215   6.726   1.126
13590TIP3   OH240710   4.337   2.845   2.478
13590TIP3    H140711   4.271   2.915   2.481
13590TIP3    H240712   4.317   2.797   2.398
13591TIP3   OH240713   7.088   6.235   1.712
13591TIP3    H140714   7.001   6.254   1.676
13591TIP3    H240715   7.143   6.307   1.683
13592TIP3   OH240716   0.229   4.599   2.030
13592TIP3    H140717   0.298   4.551   2.076
13592TIP3    H240718   0.255   4.691   2.036
13593TIP3   OH240719   7.023   0.849   3.735
13593TIP3    H140720   7.033   0.868   3.828
13593TIP3    H240721   7.110   0.863   3.698
13594TIP3   OH240722   1.905   2.881   3.668
13594TIP3    H140723   1.993   2.883   3.706
13594TIP3    H240724   1.917   2.838   3.583
13595TIP3   OH240725   7.344   0.907   5.231
13595TIP3    H140726   7.298   0.990   5.244
13595TIP3    H240727   7.402   0.923   5.157
13596TIP3   OH240728   2.076   2.339   3.759
13596TIP3    H140729   2.090   2.419   3.810
13596TIP3    H240730   1.982   2.323   3.764
13597TIP3   OH240731   7.224   4.965   3.282
13597TIP3    H140732   7.244   5.058   3.272
13597TIP3    H240733   7.265   4.923   3.207
13598TIP3   OH240734   2.385   5.985   0.626
13598TIP3    H140735   2.449   6.056   0.623
13598TIP3    H240736   2.398   5.937   0.544
13599TIP3   OH240737   6.129   1.846   2.422
13599TIP3    H140738   6.105   1.857   2.330
13599TIP3    H240739   6.069   1.904   2.470
13600TIP3   OH240740   1.284   2.685   1.101
13600TIP3    H140741   1.292   2.613   1.038
13600TIP3    H240742   1.371   2.692   1.140
13601TIP3   OH240743   0.699   4.933   1.647
13601TIP3    H140744   0.734   4.847   1.623
13601TIP3    H240745   0.713   4.988   1.570
13602TIP3   OH240746   0.869   2.043   5.481
13602TIP3    H140747   0.910   2.113   5.430
13602TIP3    H240748   0.937   1.976   5.489
13603TIP3   OH240749   0.547   0.325   2.236
13603TIP3    H140750   0.499   0.275   2.301
13603TIP3    H240751   0.480   0.378   2.192
13604TIP3   OH240752   4.333   5.084   1.427
13604TIP3    H140753   4.308   5.113   1.340
13604TIP3    H240754   4.258   5.106   1.483
13605TIP3   OH240755   4.058   0.610   3.844
13605TIP3    H140756   3.986   0.642   3.789
13605TIP3    H240757   4.115   0.563   3.783
13606TIP3   OH240758   2.360   0.277   6.789
13606TIP3    H140759   2.356   0.341   6.718
13606TIP3    H240760   2.382   0.194   6.746
13607TIP3   OH240761   0.712   1.650   2.308
13607TIP3    H140762   0.676   1.705   2.238
13607TIP3    H240763   0.672   1.684   2.388
13608TIP3   OH240764   3.705   1.141   3.160
13608TIP3    H140765   3.736   1.075   3.098
13608TIP3    H240766   3.738   1.112   3.245
13609TIP3   OH240767   2.595   4.583   1.588
13609TIP3    H140768   2.633   4.611   1.671
13609TIP3    H240769   2.593   4.662   1.534
13610TIP3   OH240770   4.148   5.974   0.937
13610TIP3    H140771   4.064   5.971   0.983
13610TIP3    H240772   4.160   6.066   0.915
13611TIP3   OH240773   5.928   4.415   3.095
13611TIP3    H140774   5.903   4.370   3.175
13611TIP3    H240775   5.868   4.380   3.028
13612TIP3   OH240776   2.901   0.513   4.212
13612TIP3    H140777   2.869   0.588   4.263
13612TIP3    H240778   2.834   0.446   4.224
13613TIP3   OH240779   5.874   1.173   2.542
13613TIP3    H140780   5.830   1.088   2.533
13613TIP3    H240781   5.963   1.151   2.570
13614TIP3   OH240782   6.383   5.569   1.066
13614TIP3    H140783   6.448   5.585   0.997
13614TIP3    H240784   6.415   5.619   1.141
13615TIP3   OH240785   1.333   0.031   2.759
13615TIP3    H140786   1.357   0.103   2.818
13615TIP3    H240787   1.416  -0.012   2.738
13616TIP3   OH240788   3.080   6.849   5.950
13616TIP3    H140789   3.092   6.855   5.855
13616TIP3    H240790   3.019   6.777   5.962
13617TIP3   OH240791   0.591   3.670   2.148
13617TIP3    H140792   0.667   3.714   2.109
13617TIP3    H240793   0.592   3.698   2.239
13618TIP3   OH240794   4.676   4.025   3.294
13618TIP3    H140795   4.720   4.023   3.380
13618TIP3    H240796   4.614   3.952   3.297
13619TIP3   OH240797   1.885   1.372   2.127
13619TIP3    H140798   1.883   1.300   2.190
13619TIP3    H240799   1.972   1.367   2.087
13620TIP3   OH240800   0.432   1.921   6.787
13620TIP3    H140801   0.479   1.851   6.742
13620TIP3    H240802   0.347   1.883   6.808
13621TIP3   OH240803   8.166   5.090   3.143
13621TIP3    H140804   8.108   5.161   3.114
13621TIP3    H240805   8.110   5.032   3.193
13622TIP3   OH240806   7.426   3.764   4.032
13622TIP3    H140807   7.490   3.732   4.096
13622TIP3    H240808   7.419   3.693   3.967
13623TIP3   OH240809   0.589   2.864   3.004
13623TIP3    H140810   0.655   2.822   2.949
13623TIP3    H240811   0.615   2.956   3.008
13624TIP3   OH240812   4.473   5.805   6.514
13624TIP3    H140813   4.465   5.752   6.593
13624TIP3    H240814   4.510   5.746   6.448
13625TIP3   OH240815   2.206   3.599   5.981
13625TIP3    H140816   2.233   3.537   6.048
13625TIP3    H240817   2.275   3.665   5.981
13626TIP3   OH240818   3.963   5.650   4.105
13626TIP3    H140819   3.976   5.727   4.050
13626TIP3    H240820   4.016   5.667   4.183
13627TIP3   OH240821   4.415   3.185   3.505
13627TIP3    H140822   4.510   3.188   3.493
13627TIP3    H240823   4.398   3.096   3.537
13628TIP3   OH240824   2.515   4.070   4.928
13628TIP3    H140825   2.574   4.035   4.995
13628TIP3    H240826   2.486   4.154   4.963
13629TIP3   OH240827   6.071   7.629   1.890
13629TIP3    H140828   6.040   7.667   1.808
13629TIP3    H240829   6.024   7.679   1.958
13630TIP3   OH240830   6.781   2.208   1.963
13630TIP3    H140831   6.780   2.195   1.868
13630TIP3    H240832   6.723   2.283   1.978
13631TIP3   OH240833   3.692   6.893   2.078
13631TIP3    H140834   3.701   6.963   2.144
13631TIP3    H240835   3.729   6.931   1.998
13632TIP3   OH240836   1.453   7.343   2.502
13632TIP3    H140837   1.521   7.409   2.517
13632TIP3    H240838   1.371   7.392   2.507
13633TIP3   OH240839   8.116   0.911   0.929
13633TIP3    H140840   8.165   0.829   0.926
13633TIP3    H240841   8.183   0.979   0.917
13634TIP3   OH240842   0.526   0.889   3.995
13634TIP3    H140843   0.507   0.981   3.976
13634TIP3    H240844   0.478   0.871   4.076
13635TIP3   OH240845   7.207   1.153   5.555
13635TIP3    H140846   7.147   1.170   5.482
13635TIP3    H240847   7.246   1.238   5.574
13636TIP3   OH240848   3.272   7.154   5.213
13636TIP3    H140849   3.235   7.242   5.203
13636TIP3    H240850   3.199   7.095   5.195
13637TIP3   OH240851   4.625   3.395   6.723
13637TIP3    H140852   4.555   3.437   6.772
13637TIP3    H240853   4.640   3.312   6.767
13638TIP3   OH240854   4.808   3.007   1.970
13638TIP3    H140855   4.821   3.093   2.009
13638TIP3    H240856   4.728   2.973   2.011
13639TIP3   OH240857   2.105   4.385   3.458
13639TIP3    H140858   2.191   4.423   3.475
13639TIP3    H240859   2.049   4.423   3.525
13640TIP3   OH240860   4.953   3.991   4.377
13640TIP3    H140861   4.892   3.987   4.303
13640TIP3    H240862   4.897   3.988   4.454
13641TIP3   OH240863   0.452   4.667   3.313
13641TIP3    H140864   0.370   4.672   3.263
13641TIP3    H240865   0.456   4.576   3.342
13642TIP3   OH240866   6.915   4.577   1.244
13642TIP3    H140867   6.907   4.610   1.154
13642TIP3    H240868   6.854   4.632   1.294
13643TIP3   OH240869   7.962   2.942   5.151
13643TIP3    H140870   8.044   2.948   5.201
13643TIP3    H240871   7.915   2.869   5.192
13644TIP3   OH240872   7.058   6.028   6.442
13644TIP3    H140873   7.022   6.072   6.365
13644TIP3    H240874   7.133   6.083   6.467
13645TIP3   OH240875   4.094   0.392   3.049
13645TIP3    H140876   4.038   0.453   3.000
13645TIP3    H240877   4.123   0.328   2.983
13646TIP3   OH240878   5.110   7.511   6.601
13646TIP3    H140879   5.088   7.604   6.596
13646TIP3    H240880   5.184   7.500   6.542
13647TIP3   OH240881   1.442   2.828   0.777
13647TIP3    H140882   1.380   2.794   0.713
13647TIP3    H240883   1.388   2.869   0.844
13648TIP3   OH240884   2.770   4.609   6.682
13648TIP3    H140885   2.780   4.652   6.766
13648TIP3    H240886   2.846   4.552   6.674
13649TIP3   OH240887   6.736   1.136   1.590
13649TIP3    H140888   6.688   1.218   1.601
13649TIP3    H240889   6.826   1.157   1.615
13650TIP3   OH240890   3.358   7.456   2.096
13650TIP3    H140891   3.340   7.392   2.165
13650TIP3    H240892   3.272   7.477   2.059
13651TIP3   OH240893   6.666   5.944   1.321
13651TIP3    H140894   6.622   5.998   1.387
13651TIP3    H240895   6.759   5.968   1.329
13652TIP3   OH240896   4.827   6.777   3.201
13652TIP3    H140897   4.821   6.683   3.183
13652TIP3    H240898   4.793   6.819   3.122
13653TIP3   OH240899   4.025   2.412   1.714
13653TIP3    H140900   3.933   2.422   1.736
13653TIP3    H240901   4.033   2.323   1.681
13654TIP3   OH240902   8.097   6.578   3.763
13654TIP3    H140903   8.169   6.592   3.825
13654TIP3    H240904   8.020   6.569   3.819
13655TIP3   OH240905   3.999   0.764   5.717
13655TIP3    H140906   3.990   0.675   5.752
13655TIP3    H240907   4.006   0.819   5.794
13656TIP3   OH240908   1.994   3.648   6.518
13656TIP3    H140909   2.064   3.591   6.485
13656TIP3    H240910   2.032   3.736   6.517
13657TIP3   OH240911   1.675   3.692   1.370
13657TIP3    H140912   1.673   3.681   1.275
13657TIP3    H240913   1.768   3.706   1.391
13658TIP3   OH240914   6.153   1.186   5.492
13658TIP3    H140915   6.156   1.239   5.571
13658TIP3    H240916   6.114   1.103   5.519
13659TIP3   OH240917   4.397   7.576   4.447
13659TIP3    H140918   4.373   7.484   4.459
13659TIP3    H240919   4.384   7.593   4.354
13660TIP3   OH240920   0.737   6.760   0.707
13660TIP3    H140921   0.832   6.759   0.694
13660TIP3    H240922   0.701   6.733   0.622
13661TIP3   OH240923   1.928   3.817   1.021
13661TIP3    H140924   1.850   3.778   0.983
13661TIP3    H240925   1.925   3.793   1.113
13662TIP3   OH240926   5.898   0.499   2.704
13662TIP3    H140927   5.872   0.416   2.663
13662TIP3    H240928   5.831   0.561   2.677
13663TIP3   OH240929   7.966   0.750   0.117
13663TIP3    H140930   7.963   0.708   0.031
13663TIP3    H240931   8.060   0.762   0.134
13664TIP3   OH240932   4.779   0.081   4.293
13664TIP3    H140933   4.773   0.006   4.351
13664TIP3    H240934   4.689   0.113   4.285
13665TIP3   OH240935   6.890   4.107   6.635
13665TIP3    H140936   6.848   4.159   6.567
13665TIP3    H240937   6.828   4.108   6.708
13666TIP3   OH240938   2.310   6.303   4.872
13666TIP3    H140939   2.235   6.353   4.841
13666TIP3    H240940   2.386   6.348   4.835
13667TIP3   OH240941   1.120   1.727   3.700
13667TIP3    H140942   1.108   1.755   3.609
13667TIP3    H240943   1.057   1.656   3.711
13668TIP3   OH240944   8.170   3.389   1.772
13668TIP3    H140945   8.101   3.325   1.754
13668TIP3    H240946   8.123   3.472   1.781
13669TIP3   OH240947   4.075   0.969   0.227
13669TIP3    H140948   4.119   1.001   0.149
13669TIP3    H240949   4.017   0.900   0.195
13670TIP3   OH240950   4.882   2.746   4.153
13670TIP3    H140951   4.820   2.780   4.089
13670TIP3    H240952   4.828   2.713   4.225
13671TIP3   OH240953   3.758   0.374   1.270
13671TIP3    H140954   3.703   0.447   1.297
13671TIP3    H240955   3.699   0.316   1.223
13672TIP3   OH240956   5.528   2.328   1.936
13672TIP3    H140957   5.491   2.262   1.877
13672TIP3    H240958   5.454   2.383   1.960
13673TIP3   OH240959   4.910   5.156   4.110
13673TIP3    H140960   4.855   5.112   4.175
13673TIP3    H240961   4.870   5.243   4.099
13674TIP3   OH240962   1.710   6.985   1.442
13674TIP3    H140963   1.721   7.036   1.522
13674TIP3    H240964   1.657   7.041   1.385
13675TIP3   OH240965   6.250   6.818   0.151
13675TIP3    H140966   6.298   6.886   0.199
13675TIP3    H240967   6.263   6.739   0.203
13676TIP3   OH240968   6.406   2.145   2.491
13676TIP3    H140969   6.478   2.189   2.536
13676TIP3    H240970   6.356   2.104   2.562
13677TIP3   OH240971   7.391   5.008   4.226
13677TIP3    H140972   7.460   4.977   4.167
13677TIP3    H240973   7.312   4.965   4.195
13678TIP3   OH240974   4.047   0.621   2.367
13678TIP3    H140975   4.130   0.584   2.398
13678TIP3    H240976   3.982   0.554   2.388
13679TIP3   OH240977   0.860   3.060   3.064
13679TIP3    H140978   0.938   3.115   3.051
13679TIP3    H240979   0.787   3.118   3.044
13680TIP3   OH240980   1.686   7.804   4.372
13680TIP3    H140981   1.699   7.722   4.324
13680TIP3    H240982   1.688   7.779   4.464
13681TIP3   OH240983   6.617   6.759   1.747
13681TIP3    H140984   6.636   6.791   1.659
13681TIP3    H240985   6.635   6.834   1.804
13682TIP3   OH240986   0.502   4.172   3.103
13682TIP3    H140987   0.411   4.167   3.074
13682TIP3    H240988   0.549   4.111   3.047
13683TIP3   OH240989   2.317   0.025   4.458
13683TIP3    H140990   2.368   0.105   4.461
13683TIP3    H240991   2.226   0.054   4.460
13684TIP3   OH240992   1.535   1.982   5.848
13684TIP3    H140993   1.468   2.025   5.794
13684TIP3    H240994   1.490   1.960   5.929
13685TIP3   OH240995   1.608   7.874   1.223
13685TIP3    H140996   1.573   7.894   1.137
13685TIP3    H240997   1.598   7.955   1.273
13686TIP3   OH240998   3.277   1.594   6.568
13686TIP3    H140999   3.356   1.566   6.522
13686TIP3    H241000   3.293   1.570   6.659
13687TIP3   OH241001   1.891   5.407   0.777
13687TIP3    H141002   1.880   5.502   0.783
13687TIP3    H241003   1.860   5.374   0.862
13688TIP3   OH241004   7.679   1.178   4.061
13688TIP3    H141005   7.683   1.139   3.974
13688TIP3    H241006   7.651   1.107   4.118
13689TIP3   OH241007   4.147   2.110   6.670
13689TIP3    H141008   4.117   2.034   6.621
13689TIP3    H241009   4.067   2.155   6.697
13690TIP3   OH241010   1.806   7.172   4.790
13690TIP3    H141011   1.771   7.261   4.785
13690TIP3    H241012   1.849   7.169   4.875
13691TIP3   OH241013   5.695   0.569   6.383
13691TIP3    H141014   5.785   0.562   6.352
13691TIP3    H241015   5.645   0.516   6.321
13692TIP3   OH241016   2.102   7.573   5.281
13692TIP3    H141017   2.040   7.621   5.227
13692TIP3    H241018   2.123   7.633   5.353
13693TIP3   OH241019   1.051   5.750   5.551
13693TIP3    H141020   1.084   5.817   5.610
13693TIP3    H241021   0.987   5.701   5.604
13694TIP3   OH241022   1.820   3.290   4.690
13694TIP3    H141023   1.891   3.246   4.737
13694TIP3    H241024   1.774   3.339   4.757
13695TIP3   OH241025   2.653   7.630   3.269
13695TIP3    H141026   2.641   7.561   3.204
13695TIP3    H241027   2.742   7.662   3.255
13696TIP3   OH241028   5.616   1.168   0.927
13696TIP3    H141029   5.555   1.238   0.950
13696TIP3    H241030   5.630   1.178   0.833
13697TIP3   OH241031   2.056   0.567   3.813
13697TIP3    H141032   2.074   0.654   3.848
13697TIP3    H241033   2.083   0.572   3.721
13698TIP3   OH241034   8.283   3.996   3.909
13698TIP3    H141035   8.207   3.959   3.864
13698TIP3    H241036   8.253   4.008   4.000
13699TIP3   OH241037   6.052   1.650   4.925
13699TIP3    H141038   6.028   1.653   5.017
13699TIP3    H241039   6.079   1.560   4.910
13700TIP3   OH241040   3.761   6.545   3.589
13700TIP3    H141041   3.724   6.624   3.548
13700TIP3    H241042   3.716   6.472   3.546
13701TIP3   OH241043   5.471   6.015   4.680
13701TIP3    H141044   5.520   5.940   4.715
13701TIP3    H241045   5.386   6.010   4.722
13702TIP3   OH241046   0.414   1.478   1.597
13702TIP3    H141047   0.445   1.430   1.673
13702TIP3    H241048   0.484   1.542   1.579
13703TIP3   OH241049   5.570   0.274   5.527
13703TIP3    H141050   5.565   0.179   5.524
13703TIP3    H241051   5.664   0.293   5.520
13704TIP3   OH241052   8.350   3.739   4.210
13704TIP3    H141053   8.435   3.698   4.224
13704TIP3    H241054   8.309   3.684   4.142
13705TIP3   OH241055   7.361   0.865   2.525
13705TIP3    H141056   7.412   0.822   2.594
13705TIP3    H241057   7.290   0.909   2.572
13706TIP3   OH241058   8.359   3.028   2.613
13706TIP3    H141059   8.281   2.997   2.566
13706TIP3    H241060   8.427   2.965   2.590
13707TIP3   OH241061   6.988   3.438   1.415
13707TIP3    H141062   6.978   3.343   1.414
13707TIP3    H241063   6.902   3.472   1.389
13708TIP3   OH241064   7.914   2.263   1.412
13708TIP3    H141065   7.994   2.298   1.372
13708TIP3    H241066   7.943   2.231   1.498
13709TIP3   OH241067   4.597   6.276   0.320
13709TIP3    H141068   4.668   6.235   0.270
13709TIP3    H241069   4.629   6.278   0.410
13710TIP3   OH241070   6.869   1.158   4.216
13710TIP3    H141071   6.888   1.081   4.270
13710TIP3    H241072   6.780   1.182   4.240
13711TIP3   OH241073   5.625   2.088   4.129
13711TIP3    H141074   5.682   2.159   4.159
13711TIP3    H241075   5.551   2.132   4.089
13712TIP3   OH241076   0.765   2.855   4.860
13712TIP3    H141077   0.674   2.884   4.853
13712TIP3    H241078   0.793   2.884   4.946
13713TIP3   OH241079   6.702   7.625   0.580
13713TIP3    H141080   6.628   7.608   0.521
13713TIP3    H241081   6.753   7.544   0.579
13714TIP3   OH241082   8.052   3.311   6.159
13714TIP3    H141083   8.075   3.381   6.221
13714TIP3    H241084   8.026   3.358   6.080
13715TIP3   OH241085   7.824   3.238   1.092
13715TIP3    H141086   7.824   3.325   1.051
13715TIP3    H241087   7.861   3.252   1.179
13716TIP3   OH241088   0.295   2.676   1.554
13716TIP3    H141089   0.266   2.753   1.505
13716TIP3    H241090   0.297   2.605   1.489
13717TIP3   OH241091   4.974   2.228   3.415
13717TIP3    H141092   4.943   2.312   3.380
13717TIP3    H241093   4.952   2.231   3.508
13718TIP3   OH241094   2.181   5.300   3.472
13718TIP3    H141095   2.159   5.207   3.478
13718TIP3    H241096   2.114   5.337   3.415
13719TIP3   OH241097   3.321   6.325   6.427
13719TIP3    H141098   3.293   6.390   6.491
13719TIP3    H241099   3.345   6.377   6.350
13720TIP3   OH241100   7.872   0.146   6.826
13720TIP3    H141101   7.943   0.171   6.767
13720TIP3    H241102   7.910   0.153   6.914
13721TIP3   OH241103   1.544   0.051   2.011
13721TIP3    H141104   1.540   0.145   2.031
13721TIP3    H241105   1.459   0.017   2.039
13722TIP3   OH241106   5.230   7.646   3.083
13722TIP3    H141107   5.302   7.600   3.125
13722TIP3    H241108   5.181   7.577   3.038
13723TIP3   OH241109   2.742   2.226   1.461
13723TIP3    H141110   2.780   2.139   1.444
13723TIP3    H241111   2.781   2.282   1.394
13724TIP3   OH241112   5.488   7.752   5.065
13724TIP3    H141113   5.411   7.762   5.009
13724TIP3    H241114   5.559   7.731   5.004
13725TIP3   OH241115   5.971   0.534   2.057
13725TIP3    H141116   5.997   0.620   2.025
13725TIP3    H241117   5.879   0.527   2.034
13726TIP3   OH241118   0.696   7.064   2.217
13726TIP3    H141119   0.626   7.104   2.165
13726TIP3    H241120   0.653   6.992   2.263
13727TIP3   OH241121   5.937   2.669   1.317
13727TIP3    H141122   6.018   2.652   1.366
13727TIP3    H241123   5.891   2.734   1.369
13728TIP3   OH241124   0.319   2.486   5.516
13728TIP3    H141125   0.249   2.452   5.461
13728TIP3    H241126   0.317   2.432   5.595
13729TIP3   OH241127   7.727   1.827   5.931
13729TIP3    H141128   7.711   1.917   5.957
13729TIP3    H241129   7.643   1.795   5.899
13730TIP3   OH241130   0.399   7.515   3.918
13730TIP3    H141131   0.435   7.570   3.848
13730TIP3    H241132   0.369   7.436   3.874
13731TIP3   OH241133   7.174   5.359   5.209
13731TIP3    H141134   7.251   5.317   5.170
13731TIP3    H241135   7.175   5.448   5.174
13732TIP3   OH241136   5.233   3.550   1.885
13732TIP3    H141137   5.257   3.620   1.824
13732TIP3    H241138   5.308   3.542   1.944
13733TIP3   OH241139   2.047   7.417   3.198
13733TIP3    H141140   1.976   7.405   3.260
13733TIP3    H241141   2.113   7.467   3.247
13734TIP3   OH241142   8.326   3.456   6.178
13734TIP3    H141143   8.307   3.536   6.227
13734TIP3    H241144   8.386   3.407   6.234
13735TIP3   OH241145   7.147   0.645   1.382
13735TIP3    H141146   7.208   0.676   1.315
13735TIP3    H241147   7.061   0.652   1.340
13736TIP3   OH241148   1.750   4.562   6.352
13736TIP3    H141149   1.829   4.575   6.300
13736TIP3    H241150   1.772   4.490   6.411
13737TIP3   OH241151   0.390   5.295   4.126
13737TIP3    H141152   0.359   5.208   4.151
13737TIP3    H241153   0.408   5.338   4.210
13738TIP3   OH241154   3.802   7.001   1.845
13738TIP3    H141155   3.824   6.956   1.763
13738TIP3    H241156   3.873   7.063   1.859
13739TIP3   OH241157   3.854   6.130   1.509
13739TIP3    H141158   3.868   6.114   1.416
13739TIP3    H241159   3.824   6.221   1.514
13740TIP3   OH241160   2.588   0.281   3.447
13740TIP3    H141161   2.550   0.275   3.534
13740TIP3    H241162   2.663   0.222   3.448
13741TIP3   OH241163   5.081   5.220   2.545
13741TIP3    H141164   5.078   5.248   2.454
13741TIP3    H241165   5.143   5.147   2.546
13742TIP3   OH241166   4.347   4.787   6.795
13742TIP3    H141167   4.434   4.803   6.832
13742TIP3    H241168   4.344   4.692   6.781
13743TIP3   OH241169   7.889   6.535   4.196
13743TIP3    H141170   7.913   6.447   4.225
13743TIP3    H241171   7.836   6.571   4.267
13744TIP3   OH241172   7.248   0.151   1.076
13744TIP3    H141173   7.255   0.237   1.118
13744TIP3    H241174   7.163   0.117   1.103
13745TIP3   OH241175   5.329   0.713   0.783
13745TIP3    H141176   5.359   0.637   0.732
13745TIP3    H241177   5.404   0.738   0.836
13746TIP3   OH241178   4.039   0.805   1.105
13746TIP3    H141179   4.045   0.781   1.013
13746TIP3    H241180   4.015   0.723   1.149
13747TIP3   OH241181   0.004   6.575   2.502
13747TIP3    H141182  -0.061   6.572   2.572
13747TIP3    H241183   0.002   6.487   2.464
13748TIP3   OH241184   2.179   4.193   0.902
13748TIP3    H141185   2.195   4.099   0.913
13748TIP3    H241186   2.092   4.198   0.862
13749TIP3   OH241187   6.118   0.719   6.676
13749TIP3    H141188   6.102   0.664   6.753
13749TIP3    H241189   6.198   0.768   6.698
13750TIP3   OH241190   1.143   3.890   3.200
13750TIP3    H141191   1.165   3.945   3.275
13750TIP3    H241192   1.127   3.803   3.238
13751TIP3   OH241193   7.941   4.805   2.775
13751TIP3    H141194   7.862   4.814   2.721
13751TIP3    H241195   7.961   4.894   2.804
13752TIP3   OH241196   0.696   2.112   6.800
13752TIP3    H141197   0.630   2.180   6.796
13752TIP3    H241198   0.692   2.069   6.715
13753TIP3   OH241199   7.745   3.830   3.945
13753TIP3    H141200   7.725   3.826   4.038
13753TIP3    H241201   7.662   3.855   3.903
13754TIP3   OH241202   0.962   4.558   6.577
13754TIP3    H141203   0.989   4.649   6.586
13754TIP3    H241204   1.039   4.507   6.602
13755TIP3   OH241205   4.345   0.566   6.444
13755TIP3    H141206   4.373   0.619   6.519
13755TIP3    H241207   4.292   0.626   6.390
13756TIP3   OH241208   6.518   5.707   2.571
13756TIP3    H141209   6.450   5.742   2.514
13756TIP3    H241210   6.503   5.612   2.571
13757TIP3   OH241211   5.395   1.965   1.563
13757TIP3    H141212   5.388   2.053   1.525
13757TIP3    H241213   5.318   1.957   1.618
13758TIP3   OH241214   6.632   3.043   4.862
13758TIP3    H141215   6.723   3.044   4.893
13758TIP3    H241216   6.639   3.035   4.767
13759TIP3   OH241217   1.133   0.493   4.424
13759TIP3    H141218   1.161   0.567   4.477
13759TIP3    H241219   1.141   0.524   4.333
13760TIP3   OH241220   5.595   7.773   1.437
13760TIP3    H141221   5.672   7.821   1.467
13760TIP3    H241222   5.602   7.774   1.341
13761TIP3   OH241223   5.686   1.995   2.368
13761TIP3    H141224   5.693   1.914   2.317
13761TIP3    H241225   5.594   1.999   2.393
13762TIP3   OH241226   1.813   3.759   3.247
13762TIP3    H141227   1.794   3.726   3.159
13762TIP3    H241228   1.741   3.819   3.267
13763TIP3   OH241229   0.770   3.791   0.720
13763TIP3    H141230   0.758   3.813   0.813
13763TIP3    H241231   0.686   3.754   0.694
13764TIP3   OH241232   3.296   4.975   5.072
13764TIP3    H141233   3.203   4.969   5.049
13764TIP3    H241234   3.303   5.054   5.124
13765TIP3   OH241235   3.164   0.593   2.460
13765TIP3    H141236   3.189   0.671   2.509
13765TIP3    H241237   3.240   0.572   2.407
13766TIP3   OH241238   3.165   6.863   5.693
13766TIP3    H141239   3.212   6.915   5.628
13766TIP3    H241240   3.182   6.772   5.669
13767TIP3   OH241241   4.964   2.185   0.978
13767TIP3    H141242   4.870   2.170   0.989
13767TIP3    H241243   5.005   2.105   1.013
13768TIP3   OH241244   3.365   4.853   5.814
13768TIP3    H141245   3.298   4.921   5.805
13768TIP3    H241246   3.372   4.838   5.908
13769TIP3   OH241247   1.652   4.680   6.683
13769TIP3    H141248   1.635   4.737   6.608
13769TIP3    H241249   1.571   4.628   6.691
13770TIP3   OH241250   1.575   6.166   4.157
13770TIP3    H141251   1.564   6.206   4.243
13770TIP3    H241252   1.668   6.143   4.154
13771TIP3   OH241253   5.260   3.164   2.419
13771TIP3    H141254   5.175   3.168   2.376
13771TIP3    H241255   5.241   3.175   2.512
13772TIP3   OH241256   0.805   5.789   3.881
13772TIP3    H141257   0.824   5.798   3.787
13772TIP3    H241258   0.720   5.746   3.884
13773TIP3   OH241259   5.153   3.603   5.456
13773TIP3    H141260   5.065   3.570   5.438
13773TIP3    H241261   5.141   3.696   5.477
13774TIP3   OH241262   2.499   7.218   1.670
13774TIP3    H141263   2.448   7.249   1.745
13774TIP3    H241264   2.466   7.129   1.654
13775TIP3   OH241265   7.206   2.921   3.062
13775TIP3    H141266   7.169   2.884   2.982
13775TIP3    H241267   7.301   2.912   3.051
13776TIP3   OH241268   3.123   6.853   5.335
13776TIP3    H141269   3.038   6.819   5.308
13776TIP3    H241270   3.111   6.948   5.338
13777TIP3   OH241271   4.972   5.950   2.829
13777TIP3    H141272   4.913   6.022   2.853
13777TIP3    H241273   5.052   5.993   2.799
13778TIP3   OH241274   6.603   3.028   2.319
13778TIP3    H141275   6.569   3.018   2.231
13778TIP3    H241276   6.698   3.037   2.307
13779TIP3   OH241277   1.242   7.504   2.534
13779TIP3    H141278   1.262   7.593   2.563
13779TIP3    H241279   1.178   7.472   2.598
13780TIP3   OH241280   3.964   2.968   5.178
13780TIP3    H141281   3.970   2.913   5.100
13780TIP3    H241282   4.015   2.922   5.244
13781TIP3   OH241283   5.543   2.979   5.839
13781TIP3    H141284   5.473   3.024   5.791
13781TIP3    H241285   5.573   3.044   5.903
13782TIP3   OH241286   2.165   4.639   2.210
13782TIP3    H141287   2.180   4.734   2.209
13782TIP3    H241288   2.193   4.612   2.298
13783TIP3   OH241289   5.003   7.597   5.385
13783TIP3    H141290   5.060   7.673   5.371
13783TIP3    H241291   5.061   7.531   5.423
13784TIP3   OH241292   2.276   2.681   2.671
13784TIP3    H141293   2.305   2.688   2.762
13784TIP3    H241294   2.358   2.678   2.621
13785TIP3   OH241295   2.420   3.333   6.729
13785TIP3    H141296   2.371   3.331   6.811
13785TIP3    H241297   2.464   3.248   6.725
13786TIP3   OH241298   7.164   4.616   4.119
13786TIP3    H141299   7.079   4.580   4.143
13786TIP3    H241300   7.155   4.711   4.130
13787TIP3   OH241301   3.431   1.306   0.431
13787TIP3    H141302   3.450   1.220   0.468
13787TIP3    H241303   3.485   1.367   0.482
13788TIP3   OH241304   2.716   3.052   4.205
13788TIP3    H141305   2.662   3.021   4.132
13788TIP3    H241306   2.806   3.043   4.173
13789TIP3   OH241307   1.431   3.394   6.559
13789TIP3    H141308   1.342   3.358   6.565
13789TIP3    H241309   1.487   3.327   6.599
13790TIP3   OH241310   2.706   4.911   6.237
13790TIP3    H141311   2.775   4.896   6.172
13790TIP3    H241312   2.748   4.894   6.321
13791TIP3   OH241313   2.220   2.898   1.700
13791TIP3    H141314   2.225   2.859   1.613
13791TIP3    H241315   2.151   2.848   1.745
13792TIP3   OH241316   0.381   4.278   3.638
13792TIP3    H141317   0.299   4.279   3.688
13792TIP3    H241318   0.359   4.232   3.557
13793TIP3   OH241319   1.866   0.945   6.572
13793TIP3    H141320   1.801   0.874   6.574
13793TIP3    H241321   1.858   0.981   6.483
13794TIP3   OH241322   1.886   1.961   1.675
13794TIP3    H141323   1.959   1.903   1.657
13794TIP3    H241324   1.817   1.904   1.707
13795TIP3   OH241325   0.300   2.539   4.262
13795TIP3    H141326   0.330   2.488   4.337
13795TIP3    H241327   0.375   2.593   4.238
13796TIP3   OH241328   0.761   2.466   1.529
13796TIP3    H141329   0.769   2.552   1.571
13796TIP3    H241330   0.851   2.438   1.514
13797TIP3   OH241331   4.856   0.355   4.556
13797TIP3    H141332   4.915   0.305   4.500
13797TIP3    H241333   4.858   0.444   4.521
13798TIP3   OH241334   0.083   6.243   6.795
13798TIP3    H141335   0.085   6.338   6.787
13798TIP3    H241336   0.161   6.221   6.846
13799TIP3   OH241337   4.114   3.388   5.458
13799TIP3    H141338   4.065   3.310   5.484
13799TIP3    H241339   4.047   3.453   5.437
13800TIP3   OH241340   0.211   7.169   4.155
13800TIP3    H141341   0.151   7.237   4.185
13800TIP3    H241342   0.251   7.207   4.077
13801TIP3   OH241343   6.699   1.370   1.883
13801TIP3    H141344   6.753   1.449   1.884
13801TIP3    H241345   6.614   1.399   1.917
13802TIP3   OH241346   2.247   5.058   0.065
13802TIP3    H141347   2.162   5.072   0.025
13802TIP3    H241348   2.228   5.010   0.146
13803TIP3   OH241349   4.191   2.934   3.480
13803TIP3    H141350   4.120   2.887   3.436
13803TIP3    H241351   4.249   2.865   3.512
13804TIP3   OH241352   0.493   2.871   4.964
13804TIP3    H141353   0.442   2.879   4.884
13804TIP3    H241354   0.467   2.945   5.018
13805TIP3   OH241355   2.263   3.890   5.805
13805TIP3    H141356   2.206   3.967   5.802
13805TIP3    H241357   2.349   3.925   5.829
13806TIP3   OH241358   7.991   1.302   1.373
13806TIP3    H141359   7.915   1.272   1.423
13806TIP3    H241360   7.954   1.346   1.297
13807TIP3   OH241361   0.868   4.960   5.504
13807TIP3    H141362   0.807   4.896   5.540
13807TIP3    H241363   0.953   4.917   5.507
13808TIP3   OH241364   5.612   7.618   0.450
13808TIP3    H141365   5.660   7.699   0.433
13808TIP3    H241366   5.655   7.552   0.396
13809TIP3   OH241367   5.241   7.558   0.589
13809TIP3    H141368   5.242   7.462   0.586
13809TIP3    H241369   5.226   7.579   0.682
13810TIP3   OH241370   5.749   5.193   0.449
13810TIP3    H141371   5.812   5.136   0.493
13810TIP3    H241372   5.733   5.264   0.511
13811TIP3   OH241373   4.441   7.433   5.659
13811TIP3    H141374   4.437   7.499   5.590
13811TIP3    H241375   4.355   7.438   5.701
13812TIP3   OH241376   7.963   6.377   6.560
13812TIP3    H141377   8.046   6.372   6.512
13812TIP3    H241378   7.916   6.449   6.518
13813TIP3   OH241379   4.416   3.766   5.674
13813TIP3    H141380   4.454   3.817   5.746
13813TIP3    H241381   4.335   3.729   5.710
13814TIP3   OH241382   4.725   2.064   3.837
13814TIP3    H141383   4.667   1.989   3.852
13814TIP3    H241384   4.811   2.034   3.865
13815TIP3   OH241385   1.182   1.523   0.114
13815TIP3    H141386   1.143   1.512   0.027
13815TIP3    H241387   1.227   1.607   0.110
13816TIP3   OH241388   3.275   3.376   1.550
13816TIP3    H141389   3.192   3.421   1.561
13816TIP3    H241390   3.252   3.285   1.534
13817TIP3   OH241391   2.254   3.477   2.442
13817TIP3    H141392   2.282   3.520   2.523
13817TIP3    H241393   2.288   3.387   2.451
13818TIP3   OH241394   6.854   7.694   6.217
13818TIP3    H141395   6.948   7.709   6.208
13818TIP3    H241396   6.832   7.633   6.147
13819TIP3   OH241397   2.131   5.308   5.657
13819TIP3    H141398   2.056   5.271   5.705
13819TIP3    H241399   2.095   5.333   5.572
13820TIP3   OH241400   6.269   0.439   2.721
13820TIP3    H141401   6.179   0.437   2.689
13820TIP3    H241402   6.299   0.528   2.702
13821TIP3   OH241403   2.869   1.590   0.908
13821TIP3    H141404   2.949   1.641   0.892
13821TIP3    H241405   2.871   1.572   1.002
13822TIP3   OH241406   4.674   1.469   0.825
13822TIP3    H141407   4.609   1.428   0.883
13822TIP3    H241408   4.679   1.411   0.749
13823TIP3   OH241409   4.574   1.347   1.062
13823TIP3    H141410   4.527   1.267   1.084
13823TIP3    H241411   4.667   1.323   1.069
13824TIP3   OH241412   7.688   2.072   6.045
13824TIP3    H141413   7.602   2.113   6.049
13824TIP3    H241414   7.740   2.118   6.111
13825TIP3   OH241415   3.469   0.612   2.863
13825TIP3    H141416   3.520   0.686   2.831
13825TIP3    H241417   3.382   0.626   2.826
13826TIP3   OH241418   2.437   4.533   3.265
13826TIP3    H141419   2.489   4.465   3.309
13826TIP3    H241420   2.378   4.484   3.207
13827TIP3   OH241421   4.813   7.884   5.566
13827TIP3    H141422   4.758   7.852   5.637
13827TIP3    H241423   4.761   7.873   5.487
13828TIP3   OH241424   7.755   0.591   4.439
13828TIP3    H141425   7.695   0.658   4.471
13828TIP3    H241426   7.835   0.605   4.489
13829TIP3   OH241427   1.078   4.622   4.122
13829TIP3    H141428   1.098   4.664   4.206
13829TIP3    H241429   0.992   4.582   4.135
13830TIP3   OH241430   3.453   5.567   2.820
13830TIP3    H141431   3.390   5.509   2.779
13830TIP3    H241432   3.536   5.519   2.816
13831TIP3   OH241433   0.478   7.878   0.831
13831TIP3    H141434   0.413   7.814   0.859
13831TIP3    H241435   0.478   7.870   0.735
13832TIP3   OH241436   6.169   2.962   1.107
13832TIP3    H141437   6.077   2.941   1.093
13832TIP3    H241438   6.208   2.958   1.020
13833TIP3   OH241439   0.560   4.559   0.365
13833TIP3    H141440   0.614   4.636   0.386
13833TIP3    H241441   0.597   4.526   0.283
13834TIP3   OH241442   0.157   4.836   5.509
13834TIP3    H141443   0.239   4.812   5.554
13834TIP3    H241444   0.153   4.931   5.518
13835TIP3   OH241445   5.884   1.638   6.405
13835TIP3    H141446   5.888   1.672   6.495
13835TIP3    H241447   5.908   1.546   6.414
13836TIP3   OH241448   5.732   6.695   0.549
13836TIP3    H141449   5.676   6.641   0.493
13836TIP3    H241450   5.816   6.699   0.503
13837TIP3   OH241451   4.356   3.133   6.113
13837TIP3    H141452   4.330   3.121   6.204
13837TIP3    H241453   4.353   3.045   6.075
13838TIP3   OH241454   3.101   0.873   2.263
13838TIP3    H141455   3.122   0.854   2.354
13838TIP3    H241456   3.032   0.939   2.268
13839TIP3   OH241457   6.817   1.916   0.077
13839TIP3    H141458   6.789   2.000   0.041
13839TIP3    H241459   6.853   1.868   0.002
13840TIP3   OH241460   5.524   0.219   6.371
13840TIP3    H141461   5.596   0.279   6.352
13840TIP3    H241462   5.474   0.214   6.289
13841TIP3   OH241463   2.494   3.837   2.065
13841TIP3    H141464   2.553   3.901   2.025
13841TIP3    H241465   2.540   3.753   2.056
13842TIP3   OH241466   6.832   7.357   0.572
13842TIP3    H141467   6.894   7.295   0.609
13842TIP3    H241468   6.757   7.304   0.546
13843TIP3   OH241469   4.348   4.121   0.648
13843TIP3    H141470   4.261   4.152   0.621
13843TIP3    H241471   4.398   4.202   0.663
13844TIP3   OH241472   4.968   4.384   1.137
13844TIP3    H141473   4.916   4.308   1.112
13844TIP3    H241474   5.053   4.347   1.162
13845TIP3   OH241475   2.838   6.669   4.622
13845TIP3    H141476   2.836   6.600   4.555
13845TIP3    H241477   2.747   6.676   4.652
13846TIP3   OH241478   2.791   0.378   4.870
13846TIP3    H141479   2.792   0.283   4.884
13846TIP3    H241480   2.883   0.405   4.880
13847TIP3   OH241481   3.759   3.202   5.224
13847TIP3    H141482   3.759   3.273   5.160
13847TIP3    H241483   3.789   3.125   5.176
13848TIP3   OH241484   1.867   3.412   4.449
13848TIP3    H141485   1.876   3.338   4.388
13848TIP3    H241486   1.875   3.372   4.536
13849TIP3   OH241487   4.424   7.069   0.008
13849TIP3    H141488   4.509   7.111   0.023
13849TIP3    H241489   4.427   6.990   0.062
13850TIP3   OH241490   7.726   2.718   1.946
13850TIP3    H141491   7.798   2.776   1.969
13850TIP3    H241492   7.740   2.696   1.854
13851TIP3   OH241493   3.536   0.812   6.136
13851TIP3    H141494   3.527   0.757   6.214
13851TIP3    H241495   3.630   0.818   6.122
13852TIP3   OH241496   6.278   1.076   2.246
13852TIP3    H141497   6.361   1.122   2.237
13852TIP3    H241498   6.215   1.131   2.198
13853TIP3   OH241499   5.725   0.412   3.027
13853TIP3    H141500   5.733   0.499   2.989
13853TIP3    H241501   5.660   0.422   3.097
13854TIP3   OH241502   1.762   2.976   1.064
13854TIP3    H141503   1.678   3.021   1.064
13854TIP3    H241504   1.779   2.958   1.157
13855TIP3   OH241505   3.041   2.746   6.742
13855TIP3    H141506   3.127   2.705   6.731
13855TIP3    H241507   3.001   2.740   6.655
13856TIP3   OH241508   5.474   2.177   6.622
13856TIP3    H141509   5.428   2.200   6.541
13856TIP3    H241510   5.475   2.081   6.622
13857TIP3   OH241511   2.447   7.456   5.652
13857TIP3    H141512   2.492   7.417   5.578
13857TIP3    H241513   2.469   7.549   5.648
13858TIP3   OH241514   6.397   2.415   5.499
13858TIP3    H141515   6.441   2.340   5.460
13858TIP3    H241516   6.456   2.489   5.483
13859TIP3   OH241517   1.172   2.423   2.610
13859TIP3    H141518   1.194   2.372   2.532
13859TIP3    H241519   1.172   2.360   2.681
13860TIP3   OH241520   2.942   7.870   1.612
13860TIP3    H141521   2.891   7.819   1.674
13860TIP3    H241522   3.033   7.846   1.630
13861TIP3   OH241523   7.120   7.464   4.199
13861TIP3    H141524   7.195   7.499   4.151
13861TIP3    H241525   7.045   7.515   4.168
13862TIP3   OH241526   7.639   6.795   6.129
13862TIP3    H141527   7.697   6.853   6.080
13862TIP3    H241528   7.693   6.720   6.151
13863TIP3   OH241529   3.328   3.482   6.080
13863TIP3    H141530   3.296   3.570   6.103
13863TIP3    H241531   3.357   3.445   6.163
13864TIP3   OH241532   7.683   7.495   3.712
13864TIP3    H141533   7.657   7.404   3.722
13864TIP3    H241534   7.607   7.537   3.671
13865TIP3   OH241535   4.426   2.666   5.665
13865TIP3    H141536   4.514   2.673   5.703
13865TIP3    H241537   4.402   2.756   5.646
13866TIP3   OH241538   3.325   6.220   5.919
13866TIP3    H141539   3.309   6.300   5.970
13866TIP3    H241540   3.284   6.150   5.971
13867TIP3   OH241541   3.786   4.427   1.827
13867TIP3    H141542   3.832   4.478   1.761
13867TIP3    H241543   3.701   4.407   1.787
13868TIP3   OH241544   5.519   6.135   3.010
13868TIP3    H141545   5.428   6.114   2.989
13868TIP3    H241546   5.515   6.218   3.057
13869TIP3   OH241547   4.878   4.420   2.100
13869TIP3    H141548   4.876   4.452   2.190
13869TIP3    H241549   4.922   4.335   2.106
13870TIP3   OH241550   5.486   6.252   1.301
13870TIP3    H141551   5.405   6.291   1.270
13870TIP3    H241552   5.556   6.304   1.261
13871TIP3   OH241553   1.685   4.527   5.732
13871TIP3    H141554   1.681   4.433   5.714
13871TIP3    H241555   1.768   4.539   5.779
13872TIP3   OH241556   0.021   0.079   6.662
13872TIP3    H141557   0.030   0.121   6.747
13872TIP3    H241558  -0.072   0.059   6.655
13873TIP3   OH241559   6.115   0.004   5.311
13873TIP3    H141560   6.196  -0.029   5.348
13873TIP3    H241561   6.125   0.100   5.313
13874TIP3   OH241562   7.361   4.892   5.672
13874TIP3    H141563   7.435   4.851   5.717
13874TIP3    H241564   7.311   4.818   5.636
13875TIP3   OH241565   6.921   6.959   6.711
13875TIP3    H141566   6.961   7.032   6.760
13875TIP3    H241567   6.994   6.900   6.694
13876TIP3   OH241568   0.421   5.826   0.882
13876TIP3    H141569   0.330   5.853   0.866
13876TIP3    H241570   0.473   5.879   0.822
13877TIP3   OH241571   5.278   5.519   5.008
13877TIP3    H141572   5.183   5.517   4.990
13877TIP3    H241573   5.313   5.447   4.956
13878TIP3   OH241574   4.784   7.412   3.602
13878TIP3    H141575   4.781   7.502   3.569
13878TIP3    H241576   4.799   7.359   3.524
13879TIP3   OH241577   2.689   1.850   5.080
13879TIP3    H141578   2.681   1.913   5.009
13879TIP3    H241579   2.782   1.826   5.080
13880TIP3   OH241580   0.109   7.758   1.147
13880TIP3    H141581   0.014   7.750   1.160
13880TIP3    H241582   0.141   7.802   1.225
13881TIP3   OH241583   2.108   2.577   6.750
13881TIP3    H141584   2.127   2.488   6.780
13881TIP3    H241585   2.158   2.633   6.809
13882TIP3   OH241586   3.077   6.415   0.407
13882TIP3    H141587   3.128   6.489   0.376
13882TIP3    H241588   3.141   6.353   0.442
13883TIP3   OH241589   5.312   3.679   3.279
13883TIP3    H141590   5.321   3.590   3.243
13883TIP3    H241591   5.375   3.681   3.352
13884TIP3   OH241592   7.784   6.848   2.875
13884TIP3    H141593   7.756   6.788   2.944
13884TIP3    H241594   7.824   6.791   2.809
13885TIP3   OH241595   4.495   0.113   5.097
13885TIP3    H141596   4.555   0.099   5.170
13885TIP3    H241597   4.436   0.182   5.127
13886TIP3   OH241598   5.726   4.897   0.371
13886TIP3    H141599   5.745   4.987   0.398
13886TIP3    H241600   5.665   4.864   0.437
13887TIP3   OH241601   0.049   5.697   5.096
13887TIP3    H141602  -0.027   5.642   5.077
13887TIP3    H241603   0.045   5.766   5.029
13888TIP3   OH241604   2.027   3.725   0.698
13888TIP3    H141605   2.019   3.819   0.710
13888TIP3    H241606   2.060   3.693   0.782
13889TIP3   OH241607   2.429   4.267   2.819
13889TIP3    H141608   2.488   4.339   2.796
13889TIP3    H241609   2.474   4.219   2.888
13890TIP3   OH241610   2.458   1.138   6.256
13890TIP3    H141611   2.478   1.065   6.198
13890TIP3    H241612   2.539   1.189   6.257
13891TIP3   OH241613   8.190   3.515   4.746
13891TIP3    H141614   8.120   3.470   4.700
13891TIP3    H241615   8.191   3.476   4.833
13892TIP3   OH241616   2.280   6.093   3.597
13892TIP3    H141617   2.354   6.145   3.628
13892TIP3    H241618   2.272   6.023   3.662
13893TIP3   OH241619   2.694   1.932   0.486
13893TIP3    H141620   2.669   1.889   0.567
13893TIP3    H241621   2.633   2.005   0.476
13894TIP3   OH241622   1.783   7.756   5.852
13894TIP3    H141623   1.715   7.797   5.904
13894TIP3    H241624   1.790   7.667   5.887
13895TIP3   OH241625   1.457   5.173   1.513
13895TIP3    H141626   1.452   5.213   1.600
13895TIP3    H241627   1.421   5.085   1.524
13896TIP3   OH241628   7.877   4.552   5.518
13896TIP3    H141629   7.894   4.479   5.577
13896TIP3    H241630   7.782   4.568   5.525
13897TIP3   OH241631   4.155   6.832   4.860
13897TIP3    H141632   4.146   6.924   4.885
13897TIP3    H241633   4.200   6.791   4.934
13898TIP3   OH241634   0.313   7.136   4.664
13898TIP3    H141635   0.292   7.214   4.613
13898TIP3    H241636   0.406   7.145   4.683
13899TIP3   OH241637   5.175   2.736   5.248
13899TIP3    H141638   5.092   2.782   5.233
13899TIP3    H241639   5.242   2.802   5.232
13900TIP3   OH241640   7.765   3.085   5.002
13900TIP3    H141641   7.796   3.090   4.912
13900TIP3    H241642   7.826   3.025   5.045
13901TIP3   OH241643   6.702   1.745   4.561
13901TIP3    H141644   6.710   1.650   4.554
13901TIP3    H241645   6.621   1.760   4.610
13902TIP3   OH241646   3.084   6.065   3.416
13902TIP3    H141647   3.175   6.039   3.408
13902TIP3    H241648   3.086   6.147   3.465
13903TIP3   OH241649   1.462   4.752   0.014
13903TIP3    H141650   1.544   4.766  -0.031
13903TIP3    H241651   1.409   4.700  -0.046
13904TIP3   OH241652   2.466   6.783   5.703
13904TIP3    H141653   2.390   6.740   5.742
13904TIP3    H241654   2.516   6.712   5.664
13905TIP3   OH241655   8.317   7.532   4.547
13905TIP3    H141656   8.285   7.519   4.637
13905TIP3    H241657   8.299   7.449   4.503
13906TIP3   OH241658   0.189   2.148   5.913
13906TIP3    H141659   0.260   2.106   5.962
13906TIP3    H241660   0.115   2.088   5.922
13907TIP3   OH241661   0.527   7.804   2.634
13907TIP3    H141662   0.455   7.751   2.670
13907TIP3    H241663   0.606   7.753   2.656
13908TIP3   OH241664   4.787   0.939   6.139
13908TIP3    H141665   4.750   1.026   6.123
13908TIP3    H241666   4.760   0.888   6.063
13909TIP3   OH241667   1.657   5.661   0.046
13909TIP3    H141668   1.575   5.626   0.081
13909TIP3    H241669   1.631   5.712  -0.031
13910TIP3   OH241670   7.820   3.109   4.730
13910TIP3    H141671   7.882   3.061   4.675
13910TIP3    H241672   7.763   3.154   4.668
13911TIP3   OH241673   6.052   0.277   6.493
13911TIP3    H141674   5.975   0.259   6.439
13911TIP3    H241675   6.018   0.333   6.564
13912TIP3   OH241676   5.907   2.060   6.547
13912TIP3    H141677   5.833   2.022   6.500
13912TIP3    H241678   5.873   2.079   6.635
13913TIP3   OH241679   0.290   4.474   5.632
13913TIP3    H141680   0.200   4.477   5.665
13913TIP3    H241681   0.311   4.565   5.612
13914TIP3   OH241682   7.044   1.861   2.217
13914TIP3    H141683   7.090   1.802   2.158
13914TIP3    H241684   6.951   1.844   2.200
13915TIP3   OH241685   7.638   0.045   4.176
13915TIP3    H141686   7.653   0.139   4.166
13915TIP3    H241687   7.721   0.010   4.207
13916TIP3   OH241688   1.535   1.332   0.375
13916TIP3    H141689   1.596   1.333   0.449
13916TIP3    H241690   1.488   1.248   0.385
13917TIP3   OH241691   2.733   2.979   3.479
13917TIP3    H141692   2.777   2.930   3.410
13917TIP3    H241693   2.643   2.949   3.477
13918TIP3   OH241694   1.268   4.002   6.542
13918TIP3    H141695   1.331   4.033   6.477
13918TIP3    H241696   1.262   4.072   6.607
13919TIP3   OH241697   2.177   2.364   0.558
13919TIP3    H141698   2.136   2.285   0.593
13919TIP3    H241699   2.167   2.429   0.627
13920TIP3   OH241700   2.719   4.168   6.246
13920TIP3    H141701   2.727   4.230   6.318
13920TIP3    H241702   2.807   4.133   6.235
13921TIP3   OH241703   2.508   7.506   2.153
13921TIP3    H141704   2.501   7.449   2.076
13921TIP3    H241705   2.420   7.507   2.190
13922TIP3   OH241706   7.360   6.736   6.541
13922TIP3    H141707   7.379   6.751   6.449
13922TIP3    H241708   7.363   6.641   6.552
13923TIP3   OH241709   3.517   4.814   6.780
13923TIP3    H141710   3.538   4.727   6.747
13923TIP3    H241711   3.592   4.869   6.755
13924TIP3   OH241712   7.014   0.542   0.997
13924TIP3    H141713   6.984   0.540   0.906
13924TIP3    H241714   7.104   0.575   0.991
13925TIP3   OH241715   5.235   0.222   5.573
13925TIP3    H141716   5.264   0.160   5.506
13925TIP3    H241717   5.148   0.249   5.545
13926TIP3   OH241718   3.883   4.438   3.323
13926TIP3    H141719   3.788   4.448   3.327
13926TIP3    H241720   3.917   4.513   3.371
13927TIP3   OH241721   2.484   0.045   6.274
13927TIP3    H141722   2.558   0.040   6.334
13927TIP3    H241723   2.523   0.064   6.189
13928TIP3   OH241724   7.001   6.321   4.824
13928TIP3    H141725   6.949   6.245   4.797
13928TIP3    H241726   7.089   6.303   4.790
13929TIP3   OH241727   4.581   6.927   6.050
13929TIP3    H141728   4.528   6.931   6.129
13929TIP3    H241729   4.649   6.992   6.063
13930TIP3   OH241730   6.017   7.271   3.632
13930TIP3    H141731   6.032   7.252   3.725
13930TIP3    H241732   6.065   7.201   3.587
13931TIP3   OH241733   3.985   0.356   5.253
13931TIP3    H141734   3.917   0.290   5.241
13931TIP3    H241735   4.032   0.358   5.169
13932TIP3   OH241736   2.183   2.898   5.975
13932TIP3    H141737   2.089   2.919   5.971
13932TIP3    H241738   2.226   2.983   5.974
13933TIP3   OH241739   8.347   4.871   3.417
13933TIP3    H141740   8.397   4.805   3.463
13933TIP3    H241741   8.390   4.879   3.332
13934TIP3   OH241742   5.484   3.418   2.693
13934TIP3    H141743   5.572   3.379   2.697
13934TIP3    H241744   5.460   3.413   2.601
13935TIP3   OH241745   7.048   1.293   2.375
13935TIP3    H141746   6.955   1.300   2.397
13935TIP3    H241747   7.052   1.303   2.280
13936TIP3   OH241748   5.613   3.700   4.560
13936TIP3    H141749   5.536   3.738   4.519
13936TIP3    H241750   5.685   3.759   4.534
13937TIP3   OH241751   0.240   3.257   2.518
13937TIP3    H141752   0.269   3.170   2.492
13937TIP3    H241753   0.149   3.245   2.546
13938TIP3   OH241754   5.412   2.740   2.561
13938TIP3    H141755   5.350   2.777   2.624
13938TIP3    H241756   5.434   2.654   2.596
13939TIP3   OH241757   6.978   4.864   6.327
13939TIP3    H141758   7.059   4.898   6.290
13939TIP3    H241759   6.910   4.923   6.295
13940TIP3   OH241760   0.940   0.350   4.281
13940TIP3    H141761   0.867   0.400   4.318
13940TIP3    H241762   1.016   0.405   4.293
13941TIP3   OH241763   6.086   7.606   3.695
13941TIP3    H141764   6.115   7.593   3.785
13941TIP3    H241765   6.162   7.583   3.642
13942TIP3   OH241766   5.088   5.035   1.230
13942TIP3    H141767   5.043   5.120   1.229
13942TIP3    H241768   5.099   5.016   1.323
13943TIP3   OH241769   6.953   4.871   1.554
13943TIP3    H141770   7.030   4.837   1.600
13943TIP3    H241771   6.917   4.937   1.614
13944TIP3   OH241772   4.117   0.742   4.131
13944TIP3    H141773   4.081   0.692   4.057
13944TIP3    H241774   4.048   0.805   4.152
13945TIP3   OH241775   6.342   2.154   2.089
13945TIP3    H141776   6.412   2.184   2.147
13945TIP3    H241777   6.384   2.150   2.003
13946TIP3   OH241778   3.005   5.541   4.885
13946TIP3    H141779   3.023   5.634   4.895
13946TIP3    H241780   3.037   5.519   4.798
13947TIP3   OH241781   7.827   0.812   2.434
13947TIP3    H141782   7.761   0.755   2.394
13947TIP3    H241783   7.904   0.802   2.378
13948TIP3   OH241784   5.705   3.276   4.222
13948TIP3    H141785   5.756   3.198   4.245
13948TIP3    H241786   5.685   3.264   4.129
13949TIP3   OH241787   4.757   1.484   3.274
13949TIP3    H141788   4.778   1.549   3.341
13949TIP3    H241789   4.666   1.502   3.252
13950TIP3   OH241790   0.099   1.457   5.537
13950TIP3    H141791   0.121   1.519   5.467
13950TIP3    H241792   0.120   1.504   5.618
13951TIP3   OH241793   3.458   7.851   2.383
13951TIP3    H141794   3.436   7.780   2.444
13951TIP3    H241795   3.434   7.931   2.430
13952TIP3   OH241796   0.227   4.937   6.794
13952TIP3    H141797   0.218   4.906   6.884
13952TIP3    H241798   0.322   4.946   6.781
13953TIP3   OH241799   1.394   6.535   4.934
13953TIP3    H141800   1.471   6.497   4.976
13953TIP3    H241801   1.323   6.520   4.996
13954TIP3   OH241802   1.435   2.715   6.380
13954TIP3    H141803   1.489   2.674   6.448
13954TIP3    H241804   1.351   2.732   6.424
13955TIP3   OH241805   0.079   2.339   6.056
13955TIP3    H141806   0.132   2.412   6.088
13955TIP3    H241807   0.143   2.278   6.018
13956TIP3   OH241808   5.291   4.404   1.886
13956TIP3    H141809   5.280   4.454   1.805
13956TIP3    H241810   5.289   4.312   1.857
13957TIP3   OH241811   5.909   5.847   3.200
13957TIP3    H141812   5.822   5.885   3.205
13957TIP3    H241813   5.967   5.922   3.188
13958TIP3   OH241814   4.812   3.279   4.754
13958TIP3    H141815   4.825   3.302   4.846
13958TIP3    H241816   4.898   3.293   4.715
13959TIP3   OH241817   4.682   2.227   4.635
13959TIP3    H141818   4.649   2.316   4.640
13959TIP3    H241819   4.776   2.235   4.650
13960TIP3   OH241820   2.107   3.206   2.849
13960TIP3    H141821   2.123   3.129   2.904
13960TIP3    H241822   2.012   3.210   2.840
13961TIP3   OH241823   1.184   0.384   2.185
13961TIP3    H141824   1.144   0.348   2.264
13961TIP3    H241825   1.145   0.471   2.175
13962TIP3   OH241826   7.396   5.577   2.153
13962TIP3    H141827   7.338   5.628   2.209
13962TIP3    H241828   7.436   5.641   2.094
13963TIP3   OH241829   3.027   0.990   0.504
13963TIP3    H141830   3.012   0.936   0.426
13963TIP3    H241831   3.057   1.074   0.470
13964TIP3   OH241832   3.497   5.866   4.686
13964TIP3    H141833   3.440   5.796   4.718
13964TIP3    H241834   3.582   5.847   4.725
13965TIP3   OH241835   4.457   2.779   0.352
13965TIP3    H141836   4.475   2.828   0.271
13965TIP3    H241837   4.366   2.799   0.372
13966TIP3   OH241838   7.771   3.163   1.371
13966TIP3    H141839   7.814   3.080   1.351
13966TIP3    H241840   7.678   3.143   1.373
13967TIP3   OH241841   5.046   4.500   0.384
13967TIP3    H141842   5.056   4.423   0.440
13967TIP3    H241843   5.035   4.464   0.296
13968TIP3   OH241844   4.785   6.792   0.650
13968TIP3    H141845   4.836   6.814   0.727
13968TIP3    H241846   4.706   6.750   0.685
13969TIP3   OH241847   8.332   3.152   1.432
13969TIP3    H141848   8.337   3.113   1.344
13969TIP3    H241849   8.413   3.125   1.474
13970TIP3   OH241850   4.537   2.971   4.043
13970TIP3    H141851   4.573   3.059   4.035
13970TIP3    H241852   4.526   2.958   4.137
13971TIP3   OH241853   7.603   2.282   4.143
13971TIP3    H141854   7.552   2.363   4.144
13971TIP3    H241855   7.623   2.265   4.235
13972TIP3   OH241856   7.432   7.082   5.622
13972TIP3    H141857   7.339   7.082   5.645
13972TIP3    H241858   7.474   7.039   5.697
13973TIP3   OH241859   1.298   5.486   3.974
13973TIP3    H141860   1.209   5.515   3.990
13973TIP3    H241861   1.350   5.566   3.978
13974TIP3   OH241862   2.646   1.345   5.185
13974TIP3    H141863   2.727   1.364   5.136
13974TIP3    H241864   2.629   1.425   5.234
13975TIP3   OH241865   5.126   1.762   4.341
13975TIP3    H141866   5.209   1.750   4.388
13975TIP3    H241867   5.060   1.729   4.401
13976TIP3   OH241868   2.518   0.340   3.830
13976TIP3    H141869   2.440   0.373   3.784
13976TIP3    H241870   2.572   0.418   3.844
13977TIP3   OH241871   4.299   5.922   5.694
13977TIP3    H141872   4.233   5.962   5.750
13977TIP3    H241873   4.313   5.835   5.732
13978TIP3   OH241874   4.496   7.399   4.959
13978TIP3    H141875   4.452   7.475   4.922
13978TIP3    H241876   4.554   7.369   4.889
13979TIP3   OH241877   6.540   2.240   2.698
13979TIP3    H141878   6.618   2.209   2.745
13979TIP3    H241879   6.503   2.308   2.755
13980TIP3   OH241880   6.863   3.630   5.866
13980TIP3    H141881   6.863   3.535   5.856
13980TIP3    H241882   6.904   3.646   5.951
13981TIP3   OH241883   1.452   3.471   0.509
13981TIP3    H141884   1.479   3.470   0.417
13981TIP3    H241885   1.448   3.564   0.532
13982TIP3   OH241886   5.093   1.765   3.253
13982TIP3    H141887   5.098   1.850   3.296
13982TIP3    H241888   5.001   1.754   3.231
13983TIP3   OH241889   4.014   0.549   1.245
13983TIP3    H141890   4.068   0.569   1.322
13983TIP3    H241891   3.944   0.493   1.279
13984TIP3   OH241892   3.208   3.174   1.799
13984TIP3    H141893   3.297   3.195   1.828
13984TIP3    H241894   3.219   3.136   1.712
13985TIP3   OH241895   4.671   3.396   0.304
13985TIP3    H141896   4.694   3.393   0.211
13985TIP3    H241897   4.585   3.353   0.309
13986TIP3   OH241898   4.055   4.997   2.847
13986TIP3    H141899   4.140   4.956   2.833
13986TIP3    H241900   4.017   4.950   2.921
13987TIP3   OH241901   0.407   5.262   3.586
13987TIP3    H141902   0.356   5.236   3.663
13987TIP3    H241903   0.469   5.327   3.619
13988TIP3   OH241904   2.997   3.342   2.520
13988TIP3    H141905   3.054   3.418   2.531
13988TIP3    H241906   3.052   3.267   2.545
13989TIP3   OH241907   4.899   0.253   2.151
13989TIP3    H141908   4.896   0.172   2.201
13989TIP3    H241909   4.990   0.261   2.122
13990TIP3   OH241910   7.044   5.924   4.546
13990TIP3    H141911   6.974   5.931   4.482
13990TIP3    H241912   7.081   5.836   4.532
13991TIP3   OH241913   8.305   1.189   5.581
13991TIP3    H141914   8.281   1.125   5.648
13991TIP3    H241915   8.371   1.244   5.623
13992TIP3   OH241916   5.816   1.577   5.861
13992TIP3    H141917   5.782   1.531   5.785
13992TIP3    H241918   5.865   1.511   5.910
13993TIP3   OH241919   4.282   6.703   4.663
13993TIP3    H141920   4.220   6.716   4.591
13993TIP3    H241921   4.244   6.750   4.737
13994TIP3   OH241922   8.350   2.970   0.864
13994TIP3    H141923   8.371   2.914   0.789
13994TIP3    H241924   8.392   3.053   0.845
13995TIP3   OH241925   1.731   4.035   2.146
13995TIP3    H141926   1.636   4.040   2.147
13995TIP3    H241927   1.754   3.984   2.223
13996TIP3   OH241928   6.548   0.935   2.953
13996TIP3    H141929   6.633   0.899   2.927
13996TIP3    H241930   6.558   0.955   3.046
13997TIP3   OH241931   5.021   5.223   3.825
13997TIP3    H141932   5.012   5.137   3.866
13997TIP3    H241933   5.028   5.284   3.898
13998TIP3   OH241934   5.375   3.596   0.785
13998TIP3    H141935   5.332   3.517   0.752
13998TIP3    H241936   5.460   3.566   0.817
13999TIP3   OH241937   2.419   1.967   3.755
13999TIP3    H141938   2.390   2.052   3.721
13999TIP3    H241939   2.512   1.962   3.734
14000TIP3   OH241940   0.679   5.135   5.895
14000TIP3    H141941   0.621   5.094   5.830
14000TIP3    H241942   0.685   5.071   5.966
14001TIP3   OH241943   7.690   5.003   4.084
14001TIP3    H141944   7.693   4.993   3.989
14001TIP3    H241945   7.676   5.097   4.097
14002TIP3   OH241946   6.116   2.970   0.414
14002TIP3    H141947   6.194   2.961   0.359
14002TIP3    H241948   6.109   3.064   0.430
14003TIP3   OH241949   0.977   6.482   3.158
14003TIP3    H141950   1.021   6.397   3.159
14003TIP3    H241951   0.935   6.486   3.072
14004TIP3   OH241952   0.589   3.505   6.377
14004TIP3    H141953   0.584   3.601   6.381
14004TIP3    H241954   0.600   3.477   6.467
14005TIP3   OH241955   0.718   2.417   0.374
14005TIP3    H141956   0.647   2.429   0.310
14005TIP3    H241957   0.791   2.384   0.322
14006TIP3   OH241958   3.112   3.631   6.330
14006TIP3    H141959   3.112   3.652   6.236
14006TIP3    H241960   3.203   3.640   6.357
14007TIP3   OH241961   5.136   5.144   4.268
14007TIP3    H141962   5.065   5.147   4.204
14007TIP3    H241963   5.213   5.176   4.220
14008TIP3   OH241964   2.075   7.758   2.973
14008TIP3    H141965   2.151   7.718   3.014
14008TIP3    H241966   2.065   7.843   3.016
14009TIP3   OH241967   2.425   5.508   3.863
14009TIP3    H141968   2.378   5.575   3.912
14009TIP3    H241969   2.358   5.445   3.837
14010TIP3   OH241970   4.783   5.619   6.661
14010TIP3    H141971   4.771   5.693   6.720
14010TIP3    H241972   4.853   5.647   6.602
14011TIP3   OH241973   1.212   0.254   2.897
14011TIP3    H141974   1.125   0.293   2.896
14011TIP3    H241975   1.268   0.321   2.858
14012TIP3   OH241976   7.211   0.251   1.496
14012TIP3    H141977   7.207   0.238   1.590
14012TIP3    H241978   7.202   0.164   1.459
14013TIP3   OH241979   2.143   0.725   4.676
14013TIP3    H141980   2.147   0.679   4.592
14013TIP3    H241981   2.227   0.770   4.683
14014TIP3   OH241982   5.283   3.281   4.496
14014TIP3    H141983   5.299   3.374   4.485
14014TIP3    H241984   5.367   3.246   4.526
14015TIP3   OH241985   0.817   0.130   3.584
14015TIP3    H141986   0.787   0.065   3.648
14015TIP3    H241987   0.740   0.146   3.529
14016TIP3   OH241988   4.463   1.102   6.177
14016TIP3    H141989   4.528   1.073   6.113
14016TIP3    H241990   4.382   1.113   6.126
14017TIP3   OH241991   5.165   7.657   5.073
14017TIP3    H141992   5.115   7.579   5.050
14017TIP3    H241993   5.176   7.704   4.990
14018TIP3   OH241994   7.674   1.951   0.049
14018TIP3    H141995   7.667   2.023   0.111
14018TIP3    H241996   7.624   1.880   0.089
14019TIP3   OH241997   4.279   0.900   6.811
14019TIP3    H141998   4.245   0.814   6.787
14019TIP3    H241999   4.244   0.916   6.898
14020TIP3   OH242000   5.877   6.054   6.074
14020TIP3    H142001   5.866   6.047   6.169
14020TIP3    H242002   5.908   5.968   6.046
14021TIP3   OH242003   6.236   4.853   1.362
14021TIP3    H142004   6.251   4.944   1.335
14021TIP3    H242005   6.176   4.818   1.296
14022TIP3   OH242006   3.908   0.266   4.575
14022TIP3    H142007   3.956   0.348   4.584
14022TIP3    H242008   3.913   0.226   4.661
14023TIP3   OH242009   7.859   5.975   3.782
14023TIP3    H142010   7.776   6.014   3.809
14023TIP3    H242011   7.835   5.901   3.726
14024TIP3   OH242012   0.596   4.365   3.261
14024TIP3    H142013   0.540   4.302   3.216
14024TIP3    H242014   0.547   4.389   3.339
14025TIP3   OH242015   1.014   5.572   3.823
14025TIP3    H142016   1.084   5.590   3.760
14025TIP3    H242017   0.945   5.633   3.800
14026TIP3   OH242018   7.567   3.904   1.039
14026TIP3    H142019   7.592   3.916   0.948
14026TIP3    H242020   7.535   3.814   1.044
14027TIP3   OH242021   3.570   6.761   6.538
14027TIP3    H142022   3.608   6.717   6.462
14027TIP3    H242023   3.557   6.692   6.602
14028TIP3   OH242024   4.208   0.329   4.029
14028TIP3    H142025   4.288   0.279   4.019
14028TIP3    H242026   4.216   0.369   4.116
14029TIP3   OH242027   3.852   6.471   3.119
14029TIP3    H142028   3.865   6.526   3.196
14029TIP3    H242029   3.873   6.529   3.045
14030TIP3   OH242030   0.186   1.966   0.999
14030TIP3    H142031   0.165   1.922   1.081
14030TIP3    H242032   0.271   1.929   0.973
14031TIP3   OH242033   1.051   5.516   4.086
14031TIP3    H142034   1.024   5.433   4.125
14031TIP3    H242035   1.001   5.520   4.004
14032TIP3   OH242036   0.351   1.488   3.876
14032TIP3    H142037   0.309   1.404   3.857
14032TIP3    H242038   0.280   1.544   3.907
14033TIP3   OH242039   1.258   3.951   1.167
14033TIP3    H142040   1.184   3.917   1.116
14033TIP3    H242041   1.222   3.964   1.255
14034TIP3   OH242042   2.050   7.750   0.590
14034TIP3    H142043   1.969   7.766   0.637
14034TIP3    H242044   2.056   7.654   0.585
14035TIP3   OH242045   6.958   0.355   2.437
14035TIP3    H142046   7.041   0.308   2.444
14035TIP3    H242047   6.980   0.447   2.452
14036TIP3   OH242048   7.056   0.639   2.444
14036TIP3    H142049   7.028   0.711   2.387
14036TIP3    H242050   7.093   0.683   2.521
14037TIP3   OH242051   1.058   4.466   1.081
14037TIP3    H142052   1.096   4.528   1.018
14037TIP3    H242053   1.068   4.509   1.166
14038TIP3   OH242054   7.556   6.029   0.058
14038TIP3    H142055   7.599   5.957   0.012
14038TIP3    H242056   7.619   6.100   0.056
14039TIP3   OH242057   7.124   2.560   2.006
14039TIP3    H142058   7.199   2.502   1.993
14039TIP3    H242059   7.048   2.504   1.991
14040TIP3   OH242060   4.771   0.798   6.394
14040TIP3    H142061   4.732   0.851   6.464
14040TIP3    H242062   4.740   0.838   6.313
14041TIP3   OH242063   0.217   2.252   4.910
14041TIP3    H142064   0.216   2.337   4.867
14041TIP3    H242065   0.308   2.242   4.939
14042TIP3   OH242066   0.650   4.979   5.063
14042TIP3    H142067   0.650   4.937   4.977
14042TIP3    H242068   0.669   4.909   5.124
14043TIP3   OH242069   3.324   1.198   1.607
14043TIP3    H142070   3.250   1.157   1.653
14043TIP3    H242071   3.287   1.276   1.567
14044TIP3   OH242072   6.746   5.124   1.157
14044TIP3    H142073   6.745   5.205   1.106
14044TIP3    H242074   6.779   5.150   1.242
14045TIP3   OH242075   4.270   6.040   6.573
14045TIP3    H142076   4.345   6.084   6.612
14045TIP3    H242077   4.308   5.965   6.527
14046TIP3   OH242078   7.814   3.289   6.480
14046TIP3    H142079   7.864   3.212   6.507
14046TIP3    H242080   7.753   3.257   6.414
14047TIP3   OH242081   0.111   5.525   0.866
14047TIP3    H142082   0.026   5.560   0.892
14047TIP3    H242083   0.158   5.512   0.948
14048TIP3   OH242084   7.182   5.279   1.321
14048TIP3    H142085   7.277   5.295   1.321
14048TIP3    H242086   7.170   5.205   1.379
14049TIP3   OH242087   6.432   2.007   5.916
14049TIP3    H142088   6.425   2.101   5.902
14049TIP3    H242089   6.377   1.989   5.992
14050TIP3   OH242090   3.830   7.409   5.257
14050TIP3    H142091   3.920   7.395   5.287
14050TIP3    H242092   3.793   7.321   5.253
14051TIP3   OH242093   8.039   2.863   3.066
14051TIP3    H142094   8.100   2.937   3.061
14051TIP3    H242095   8.007   2.851   2.977
14052TIP3   OH242096   6.037   7.648   1.292
14052TIP3    H142097   5.976   7.613   1.357
14052TIP3    H242098   6.041   7.580   1.224
14053TIP3   OH242099   7.553   2.685   4.900
14053TIP3    H142100   7.600   2.626   4.842
14053TIP3    H242101   7.553   2.769   4.855
14054TIP3   OH242102   0.515   2.053   3.193
14054TIP3    H142103   0.571   2.129   3.210
14054TIP3    H242104   0.522   1.999   3.271
14055TIP3   OH242105   3.376   6.905   1.432
14055TIP3    H142106   3.392   6.998   1.420
14055TIP3    H242107   3.414   6.885   1.518
14056TIP3   OH242108   4.819   2.687   1.121
14056TIP3    H142109   4.883   2.666   1.053
14056TIP3    H242110   4.737   2.699   1.075
14057TIP3   OH242111   6.605   6.802   5.615
14057TIP3    H142112   6.669   6.799   5.544
14057TIP3    H242113   6.534   6.856   5.582
14058TIP3   OH242114   2.289   7.860   2.100
14058TIP3    H142115   2.206   7.863   2.147
14058TIP3    H242116   2.333   7.942   2.123
14059TIP3   OH242117   5.756   3.020   2.152
14059TIP3    H142118   5.732   3.048   2.240
14059TIP3    H242119   5.677   2.979   2.118
14060TIP3   OH242120   7.588   4.697   4.146
14060TIP3    H142121   7.625   4.638   4.080
14060TIP3    H242122   7.606   4.785   4.113
14061TIP3   OH242123   1.535   2.079   0.940
14061TIP3    H142124   1.609   2.049   0.993
14061TIP3    H242125   1.565   2.071   0.850
14062TIP3   OH242126   7.009   2.191   6.471
14062TIP3    H142127   7.068   2.258   6.504
14062TIP3    H242128   7.018   2.118   6.533
14063TIP3   OH242129   7.875   2.433   1.014
14063TIP3    H142130   7.850   2.353   1.059
14063TIP3    H242131   7.966   2.417   0.987
14064TIP3   OH242132   3.316   3.372   5.835
14064TIP3    H142133   3.363   3.422   5.768
14064TIP3    H242134   3.315   3.429   5.912
14065TIP3   OH242135   6.259   6.179   6.586
14065TIP3    H142136   6.264   6.234   6.508
14065TIP3    H242137   6.347   6.142   6.595
14066TIP3   OH242138   2.027   5.161   2.726
14066TIP3    H142139   1.937   5.191   2.714
14066TIP3    H242140   2.030   5.126   2.815
14067TIP3   OH242141   3.149   4.942   5.378
14067TIP3    H142142   3.160   5.037   5.373
14067TIP3    H242143   3.058   4.928   5.352
14068TIP3   OH242144   0.443   1.851   0.939
14068TIP3    H142145   0.421   1.791   0.869
14068TIP3    H242146   0.533   1.828   0.963
14069TIP3   OH242147   3.579   0.286   2.811
14069TIP3    H142148   3.530   0.240   2.742
14069TIP3    H242149   3.522   0.359   2.835
14070TIP3   OH242150   5.358   1.778   1.186
14070TIP3    H142151   5.300   1.837   1.235
14070TIP3    H242152   5.305   1.750   1.111
14071TIP3   OH242153   6.560   4.896   2.915
14071TIP3    H142154   6.645   4.853   2.905
14071TIP3    H242155   6.533   4.875   3.004
14072TIP3   OH242156   7.822   4.765   2.329
14072TIP3    H142157   7.889   4.708   2.292
14072TIP3    H242158   7.870   4.843   2.357
14073TIP3   OH242159   0.894   4.056   4.957
14073TIP3    H142160   0.984   4.074   4.985
14073TIP3    H242161   0.894   3.962   4.937
14074TIP3   OH242162   0.900   7.653   5.443
14074TIP3    H142163   0.824   7.696   5.483
14074TIP3    H242164   0.911   7.698   5.359
14075TIP3   OH242165   4.248   2.091   4.648
14075TIP3    H142166   4.188   2.017   4.636
14075TIP3    H242167   4.269   2.090   4.741
14076TIP3   OH242168   2.892   4.830   6.042
14076TIP3    H142169   2.869   4.854   5.952
14076TIP3    H242170   2.871   4.736   6.048
14077TIP3   OH242171   2.718   0.329   4.272
14077TIP3    H142172   2.626   0.355   4.272
14077TIP3    H242173   2.718   0.239   4.239
14078TIP3   OH242174   6.161   1.978   4.297
14078TIP3    H142175   6.194   2.012   4.380
14078TIP3    H242176   6.150   1.884   4.313
14079TIP3   OH242177   6.911   7.685   3.838
14079TIP3    H142178   6.971   7.623   3.879
14079TIP3    H242179   6.967   7.756   3.806
14080TIP3   OH242180   7.038   3.672   3.563
14080TIP3    H142181   7.009   3.761   3.584
14080TIP3    H242182   7.031   3.624   3.646
14081TIP3   OH242183   0.580   6.702   4.806
14081TIP3    H142184   0.567   6.689   4.900
14081TIP3    H242185   0.651   6.642   4.783
14082TIP3   OH242186   4.269   3.329   6.318
14082TIP3    H142187   4.358   3.306   6.346
14082TIP3    H242188   4.215   3.257   6.351
14083TIP3   OH242189   3.342   2.978   4.388
14083TIP3    H142190   3.335   3.053   4.447
14083TIP3    H242191   3.400   3.008   4.318
14084TIP3   OH242192   1.455   1.068   0.385
14084TIP3    H142193   1.425   0.995   0.331
14084TIP3    H242194   1.385   1.081   0.449
14085TIP3   OH242195   3.122   4.337   4.364
14085TIP3    H142196   3.047   4.341   4.304
14085TIP3    H242197   3.083   4.334   4.451
14086TIP3   OH242198   6.239   2.243   0.942
14086TIP3    H142199   6.333   2.249   0.927
14086TIP3    H242200   6.215   2.329   0.975
14087TIP3   OH242201   4.450   0.969   2.779
14087TIP3    H142202   4.483   0.905   2.717
14087TIP3    H242203   4.423   1.043   2.725
14088TIP3   OH242204   7.911   1.725   0.379
14088TIP3    H142205   7.941   1.634   0.382
14088TIP3    H242206   7.820   1.719   0.351
14089TIP3   OH242207   0.344   5.983   1.091
14089TIP3    H142208   0.273   5.937   1.135
14089TIP3    H242209   0.376   5.921   1.025
14090TIP3   OH242210   3.112   4.819   3.260
14090TIP3    H142211   3.154   4.854   3.181
14090TIP3    H242212   3.024   4.856   3.259
14091TIP3   OH242213   6.706   6.351   4.237
14091TIP3    H142214   6.708   6.446   4.254
14091TIP3    H242215   6.628   6.321   4.283
14092TIP3   OH242216   1.592   4.092   0.033
14092TIP3    H142217   1.625   4.144   0.106
14092TIP3    H242218   1.670   4.068  -0.017
14093TIP3   OH242219   1.342   0.895   5.264
14093TIP3    H142220   1.350   0.991   5.261
14093TIP3    H242221   1.421   0.864   5.219
14094TIP3   OH242222   4.196   5.474   4.328
14094TIP3    H142223   4.181   5.568   4.326
14094TIP3    H242224   4.173   5.447   4.417
14095TIP3   OH242225   1.038   2.618   0.034
14095TIP3    H142226   1.075   2.563  -0.034
14095TIP3    H242227   0.957   2.653  -0.004
14096TIP3   OH242228   0.751   2.688   5.499
14096TIP3    H142229   0.712   2.631   5.432
14096TIP3    H242230   0.721   2.776   5.476
14097TIP3   OH242231   0.896   4.118   1.782
14097TIP3    H142232   0.819   4.175   1.782
14097TIP3    H242233   0.947   4.147   1.858
14098TIP3   OH242234   0.514   1.162   3.168
14098TIP3    H142235   0.494   1.183   3.259
14098TIP3    H242236   0.517   1.067   3.165
14099TIP3   OH242237   4.153   5.443   6.064
14099TIP3    H142238   4.132   5.472   5.975
14099TIP3    H242239   4.248   5.440   6.067
14100TIP3   OH242240   8.272   7.189   0.231
14100TIP3    H142241   8.263   7.231   0.317
14100TIP3    H242242   8.358   7.147   0.234
14101TIP3   OH242243   6.039   5.922   4.219
14101TIP3    H142244   5.989   6.003   4.205
14101TIP3    H242245   6.046   5.883   4.132
14102TIP3   OH242246   2.070   7.389   1.434
14102TIP3    H142247   2.032   7.342   1.360
14102TIP3    H242248   2.021   7.359   1.510
14103TIP3   OH242249   6.972   4.198   1.525
14103TIP3    H142250   7.055   4.242   1.510
14103TIP3    H242251   6.906   4.263   1.503
14104TIP3   OH242252   1.966   7.227   1.222
14104TIP3    H142253   1.891   7.175   1.191
14104TIP3    H242254   2.030   7.221   1.152
14105TIP3   OH242255   5.767   4.752   5.569
14105TIP3    H142256   5.682   4.727   5.604
14105TIP3    H242257   5.751   4.772   5.477
14106TIP3   OH242258   2.600   0.877   4.828
14106TIP3    H142259   2.589   0.856   4.920
14106TIP3    H242260   2.649   0.803   4.792
14107TIP3   OH242261   1.522   6.998   3.926
14107TIP3    H142262   1.445   6.940   3.934
14107TIP3    H242263   1.595   6.944   3.956
14108TIP3   OH242264   1.043   5.963   5.722
14108TIP3    H142265   1.092   6.044   5.709
14108TIP3    H242266   0.973   5.986   5.783
14109TIP3   OH242267   4.422   1.586   3.957
14109TIP3    H142268   4.343   1.566   3.907
14109TIP3    H242269   4.483   1.516   3.935
14110TIP3   OH242270   2.833   4.828   0.849
14110TIP3    H142271   2.922   4.794   0.836
14110TIP3    H242272   2.846   4.919   0.877
14111TIP3   OH242273   4.903   1.805   6.787
14111TIP3    H142274   4.843   1.785   6.858
14111TIP3    H242275   4.911   1.723   6.738
14112TIP3   OH242276   6.766   2.665   5.749
14112TIP3    H142277   6.803   2.636   5.833
14112TIP3    H242278   6.790   2.596   5.688
14113TIP3   OH242279   6.948   2.370   6.271
14113TIP3    H142280   7.023   2.429   6.273
14113TIP3    H242281   6.972   2.298   6.329
14114TIP3   OH242282   6.347   5.170   3.352
14114TIP3    H142283   6.327   5.263   3.367
14114TIP3    H242284   6.342   5.131   3.439
14115TIP3   OH242285   4.856   4.263   0.465
14115TIP3    H142286   4.935   4.274   0.517
14115TIP3    H242287   4.867   4.177   0.423
14116TIP3   OH242288   3.707   0.152   3.995
14116TIP3    H142289   3.708   0.062   3.962
14116TIP3    H242290   3.738   0.205   3.921
14117TIP3   OH242291   0.896   2.579   5.983
14117TIP3    H142292   0.810   2.603   5.949
14117TIP3    H242293   0.916   2.645   6.050
14118TIP3   OH242294   6.043   4.410   4.555
14118TIP3    H142295   6.057   4.460   4.636
14118TIP3    H242296   5.972   4.349   4.577
14119TIP3   OH242297   0.313   4.579   6.366
14119TIP3    H142298   0.326   4.637   6.441
14119TIP3    H242299   0.391   4.523   6.365
14120TIP3   OH242300   2.739   5.485   4.617
14120TIP3    H142301   2.800   5.471   4.544
14120TIP3    H242302   2.761   5.416   4.680
14121TIP3   OH242303   3.873   1.302   2.115
14121TIP3    H142304   3.780   1.304   2.091
14121TIP3    H242305   3.873   1.288   2.209
14122TIP3   OH242306   2.229   2.239   4.268
14122TIP3    H142307   2.275   2.290   4.201
14122TIP3    H242308   2.164   2.189   4.220
14123TIP3   OH242309   2.175   7.305   4.266
14123TIP3    H142310   2.234   7.289   4.192
14123TIP3    H242311   2.170   7.220   4.310
14124TIP3   OH242312   3.674   4.107   6.180
14124TIP3    H142313   3.765   4.125   6.154
14124TIP3    H242314   3.638   4.057   6.107
14125TIP3   OH242315   5.215   5.435   1.100
14125TIP3    H142316   5.273   5.506   1.126
14125TIP3    H242317   5.157   5.474   1.034
14126TIP3   OH242318   5.367   0.068   3.435
14126TIP3    H142319   5.339   0.125   3.363
14126TIP3    H242320   5.463   0.074   3.434
14127TIP3   OH242321   8.288   1.772   6.206
14127TIP3    H142322   8.197   1.763   6.235
14127TIP3    H242323   8.305   1.866   6.210
14128TIP3   OH242324   0.011   0.253   5.459
14128TIP3    H142325  -0.055   0.229   5.524
14128TIP3    H242326   0.087   0.199   5.480
14129TIP3   OH242327   5.778   4.995   5.378
14129TIP3    H142328   5.852   5.053   5.394
14129TIP3    H242329   5.724   5.041   5.313
14130TIP3   OH242330   6.997   1.027   5.731
14130TIP3    H142331   7.062   1.064   5.671
14130TIP3    H242332   7.006   0.933   5.721
14131TIP3   OH242333   1.100   1.447   5.636
14131TIP3    H142334   1.158   1.397   5.579
14131TIP3    H242335   1.133   1.430   5.724
14132TIP3   OH242336   7.104   6.715   5.761
14132TIP3    H142337   7.139   6.707   5.672
14132TIP3    H242338   7.070   6.629   5.782
14133TIP3   OH242339   2.988   6.259   3.111
14133TIP3    H142340   2.962   6.327   3.049
14133TIP3    H242341   2.932   6.274   3.187
14134TIP3   OH242342   4.495   4.710   6.281
14134TIP3    H142343   4.554   4.780   6.308
14134TIP3    H242344   4.407   4.747   6.289
14135TIP3   OH242345   8.339   5.024   4.374
14135TIP3    H142346   8.290   5.101   4.344
14135TIP3    H242347   8.272   4.967   4.412
14136TIP3   OH242348   7.062   3.381   4.651
14136TIP3    H142349   7.124   3.362   4.721
14136TIP3    H242350   7.091   3.465   4.615
14137TIP3   OH242351   1.004   7.149   5.488
14137TIP3    H142352   1.055   7.144   5.569
14137TIP3    H242353   1.006   7.060   5.453
14138TIP3   OH242354   3.552   7.381   5.456
14138TIP3    H142355   3.577   7.323   5.383
14138TIP3    H242356   3.457   7.384   5.453
14139TIP3   OH242357   0.673   7.776   5.560
14139TIP3    H142358   0.633   7.695   5.592
14139TIP3    H242359   0.604   7.819   5.510
14140TIP3   OH242360   6.687   3.131   6.218
14140TIP3    H142361   6.602   3.094   6.241
14140TIP3    H242362   6.667   3.220   6.189
14141TIP3   OH242363   8.228   7.677   4.823
14141TIP3    H142364   8.302   7.711   4.772
14141TIP3    H242365   8.179   7.755   4.848
14142TIP3   OH242366   2.692   6.814   5.115
14142TIP3    H142367   2.696   6.735   5.168
14142TIP3    H242368   2.642   6.876   5.169
14143TIP3   OH242369   7.246   6.427   4.390
14143TIP3    H142370   7.251   6.332   4.388
14143TIP3    H242371   7.170   6.446   4.446
14144TIP3   OH242372   8.191   5.019   6.249
14144TIP3    H142373   8.264   5.080   6.254
14144TIP3    H242374   8.125   5.066   6.198
14145TIP3   OH242375   7.157   3.988   5.421
14145TIP3    H142376   7.133   3.941   5.341
14145TIP3    H242377   7.249   3.965   5.436
14146TIP3   OH242378   7.620   6.081   3.841
14146TIP3    H142379   7.606   6.090   3.935
14146TIP3    H242380   7.532   6.080   3.803
14147TIP3   OH242381   3.867   4.936   4.029
14147TIP3    H142382   3.828   4.873   3.968
14147TIP3    H242383   3.798   4.954   4.092
14148TIP3   OH242384   4.584   4.228   2.598
14148TIP3    H142385   4.636   4.198   2.672
14148TIP3    H242386   4.574   4.151   2.542
14149TIP3   OH242387   3.739   7.664   5.876
14149TIP3    H142388   3.704   7.648   5.789
14149TIP3    H242389   3.809   7.728   5.862
14150TIP3   OH242390   5.067   7.517   3.445
14150TIP3    H142391   4.976   7.546   3.458
14150TIP3    H242392   5.095   7.489   3.532
14151TIP3   OH242393   8.013   1.275   2.412
14151TIP3    H142394   7.930   1.297   2.454
14151TIP3    H242395   8.078   1.281   2.482
14152TIP3   OH242396   1.010   1.988   1.577
14152TIP3    H142397   0.984   1.935   1.653
14152TIP3    H242398   0.966   1.946   1.503
14153TIP3   OH242399   2.372   3.736   4.142
14153TIP3    H142400   2.382   3.735   4.047
14153TIP3    H242401   2.285   3.698   4.158
14154TIP3   OH242402   7.539   5.355   4.806
14154TIP3    H142403   7.576   5.276   4.766
14154TIP3    H242404   7.594   5.372   4.882
14155TIP3   OH242405   5.540   6.061   1.521
14155TIP3    H142406   5.509   6.104   1.441
14155TIP3    H242407   5.567   6.133   1.578
14156TIP3   OH242408   1.713   0.727   6.632
14156TIP3    H142409   1.624   0.747   6.660
14156TIP3    H242410   1.769   0.760   6.702
14157TIP3   OH242411   0.115   4.708   1.082
14157TIP3    H142412   0.148   4.687   1.170
14157TIP3    H242413   0.058   4.634   1.060
14158TIP3   OH242414   3.074   2.481   0.185
14158TIP3    H142415   2.995   2.509   0.139
14158TIP3    H242416   3.107   2.407   0.134
14159TIP3   OH242417   1.484   0.348   5.004
14159TIP3    H142418   1.550   0.326   5.070
14159TIP3    H242419   1.405   0.303   5.033
14160TIP3   OH242420   4.098   2.961   4.626
14160TIP3    H142421   4.177   2.998   4.585
14160TIP3    H242422   4.034   2.957   4.555
14161TIP3   OH242423   0.269   5.035   1.408
14161TIP3    H142424   0.195   5.095   1.419
14161TIP3    H242425   0.270   5.015   1.315
14162TIP3   OH242426   5.650   7.041   5.901
14162TIP3    H142427   5.705   6.986   5.956
14162TIP3    H242428   5.667   7.130   5.930
14163TIP3   OH242429   1.879   1.037   0.913
14163TIP3    H142430   1.838   1.099   0.973
14163TIP3    H242431   1.830   1.046   0.832
14164TIP3   OH242432   6.887   0.402   6.771
14164TIP3    H142433   6.914   0.390   6.680
14164TIP3    H242434   6.839   0.321   6.792
14165TIP3   OH242435   3.346   5.346   3.917
14165TIP3    H142436   3.352   5.383   3.829
14165TIP3    H242437   3.393   5.409   3.972
14166TIP3   OH242438   4.503   7.590   5.983
14166TIP3    H142439   4.550   7.616   6.062
14166TIP3    H242440   4.570   7.586   5.915
14167TIP3   OH242441   4.423   1.351   3.379
14167TIP3    H142442   4.365   1.290   3.425
14167TIP3    H242443   4.363   1.411   3.334
14168TIP3   OH242444   4.478   4.429   3.370
14168TIP3    H142445   4.461   4.479   3.290
14168TIP3    H242446   4.499   4.341   3.340
14169TIP3   OH242447   0.182   5.930   0.773
14169TIP3    H142448   0.230   6.013   0.783
14169TIP3    H242449   0.176   5.917   0.678
14170TIP3   OH242450   3.904   2.412   3.165
14170TIP3    H142451   3.919   2.470   3.240
14170TIP3    H242452   3.942   2.329   3.191
14171TIP3   OH242453   6.746   0.766   5.592
14171TIP3    H142454   6.685   0.816   5.537
14171TIP3    H242455   6.743   0.810   5.677
14172TIP3   OH242456   7.507   6.994   2.324
14172TIP3    H142457   7.602   6.979   2.324
14172TIP3    H242458   7.498   7.088   2.339
14173TIP3   OH242459   6.192   0.059   0.516
14173TIP3    H142460   6.099   0.051   0.496
14173TIP3    H242461   6.195   0.064   0.612
14174TIP3   OH242462   6.414   7.283   2.825
14174TIP3    H142463   6.450   7.195   2.838
14174TIP3    H242464   6.356   7.275   2.749
14175TIP3   OH242465   5.300   7.473   1.443
14175TIP3    H142466   5.287   7.413   1.369
14175TIP3    H242467   5.264   7.426   1.518
14176TIP3   OH242468   8.308   5.040   6.561
14176TIP3    H142469   8.295   5.035   6.655
14176TIP3    H242470   8.262   5.119   6.534
14177TIP3   OH242471   1.730   1.876   4.144
14177TIP3    H142472   1.735   1.928   4.064
14177TIP3    H242473   1.729   1.940   4.215
14178TIP3   OH242474   0.890   6.610   3.396
14178TIP3    H142475   0.926   6.546   3.335
14178TIP3    H242476   0.810   6.641   3.355
14179TIP3   OH242477   7.040   3.433   1.995
14179TIP3    H142478   7.090   3.356   2.020
14179TIP3    H242479   7.038   3.431   1.899
14180TIP3   OH242480   1.458   3.044   5.917
14180TIP3    H142481   1.525   2.976   5.905
14180TIP3    H242482   1.459   3.062   6.011
14181TIP3   OH242483   0.517   0.801   2.057
14181TIP3    H142484   0.481   0.745   1.988
14181TIP3    H242485   0.452   0.795   2.128
14182TIP3   OH242486   4.349   6.563   3.533
14182TIP3    H142487   4.255   6.561   3.552
14182TIP3    H242488   4.389   6.600   3.612
14183TIP3   OH242489   0.293   1.871   4.511
14183TIP3    H142490   0.316   1.895   4.600
14183TIP3    H242491   0.371   1.827   4.477
14184TIP3   OH242492   5.375   0.565   6.458
14184TIP3    H142493   5.287   0.533   6.439
14184TIP3    H242494   5.406   0.509   6.528
14185TIP3   OH242495   2.896   0.178   0.730
14185TIP3    H142496   2.923   0.214   0.815
14185TIP3    H242497   2.861   0.091   0.752
14186TIP3   OH242498   5.397   2.200   4.006
14186TIP3    H142499   5.397   2.108   3.979
14186TIP3    H242500   5.308   2.216   4.038
14187TIP3   OH242501   0.101   3.580   4.833
14187TIP3    H142502   0.024   3.616   4.879
14187TIP3    H242503   0.175   3.605   4.889
14188TIP3   OH242504   2.971   3.242   0.466
14188TIP3    H142505   2.955   3.223   0.373
14188TIP3    H242506   2.888   3.278   0.498
14189TIP3   OH242507   4.260   1.918   4.961
14189TIP3    H142508   4.240   2.011   4.974
14189TIP3    H242509   4.209   1.892   4.885
14190TIP3   OH242510   6.631   3.307   1.687
14190TIP3    H142511   6.651   3.334   1.777
14190TIP3    H242512   6.624   3.389   1.638
14191TIP3   OH242513   0.638   7.217   3.928
14191TIP3    H142514   0.631   7.257   4.015
14191TIP3    H242515   0.730   7.228   3.905
14192TIP3   OH242516   6.581   7.807   6.634
14192TIP3    H142517   6.604   7.739   6.570
14192TIP3    H242518   6.504   7.850   6.596
14193TIP3   OH242519   1.137   4.906   2.352
14193TIP3    H142520   1.154   4.811   2.352
14193TIP3    H242521   1.069   4.918   2.286
14194TIP3   OH242522   4.039   1.901   4.130
14194TIP3    H142523   4.074   1.812   4.131
14194TIP3    H242524   3.977   1.901   4.056
14195TIP3   OH242525   8.014   2.251   2.958
14195TIP3    H142526   7.985   2.238   3.049
14195TIP3    H242527   7.992   2.169   2.914
14196TIP3   OH242528   2.174   5.003   3.478
14196TIP3    H142529   2.222   5.005   3.561
14196TIP3    H242530   2.243   5.002   3.411
14197TIP3   OH242531   5.140   4.769   1.156
14197TIP3    H142532   5.100   4.854   1.172
14197TIP3    H242533   5.101   4.739   1.074
14198TIP3   OH242534   2.342   0.511   0.825
14198TIP3    H142535   2.368   0.554   0.744
14198TIP3    H242536   2.247   0.504   0.819
14199TIP3   OH242537   2.039   3.504   1.758
14199TIP3    H142538   2.037   3.586   1.709
14199TIP3    H242539   1.947   3.484   1.774
14200TIP3   OH242540   3.764   5.769   1.218
14200TIP3    H142541   3.784   5.676   1.229
14200TIP3    H242542   3.687   5.783   1.273
14201TIP3   OH242543   2.802   0.084   6.691
14201TIP3    H142544   2.742   0.016   6.660
14201TIP3    H242545   2.778   0.162   6.641
14202TIP3   OH242546   6.289   4.504   2.743
14202TIP3    H142547   6.307   4.411   2.735
14202TIP3    H242548   6.305   4.524   2.835
14203TIP3   OH242549   4.870   6.361   0.193
14203TIP3    H142550   4.894   6.307   0.118
14203TIP3    H242551   4.889   6.451   0.165
14204TIP3   OH242552   1.383   3.135   6.173
14204TIP3    H142553   1.317   3.067   6.155
14204TIP3    H242554   1.437   3.098   6.243
14205TIP3   OH242555   2.547   0.762   5.130
14205TIP3    H142556   2.464   0.790   5.167
14205TIP3    H242557   2.604   0.748   5.206
14206TIP3   OH242558   7.803   2.063   4.159
14206TIP3    H142559   7.878   2.118   4.182
14206TIP3    H242560   7.758   2.111   4.091
14207TIP3   OH242561   3.452   4.562   3.753
14207TIP3    H142562   3.485   4.610   3.829
14207TIP3    H242563   3.493   4.476   3.759
14208TIP3   OH242564   6.390  -0.002   5.394
14208TIP3    H142565   6.414   0.055   5.468
14208TIP3    H242566   6.470  -0.008   5.342
14209TIP3   OH242567   5.832   4.327   2.210
14209TIP3    H142568   5.738   4.308   2.202
14209TIP3    H242569   5.838   4.421   2.193
14210TIP3   OH242570   6.867   0.461   0.776
14210TIP3    H142571   6.817   0.432   0.852
14210TIP3    H242572   6.802   0.500   0.718
14211TIP3   OH242573   1.754   5.192   1.445
14211TIP3    H142574   1.664   5.172   1.468
14211TIP3    H242575   1.788   5.111   1.408
14212TIP3   OH242576   1.412   0.404   2.429
14212TIP3    H142577   1.411   0.496   2.400
14212TIP3    H242578   1.458   0.406   2.512
14213TIP3   OH242579   3.037   3.328   3.699
14213TIP3    H142580   3.076   3.249   3.738
14213TIP3    H242581   3.030   3.307   3.606
14214TIP3   OH242582   7.158   4.636   5.647
14214TIP3    H142583   7.124   4.605   5.563
14214TIP3    H242584   7.099   4.707   5.671
14215TIP3   OH242585   7.865   0.325   4.364
14215TIP3    H142586   7.841   0.287   4.449
14215TIP3    H242587   7.822   0.410   4.363
14216TIP3   OH242588   3.337   4.882   3.385
14216TIP3    H142589   3.337   4.801   3.435
14216TIP3    H242590   3.259   4.876   3.329
14217TIP3   OH242591   4.780   3.083   6.613
14217TIP3    H142592   4.824   2.999   6.627
14217TIP3    H242593   4.687   3.063   6.623
14218TIP3   OH242594   1.751   3.029   4.826
14218TIP3    H142595   1.795   3.050   4.908
14218TIP3    H242596   1.663   3.066   4.836
14219TIP3   OH242597   6.964   6.003   4.263
14219TIP3    H142598   6.972   5.907   4.262
14219TIP3    H242599   6.985   6.030   4.174
14220TIP3   OH242600   0.295   4.669   3.904
14220TIP3    H142601   0.241   4.604   3.859
14220TIP3    H242602   0.369   4.618   3.938
14221TIP3   OH242603   6.264   6.480   3.461
14221TIP3    H142604   6.203   6.446   3.396
14221TIP3    H242605   6.212   6.489   3.541
14222TIP3   OH242606   2.628   3.050   5.145
14222TIP3    H142607   2.723   3.044   5.152
14222TIP3    H242608   2.596   3.028   5.233
14223TIP3   OH242609   7.913   2.434   4.405
14223TIP3    H142610   7.881   2.408   4.492
14223TIP3    H242611   7.849   2.396   4.344
14224TIP3   OH242612   1.028   4.917   0.676
14224TIP3    H142613   1.119   4.946   0.666
14224TIP3    H242614   0.976   4.993   0.652
14225TIP3   OH242615   0.403   3.669   0.356
14225TIP3    H142616   0.466   3.669   0.284
14225TIP3    H242617   0.432   3.739   0.414
14226TIP3   OH242618   6.594   2.201   3.438
14226TIP3    H142619   6.629   2.290   3.437
14226TIP3    H242620   6.501   2.212   3.459
14227TIP3   OH242621   0.810   4.398   4.582
14227TIP3    H142622   0.741   4.332   4.591
14227TIP3    H242623   0.826   4.429   4.671
14228TIP3   OH242624   1.514   7.716   2.103
14228TIP3    H142625   1.481   7.661   2.032
14228TIP3    H242626   1.566   7.784   2.059
14229TIP3   OH242627   6.812   0.206   4.224
14229TIP3    H142628   6.817   0.110   4.229
14229TIP3    H242629   6.815   0.235   4.315
14230TIP3   OH242630   7.826   3.522   2.250
14230TIP3    H142631   7.915   3.546   2.223
14230TIP3    H242632   7.825   3.426   2.246
14231TIP3   OH242633   1.536   7.829   4.106
14231TIP3    H142634   1.495   7.750   4.072
14231TIP3    H242635   1.485   7.851   4.184
14232TIP3   OH242636   8.377   6.656   1.549
14232TIP3    H142637   8.435   6.730   1.569
14232TIP3    H242638   8.290   6.685   1.575
14233TIP3   OH242639   7.683   3.149   6.279
14233TIP3    H142640   7.741   3.082   6.244
14233TIP3    H242641   7.619   3.164   6.210
14234TIP3   OH242642   3.268   0.220   0.372
14234TIP3    H142643   3.310   0.217   0.458
14234TIP3    H242644   3.196   0.157   0.379
14235TIP3   OH242645   6.221   5.482   3.933
14235TIP3    H142646   6.274   5.542   3.881
14235TIP3    H242647   6.211   5.524   4.018
14236TIP3   OH242648   2.338   4.495   1.531
14236TIP3    H142649   2.419   4.546   1.529
14236TIP3    H242650   2.295   4.514   1.448
14237TIP3   OH242651   8.265   6.152   6.621
14237TIP3    H142652   8.349   6.155   6.668
14237TIP3    H242653   8.282   6.097   6.544
14238TIP3   OH242654   5.378   4.520   0.841
14238TIP3    H142655   5.324   4.446   0.816
14238TIP3    H242656   5.388   4.571   0.760
14239TIP3   OH242657   4.047   1.281   0.013
14239TIP3    H142658   4.048   1.295   0.107
14239TIP3    H242659   4.013   1.363  -0.023
14240TIP3   OH242660   2.347   0.907   3.768
14240TIP3    H142661   2.359   0.981   3.709
14240TIP3    H242662   2.363   0.944   3.855
14241TIP3   OH242663   8.255   0.420   1.961
14241TIP3    H142664   8.254   0.513   1.937
14241TIP3    H242665   8.279   0.420   2.054
14242TIP3   OH242666   4.122   5.350   0.088
14242TIP3    H142667   4.032   5.351   0.120
14242TIP3    H242668   4.139   5.440   0.062
14243TIP3   OH242669   7.089   1.833   1.528
14243TIP3    H142670   7.178   1.819   1.496
14243TIP3    H242671   7.043   1.752   1.505
14244TIP3   OH242672   4.893   4.729   0.205
14244TIP3    H142673   4.887   4.824   0.217
14244TIP3    H242674   4.809   4.695   0.234
14245TIP3   OH242675   5.455   4.324   0.291
14245TIP3    H142676   5.441   4.306   0.198
14245TIP3    H242677   5.367   4.327   0.329
14246TIP3   OH242678   8.387   0.557   6.772
14246TIP3    H142679   8.292   0.573   6.769
14246TIP3    H242680   8.419   0.611   6.844
14247TIP3   OH242681   2.700   2.617   1.076
14247TIP3    H142682   2.697   2.548   1.010
14247TIP3    H242683   2.679   2.697   1.027
14248TIP3   OH242684   6.391   5.051   2.492
14248TIP3    H142685   6.330   5.121   2.467
14248TIP3    H242686   6.477   5.083   2.463
14249TIP3   OH242687   6.453   6.936   6.787
14249TIP3    H142688   6.369   6.909   6.823
14249TIP3    H242689   6.430   6.989   6.710
14250TIP3   OH242690   0.570   0.379   1.938
14250TIP3    H142691   0.664   0.381   1.954
14250TIP3    H242692   0.558   0.308   1.875
14251TIP3   OH242693   5.404   1.705   1.936
14251TIP3    H142694   5.488   1.675   1.900
14251TIP3    H242695   5.421   1.795   1.963
14252TIP3   OH242696   3.660   1.094   6.509
14252TIP3    H142697   3.671   0.999   6.511
14252TIP3    H242698   3.691   1.120   6.422
14253TIP3   OH242699   2.747   5.711   6.640
14253TIP3    H142700   2.753   5.806   6.631
14253TIP3    H242701   2.655   5.691   6.620
14254TIP3   OH242702   0.027   7.003   3.637
14254TIP3    H142703   0.090   6.932   3.645
14254TIP3    H242704   0.039   7.056   3.716
14255TIP3   OH242705   2.220   7.656   1.003
14255TIP3    H142706   2.125   7.660   0.994
14255TIP3    H242707   2.234   7.618   1.090
14256TIP3   OH242708   6.096   5.747   6.659
14256TIP3    H142709   6.151   5.723   6.734
14256TIP3    H242710   6.089   5.666   6.608
14257TIP3   OH242711   6.876   5.994   0.421
14257TIP3    H142712   6.799   5.964   0.468
14257TIP3    H242713   6.869   6.090   0.423
14258TIP3   OH242714   5.920   3.521   4.423
14258TIP3    H142715   5.939   3.456   4.355
14258TIP3    H242716   5.978   3.595   4.403
14259TIP3   OH242717   4.500   6.328   4.413
14259TIP3    H142718   4.577   6.362   4.459
14259TIP3    H242719   4.456   6.272   4.477
14260TIP3   OH242720   5.197   6.643   5.482
14260TIP3    H142721   5.283   6.630   5.522
14260TIP3    H242722   5.213   6.705   5.410
14261TIP3   OH242723   4.563   5.358   6.372
14261TIP3    H142724   4.561   5.356   6.468
14261TIP3    H242725   4.512   5.281   6.346
14262TIP3   OH242726   6.589   0.775   0.754
14262TIP3    H142727   6.552   0.806   0.672
14262TIP3    H242728   6.637   0.695   0.730
14263TIP3   OH242729   1.521   4.454   3.697
14263TIP3    H142730   1.462   4.421   3.765
14263TIP3    H242731   1.532   4.381   3.637
14264TIP3   OH242732   3.803   4.222   2.298
14264TIP3    H142733   3.866   4.292   2.311
14264TIP3    H242734   3.718   4.263   2.316
14265TIP3   OH242735   3.109   5.575   0.355
14265TIP3    H142736   3.182   5.636   0.346
14265TIP3    H242737   3.078   5.560   0.266
14266TIP3   OH242738   5.488   4.985   4.078
14266TIP3    H142739   5.582   4.978   4.060
14266TIP3    H242740   5.482   4.982   4.174
14267TIP3   OH242741   5.664   3.332   3.618
14267TIP3    H142742   5.744   3.280   3.608
14267TIP3    H242743   5.667   3.364   3.708
14268TIP3   OH242744   1.312   7.391   1.508
14268TIP3    H142745   1.386   7.399   1.568
14268TIP3    H242746   1.277   7.480   1.501
14269TIP3   OH242747   7.290   2.721   1.405
14269TIP3    H142748   7.315   2.629   1.412
14269TIP3    H242749   7.368   2.764   1.370
14270TIP3   OH242750   6.690   4.761   3.271
14270TIP3    H142751   6.624   4.692   3.264
14270TIP3    H242752   6.771   4.720   3.241
14271TIP3   OH242753   1.635   0.171   5.221
14271TIP3    H142754   1.666   0.251   5.263
14271TIP3    H242755   1.715   0.129   5.188
14272TIP3   OH242756   8.147   5.594   4.191
14272TIP3    H142757   8.222   5.615   4.246
14272TIP3    H242758   8.088   5.544   4.248
14273TIP3   OH242759   6.536   6.218   0.183
14273TIP3    H142760   6.585   6.293   0.217
14273TIP3    H242761   6.576   6.200   0.098
14274TIP3   OH242762   7.003   6.719   3.401
14274TIP3    H142763   7.097   6.737   3.395
14274TIP3    H242764   6.998   6.623   3.404
14275TIP3   OH242765   6.758   3.966   5.698
14275TIP3    H142766   6.819   3.964   5.771
14275TIP3    H242767   6.703   3.888   5.710
14276TIP3   OH242768   4.103   5.064   1.901
14276TIP3    H142769   4.030   5.012   1.935
14276TIP3    H242770   4.139   5.011   1.830
14277TIP3   OH242771   4.011   5.557   6.633
14277TIP3    H142772   4.085   5.618   6.637
14277TIP3    H242773   3.971   5.563   6.719
14278TIP3   OH242774   2.658   4.018   5.644
14278TIP3    H142775   2.652   3.927   5.670
14278TIP3    H242776   2.590   4.029   5.577
14279TIP3   OH242777   0.197   3.609   1.599
14279TIP3    H142778   0.111   3.573   1.579
14279TIP3    H242779   0.241   3.614   1.514
14280TIP3   OH242780   4.050   3.369   4.910
14280TIP3    H142781   4.079   3.308   4.979
14280TIP3    H242782   4.025   3.448   4.957
14281TIP3   OH242783   7.730   6.295   3.064
14281TIP3    H142784   7.771   6.326   3.145
14281TIP3    H242785   7.792   6.318   2.995
14282TIP3   OH242786   4.228   6.486   5.467
14282TIP3    H142787   4.216   6.405   5.516
14282TIP3    H242788   4.180   6.473   5.386
14283TIP3   OH242789   7.942   2.693   6.666
14283TIP3    H142790   7.985   2.618   6.707
14283TIP3    H242791   7.852   2.690   6.698
14284TIP3   OH242792   5.378   2.395   5.985
14284TIP3    H142793   5.347   2.466   6.042
14284TIP3    H242794   5.460   2.428   5.948
14285TIP3   OH242795   1.324   1.285   0.761
14285TIP3    H142796   1.381   1.350   0.803
14285TIP3    H242797   1.385   1.225   0.718
14286TIP3   OH242798   1.252   6.305   2.502
14286TIP3    H142799   1.164   6.304   2.465
14286TIP3    H242800   1.309   6.282   2.429
14287TIP3   OH242801   4.872   3.940   3.796
14287TIP3    H142802   4.895   3.876   3.864
14287TIP3    H242803   4.870   3.888   3.715
14288TIP3   OH242804   7.705   0.345   0.366
14288TIP3    H142805   7.781   0.334   0.423
14288TIP3    H242806   7.740   0.385   0.286
14289TIP3   OH242807   1.504   5.359   6.018
14289TIP3    H142808   1.443   5.288   6.000
14289TIP3    H242809   1.562   5.360   5.941
14290TIP3   OH242810   7.151   1.345   3.930
14290TIP3    H142811   7.079   1.283   3.920
14290TIP3    H242812   7.109   1.431   3.932
14291TIP3   OH242813   0.262   5.090   2.718
14291TIP3    H142814   0.233   5.000   2.703
14291TIP3    H242815   0.183   5.137   2.743
14292TIP3   OH242816   6.967   1.663   3.130
14292TIP3    H142817   6.945   1.576   3.096
14292TIP3    H242818   7.031   1.646   3.199
14293TIP3   OH242819   1.190   0.840   4.121
14293TIP3    H142820   1.245   0.908   4.161
14293TIP3    H242821   1.252   0.775   4.089
14294TIP3   OH242822   5.645   0.318   2.369
14294TIP3    H142823   5.551   0.332   2.365
14294TIP3    H242824   5.659   0.235   2.324
14295TIP3   OH242825   1.437   5.915   2.321
14295TIP3    H142826   1.434   5.919   2.225
14295TIP3    H242827   1.348   5.939   2.348
14296TIP3   OH242828   3.547   6.159   3.015
14296TIP3    H142829   3.557   6.171   2.920
14296TIP3    H242830   3.548   6.248   3.050
14297TIP3   OH242831   5.601   5.978   1.078
14297TIP3    H142832   5.537   5.954   1.145
14297TIP3    H242833   5.662   6.036   1.123
14298TIP3   OH242834   2.937   5.221   4.209
14298TIP3    H142835   2.900   5.135   4.186
14298TIP3    H242836   2.968   5.256   4.125
14299TIP3   OH242837   5.850   5.250   2.967
14299TIP3    H142838   5.905   5.204   3.031
14299TIP3    H242839   5.834   5.185   2.898
14300TIP3   OH242840   6.490   1.085   1.333
14300TIP3    H142841   6.436   1.145   1.282
14300TIP3    H242842   6.561   1.140   1.367
14301TIP3   OH242843   5.088   0.337   0.033
14301TIP3    H142844   5.144   0.404   0.071
14301TIP3    H242845   5.086   0.267   0.098
14302TIP3   OH242846   1.258   3.192   4.148
14302TIP3    H142847   1.284   3.107   4.184
14302TIP3    H242848   1.190   3.223   4.207
14303TIP3   OH242849   4.505   2.808   1.243
14303TIP3    H142850   4.492   2.716   1.264
14303TIP3    H242851   4.417   2.845   1.241
14304TIP3   OH242852   4.017   7.698   3.116
14304TIP3    H142853   3.939   7.653   3.148
14304TIP3    H242854   3.983   7.771   3.065
14305TIP3   OH242855   7.021   6.878   0.284
14305TIP3    H142856   6.991   6.789   0.301
14305TIP3    H242857   7.117   6.872   0.280
14306TIP3   OH242858   0.660   6.838   4.065
14306TIP3    H142859   0.710   6.758   4.080
14306TIP3    H242860   0.718   6.893   4.013
14307TIP3   OH242861   2.708   3.460   5.517
14307TIP3    H142862   2.665   3.509   5.447
14307TIP3    H242863   2.647   3.463   5.590
14308TIP3   OH242864   6.942   6.275   0.466
14308TIP3    H142865   6.912   6.289   0.555
14308TIP3    H242866   7.037   6.286   0.469
14309TIP3   OH242867   2.438   2.188   2.533
14309TIP3    H142868   2.400   2.154   2.614
14309TIP3    H242869   2.448   2.112   2.476
14310TIP3   OH242870   1.072   1.352   2.912
14310TIP3    H142871   0.996   1.304   2.879
14310TIP3    H242872   1.075   1.331   3.006
14311TIP3   OH242873   5.955   1.626   2.517
14311TIP3    H142874   5.884   1.651   2.458
14311TIP3    H242875   6.035   1.657   2.473
14312TIP3   OH242876   4.996   1.533   2.550
14312TIP3    H142877   5.089   1.554   2.538
14312TIP3    H242878   4.988   1.513   2.643
14313TIP3   OH242879   4.278   1.315   4.161
14313TIP3    H142880   4.296   1.352   4.074
14313TIP3    H242881   4.365   1.303   4.200
14314TIP3   OH242882   5.438   4.226   3.970
14314TIP3    H142883   5.453   4.149   4.025
14314TIP3    H242884   5.391   4.192   3.894
14315TIP3   OH242885   2.471   4.031   6.766
14315TIP3    H142886   2.493   3.963   6.830
14315TIP3    H242887   2.548   4.036   6.709
14316TIP3   OH242888   5.217   0.285   6.647
14316TIP3    H142889   5.304   0.325   6.648
14316TIP3    H242890   5.158   0.354   6.677
14317TIP3   OH242891   5.719   2.323   2.454
14317TIP3    H142892   5.749   2.340   2.543
14317TIP3    H242893   5.686   2.407   2.423
14318TIP3   OH242894   3.544   1.403   6.197
14318TIP3    H142895   3.632   1.424   6.165
14318TIP3    H242896   3.503   1.488   6.211
14319TIP3   OH242897   7.730   5.292   5.535
14319TIP3    H142898   7.763   5.214   5.492
14319TIP3    H242899   7.646   5.310   5.492
14320TIP3   OH242900   1.343   4.406   5.657
14320TIP3    H142901   1.388   4.360   5.729
14320TIP3    H242902   1.252   4.380   5.666
14321TIP3   OH242903   3.784   4.041   1.290
14321TIP3    H142904   3.791   4.056   1.384
14321TIP3    H242905   3.754   3.951   1.281
14322TIP3   OH242906   2.402   2.588   3.349
14322TIP3    H142907   2.487   2.611   3.385
14322TIP3    H242908   2.344   2.660   3.376
14323TIP3   OH242909   4.870   0.169   6.674
14323TIP3    H142910   4.910   0.217   6.601
14323TIP3    H242911   4.844   0.237   6.736
14324TIP3   OH242912   7.808   5.246   4.262
14324TIP3    H142913   7.761   5.214   4.339
14324TIP3    H242914   7.741   5.283   4.206
14325TIP3   OH242915   4.718   5.230   4.691
14325TIP3    H142916   4.795   5.244   4.636
14325TIP3    H242917   4.728   5.141   4.725
14326TIP3   OH242918   4.717   2.151   1.201
14326TIP3    H142919   4.718   2.072   1.146
14326TIP3    H242920   4.701   2.222   1.139
14327TIP3   OH242921   7.516   0.194   5.238
14327TIP3    H142922   7.583   0.215   5.303
14327TIP3    H242923   7.435   0.227   5.275
14328TIP3   OH242924   4.031   7.160   4.425
14328TIP3    H142925   4.011   7.250   4.400
14328TIP3    H242926   3.945   7.120   4.439
14329TIP3   OH242927   3.373   3.679   6.819
14329TIP3    H142928   3.404   3.723   6.740
14329TIP3    H242929   3.354   3.590   6.791
14330TIP3   OH242930   4.144   1.182   6.825
14330TIP3    H142931   4.069   1.241   6.831
14330TIP3    H242932   4.133   1.122   6.898
14331TIP3   OH242933   7.641   3.519   5.271
14331TIP3    H142934   7.673   3.441   5.226
14331TIP3    H242935   7.679   3.592   5.222
14332TIP3   OH242936   5.088   1.075   5.023
14332TIP3    H142937   5.006   1.035   5.053
14332TIP3    H242938   5.060   1.154   4.977
14333TIP3   OH242939   6.299   6.775   6.130
14333TIP3    H142940   6.313   6.830   6.207
14333TIP3    H242941   6.212   6.737   6.143
14334TIP3   OH242942   5.039   2.411   1.161
14334TIP3    H142943   4.989   2.352   1.105
14334TIP3    H242944   5.122   2.424   1.113
14335TIP3   OH242945   2.128   0.256   5.754
14335TIP3    H142946   2.169   0.195   5.815
14335TIP3    H242947   2.062   0.302   5.807
14336TIP3   OH242948   3.615   5.682   5.146
14336TIP3    H142949   3.667   5.757   5.116
14336TIP3    H242950   3.525   5.706   5.125
14337TIP3   OH242951   2.455   1.814   0.589
14337TIP3    H142952   2.477   1.727   0.623
14337TIP3    H242953   2.409   1.797   0.506
14338TIP3   OH242954   3.510   3.368   0.653
14338TIP3    H142955   3.603   3.391   0.654
14338TIP3    H242956   3.479   3.388   0.741
14339TIP3   OH242957   6.018   3.987   2.303
14339TIP3    H142958   6.045   4.067   2.257
14339TIP3    H242959   6.095   3.930   2.297
14340TIP3   OH242960   6.039   0.600   5.366
14340TIP3    H142961   6.109   0.627   5.306
14340TIP3    H242962   5.960   0.603   5.313
14341TIP3   OH242963   1.996   0.560   2.817
14341TIP3    H142964   1.978   0.544   2.910
14341TIP3    H242965   2.013   0.654   2.812
14342TIP3   OH242966   6.780   4.126   4.612
14342TIP3    H142967   6.694   4.102   4.578
14342TIP3    H242968   6.831   4.045   4.605
14343TIP3   OH242969   4.631   6.350   5.976
14343TIP3    H142970   4.636   6.434   6.021
14343TIP3    H242971   4.682   6.363   5.896
14344TIP3   OH242972   0.903   4.263   1.304
14344TIP3    H142973   0.951   4.297   1.229
14344TIP3    H242974   0.824   4.223   1.267
14345TIP3   OH242975   1.509   4.539   1.110
14345TIP3    H142976   1.507   4.499   1.196
14345TIP3    H242977   1.464   4.623   1.121
14346TIP3   OH242978   3.713   7.810   2.182
14346TIP3    H142979   3.692   7.766   2.099
14346TIP3    H242980   3.629   7.821   2.226
14347TIP3   OH242981   2.408   6.749   3.425
14347TIP3    H142982   2.358   6.813   3.475
14347TIP3    H242983   2.457   6.800   3.361
14348TIP3   OH242984   6.468   1.744   3.642
14348TIP3    H142985   6.404   1.738   3.570
14348TIP3    H242986   6.451   1.829   3.682
14349TIP3   OH242987   4.043   2.084   3.569
14349TIP3    H142988   3.983   2.157   3.588
14349TIP3    H242989   4.130   2.121   3.581
14350TIP3   OH242990   7.139   7.834   2.640
14350TIP3    H142991   7.209   7.798   2.695
14350TIP3    H242992   7.131   7.770   2.569
14351TIP3   OH242993   5.811   1.512   1.227
14351TIP3    H142994   5.739   1.569   1.201
14351TIP3    H242995   5.831   1.461   1.148
14352TIP3   OH242996   4.048   4.858   1.100
14352TIP3    H142997   4.038   4.804   1.178
14352TIP3    H242998   4.032   4.947   1.130
14353TIP3   OH242999   0.372   5.713   1.444
14353TIP3    H143000   0.354   5.647   1.511
14353TIP3    H243001   0.454   5.685   1.404
14354TIP3   OH243002   7.963   7.597   4.123
14354TIP3    H143003   8.053   7.579   4.149
14354TIP3    H243004   7.959   7.692   4.116
14355TIP3   OH243005   6.139   2.417   5.391
14355TIP3    H143006   6.153   2.338   5.338
14355TIP3    H243007   6.224   2.434   5.431
14356TIP3   OH243008   5.705   6.619   2.416
14356TIP3    H143009   5.677   6.708   2.393
14356TIP3    H243010   5.715   6.574   2.332
14357TIP3   OH243011   1.757   5.064   4.906
14357TIP3    H143012   1.702   4.986   4.895
14357TIP3    H243013   1.838   5.043   4.860
14358TIP3   OH243014   7.865   2.958   6.209
14358TIP3    H143015   7.954   2.991   6.199
14358TIP3    H243016   7.832   2.953   6.119
14359TIP3   OH243017   0.573   4.361   2.222
14359TIP3    H143018   0.638   4.310   2.174
14359TIP3    H243019   0.492   4.351   2.171
14360TIP3   OH243020   2.296   5.855   3.788
14360TIP3    H143021   2.321   5.799   3.715
14360TIP3    H243022   2.379   5.889   3.822
14361TIP3   OH243023   4.421   7.301   1.636
14361TIP3    H143024   4.451   7.311   1.546
14361TIP3    H243025   4.370   7.220   1.635
14362TIP3   OH243026   2.656   2.074   6.841
14362TIP3    H143027   2.615   2.012   6.901
14362TIP3    H243028   2.679   2.022   6.764
14363TIP3   OH243029   0.944   0.612   2.083
14363TIP3    H143030   1.011   0.595   2.017
14363TIP3    H243031   0.877   0.663   2.037
14364TIP3   OH243032   6.402   4.084   6.755
14364TIP3    H143033   6.328   4.043   6.712
14364TIP3    H243034   6.364   4.126   6.833
14365TIP3   OH243035   7.183   7.046   6.844
14365TIP3    H143036   7.118   6.977   6.859
14365TIP3    H243037   7.136   7.127   6.862
14366TIP3   OH243038   8.363   5.059   5.935
14366TIP3    H143039   8.388   5.009   6.013
14366TIP3    H243040   8.341   4.993   5.870
14367TIP3   OH243041   5.130   4.574   2.315
14367TIP3    H143042   5.159   4.517   2.243
14367TIP3    H243043   5.035   4.565   2.315
14368TIP3   OH243044   3.477   3.387   6.283
14368TIP3    H143045   3.475   3.440   6.363
14368TIP3    H243046   3.559   3.338   6.289
14369TIP3   OH243047   1.553   3.811   5.980
14369TIP3    H143048   1.635   3.808   6.029
14369TIP3    H243049   1.540   3.904   5.960
14370TIP3   OH243050   7.107   4.702   3.402
14370TIP3    H143051   7.132   4.626   3.455
14370TIP3    H243052   7.190   4.741   3.374
14371TIP3   OH243053   5.241   3.360   5.588
14371TIP3    H143054   5.263   3.301   5.516
14371TIP3    H243055   5.216   3.442   5.545
14372TIP3   OH243056   1.843   3.385   0.779
14372TIP3    H143057   1.916   3.404   0.721
14372TIP3    H243058   1.769   3.368   0.720
14373TIP3   OH243059   8.142   1.810   0.238
14373TIP3    H143060   8.072   1.795   0.301
14373TIP3    H243061   8.143   1.731   0.183
14374TIP3   OH243062   6.428   6.323   6.124
14374TIP3    H143063   6.401   6.360   6.040
14374TIP3    H243064   6.488   6.388   6.160
14375TIP3   OH243065   2.846   0.185   0.255
14375TIP3    H143066   2.817   0.138   0.333
14375TIP3    H243067   2.795   0.147   0.184
14376TIP3   OH243068   7.571   4.131   2.035
14376TIP3    H143069   7.552   4.037   2.034
14376TIP3    H243070   7.639   4.141   2.101
14377TIP3   OH243071   3.162   5.880   2.265
14377TIP3    H143072   3.252   5.895   2.293
14377TIP3    H243073   3.109   5.905   2.340
14378TIP3   OH243074   3.835   2.160   3.914
14378TIP3    H143075   3.768   2.193   3.854
14378TIP3    H243076   3.824   2.065   3.913
14379TIP3   OH243077   7.770   3.920   2.959
14379TIP3    H143078   7.745   3.847   3.016
14379TIP3    H243079   7.755   3.887   2.870
14380TIP3   OH243080   4.731   3.454   6.195
14380TIP3    H143081   4.766   3.412   6.117
14380TIP3    H243082   4.659   3.397   6.223
14381TIP3   OH243083   7.656   4.365   6.287
14381TIP3    H143084   7.656   4.269   6.284
14381TIP3    H243085   7.578   4.387   6.337
14382TIP3   OH243086   3.074   6.179   4.299
14382TIP3    H143087   2.979   6.193   4.296
14382TIP3    H243088   3.110   6.266   4.318
14383TIP3   OH243089   2.567   2.949   4.904
14383TIP3    H143090   2.640   2.902   4.863
14383TIP3    H243091   2.605   2.989   4.982
14384TIP3   OH243092   7.512   1.707   1.521
14384TIP3    H143093   7.444   1.702   1.453
14384TIP3    H243094   7.505   1.797   1.555
14385TIP3   OH243095   0.338   5.908   4.685
14385TIP3    H143096   0.407   5.871   4.629
14385TIP3    H243097   0.359   5.875   4.772
14386TIP3   OH243098   4.338   3.506   6.817
14386TIP3    H143099   4.276   3.500   6.744
14386TIP3    H243100   4.324   3.593   6.854
14387TIP3   OH243101   3.545   2.253   2.812
14387TIP3    H143102   3.634   2.260   2.845
14387TIP3    H243103   3.491   2.292   2.880
14388TIP3   OH243104   6.632   5.587   2.028
14388TIP3    H143105   6.706   5.622   1.978
14388TIP3    H243106   6.591   5.523   1.970
14389TIP3   OH243107   1.929   5.624   2.234
14389TIP3    H143108   1.942   5.700   2.178
14389TIP3    H243109   1.859   5.574   2.193
14390TIP3   OH243110   7.927   5.467   4.610
14390TIP3    H143111   7.862   5.524   4.652
14390TIP3    H243112   8.009   5.487   4.653
14391TIP3   OH243113   0.832   6.611   4.430
14391TIP3    H143114   0.802   6.522   4.451
14391TIP3    H243115   0.908   6.597   4.373
14392TIP3   OH243116   7.090   2.002   6.653
14392TIP3    H143117   7.092   2.088   6.695
14392TIP3    H243118   7.177   1.965   6.671
14393TIP3   OH243119   4.531   0.104   4.694
14393TIP3    H143120   4.550   0.183   4.643
14393TIP3    H243121   4.449   0.125   4.739
14394TIP3   OH243122   2.279   4.570   1.261
14394TIP3    H143123   2.363   4.576   1.216
14394TIP3    H243124   2.243   4.486   1.235
14395TIP3   OH243125   5.242   1.976   0.707
14395TIP3    H143126   5.181   1.904   0.691
14395TIP3    H243127   5.194   2.054   0.680
14396TIP3   OH243128   5.736   3.283   6.338
14396TIP3    H143129   5.677   3.207   6.336
14396TIP3    H243130   5.760   3.297   6.246
14397TIP3   OH243131   4.405   5.620   1.454
14397TIP3    H143132   4.443   5.665   1.379
14397TIP3    H243133   4.330   5.573   1.418
14398TIP3   OH243134   7.901   7.193   6.763
14398TIP3    H143135   7.847   7.208   6.840
14398TIP3    H243136   7.945   7.277   6.748
14399TIP3   OH243137   1.150   5.390   6.251
14399TIP3    H143138   1.208   5.334   6.303
14399TIP3    H243139   1.083   5.419   6.313
14400TIP3   OH243140   0.159   7.527   3.424
14400TIP3    H143141   0.251   7.516   3.447
14400TIP3    H243142   0.158   7.600   3.362
14401TIP3   OH243143   5.765   7.117   3.488
14401TIP3    H143144   5.845   7.167   3.502
14401TIP3    H243145   5.761   7.056   3.562
14402TIP3   OH243146   0.633   5.446   5.775
14402TIP3    H143147   0.606   5.501   5.848
14402TIP3    H243148   0.656   5.362   5.815
14403TIP3   OH243149   8.140   6.072   2.651
14403TIP3    H143150   8.201   6.120   2.595
14403TIP3    H243151   8.110   5.998   2.597
14404TIP3   OH243152   1.164   5.204   5.007
14404TIP3    H143153   1.193   5.204   4.916
14404TIP3    H243154   1.191   5.289   5.042
14405TIP3   OH243155   6.610   6.654   0.179
14405TIP3    H143156   6.618   6.746   0.153
14405TIP3    H243157   6.530   6.651   0.232
14406TIP3   OH243158   4.334   7.416   2.811
14406TIP3    H143159   4.270   7.438   2.743
14406TIP3    H243160   4.418   7.412   2.765
14407TIP3   OH243161   4.943   0.837   3.097
14407TIP3    H143162   4.853   0.826   3.065
14407TIP3    H243163   4.994   0.854   3.017
14408TIP3   OH243164   8.214   6.540   2.735
14408TIP3    H143165   8.235   6.447   2.748
14408TIP3    H243166   8.245   6.584   2.814
14409TIP3   OH243167   3.752   2.461   2.042
14409TIP3    H143168   3.670   2.463   2.091
14409TIP3    H243169   3.729   2.424   1.957
14410TIP3   OH243170   6.208   0.468   4.350
14410TIP3    H143171   6.195   0.403   4.280
14410TIP3    H243172   6.161   0.431   4.425
14411TIP3   OH243173   2.700   7.815   4.068
14411TIP3    H143174   2.755   7.738   4.050
14411TIP3    H243175   2.673   7.804   4.159
14412TIP3   OH243176   6.694   6.544   0.573
14412TIP3    H143177   6.714   6.597   0.650
14412TIP3    H243178   6.703   6.453   0.603
14413TIP3   OH243179   7.157   7.594   3.891
14413TIP3    H143180   7.187   7.539   3.819
14413TIP3    H243181   7.235   7.609   3.944
14414TIP3   OH243182   0.901   3.627   5.415
14414TIP3    H143183   0.921   3.665   5.329
14414TIP3    H243184   0.985   3.624   5.460
14415TIP3   OH243185   0.292   3.267   6.013
14415TIP3    H143186   0.356   3.303   6.074
14415TIP3    H243187   0.297   3.324   5.936
14416TIP3   OH243188   5.016   7.837   3.968
14416TIP3    H143189   5.022   7.746   3.940
14416TIP3    H243190   4.961   7.879   3.902
14417TIP3   OH243191   7.096   1.065   0.580
14417TIP3    H143192   7.091   1.026   0.667
14417TIP3    H243193   7.040   1.142   0.585
14418TIP3   OH243194   4.602   0.956   3.269
14418TIP3    H143195   4.622   0.866   3.296
14418TIP3    H243196   4.578   0.949   3.177
14419TIP3   OH243197   6.677   4.090   3.255
14419TIP3    H143198   6.625   4.031   3.309
14419TIP3    H243199   6.763   4.049   3.250
14420TIP3   OH243200   6.310   7.083   4.223
14420TIP3    H143201   6.389   7.134   4.208
14420TIP3    H243202   6.340   6.995   4.245
14421TIP3   OH243203   0.972   7.461   2.940
14421TIP3    H143204   1.055   7.508   2.954
14421TIP3    H243205   0.984   7.415   2.857
14422TIP3   OH243206   1.920   4.062   4.731
14422TIP3    H143207   1.834   4.105   4.728
14422TIP3    H243208   1.899   3.969   4.733
14423TIP3   OH243209   6.000   5.222   0.941
14423TIP3    H143210   6.055   5.270   0.878
14423TIP3    H243211   6.015   5.130   0.921
14424TIP3   OH243212   0.266   1.473   1.364
14424TIP3    H143213   0.309   1.495   1.447
14424TIP3    H243214   0.281   1.550   1.308
14425TIP3   OH243215   4.779   3.957   4.677
14425TIP3    H143216   4.790   4.037   4.729
14425TIP3    H243217   4.825   3.890   4.728
14426TIP3   OH243218   3.912   0.967   4.773
14426TIP3    H143219   3.945   0.993   4.859
14426TIP3    H243220   3.908   1.049   4.724
14427TIP3   OH243221   5.763   0.243   3.986
14427TIP3    H143222   5.745   0.194   3.905
14427TIP3    H243223   5.740   0.183   4.056
14428TIP3   OH243224   3.831   7.220   2.335
14428TIP3    H143225   3.867   7.197   2.420
14428TIP3    H243226   3.759   7.280   2.354
14429TIP3   OH243227   5.959   5.045   1.673
14429TIP3    H143228   5.977   5.065   1.765
14429TIP3    H243229   6.036   5.076   1.626
14430TIP3   OH243230   2.462   7.912   6.010
14430TIP3    H143231   2.426   7.934   5.924
14430TIP3    H243232   2.438   7.820   6.023
14431TIP3   OH243233   8.279   5.965   4.174
14431TIP3    H143234   8.298   6.037   4.114
14431TIP3    H243235   8.337   5.894   4.146
14432TIP3   OH243236   5.117   3.744   4.188
14432TIP3    H143237   5.155   3.825   4.152
14432TIP3    H243238   5.187   3.707   4.241
14433TIP3   OH243239   4.032   6.111   5.330
14433TIP3    H143240   4.045   6.058   5.252
14433TIP3    H243241   3.977   6.184   5.301
14434TIP3   OH243242   6.226   6.256   4.430
14434TIP3    H143243   6.166   6.315   4.476
14434TIP3    H243244   6.228   6.176   4.483
14435TIP3   OH243245   7.643   3.888   6.386
14435TIP3    H143246   7.735   3.860   6.381
14435TIP3    H243247   7.630   3.912   6.478
14436TIP3   OH243248   4.430   5.264   6.835
14436TIP3    H143249   4.384   5.333   6.883
14436TIP3    H243250   4.380   5.254   6.754
14437TIP3   OH243251   0.247   3.901   3.593
14437TIP3    H143252   0.188   3.827   3.608
14437TIP3    H243253   0.207   3.949   3.521
14438TIP3   OH243254   8.370   4.726   6.309
14438TIP3    H143255   8.296   4.772   6.269
14438TIP3    H243256   8.447   4.776   6.282
14439TIP3   OH243257   3.882   6.853   6.511
14439TIP3    H143258   3.817   6.894   6.455
14439TIP3    H243259   3.964   6.896   6.488
14440TIP3   OH243260   8.021   0.031   1.704
14440TIP3    H143261   8.088   0.024   1.636
14440TIP3    H243262   7.951  -0.027   1.676
14441TIP3   OH243263   7.603   5.448   3.272
14441TIP3    H143264   7.645   5.533   3.257
14441TIP3    H243265   7.524   5.450   3.218
14442TIP3   OH243266   3.104   4.953   6.134
14442TIP3    H143267   3.030   4.907   6.094
14442TIP3    H243268   3.177   4.892   6.129
14443TIP3   OH243269   5.656   0.102   4.221
14443TIP3    H143270   5.588   0.147   4.272
14443TIP3    H243271   5.627   0.011   4.219
14444TIP3   OH243272   0.933   4.821   1.234
14444TIP3    H143273   0.885   4.892   1.277
14444TIP3    H243274   0.988   4.865   1.169
14445TIP3   OH243275   4.494   5.646   4.224
14445TIP3    H143276   4.497   5.558   4.262
14445TIP3    H243277   4.579   5.656   4.180
14446TIP3   OH243278   6.458   7.848   6.018
14446TIP3    H143279   6.536   7.877   6.066
14446TIP3    H243280   6.394   7.828   6.085
14447TIP3   OH243281   6.370   7.177   2.001
14447TIP3    H143282   6.375   7.225   1.918
14447TIP3    H243283   6.276   7.165   2.016
14448TIP3   OH243284   0.261   1.888   2.810
14448TIP3    H143285   0.350   1.923   2.806
14448TIP3    H243286   0.208   1.961   2.841
14449TIP3   OH243287   3.164   4.003   1.827
14449TIP3    H143288   3.163   3.941   1.899
14449TIP3    H243289   3.072   4.010   1.801
14450TIP3   OH243290   4.046   6.536   1.218
14450TIP3    H143291   4.040   6.564   1.127
14450TIP3    H243292   4.038   6.440   1.213
14451TIP3   OH243293   1.913   7.761   5.169
14451TIP3    H143294   1.968   7.822   5.121
14451TIP3    H243295   1.874   7.814   5.239
14452TIP3   OH243296   0.851   4.985   4.013
14452TIP3    H143297   0.820   5.034   3.937
14452TIP3    H243298   0.915   5.044   4.055
14453TIP3   OH243299   4.572   5.627   5.922
14453TIP3    H143300   4.555   5.532   5.920
14453TIP3    H243301   4.665   5.635   5.899
14454TIP3   OH243302   1.169   3.313   6.146
14454TIP3    H143303   1.248   3.264   6.168
14454TIP3    H243304   1.186   3.348   6.058
14455TIP3   OH243305   8.128   2.413   4.563
14455TIP3    H143306   8.157   2.329   4.601
14455TIP3    H243307   8.065   2.388   4.496
14456TIP3   OH243308   5.887   3.324   0.334
14456TIP3    H143309   5.910   3.416   0.347
14456TIP3    H243310   5.923   3.279   0.411
14457TIP3   OH243311   7.122   5.585   4.100
14457TIP3    H143312   7.072   5.610   4.022
14457TIP3    H243313   7.148   5.494   4.084
14458TIP3   OH243314   0.837   7.678   4.872
14458TIP3    H143315   0.824   7.611   4.805
14458TIP3    H243316   0.928   7.705   4.861
14459TIP3   OH243317   1.887   1.466   6.596
14459TIP3    H143318   1.833   1.435   6.524
14459TIP3    H243319   1.963   1.408   6.596
14460TIP3   OH243320   6.296   3.217   5.739
14460TIP3    H143321   6.320   3.283   5.673
14460TIP3    H243322   6.352   3.142   5.720
14461TIP3   OH243323   6.580   5.161   2.953
14461TIP3    H143324   6.564   5.073   2.921
14461TIP3    H243325   6.595   5.150   3.047
14462TIP3   OH243326   1.616   2.095   0.675
14462TIP3    H143327   1.596   2.067   0.585
14462TIP3    H243328   1.706   2.127   0.671
14463TIP3   OH243329   2.225   3.459   2.917
14463TIP3    H143330   2.290   3.434   2.982
14463TIP3    H243331   2.197   3.376   2.878
14464TIP3   OH243332   0.228   0.472   3.685
14464TIP3    H143333   0.232   0.426   3.601
14464TIP3    H243334   0.155   0.431   3.731
14465TIP3   OH243335   0.801   5.749   2.994
14465TIP3    H143336   0.710   5.719   2.999
14465TIP3    H243337   0.796   5.843   2.979
14466TIP3   OH243338   4.320   3.565   1.879
14466TIP3    H143339   4.407   3.600   1.900
14466TIP3    H243340   4.321   3.557   1.783
14467TIP3   OH243341   4.993   5.440   4.934
14467TIP3    H143342   4.906   5.401   4.931
14467TIP3    H243343   4.992   5.507   4.866
14468TIP3   OH243344   0.307   5.912   5.022
14468TIP3    H143345   0.230   5.918   4.965
14468TIP3    H243346   0.272   5.900   5.110
14469TIP3   OH243347   7.725   4.012   2.329
14469TIP3    H143348   7.723   4.105   2.309
14469TIP3    H243349   7.674   4.003   2.409
14470TIP3   OH243350   7.818   7.247   5.480
14470TIP3    H143351   7.793   7.297   5.403
14470TIP3    H243352   7.816   7.156   5.452
14471TIP3   OH243353   1.152   2.702   5.274
14471TIP3    H143354   1.205   2.753   5.213
14471TIP3    H243355   1.089   2.656   5.219
14472TIP3   OH243356   4.275   0.782   5.523
14472TIP3    H143357   4.360   0.746   5.547
14472TIP3    H243358   4.240   0.720   5.459
14473TIP3   OH243359   7.354   4.518   3.205
14473TIP3    H143360   7.264   4.540   3.181
14473TIP3    H243361   7.373   4.437   3.156
14474TIP3   OH243362   5.158   5.749   1.156
14474TIP3    H143363   5.096   5.710   1.094
14474TIP3    H243364   5.142   5.843   1.151
14475TIP3   OH243365   4.865   0.291   6.395
14475TIP3    H143366   4.803   0.221   6.372
14475TIP3    H243367   4.887   0.332   6.311
14476TIP3   OH243368   8.202   6.055   1.449
14476TIP3    H143369   8.112   6.023   1.458
14476TIP3    H243370   8.193   6.139   1.403
14477TIP3   OH243371   2.894   4.985   1.165
14477TIP3    H143372   2.806   5.001   1.198
14477TIP3    H243373   2.909   4.892   1.181
14478TIP3   OH243374   2.575   0.597   4.194
14478TIP3    H143375   2.638   0.594   4.122
14478TIP3    H243376   2.621   0.644   4.263
14479TIP3   OH243377   3.165   1.920   5.818
14479TIP3    H143378   3.148   2.013   5.807
14479TIP3    H243379   3.082   1.884   5.849
14480TIP3   OH243380   0.839   6.040   0.725
14480TIP3    H143381   0.883   6.115   0.766
14480TIP3    H243382   0.776   6.011   0.792
14481TIP3   OH243383   7.597   6.993   4.445
14481TIP3    H143384   7.589   7.075   4.494
14481TIP3    H243385   7.635   7.019   4.362
14482TIP3   OH243386   7.254   7.108   1.454
14482TIP3    H143387   7.313   7.137   1.523
14482TIP3    H243388   7.312   7.074   1.386
14483TIP3   OH243389   5.812   2.857   2.562
14483TIP3    H143390   5.738   2.845   2.504
14483TIP3    H243391   5.846   2.769   2.578
14484TIP3   OH243392   0.055   4.264   4.317
14484TIP3    H143393   0.044   4.299   4.228
14484TIP3    H243394   0.130   4.205   4.310
14485TIP3   OH243395   8.033   1.804   3.647
14485TIP3    H143396   8.024   1.745   3.721
14485TIP3    H243397   7.982   1.763   3.577
14486TIP3   OH243398   1.559   2.759   5.654
14486TIP3    H143399   1.527   2.724   5.738
14486TIP3    H243400   1.491   2.737   5.591
14487TIP3   OH243401   1.523   7.014   2.351
14487TIP3    H143402   1.460   7.035   2.419
14487TIP3    H243403   1.470   6.994   2.274
14488TIP3   OH243404   0.764   1.260   4.865
14488TIP3    H143405   0.793   1.344   4.902
14488TIP3    H243406   0.671   1.255   4.889
14489TIP3   OH243407   2.105   2.964   2.143
14489TIP3    H143408   2.030   2.956   2.085
14489TIP3    H243409   2.125   3.057   2.145
14490TIP3   OH243410   2.897   5.093   0.912
14490TIP3    H143411   2.862   5.174   0.951
14490TIP3    H243412   2.944   5.051   0.984
14491TIP3   OH243413   3.374   6.216   4.926
14491TIP3    H143414   3.343   6.158   4.856
14491TIP3    H243415   3.332   6.183   5.005
14492TIP3   OH243416   5.757   5.680   3.038
14492TIP3    H143417   5.819   5.726   3.095
14492TIP3    H243418   5.714   5.750   2.988
14493TIP3   OH243419   2.317   0.662   6.175
14493TIP3    H143420   2.343   0.687   6.087
14493TIP3    H243421   2.238   0.713   6.193
14494TIP3   OH243422   2.231   2.084   1.926
14494TIP3    H143423   2.194   2.036   2.000
14494TIP3    H243424   2.241   2.174   1.959
14495TIP3   OH243425   7.875   0.002   5.656
14495TIP3    H143426   7.918   0.079   5.620
14495TIP3    H243427   7.788   0.001   5.617
14496TIP3   OH243428   7.456   5.089   3.116
14496TIP3    H143429   7.413   5.010   3.084
14496TIP3    H243430   7.386   5.155   3.120
14497TIP3   OH243431   4.679   4.468   5.131
14497TIP3    H143432   4.765   4.508   5.145
14497TIP3    H243433   4.663   4.419   5.212
14498TIP3   OH243434   0.869   0.333   3.095
14498TIP3    H143435   0.889   0.359   3.005
14498TIP3    H243436   0.881   0.238   3.097
14499TIP3   OH243437   0.249   3.169   6.592
14499TIP3    H143438   0.158   3.141   6.601
14499TIP3    H243439   0.275   3.195   6.680
14500TIP3   OH243440   8.129   4.085   2.386
14500TIP3    H143441   8.220   4.056   2.394
14500TIP3    H243442   8.103   4.110   2.475
14501TIP3   OH243443   5.137   7.171   2.608
14501TIP3    H143444   5.134   7.119   2.688
14501TIP3    H243445   5.052   7.215   2.605
14502TIP3   OH243446   3.786   7.576   3.165
14502TIP3    H143447   3.791   7.507   3.231
14502TIP3    H243448   3.724   7.542   3.100
14503TIP3   OH243449   2.038   7.793   6.760
14503TIP3    H143450   2.132   7.774   6.753
14503TIP3    H243451   2.026   7.875   6.712
14504TIP3   OH243452   8.182   1.600   0.065
14504TIP3    H143453   8.227   1.520   0.090
14504TIP3    H243454   8.245   1.646   0.009
14505TIP3   OH243455   5.203   3.549   3.934
14505TIP3    H143456   5.166   3.523   4.018
14505TIP3    H243457   5.223   3.642   3.943
14506TIP3   OH243458   6.168   0.202   3.572
14506TIP3    H143459   6.172   0.201   3.668
14506TIP3    H243460   6.243   0.255   3.546
14507TIP3   OH243461   2.023   4.643   6.222
14507TIP3    H143462   2.066   4.641   6.136
14507TIP3    H243463   2.075   4.583   6.276
14508TIP3   OH243464   2.766   6.469   4.413
14508TIP3    H143465   2.786   6.409   4.341
14508TIP3    H243466   2.676   6.497   4.396
14509TIP3   OH243467   0.886   2.169   5.753
14509TIP3    H143468   0.857   2.078   5.754
14509TIP3    H243469   0.951   2.173   5.683
14510TIP3   OH243470   1.345   5.435   0.724
14510TIP3    H143471   1.321   5.380   0.799
14510TIP3    H243472   1.374   5.372   0.657
14511TIP3   OH243473   2.717   0.879   6.309
14511TIP3    H143474   2.736   0.878   6.402
14511TIP3    H243475   2.712   0.972   6.286
14512TIP3   OH243476   4.498   5.432   3.217
14512TIP3    H143477   4.409   5.430   3.182
14512TIP3    H243478   4.554   5.415   3.141
14513TIP3   OH243479   1.398   4.778   2.691
14513TIP3    H143480   1.492   4.769   2.673
14513TIP3    H243481   1.356   4.765   2.606
14514TIP3   OH243482   8.202   2.645   0.034
14514TIP3    H143483   8.206   2.592   0.113
14514TIP3    H243484   8.228   2.584  -0.036
14515TIP3   OH243485   8.318   2.702   5.276
14515TIP3    H143486   8.337   2.716   5.183
14515TIP3    H243487   8.263   2.777   5.301
14516TIP3   OH243488   7.295   4.171   2.324
14516TIP3    H143489   7.213   4.143   2.283
14516TIP3    H243490   7.301   4.265   2.303
14517TIP3   OH243491   5.732   0.563   5.791
14517TIP3    H143492   5.717   0.469   5.789
14517TIP3    H243493   5.819   0.575   5.753
14518TIP3   OH243494   6.040   0.636   4.216
14518TIP3    H143495   6.104   0.603   4.280
14518TIP3    H243496   6.086   0.707   4.171
14519TIP3   OH243497   3.291   5.536   1.708
14519TIP3    H143498   3.238   5.597   1.758
14519TIP3    H243499   3.378   5.575   1.707
14520TIP3   OH243500   6.869   1.600   1.971
14520TIP3    H143501   6.923   1.652   1.913
14520TIP3    H243502   6.850   1.657   2.045
14521TIP3   OH243503   6.188   3.011   2.689
14521TIP3    H143504   6.269   3.027   2.641
14521TIP3    H243505   6.203   3.047   2.776
14522TIP3   OH243506   4.241   1.467   1.595
14522TIP3    H143507   4.316   1.428   1.640
14522TIP3    H243508   4.177   1.482   1.665
14523TIP3   OH243509   6.817   2.976   1.604
14523TIP3    H143510   6.854   3.025   1.678
14523TIP3    H243511   6.857   2.889   1.612
14524TIP3   OH243512   1.345   2.867   1.583
14524TIP3    H143513   1.333   2.867   1.678
14524TIP3    H243514   1.267   2.824   1.549
14525TIP3   OH243515   2.860   7.391   6.636
14525TIP3    H143516   2.853   7.486   6.635
14525TIP3    H243517   2.793   7.361   6.574
14526TIP3   OH243518   0.277   0.173   3.861
14526TIP3    H143519   0.248   0.096   3.813
14526TIP3    H243520   0.372   0.163   3.869
14527TIP3   OH243521   2.062   4.514   6.631
14527TIP3    H143522   2.032   4.432   6.592
14527TIP3    H243523   2.027   4.512   6.721
14528TIP3   OH243524   0.818   0.478   0.238
14528TIP3    H143525   0.813   0.396   0.286
14528TIP3    H243526   0.728   0.497   0.212
14529TIP3   OH243527   3.640   4.818   2.284
14529TIP3    H143528   3.710   4.881   2.267
14529TIP3    H243529   3.567   4.872   2.315
14530TIP3   OH243530   1.097   1.977   4.368
14530TIP3    H143531   1.075   2.063   4.403
14530TIP3    H243532   1.100   1.990   4.273
14531TIP3   OH243533   1.636   7.530   2.587
14531TIP3    H143534   1.708   7.511   2.526
14531TIP3    H243535   1.679   7.545   2.671
14532TIP3   OH243536   7.458   6.399   3.222
14532TIP3    H143537   7.522   6.400   3.150
14532TIP3    H243538   7.507   6.367   3.297
14533TIP3   OH243539   4.554   0.636   0.916
14533TIP3    H143540   4.630   0.630   0.858
14533TIP3    H243541   4.494   0.568   0.886
14534TIP3   OH243542   2.548   4.311   0.640
14534TIP3    H143543   2.615   4.377   0.655
14534TIP3    H243544   2.595   4.239   0.597
14535TIP3   OH243545   2.661   0.075   0.116
14535TIP3    H143546   2.611   0.063   0.035
14535TIP3    H243547   2.642  -0.003   0.168
14536TIP3   OH243548   2.448   4.184   6.471
14536TIP3    H143549   2.379   4.163   6.534
14536TIP3    H243550   2.520   4.125   6.495
14537TIP3   OH243551   0.674   1.149   6.332
14537TIP3    H143552   0.679   1.215   6.263
14537TIP3    H243553   0.737   1.082   6.305
14538TIP3   OH243554   6.250   7.773   4.973
14538TIP3    H143555   6.334   7.775   5.020
14538TIP3    H243556   6.228   7.866   4.961
14539TIP3   OH243557   8.001   7.419   2.168
14539TIP3    H143558   7.964   7.479   2.103
14539TIP3    H243559   8.022   7.340   2.119
14540TIP3   OH243560   5.545   1.406   4.319
14540TIP3    H143561   5.454   1.385   4.295
14540TIP3    H243562   5.545   1.501   4.332
14541TIP3   OH243563   3.339   1.580   4.556
14541TIP3    H143564   3.284   1.586   4.478
14541TIP3    H243565   3.326   1.664   4.601
14542TIP3   OH243566   1.390   4.615   4.777
14542TIP3    H143567   1.431   4.571   4.852
14542TIP3    H243568   1.447   4.595   4.703
14543TIP3   OH243569   3.989   1.601   4.096
14543TIP3    H143570   3.893   1.603   4.092
14543TIP3    H243571   4.014   1.524   4.043
14544TIP3   OH243572   5.689   2.385   5.006
14544TIP3    H143573   5.778   2.355   5.024
14544TIP3    H243574   5.653   2.318   4.948
14545TIP3   OH243575   1.313   4.693   2.930
14545TIP3    H143576   1.307   4.758   3.000
14545TIP3    H243577   1.320   4.744   2.849
14546TIP3   OH243578   5.834   0.098   6.601
14546TIP3    H143579   5.821   0.145   6.519
14546TIP3    H243580   5.926   0.069   6.598
14547TIP3   OH243581   1.310   1.589   4.532
14547TIP3    H143582   1.404   1.582   4.550
14547TIP3    H243583   1.305   1.618   4.441
14548TIP3   OH243584   5.721   3.305   4.778
14548TIP3    H143585   5.772   3.384   4.796
14548TIP3    H243586   5.640   3.317   4.827
14549TIP3   OH243587   1.475   6.037   6.831
14549TIP3    H143588   1.434   5.964   6.785
14549TIP3    H243589   1.445   6.028   6.921
14550TIP3   OH243590   3.684   6.269   6.284
14550TIP3    H143591   3.618   6.227   6.228
14550TIP3    H243592   3.692   6.358   6.249
14551TIP3   OH243593   1.842   4.473   2.678
14551TIP3    H143594   1.841   4.536   2.750
14551TIP3    H243595   1.889   4.398   2.711
14552TIP3   OH243596   7.257   1.376   1.982
14552TIP3    H143597   7.251   1.371   1.887
14552TIP3    H243598   7.322   1.310   2.006
14553TIP3   OH243599   5.348   5.990   2.145
14553TIP3    H143600   5.288   5.961   2.076
14553TIP3    H243601   5.434   5.992   2.103
14554TIP3   OH243602   7.554   7.857   3.968
14554TIP3    H143603   7.596   7.772   3.969
14554TIP3    H243604   7.581   7.899   4.050
14555TIP3   OH243605   6.016   3.283   4.237
14555TIP3    H143606   6.071   3.352   4.201
14555TIP3    H243607   5.976   3.242   4.161
14556TIP3   OH243608   7.994   7.572   2.396
14556TIP3    H143609   8.063   7.639   2.387
14556TIP3    H243610   8.004   7.517   2.318
14557TIP3   OH243611   3.318   2.061   0.675
14557TIP3    H143612   3.330   2.129   0.609
14557TIP3    H243613   3.380   1.993   0.650
14558TIP3   OH243614   1.072   2.515   3.040
14558TIP3    H143615   1.024   2.578   3.093
14558TIP3    H243616   1.004   2.473   2.987
14559TIP3   OH243617   4.477   3.044   6.601
14559TIP3    H143618   4.427   3.090   6.669
14559TIP3    H243619   4.477   2.953   6.629
14560TIP3   OH243620   7.150   2.725   0.690
14560TIP3    H143621   7.199   2.775   0.756
14560TIP3    H243622   7.180   2.761   0.606
14561TIP3   OH243623   8.054   6.629   1.797
14561TIP3    H143624   8.108   6.606   1.873
14561TIP3    H243625   8.044   6.547   1.749
14562TIP3   OH243626   1.519   1.985   5.242
14562TIP3    H143627   1.517   1.965   5.148
14562TIP3    H243628   1.612   1.995   5.263
14563TIP3   OH243629   7.335   2.946   4.521
14563TIP3    H143630   7.311   3.024   4.470
14563TIP3    H243631   7.254   2.894   4.523
14564TIP3   OH243632   2.656   6.033   2.363
14564TIP3    H143633   2.654   5.967   2.431
14564TIP3    H243634   2.564   6.045   2.338
14565TIP3   OH243635   1.478   7.271   6.602
14565TIP3    H143636   1.543   7.306   6.663
14565TIP3    H243637   1.436   7.199   6.649
14566TIP3   OH243638   2.062   7.423   2.155
14566TIP3    H143639   2.000   7.390   2.220
14566TIP3    H243640   2.148   7.399   2.189
14567TIP3   OH243641   5.616   0.595   5.161
14567TIP3    H143642   5.630   0.665   5.225
14567TIP3    H243643   5.575   0.638   5.087
14568TIP3   OH243644   4.931   2.281   2.745
14568TIP3    H143645   5.024   2.278   2.767
14568TIP3    H243646   4.886   2.255   2.825
14569TIP3   OH243647   4.583   1.304   2.030
14569TIP3    H143648   4.670   1.336   2.053
14569TIP3    H243649   4.572   1.224   2.081
14570TIP3   OH243650   6.353   4.775   4.380
14570TIP3    H143651   6.321   4.705   4.438
14570TIP3    H243652   6.416   4.823   4.433
14571TIP3   OH243653   5.634   3.700   3.721
14571TIP3    H143654   5.576   3.645   3.773
14571TIP3    H243655   5.719   3.656   3.725
14572TIP3   OH243656   6.173   5.992   1.027
14572TIP3    H143657   6.084   5.966   1.003
14572TIP3    H243658   6.190   5.946   1.109
14573TIP3   OH243659   5.106   1.215   6.774
14573TIP3    H143660   5.150   1.184   6.695
14573TIP3    H243661   5.118   1.145   6.838
14574TIP3   OH243662   1.310   4.722   4.316
14574TIP3    H143663   1.257   4.653   4.355
14574TIP3    H243664   1.395   4.714   4.359
14575TIP3   OH243665   3.679   0.940   1.208
14575TIP3    H143666   3.673   1.016   1.150
14575TIP3    H243667   3.616   0.959   1.278
14576TIP3   OH243668   7.422   3.601   4.650
14576TIP3    H143669   7.512   3.569   4.654
14576TIP3    H243670   7.381   3.549   4.581
14577TIP3   OH243671   6.405   6.534   5.404
14577TIP3    H143672   6.351   6.613   5.406
14577TIP3    H243673   6.478   6.556   5.345
14578TIP3   OH243674   0.237   7.763   5.203
14578TIP3    H143675   0.289   7.834   5.166
14578TIP3    H243676   0.289   7.731   5.276
14579TIP3   OH243677   5.824   7.472   3.690
14579TIP3    H143678   5.876   7.395   3.673
14579TIP3    H243679   5.888   7.542   3.703
14580TIP3   OH243680   2.825   2.849   5.277
14580TIP3    H143681   2.881   2.925   5.264
14580TIP3    H243682   2.857   2.785   5.213
14581TIP3   OH243683   7.377   3.279   5.540
14581TIP3    H143684   7.326   3.205   5.508
14581TIP3    H243685   7.316   3.328   5.595
14582TIP3   OH243686   1.037   6.326   2.705
14582TIP3    H143687   1.132   6.327   2.696
14582TIP3    H243688   1.012   6.418   2.708
14583TIP3   OH243689   3.687   0.267   5.024
14583TIP3    H143690   3.731   0.224   5.097
14583TIP3    H243691   3.750   0.331   4.992
14584TIP3   OH243692   1.516   0.281   4.705
14584TIP3    H143693   1.540   0.349   4.768
14584TIP3    H243694   1.497   0.204   4.760
14585TIP3   OH243695   1.993   0.190   0.699
14585TIP3    H143696   1.939   0.215   0.624
14585TIP3    H243697   1.931   0.152   0.762
14586TIP3   OH243698   3.723   5.923   4.401
14586TIP3    H143699   3.735   5.907   4.494
14586TIP3    H243700   3.657   5.992   4.397
14587TIP3   OH243701   7.294   5.847   6.094
14587TIP3    H143702   7.212   5.827   6.047
14587TIP3    H243703   7.334   5.762   6.109
14588TIP3   OH243704   6.735   5.300   0.028
14588TIP3    H143705   6.664   5.245  -0.005
14588TIP3    H243706   6.693   5.384   0.049
14589TIP3   OH243707   4.911   1.637   0.946
14589TIP3    H143708   4.850   1.647   1.019
14589TIP3    H243709   4.881   1.559   0.900
14590TIP3   OH243710   6.899   2.208   5.241
14590TIP3    H143711   6.815   2.206   5.195
14590TIP3    H243712   6.882   2.160   5.322
14591TIP3   OH243713   4.197   1.602   3.806
14591TIP3    H143714   4.112   1.570   3.835
14591TIP3    H243715   4.179   1.652   3.726
14592TIP3   OH243716   7.101   5.090   5.267
14592TIP3    H143717   7.090   5.185   5.260
14592TIP3    H243718   7.176   5.079   5.326
14593TIP3   OH243719   6.158   0.377   0.078
14593TIP3    H143720   6.079   0.352   0.030
14593TIP3    H243721   6.152   0.330   0.161
14594TIP3   OH243722   1.789   3.265   0.115
14594TIP3    H143723   1.722   3.327   0.086
14594TIP3    H243724   1.860   3.320   0.149
14595TIP3   OH243725   1.116   1.867   2.741
14595TIP3    H143726   1.095   1.785   2.698
14595TIP3    H243727   1.032   1.903   2.768
14596TIP3   OH243728   7.256   0.144   2.447
14596TIP3    H143729   7.220   0.196   2.519
14596TIP3    H243730   7.332   0.100   2.485
14597TIP3   OH243731   2.747   6.172   0.337
14597TIP3    H143732   2.750   6.117   0.415
14597TIP3    H243733   2.665   6.221   0.345
14598TIP3   OH243734   1.434   4.202   3.822
14598TIP3    H143735   1.467   4.113   3.804
14598TIP3    H243736   1.355   4.188   3.873
14599TIP3   OH243737   0.998   6.320   5.927
14599TIP3    H143738   0.912   6.348   5.897
14599TIP3    H243739   1.002   6.349   6.018
14600TIP3   OH243740   3.658   1.914   6.295
14600TIP3    H143741   3.691   1.842   6.241
14600TIP3    H243742   3.652   1.989   6.235
14601TIP3   OH243743   6.017   5.828   3.968
14601TIP3    H143744   5.952   5.842   3.899
14601TIP3    H243745   6.085   5.775   3.926
14602TIP3   OH243746   5.828   4.854   2.946
14602TIP3    H143747   5.794   4.899   3.023
14602TIP3    H243748   5.922   4.847   2.961
14603TIP3   OH243749   6.559   4.032   4.508
14603TIP3    H143750   6.522   3.980   4.436
14603TIP3    H243751   6.509   4.114   4.505
14604TIP3   OH243752   3.419   4.997   2.347
14604TIP3    H143753   3.419   4.964   2.257
14604TIP3    H243754   3.358   5.071   2.345
14605TIP3   OH243755   2.142   4.672   4.954
14605TIP3    H143756   2.138   4.625   5.038
14605TIP3    H243757   2.164   4.604   4.890
14606TIP3   OH243758   0.042   0.316   3.796
14606TIP3    H143759  -0.010   0.237   3.780
14606TIP3    H243760   0.132   0.284   3.801
14607TIP3   OH243761   0.191   6.420   0.912
14607TIP3    H143762   0.113   6.378   0.948
14607TIP3    H243763   0.167   6.513   0.904
14608TIP3   OH243764   5.992   6.272   6.849
14608TIP3    H143765   5.986   6.177   6.837
14608TIP3    H243766   5.962   6.309   6.766
14609TIP3   OH243767   0.571   0.120   0.296
14609TIP3    H143768   0.656   0.164   0.298
14609TIP3    H243769   0.509   0.188   0.272
14610TIP3   OH243770   5.922   4.915   4.430
14610TIP3    H143771   5.911   4.960   4.346
14610TIP3    H243772   5.936   4.823   4.408
14611TIP3   OH243773   5.104   3.257   3.447
14611TIP3    H143774   5.092   3.162   3.448
14611TIP3    H243775   5.105   3.282   3.539
14612TIP3   OH243776   2.111   5.762   0.387
14612TIP3    H143777   2.159   5.830   0.339
14612TIP3    H243778   2.050   5.725   0.323
14613TIP3   OH243779   7.534   4.636   0.286
14613TIP3    H143780   7.586   4.696   0.231
14613TIP3    H243781   7.579   4.552   0.278
14614TIP3   OH243782   5.768   2.605   0.267
14614TIP3    H143783   5.815   2.540   0.216
14614TIP3    H243784   5.693   2.629   0.212
14615TIP3   OH243785   1.647   0.039   1.756
14615TIP3    H143786   1.611   0.046   1.845
14615TIP3    H243787   1.661   0.130   1.729
14616TIP3   OH243788   2.104   6.403   4.346
14616TIP3    H143789   2.035   6.466   4.327
14616TIP3    H243790   2.096   6.336   4.279
14617TIP3   OH243791   0.503   4.932   6.841
14617TIP3    H143792   0.524   4.863   6.778
14617TIP3    H243793   0.586   4.975   6.859
14618TIP3   OH243794   6.017   4.422   1.413
14618TIP3    H143795   5.962   4.392   1.486
14618TIP3    H243796   6.107   4.412   1.444
14619TIP3   OH243797   6.056   4.364   5.260
14619TIP3    H143798   6.133   4.326   5.217
14619TIP3    H243799   6.038   4.305   5.333
14620TIP3   OH243800   2.031   0.429   5.953
14620TIP3    H143801   2.028   0.353   6.011
14620TIP3    H243802   2.014   0.504   6.011
14621TIP3   OH243803   1.372   1.726   1.443
14621TIP3    H143804   1.399   1.814   1.417
14621TIP3    H243805   1.422   1.708   1.522
14622TIP3   OH243806   2.482   2.712   4.587
14622TIP3    H143807   2.458   2.748   4.502
14622TIP3    H243808   2.424   2.636   4.599
14623TIP3   OH243809   8.282   2.763   6.834
14623TIP3    H143810   8.352   2.726   6.888
14623TIP3    H243811   8.316   2.759   6.745
14624TIP3   OH243812   6.939   1.114   3.659
14624TIP3    H143813   6.948   1.023   3.686
14624TIP3    H243814   6.864   1.147   3.709
14625TIP3   OH243815   3.099   7.879   2.406
14625TIP3    H143816   3.025   7.820   2.399
14625TIP3    H243817   3.171   7.834   2.360
14626TIP3   OH243818   3.132   7.352   5.991
14626TIP3    H143819   3.069   7.305   5.935
14626TIP3    H243820   3.174   7.414   5.931
14627TIP3   OH243821   6.537   7.745   2.142
14627TIP3    H143822   6.572   7.835   2.144
14627TIP3    H243823   6.477   7.741   2.216
14628TIP3   OH243824   5.184   6.946   5.596
14628TIP3    H143825   5.101   6.915   5.632
14628TIP3    H243826   5.166   6.958   5.503
14629TIP3   OH243827   4.633   3.134   6.054
14629TIP3    H143828   4.596   3.146   5.967
14629TIP3    H243829   4.557   3.125   6.111
14630TIP3   OH243830   3.157   2.367   1.366
14630TIP3    H143831   3.127   2.394   1.453
14630TIP3    H243832   3.177   2.274   1.376
14631TIP3   OH243833   5.067   5.711   4.514
14631TIP3    H143834   5.153   5.726   4.474
14631TIP3    H243835   5.031   5.798   4.527
14632TIP3   OH243836   6.097   1.493   6.632
14632TIP3    H143837   6.130   1.581   6.613
14632TIP3    H243838   6.054   1.501   6.717
14633TIP3   OH243839   6.565   5.073   5.759
14633TIP3    H143840   6.536   5.146   5.814
14633TIP3    H243841   6.659   5.085   5.750
14634TIP3   OH243842   0.788   4.565   3.678
14634TIP3    H143843   0.839   4.488   3.652
14634TIP3    H243844   0.838   4.639   3.645
14635TIP3   OH243845   7.739   4.252   4.563
14635TIP3    H143846   7.685   4.228   4.488
14635TIP3    H243847   7.766   4.342   4.545
14636TIP3   OH243848   4.716   7.608   6.176
14636TIP3    H143849   4.655   7.551   6.222
14636TIP3    H243850   4.786   7.549   6.147
14637TIP3   OH243851   6.447   7.095   0.202
14637TIP3    H143852   6.402   7.068   0.282
14637TIP3    H243853   6.519   7.150   0.232
14638TIP3   OH243854   6.354   0.530   5.710
14638TIP3    H143855   6.420   0.510   5.776
14638TIP3    H243856   6.394   0.598   5.656
14639TIP3   OH243857   3.392   0.055   2.226
14639TIP3    H143858   3.391   0.093   2.138
14639TIP3    H243859   3.369   0.127   2.284
14640TIP3   OH243860   1.397   5.812   1.543
14640TIP3    H143861   1.414   5.899   1.507
14640TIP3    H243862   1.307   5.793   1.518
14641TIP3   OH243863   5.995   3.429   1.296
14641TIP3    H143864   6.055   3.492   1.257
14641TIP3    H243865   6.007   3.439   1.391
14642TIP3   OH243866   3.339   2.245   0.898
14642TIP3    H143867   3.358   2.334   0.867
14642TIP3    H243868   3.375   2.188   0.830
14643TIP3   OH243869   4.165   7.075   0.100
14643TIP3    H143870   4.248   7.085   0.054
14643TIP3    H243871   4.126   7.163   0.098
14644TIP3   OH243872   3.765   2.945   3.290
14644TIP3    H143873   3.729   2.975   3.373
14644TIP3    H243874   3.786   3.026   3.242
14645TIP3   OH243875   5.739   1.015   3.716
14645TIP3    H143876   5.651   1.030   3.751
14645TIP3    H243877   5.726   1.007   3.622
14646TIP3   OH243878   0.161   1.804   4.132
14646TIP3    H143879   0.114   1.796   4.215
14646TIP3    H243880   0.197   1.892   4.133
14647TIP3   OH243881   4.997   3.671   3.434
14647TIP3    H143882   5.079   3.643   3.475
14647TIP3    H243883   5.025   3.725   3.360
14648TIP3   OH243884   1.286   3.534   4.673
14648TIP3    H143885   1.300   3.470   4.743
14648TIP3    H243886   1.374   3.549   4.637
14649TIP3   OH243887   3.125   1.897   0.237
14649TIP3    H143888   3.136   1.802   0.233
14649TIP3    H243889   3.132   1.918   0.330
14650TIP3   OH243890   5.754   4.380   0.259
14650TIP3    H143891   5.674   4.401   0.307
14650TIP3    H243892   5.751   4.285   0.249
14651TIP3   OH243893   1.137   0.273   6.818
14651TIP3    H143894   1.215   0.322   6.843
14651TIP3    H243895   1.105   0.318   6.739
14652TIP3   OH243896   7.957   1.044   2.876
14652TIP3    H143897   7.965   1.097   2.797
14652TIP3    H243898   7.918   0.962   2.846
14653TIP3   OH243899   2.603   1.070   5.122
14653TIP3    H143900   2.661   1.018   5.177
14653TIP3    H243901   2.612   1.159   5.157
14654TIP3   OH243902   6.082   2.564   0.658
14654TIP3    H143903   5.998   2.573   0.614
14654TIP3    H243904   6.072   2.612   0.740
14655TIP3   OH243905   0.225   7.678   4.826
14655TIP3    H143906   0.281   7.651   4.753
14655TIP3    H243907   0.150   7.721   4.784
14656TIP3   OH243908   3.851   6.742   5.937
14656TIP3    H143909   3.938   6.730   5.975
14656TIP3    H243910   3.819   6.823   5.978
14657TIP3   OH243911   3.356   6.652   5.064
14657TIP3    H143912   3.348   6.683   4.974
14657TIP3    H243913   3.310   6.568   5.064
14658TIP3   OH243914   0.975   0.662   5.179
14658TIP3    H143915   0.894   0.683   5.133
14658TIP3    H243916   1.025   0.610   5.117
14659TIP3   OH243917   2.449   2.055   3.392
14659TIP3    H143918   2.457   1.991   3.462
14659TIP3    H243919   2.395   2.125   3.429
14660TIP3   OH243920   1.536   3.430   4.119
14660TIP3    H143921   1.491   3.370   4.060
14660TIP3    H243922   1.475   3.441   4.192
14661TIP3   OH243923   7.451   0.548   3.526
14661TIP3    H143924   7.414   0.636   3.527
14661TIP3    H243925   7.533   0.558   3.477
14662TIP3   OH243926   4.657   0.135   0.372
14662TIP3    H143927   4.654   0.230   0.386
14662TIP3    H243928   4.625   0.123   0.283
14663TIP3   OH243929   1.357   6.599   1.678
14663TIP3    H143930   1.341   6.690   1.652
14663TIP3    H243931   1.439   6.576   1.634
14664TIP3   OH243932   2.408   2.534   0.301
14664TIP3    H143933   2.488   2.561   0.345
14664TIP3    H243934   2.433   2.457   0.249
14665TIP3   OH243935   8.250   3.005   2.917
14665TIP3    H143936   8.271   3.091   2.951
14665TIP3    H243937   8.269   3.011   2.823
14666TIP3   OH243938   7.714   5.911   2.001
14666TIP3    H143939   7.760   5.964   2.067
14666TIP3    H243940   7.623   5.909   2.031
14667TIP3   OH243941   4.828   7.637   3.433
14667TIP3    H143942   4.857   7.724   3.404
14667TIP3    H243943   4.828   7.584   3.354
14668TIP3   OH243944   2.799   7.806   3.682
14668TIP3    H143945   2.751   7.723   3.676
14668TIP3    H243946   2.822   7.827   3.592
14669TIP3   OH243947   5.535   0.055   0.148
14669TIP3    H143948   5.587  -0.025   0.150
14669TIP3    H243949   5.575   0.108   0.079
14670TIP3   OH243950   2.938   1.228   1.610
14670TIP3    H143951   2.846   1.219   1.632
14670TIP3    H243952   2.985   1.188   1.684
14671TIP3   OH243953   7.657   4.553   2.670
14671TIP3    H143954   7.646   4.647   2.659
14671TIP3    H243955   7.599   4.514   2.605
14672TIP3   OH243956   1.231   1.510   2.362
14672TIP3    H143957   1.210   1.482   2.273
14672TIP3    H243958   1.155   1.562   2.389
14673TIP3   OH243959   1.515   6.320   2.984
14673TIP3    H143960   1.551   6.409   2.991
14673TIP3    H243961   1.533   6.295   2.893
14674TIP3   OH243962   8.233   4.385   3.203
14674TIP3    H143963   8.297   4.315   3.187
14674TIP3    H243964   8.162   4.367   3.142
14675TIP3   OH243965   4.988   4.714   4.510
14675TIP3    H143966   5.010   4.636   4.458
14675TIP3    H243967   5.054   4.778   4.487
14676TIP3   OH243968   6.520   0.188   1.236
14676TIP3    H143969   6.584   0.144   1.180
14676TIP3    H243970   6.568   0.257   1.280
14677TIP3   OH243971   6.875   5.106   1.703
14677TIP3    H143972   6.895   5.101   1.796
14677TIP3    H243973   6.920   5.185   1.673
14678TIP3   OH243974   3.960   1.628   3.178
14678TIP3    H143975   3.894   1.613   3.111
14678TIP3    H243976   3.992   1.717   3.162
14679TIP3   OH243977   5.172   4.854   4.160
14679TIP3    H143978   5.077   4.868   4.155
14679TIP3    H243979   5.183   4.784   4.224
14680TIP3   OH243980   4.102   0.117   1.881
14680TIP3    H143981   4.166   0.152   1.943
14680TIP3    H243982   4.075   0.193   1.829
14681TIP3   OH243983   0.518   3.272   0.654
14681TIP3    H143984   0.450   3.208   0.634
14681TIP3    H243985   0.599   3.221   0.654
14682TIP3   OH243986   0.478   0.487   2.507
14682TIP3    H143987   0.392   0.480   2.466
14682TIP3    H243988   0.520   0.403   2.489
14683TIP3   OH243989   6.536   7.563   4.307
14683TIP3    H143990   6.536   7.654   4.279
14683TIP3    H243991   6.459   7.555   4.364
14684TIP3   OH243992   7.359   3.961   4.329
14684TIP3    H143993   7.328   3.955   4.419
14684TIP3    H243994   7.289   4.009   4.283
14685TIP3   OH243995   4.150   2.455   4.056
14685TIP3    H143996   4.068   2.430   4.098
14685TIP3    H243997   4.149   2.406   3.973
14686TIP3   OH243998   5.006   2.137   0.637
14686TIP3    H143999   4.915   2.153   0.663
14686TIP3    H244000   5.023   2.202   0.568
14687TIP3   OH244001   0.295   5.237   6.662
14687TIP3    H144002   0.292   5.145   6.636
14687TIP3    H244003   0.342   5.280   6.591
14688TIP3   OH244004   5.347   2.533   4.432
14688TIP3    H144005   5.316   2.560   4.518
14688TIP3    H244006   5.267   2.519   4.381
14689TIP3   OH244007   0.700   0.168   5.380
14689TIP3    H144008   0.668   0.258   5.369
14689TIP3    H244009   0.634   0.126   5.436
14690TIP3   OH244010   6.042   4.304   0.571
14690TIP3    H144011   6.108   4.370   0.589
14690TIP3    H244012   6.080   4.251   0.501
14691TIP3   OH244013   4.851   6.573   2.547
14691TIP3    H144014   4.854   6.556   2.642
14691TIP3    H244015   4.925   6.525   2.512
14692TIP3   OH244016   6.057   2.610   3.493
14692TIP3    H144017   6.148   2.581   3.505
14692TIP3    H244018   6.041   2.669   3.566
14693TIP3   OH244019   4.965   6.598   4.660
14693TIP3    H144020   4.954   6.503   4.661
14693TIP3    H244021   5.020   6.614   4.583
14694TIP3   OH244022   5.965   7.026   4.018
14694TIP3    H144023   5.900   7.035   3.949
14694TIP3    H244024   6.019   6.952   3.990
14695TIP3   OH244025   3.680   5.449   3.479
14695TIP3    H144026   3.692   5.436   3.573
14695TIP3    H244027   3.615   5.519   3.472
14696TIP3   OH244028   3.763   5.451   0.774
14696TIP3    H144029   3.756   5.545   0.789
14696TIP3    H244030   3.845   5.440   0.726
14697TIP3   OH244031   5.153   3.218   2.953
14697TIP3    H144032   5.183   3.128   2.961
14697TIP3    H244033   5.064   3.218   2.988
14698TIP3   OH244034   0.133   5.262   3.074
14698TIP3    H144035   0.066   5.255   3.142
14698TIP3    H244036   0.112   5.343   3.028
14699TIP3   OH244037   6.580   5.949   4.571
14699TIP3    H144038   6.602   6.038   4.601
14699TIP3    H244039   6.664   5.904   4.564
14700TIP3   OH244040   4.433   2.506   1.033
14700TIP3    H144041   4.446   2.476   1.123
14700TIP3    H244042   4.372   2.580   1.041
14701TIP3   OH244043   1.222   4.083   5.548
14701TIP3    H144044   1.137   4.120   5.573
14701TIP3    H244045   1.200   4.011   5.488
14702TIP3   OH244046   7.378   6.807   0.708
14702TIP3    H144047   7.415   6.852   0.632
14702TIP3    H244048   7.353   6.721   0.676
14703TIP3   OH244049   3.786   2.339   6.233
14703TIP3    H144050   3.794   2.274   6.303
14703TIP3    H244051   3.721   2.302   6.173
14704TIP3   OH244052   2.520   7.152   4.797
14704TIP3    H144053   2.473   7.089   4.852
14704TIP3    H244054   2.558   7.214   4.858
14705TIP3   OH244055   4.003   2.739   2.959
14705TIP3    H144056   4.076   2.796   2.983
14705TIP3    H244057   4.041   2.652   2.950
14706TIP3   OH244058   4.491   0.681   3.924
14706TIP3    H144059   4.575   0.720   3.949
14706TIP3    H244060   4.506   0.646   3.836
14707TIP3   OH244061   3.598   5.166   5.843
14707TIP3    H144062   3.628   5.076   5.839
14707TIP3    H244063   3.637   5.208   5.766
14708TIP3   OH244064   2.391   1.915   1.148
14708TIP3    H144065   2.427   1.985   1.094
14708TIP3    H244066   2.395   1.948   1.237
14709TIP3   OH244067   5.782   6.209   1.126
14709TIP3    H144068   5.864   6.241   1.090
14709TIP3    H244069   5.808   6.157   1.202
14710TIP3   OH244070   8.185   0.620   2.823
14710TIP3    H144071   8.275   0.632   2.855
14710TIP3    H244072   8.174   0.687   2.756
14711TIP3   OH244073   4.225   1.597   4.916
14711TIP3    H144074   4.221   1.501   4.912
14711TIP3    H244075   4.273   1.622   4.837
14712TIP3   OH244076   3.961   2.104   4.283
14712TIP3    H144077   4.020   2.036   4.251
14712TIP3    H244078   3.874   2.070   4.267
14713TIP3   OH244079   6.257   1.480   2.183
14713TIP3    H144080   6.217   1.430   2.112
14713TIP3    H244081   6.226   1.438   2.263
14714TIP3   OH244082   1.598   0.993   4.887
14714TIP3    H144083   1.652   0.933   4.937
14714TIP3    H244084   1.511   0.953   4.886
14715TIP3   OH244085   6.962   2.338   4.263
14715TIP3    H144086   6.993   2.389   4.188
14715TIP3    H244087   6.983   2.392   4.339
14716TIP3   OH244088   1.156   1.327   2.149
14716TIP3    H144089   1.228   1.265   2.142
14716TIP3    H244090   1.153   1.371   2.064
14717TIP3   OH244091   6.738   3.434   1.087
14717TIP3    H144092   6.736   3.486   1.167
14717TIP3    H244093   6.831   3.418   1.071
14718TIP3   OH244094   7.589   3.575   6.513
14718TIP3    H144095   7.543   3.510   6.459
14718TIP3    H244096   7.636   3.523   6.578
14719TIP3   OH244097   5.152   5.708   3.639
14719TIP3    H144098   5.081   5.656   3.676
14719TIP3    H244099   5.232   5.661   3.662
14720TIP3   OH244100   6.371   2.046   2.930
14720TIP3    H144101   6.320   2.094   2.865
14720TIP3    H244102   6.410   2.114   2.984
14721TIP3   OH244103   6.406   2.951   0.238
14721TIP3    H144104   6.463   3.028   0.237
14721TIP3    H244105   6.377   2.941   0.147
14722TIP3   OH244106   1.843   3.934   1.918
14722TIP3    H144107   1.795   3.961   1.996
14722TIP3    H244108   1.897   4.010   1.895
14723TIP3   OH244109   6.935   7.768   4.693
14723TIP3    H144110   6.923   7.698   4.757
14723TIP3    H244111   6.985   7.835   4.739
14724TIP3   OH244112   0.087   4.740   5.954
14724TIP3    H144113   0.139   4.820   5.953
14724TIP3    H244114   0.149   4.672   5.980
14725TIP3   OH244115   8.378   5.322   2.421
14725TIP3    H144116   8.430   5.243   2.434
14725TIP3    H244117   8.287   5.292   2.426
14726TIP3   OH244118   1.750   0.891   3.843
14726TIP3    H144119   1.687   0.958   3.819
14726TIP3    H244120   1.761   0.901   3.938
14727TIP3   OH244121   5.711   6.818   0.967
14727TIP3    H144122   5.714   6.873   1.045
14727TIP3    H244123   5.693   6.879   0.895
14728TIP3   OH244124   1.795   6.455   1.242
14728TIP3    H144125   1.787   6.546   1.268
14728TIP3    H244126   1.822   6.409   1.322
14729TIP3   OH244127   4.574   7.062   2.724
14729TIP3    H144128   4.579   7.148   2.767
14729TIP3    H244129   4.633   7.070   2.649
14730TIP3   OH244130   1.649   6.567   2.582
14730TIP3    H144131   1.596   6.519   2.518
14730TIP3    H244132   1.648   6.658   2.550
14731TIP3   OH244133   6.229   2.959   2.348
14731TIP3    H144134   6.167   3.032   2.346
14731TIP3    H244135   6.228   2.923   2.259
14732TIP3   OH244136   4.938   4.610   5.094
14732TIP3    H144137   5.019   4.656   5.073
14732TIP3    H244138   4.894   4.666   5.157
14733TIP3   OH244139   7.359   4.550   1.680
14733TIP3    H144140   7.384   4.463   1.649
14733TIP3    H244141   7.336   4.598   1.601
14734TIP3   OH244142   7.736   3.269   3.640
14734TIP3    H144143   7.734   3.245   3.547
14734TIP3    H244144   7.748   3.364   3.640
14735TIP3   OH244145   6.875   1.046   4.629
14735TIP3    H144146   6.871   1.082   4.718
14735TIP3    H244147   6.791   1.069   4.590
14736TIP3   OH244148   8.033   6.727   3.227
14736TIP3    H144149   7.971   6.799   3.239
14736TIP3    H244150   8.098   6.740   3.296
14737TIP3   OH244151   7.859   2.108   4.538
14737TIP3    H144152   7.817   2.185   4.576
14737TIP3    H244153   7.948   2.135   4.518
14738TIP3   OH244154   7.990   7.498   5.466
14738TIP3    H144155   7.934   7.421   5.473
14738TIP3    H244156   7.928   7.571   5.455
14739TIP3   OH244157   3.137   7.484   4.012
14739TIP3    H144158   3.089   7.504   3.932
14739TIP3    H244159   3.080   7.426   4.061
14740TIP3   OH244160   4.162   1.539   2.586
14740TIP3    H144161   4.124   1.487   2.515
14740TIP3    H244162   4.162   1.480   2.661
14741TIP3   OH244163   4.368   6.017   1.491
14741TIP3    H144164   4.439   6.076   1.515
14741TIP3    H244165   4.399   5.972   1.413
14742TIP3   OH244166   4.407   3.873   6.158
14742TIP3    H144167   4.489   3.851   6.203
14742TIP3    H244168   4.377   3.789   6.121
14743TIP3   OH244169   4.151   0.708   4.953
14743TIP3    H144170   4.153   0.714   4.857
14743TIP3    H244171   4.238   0.734   4.981
14744TIP3   OH244172   5.522   4.506   2.308
14744TIP3    H144173   5.567   4.552   2.379
14744TIP3    H244174   5.483   4.429   2.351
14745TIP3   OH244175   7.321   5.030   5.434
14745TIP3    H144176   7.343   4.987   5.516
14745TIP3    H244177   7.365   4.977   5.367
14746TIP3   OH244178   3.289   2.654   6.670
14746TIP3    H144179   3.339   2.586   6.716
14746TIP3    H244180   3.340   2.734   6.682
14747TIP3   OH244181   4.509   1.093   1.758
14747TIP3    H144182   4.445   1.112   1.826
14747TIP3    H244183   4.594   1.105   1.800
14748TIP3   OH244184   4.354   0.865   0.069
14748TIP3    H144185   4.311   0.936   0.021
14748TIP3    H244186   4.289   0.794   0.068
14749TIP3   OH244187   2.107   0.615   2.166
14749TIP3    H144188   2.086   0.554   2.096
14749TIP3    H244189   2.166   0.567   2.224
14750TIP3   OH244190   1.868   1.515   4.537
14750TIP3    H144191   1.949   1.524   4.487
14750TIP3    H244192   1.841   1.605   4.556
14751TIP3   OH244193   5.708   7.815   2.560
14751TIP3    H144194   5.691   7.786   2.650
14751TIP3    H244195   5.660   7.752   2.506
14752TIP3   OH244196   4.938   3.513   0.566
14752TIP3    H144197   5.011   3.574   0.573
14752TIP3    H244198   4.860   3.567   0.579
14753TIP3   OH244199   2.700   4.006   4.548
14753TIP3    H144200   2.646   3.937   4.512
14753TIP3    H244201   2.686   4.080   4.489
14754TIP3   OH244202   2.802   5.959   3.951
14754TIP3    H144203   2.883   5.963   4.001
14754TIP3    H244204   2.826   5.916   3.869
14755TIP3   OH244205   6.473   5.022   1.749
14755TIP3    H144206   6.526   5.024   1.670
14755TIP3    H244207   6.432   5.109   1.752
14756TIP3   OH244208   1.533   3.474   3.569
14756TIP3    H144209   1.627   3.460   3.580
14756TIP3    H244210   1.511   3.539   3.636
14757TIP3   OH244211   0.851   2.261   0.177
14757TIP3    H144212   0.908   2.265   0.100
14757TIP3    H244213   0.832   2.168   0.188
14758TIP3   OH244214   2.899   7.293   3.419
14758TIP3    H144215   2.952   7.344   3.357
14758TIP3    H244216   2.963   7.239   3.465
14759TIP3   OH244217   7.092   5.554   0.547
14759TIP3    H144218   7.122   5.641   0.520
14759TIP3    H244219   7.164   5.496   0.521
14760TIP3   OH244220   6.020   3.803   5.666
14760TIP3    H144221   6.018   3.886   5.713
14760TIP3    H244222   6.023   3.828   5.574
14761TIP3   OH244223   6.210   2.192   5.270
14761TIP3    H144224   6.303   2.190   5.294
14761TIP3    H244225   6.207   2.158   5.181
14762TIP3   OH244226   4.358   1.444   2.152
14762TIP3    H144227   4.275   1.438   2.105
14762TIP3    H244228   4.424   1.414   2.090
14763TIP3   OH244229   1.979   6.733   1.798
14763TIP3    H144230   1.951   6.753   1.708
14763TIP3    H244231   2.074   6.744   1.795
14764TIP3   OH244232   1.182   1.707   3.431
14764TIP3    H144233   1.258   1.663   3.469
14764TIP3    H244234   1.219   1.769   3.369
14765TIP3   OH244235   6.715   2.747   6.593
14765TIP3    H144236   6.799   2.768   6.634
14765TIP3    H244237   6.739   2.697   6.515
14766TIP3   OH244238   0.873   4.288   3.843
14766TIP3    H144239   0.914   4.206   3.871
14766TIP3    H244240   0.943   4.335   3.796
14767TIP3   OH244241   1.069   2.167   6.163
14767TIP3    H144242   1.011   2.199   6.094
14767TIP3    H244243   1.149   2.142   6.117
14768TIP3   OH244244   6.185   7.538   0.792
14768TIP3    H144245   6.239   7.479   0.845
14768TIP3    H244246   6.234   7.619   0.789
14769TIP3   OH244247   8.153   5.032   2.116
14769TIP3    H144248   8.217   4.963   2.130
14769TIP3    H244249   8.204   5.108   2.089
14770TIP3   OH244250   1.131   1.089   0.401
14770TIP3    H144251   1.176   1.161   0.358
14770TIP3    H244252   1.170   1.086   0.489
14771TIP3   OH244253   0.050   5.952   5.456
14771TIP3    H144254  -0.002   5.963   5.377
14771TIP3    H244255   0.060   5.857   5.465
14772TIP3   OH244256   0.306   5.867   4.239
14772TIP3    H144257   0.219   5.854   4.201
14772TIP3    H244258   0.357   5.793   4.207
14773TIP3   OH244259   2.451   5.220   4.685
14773TIP3    H144260   2.367   5.183   4.713
14773TIP3    H244261   2.430   5.269   4.605
14774TIP3   OH244262   4.226   4.970   0.941
14774TIP3    H144263   4.252   4.905   0.875
14774TIP3    H244264   4.149   4.932   0.982
14775TIP3   OH244265   4.128   3.023   4.227
14775TIP3    H144266   4.201   3.084   4.217
14775TIP3    H244267   4.132   2.967   4.150
14776TIP3   OH244268   0.775   3.035   0.859
14776TIP3    H144269   0.785   3.064   0.768
14776TIP3    H244270   0.856   2.989   0.878
14777TIP3   OH244271   6.252   3.364   5.288
14777TIP3    H144272   6.271   3.367   5.194
14777TIP3    H244273   6.162   3.333   5.293
14778TIP3   OH244274   8.022   5.580   2.949
14778TIP3    H144275   8.028   5.624   2.864
14778TIP3    H244276   8.079   5.632   3.006
14779TIP3   OH244277   7.510   0.077   1.127
14779TIP3    H144278   7.540   0.167   1.143
14779TIP3    H244279   7.416   0.084   1.114
14780TIP3   OH244280   0.828   0.847   4.127
14780TIP3    H144281   0.872   0.866   4.043
14780TIP3    H244282   0.765   0.778   4.106
14781TIP3   OH244283   8.283   1.267   5.056
14781TIP3    H144284   8.290   1.175   5.031
14781TIP3    H244285   8.249   1.310   4.977
14782TIP3   OH244286   2.985   0.189   1.314
14782TIP3    H144287   3.053   0.222   1.372
14782TIP3    H244288   3.028   0.178   1.229
14783TIP3   OH244289   0.553   4.250   6.191
14783TIP3    H144290   0.598   4.298   6.122
14783TIP3    H244291   0.470   4.224   6.152
14784TIP3   OH244292   7.032   2.237   6.798
14784TIP3    H144293   7.022   2.326   6.765
14784TIP3    H244294   6.945   2.213   6.829
14785TIP3   OH244295   1.850   0.074   2.329
14785TIP3    H144296   1.781   0.103   2.389
14785TIP3    H244297   1.803   0.045   2.251
14786TIP3   OH244298   7.212   6.242   1.416
14786TIP3    H144299   7.176   6.189   1.345
14786TIP3    H244300   7.169   6.327   1.406
14787TIP3   OH244301   2.238   7.227   3.107
14787TIP3    H144302   2.219   7.173   3.184
14787TIP3    H244303   2.188   7.307   3.122
14788TIP3   OH244304   2.410   7.385   3.491
14788TIP3    H144305   2.428   7.380   3.397
14788TIP3    H244306   2.497   7.395   3.531
14789TIP3   OH244307   7.226   2.791   1.739
14789TIP3    H144308   7.161   2.862   1.743
14789TIP3    H244309   7.256   2.790   1.648
14790TIP3   OH244310   6.331   3.199   1.963
14790TIP3    H144311   6.410   3.145   1.960
14790TIP3    H244312   6.274   3.164   1.895
14791TIP3   OH244313   5.645   6.351   5.439
14791TIP3    H144314   5.589   6.424   5.466
14791TIP3    H244315   5.592   6.301   5.377
14792TIP3   OH244316   7.545   4.126   5.386
14792TIP3    H144317   7.482   4.198   5.395
14792TIP3    H244318   7.542   4.081   5.471
14793TIP3   OH244319   4.864   2.494   3.754
14793TIP3    H144320   4.835   2.409   3.721
14793TIP3    H244321   4.922   2.527   3.685
14794TIP3   OH244322   6.126   7.529   2.279
14794TIP3    H144323   6.050   7.565   2.326
14794TIP3    H244324   6.095   7.518   2.189
14795TIP3   OH244325   3.576   3.485   4.083
14795TIP3    H144326   3.659   3.439   4.092
14795TIP3    H244327   3.581   3.530   3.999
14796TIP3   OH244328   5.698   7.601   3.969
14796TIP3    H144329   5.628   7.592   4.034
14796TIP3    H244330   5.769   7.548   4.003
14797TIP3   OH244331   2.384   0.227   1.415
14797TIP3    H144332   2.434   0.294   1.463
14797TIP3    H244333   2.374   0.263   1.327
14798TIP3   OH244334   0.688   6.226   1.863
14798TIP3    H144335   0.748   6.276   1.807
14798TIP3    H244336   0.631   6.180   1.802
14799TIP3   OH244337   5.266   6.150   5.992
14799TIP3    H144338   5.311   6.160   5.908
14799TIP3    H244339   5.329   6.103   6.047
14800TIP3   OH244340   0.413   4.621   1.606
14800TIP3    H144341   0.367   4.704   1.623
14800TIP3    H244342   0.500   4.648   1.575
14801TIP3   OH244343   4.699   2.848   0.085
14801TIP3    H144344   4.787   2.882   0.064
14801TIP3    H244345   4.654   2.923   0.124
14802TIP3   OH244346   6.027   0.248   0.813
14802TIP3    H144347   5.975   0.303   0.755
14802TIP3    H244348   6.029   0.296   0.896
14803TIP3   OH244349   7.063   1.529   2.544
14803TIP3    H144350   7.122   1.556   2.614
14803TIP3    H244351   7.091   1.440   2.522
14804TIP3   OH244352   6.162   3.509   4.182
14804TIP3    H144353   6.223   3.567   4.137
14804TIP3    H244354   6.209   3.481   4.261
14805TIP3   OH244355   2.247   2.197   1.271
14805TIP3    H144356   2.321   2.160   1.319
14805TIP3    H244357   2.271   2.288   1.255
14806TIP3   OH244358   2.268   1.517   6.839
14806TIP3    H144359   2.260   1.473   6.754
14806TIP3    H244360   2.357   1.498   6.868
14807TIP3   OH244361   7.991   1.542   3.796
14807TIP3    H144362   7.930   1.583   3.858
14807TIP3    H244363   7.951   1.457   3.777
14808TIP3   OH244364   7.473   7.078   6.263
14808TIP3    H144365   7.470   7.093   6.357
14808TIP3    H244366   7.455   6.985   6.252
14809TIP3   OH244367   7.161   0.214   1.763
14809TIP3    H144368   7.105   0.150   1.807
14809TIP3    H244369   7.131   0.298   1.796
14810TIP3   OH244370   4.043   6.936   5.630
14810TIP3    H144371   4.070   6.860   5.682
14810TIP3    H244372   3.959   6.911   5.592
14811TIP3   OH244373   7.764   2.968   5.944
14811TIP3    H144374   7.836   3.002   5.890
14811TIP3    H244375   7.688   3.020   5.918
14812TIP3   OH244376   8.319   0.233   0.311
14812TIP3    H144377   8.330   0.258   0.403
14812TIP3    H244378   8.290   0.312   0.267
14813TIP3   OH244379   4.986   2.147   0.201
14813TIP3    H144380   4.891   2.150   0.212
14813TIP3    H244381   5.001   2.068   0.149
14814TIP3   OH244382   7.053   6.538   1.963
14814TIP3    H144383   7.016   6.614   1.918
14814TIP3    H244384   7.146   6.557   1.969
14815TIP3   OH244385   0.979   7.350   3.357
14815TIP3    H144386   0.919   7.410   3.314
14815TIP3    H244387   1.038   7.321   3.287
14816TIP3   OH244388   2.447   0.087   5.452
14816TIP3    H144389   2.477   0.004   5.416
14816TIP3    H244390   2.457   0.150   5.380
14817TIP3   OH244391   2.540   0.897   0.490
14817TIP3    H144392   2.595   0.819   0.484
14817TIP3    H244393   2.511   0.899   0.581
14818TIP3   OH244394   3.667   3.806   1.278
14818TIP3    H144395   3.627   3.783   1.363
14818TIP3    H244396   3.729   3.735   1.261
14819TIP3   OH244397   4.222   1.646   2.328
14819TIP3    H144398   4.307   1.638   2.286
14819TIP3    H244399   4.236   1.617   2.418
14820TIP3   OH244400   5.345   3.071   4.884
14820TIP3    H144401   5.432   3.035   4.903
14820TIP3    H244402   5.355   3.165   4.895
14821TIP3   OH244403   0.836   7.599   0.311
14821TIP3    H144404   0.817   7.671   0.370
14821TIP3    H244405   0.751   7.571   0.278
14822TIP3   OH244406   5.342   0.468   5.677
14822TIP3    H144407   5.312   0.383   5.643
14822TIP3    H244408   5.318   0.530   5.608
14823TIP3   OH244409   1.083   5.654   2.465
14823TIP3    H144410   1.026   5.605   2.405
14823TIP3    H244411   1.143   5.588   2.500
14824TIP3   OH244412   8.009   6.825   0.010
14824TIP3    H144413   8.040   6.825   0.100
14824TIP3    H244414   8.035   6.739  -0.024
14825TIP3   OH244415   8.128   7.753   5.351
14825TIP3    H144416   8.053   7.694   5.361
14825TIP3    H244417   8.165   7.731   5.265
14826TIP3   OH244418   2.135   2.555   4.173
14826TIP3    H144419   2.126   2.488   4.241
14826TIP3    H244420   2.150   2.636   4.221
14827TIP3   OH244421   1.102   5.437   1.600
14827TIP3    H144422   1.031   5.410   1.658
14827TIP3    H244423   1.181   5.435   1.655
14828TIP3   OH244424   6.572   7.440   6.361
14828TIP3    H144425   6.553   7.380   6.289
14828TIP3    H244426   6.541   7.395   6.439
14829TIP3   OH244427   4.339   4.572   5.319
14829TIP3    H144428   4.304   4.541   5.402
14829TIP3    H244429   4.377   4.658   5.338
14830TIP3   OH244430   0.375   3.574   0.017
14830TIP3    H144431   0.419   3.523   0.086
14830TIP3    H244432   0.328   3.508  -0.035
14831TIP3   OH244433   0.867   5.601   0.132
14831TIP3    H144434   0.803   5.583   0.201
14831TIP3    H244435   0.816   5.644   0.064
14832TIP3   OH244436   0.777   4.284   2.043
14832TIP3    H144437   0.759   4.243   1.959
14832TIP3    H244438   0.872   4.286   2.050
14833TIP3   OH244439   2.991   1.196   6.593
14833TIP3    H144440   3.064   1.198   6.655
14833TIP3    H244441   2.915   1.222   6.645
14834TIP3   OH244442   6.982   3.513   6.596
14834TIP3    H144443   7.031   3.553   6.524
14834TIP3    H244444   7.038   3.442   6.626
14835TIP3   OH244445   7.959   7.541   6.289
14835TIP3    H144446   7.910   7.556   6.208
14835TIP3    H244447   8.034   7.488   6.262
14836TIP3   OH244448   0.561   4.675   4.895
14836TIP3    H144449   0.511   4.607   4.850
14836TIP3    H244450   0.575   4.742   4.828
14837TIP3   OH244451   4.209   7.041   4.607
14837TIP3    H144452   4.177   7.042   4.697
14837TIP3    H244453   4.140   7.083   4.556
14838TIP3   OH244454   2.657   2.907   3.732
14838TIP3    H144455   2.689   2.968   3.665
14838TIP3    H244456   2.732   2.850   3.749
14839TIP3   OH244457   7.363   1.462   2.359
14839TIP3    H144458   7.280   1.503   2.386
14839TIP3    H244459   7.430   1.527   2.382
14840TIP3   OH244460   5.374   7.516   4.369
14840TIP3    H144461   5.418   7.433   4.387
14840TIP3    H244462   5.281   7.495   4.376
14841TIP3   OH244463   7.366   2.548   1.749
14841TIP3    H144464   7.387   2.497   1.827
14841TIP3    H244465   7.305   2.616   1.779
14842TIP3   OH244466   5.713   5.088   2.223
14842TIP3    H144467   5.627   5.063   2.256
14842TIP3    H244468   5.740   5.015   2.168
14843TIP3   OH244469   4.616   6.638   3.027
14843TIP3    H144470   4.559   6.663   2.954
14843TIP3    H244471   4.564   6.575   3.077
14844TIP3   OH244472   0.517   0.840   3.324
14844TIP3    H144473   0.585   0.787   3.281
14844TIP3    H244474   0.561   0.878   3.400
14845TIP3   OH244475   2.233   7.593   3.345
14845TIP3    H144476   2.322   7.610   3.376
14845TIP3    H244477   2.201   7.678   3.317
14846TIP3   OH244478   2.785   3.409   3.030
14846TIP3    H144479   2.700   3.407   2.986
14846TIP3    H244480   2.775   3.476   3.098
14847TIP3   OH244481   3.725   2.937   3.737
14847TIP3    H144482   3.701   2.995   3.665
14847TIP3    H244483   3.788   2.875   3.698
14848TIP3   OH244484   6.946   6.077   6.816
14848TIP3    H144485   6.897   6.101   6.895
14848TIP3    H244486   6.878   6.051   6.753
14849TIP3   OH244487   7.358   2.433   5.989
14849TIP3    H144488   7.349   2.363   6.055
14849TIP3    H244489   7.452   2.450   5.985
14850TIP3   OH244490   4.270   1.240   3.824
14850TIP3    H144491   4.259   1.256   3.730
14850TIP3    H244492   4.350   1.189   3.830
14851TIP3   OH244493   5.659   7.900   0.466
14851TIP3    H144494   5.711   7.958   0.522
14851TIP3    H244495   5.576   7.946   0.454
14852TIP3   OH244496   2.374   0.042   6.624
14852TIP3    H144497   2.367   0.052   6.529
14852TIP3    H244498   2.457  -0.004   6.637
14853TIP3   OH244499   2.691   6.937   1.022
14853TIP3    H144500   2.615   6.993   1.032
14853TIP3    H244501   2.717   6.914   1.111
14854TIP3   OH244502   3.716   5.901   6.001
14854TIP3    H144503   3.754   5.922   5.915
14854TIP3    H244504   3.744   5.811   6.017
14855TIP3   OH244505   2.499   5.392   6.513
14855TIP3    H144506   2.409   5.405   6.482
14855TIP3    H244507   2.546   5.358   6.437
14856TIP3   OH244508   7.518   2.498   0.724
14856TIP3    H144509   7.482   2.583   0.700
14856TIP3    H244510   7.598   2.518   0.773
14857TIP3   OH244511   7.116   1.379   3.317
14857TIP3    H144512   7.059   1.326   3.261
14857TIP3    H244513   7.063   1.397   3.394
14858TIP3   OH244514   4.341   1.642   0.074
14858TIP3    H144515   4.373   1.575   0.015
14858TIP3    H244516   4.343   1.602   0.161
14859TIP3   OH244517   2.506   0.355   0.617
14859TIP3    H144518   2.412   0.355   0.599
14859TIP3    H244519   2.542   0.293   0.554
14860TIP3   OH244520   3.759   2.665   1.520
14860TIP3    H144521   3.767   2.686   1.612
14860TIP3    H244522   3.840   2.695   1.480
14861TIP3   OH244523   0.308   3.427   2.745
14861TIP3    H144524   0.262   3.376   2.678
14861TIP3    H244525   0.273   3.515   2.736
14862TIP3   OH244526   4.690   0.975   0.955
14862TIP3    H144527   4.738   1.049   0.994
14862TIP3    H244528   4.755   0.904   0.951
14863TIP3   OH244529   0.239   5.152   5.259
14863TIP3    H144530   0.199   5.090   5.199
14863TIP3    H244531   0.329   5.121   5.269
14864TIP3   OH244532   7.864   0.576   2.021
14864TIP3    H144533   7.856   0.592   1.927
14864TIP3    H244534   7.774   0.568   2.053
14865TIP3   OH244535   6.773   1.779   2.159
14865TIP3    H144536   6.754   1.747   2.248
14865TIP3    H244537   6.693   1.761   2.109
14866TIP3   OH244538   4.221   2.378   5.146
14866TIP3    H144539   4.268   2.302   5.178
14866TIP3    H244540   4.218   2.438   5.220
14867TIP3   OH244541   3.499   4.690   4.009
14867TIP3    H144542   3.591   4.714   4.017
14867TIP3    H244543   3.489   4.615   4.067
14868TIP3   OH244544   0.867   3.068   4.576
14868TIP3    H144545   0.788   3.120   4.562
14868TIP3    H244546   0.838   2.977   4.568
14869TIP3   OH244547   1.744   4.384   6.571
14869TIP3    H144548   1.650   4.402   6.563
14869TIP3    H244549   1.758   4.371   6.665
14870TIP3   OH244550   0.053   1.678   5.286
14870TIP3    H144551  -0.034   1.716   5.291
14870TIP3    H244552   0.038   1.585   5.267
14871TIP3   OH244553   8.267   1.123   4.253
14871TIP3    H144554   8.361   1.106   4.262
14871TIP3    H244555   8.246   1.095   4.164
14872TIP3   OH244556   6.045   0.043   3.037
14872TIP3    H144557   6.032  -0.050   3.051
14872TIP3    H244558   6.003   0.085   3.113
14873TIP3   OH244559   4.781   0.993   3.726
14873TIP3    H144560   4.721   1.066   3.712
14873TIP3    H244561   4.825   0.981   3.642
14874TIP3   OH244562   5.505   3.312   2.021
14874TIP3    H144563   5.589   3.358   2.015
14874TIP3    H244564   5.451   3.367   2.079
14875TIP3   OH244565   6.510   0.640   2.771
14875TIP3    H144566   6.582   0.684   2.816
14875TIP3    H244567   6.518   0.548   2.799
14876TIP3   OH244568   0.899   7.877   4.611
14876TIP3    H144569   0.975   7.860   4.555
14876TIP3    H244570   0.843   7.800   4.600
14877TIP3   OH244571   1.084   1.032   2.199
14877TIP3    H144572   1.131   1.110   2.169
14877TIP3    H244573   1.011   1.066   2.249
14878TIP3   OH244574   8.197   3.746   4.440
14878TIP3    H144575   8.184   3.839   4.422
14878TIP3    H244576   8.266   3.720   4.379
14879TIP3   OH244577   6.823   7.447   1.682
14879TIP3    H144578   6.732   7.425   1.702
14879TIP3    H244579   6.817   7.526   1.628
14880TIP3   OH244580   4.379   0.923   0.594
14880TIP3    H144581   4.356   0.926   0.687
14880TIP3    H244582   4.298   0.896   0.551
14881TIP3   OH244583   4.278   3.538   2.339
14881TIP3    H144584   4.312   3.451   2.360
14881TIP3    H244585   4.356   3.588   2.315
14882TIP3   OH244586   6.206   0.140   5.038
14882TIP3    H144587   6.180   0.190   5.115
14882TIP3    H244588   6.216   0.205   4.969
14883TIP3   OH244589   1.716   7.117   5.873
14883TIP3    H144590   1.803   7.082   5.855
14883TIP3    H244591   1.706   7.108   5.968
14884TIP3   OH244592   5.909   6.514   3.280
14884TIP3    H144593   5.987   6.460   3.268
14884TIP3    H244594   5.941   6.604   3.276
14885TIP3   OH244595   5.632   2.752   3.655
14885TIP3    H144596   5.607   2.660   3.661
14885TIP3    H244597   5.704   2.753   3.592
14886TIP3   OH244598   4.753   6.488   4.060
14886TIP3    H144599   4.786   6.501   3.971
14886TIP3    H244600   4.659   6.477   4.049
14887TIP3   OH244601   2.140   1.159   4.602
14887TIP3    H144602   2.199   1.196   4.667
14887TIP3    H244603   2.198   1.114   4.541
14888TIP3   OH244604   6.516   7.611   1.712
14888TIP3    H144605   6.530   7.704   1.693
14888TIP3    H244606   6.442   7.609   1.772
14889TIP3   OH244607   6.081   5.975   3.049
14889TIP3    H144608   6.151   5.919   3.016
14889TIP3    H244609   6.101   6.062   3.015
14890TIP3   OH244610   7.182   6.712   2.744
14890TIP3    H144611   7.171   6.803   2.716
14890TIP3    H244612   7.275   6.694   2.731
14891TIP3   OH244613   4.893   2.875   0.435
14891TIP3    H144614   4.880   2.935   0.362
14891TIP3    H244615   4.924   2.931   0.507
14892TIP3   OH244616   3.213   6.437   4.328
14892TIP3    H144617   3.284   6.433   4.392
14892TIP3    H244618   3.256   6.422   4.244
14893TIP3   OH244619   1.542   6.515   0.082
14893TIP3    H144620   1.608   6.500   0.015
14893TIP3    H244621   1.554   6.443   0.145
14894TIP3   OH244622   2.472   6.317   0.865
14894TIP3    H144623   2.493   6.384   0.800
14894TIP3    H244624   2.409   6.359   0.924
14895TIP3   OH244625   4.219   5.714   4.951
14895TIP3    H144626   4.170   5.796   4.958
14895TIP3    H244627   4.218   5.678   5.039
14896TIP3   OH244628   6.508   0.167   1.831
14896TIP3    H144629   6.541   0.171   1.921
14896TIP3    H244630   6.584   0.140   1.779
14897TIP3   OH244631   5.625   0.065   1.952
14897TIP3    H144632   5.585  -0.016   1.919
14897TIP3    H244633   5.700   0.079   1.895
14898TIP3   OH244634   4.398   0.109   1.974
14898TIP3    H144635   4.473   0.055   1.949
14898TIP3    H244636   4.388   0.172   1.902
14899TIP3   OH244637   6.972   7.451   5.294
14899TIP3    H144638   7.061   7.418   5.307
14899TIP3    H244639   6.984   7.545   5.275
14900TIP3   OH244640   6.197   7.293   6.350
14900TIP3    H144641   6.203   7.352   6.425
14900TIP3    H244642   6.182   7.350   6.275
14901TIP3   OH244643   4.357   4.871   5.303
14901TIP3    H144644   4.362   4.915   5.218
14901TIP3    H244645   4.427   4.911   5.355
14902TIP3   OH244646   3.383   4.884   5.499
14902TIP3    H144647   3.300   4.889   5.453
14902TIP3    H244648   3.359   4.863   5.589
14903TIP3   OH244649   5.529   6.170   4.952
14903TIP3    H144650   5.507   6.258   4.922
14903TIP3    H244651   5.554   6.182   5.044
14904TIP3   OH244652   1.173   3.553   2.853
14904TIP3    H144653   1.082   3.567   2.824
14904TIP3    H244654   1.194   3.465   2.824
14905TIP3   OH244655   2.986   6.603   6.321
14905TIP3    H144656   3.063   6.660   6.327
14905TIP3    H244657   2.919   6.647   6.373
14906TIP3   OH244658   7.367   2.029   4.084
14906TIP3    H144659   7.279   2.057   4.109
14906TIP3    H244660   7.426   2.089   4.131
14907TIP3   OH244661   1.678   4.201   4.792
14907TIP3    H144662   1.587   4.200   4.762
14907TIP3    H244663   1.674   4.238   4.880
14908TIP3   OH244664   7.305   1.890   4.962
14908TIP3    H144665   7.231   1.882   4.902
14908TIP3    H244666   7.347   1.804   4.960
14909TIP3   OH244667   6.637   3.593   1.665
14909TIP3    H144668   6.678   3.667   1.710
14909TIP3    H244669   6.543   3.607   1.676
14910TIP3   OH244670   4.408   0.695   3.639
14910TIP3    H144671   4.474   0.634   3.605
14910TIP3    H244672   4.328   0.673   3.592
14911TIP3   OH244673   6.480   6.525   1.703
14911TIP3    H144674   6.543   6.513   1.774
14911TIP3    H244675   6.485   6.619   1.682
14912TIP3   OH244676   3.352   6.295   2.585
14912TIP3    H144677   3.266   6.304   2.543
14912TIP3    H244678   3.356   6.202   2.610
14913TIP3   OH244679   1.642   4.058   5.841
14913TIP3    H144680   1.629   4.003   5.764
14913TIP3    H244681   1.737   4.073   5.843
14914TIP3   OH244682   4.629   0.505   2.984
14914TIP3    H144683   4.655   0.597   2.992
14914TIP3    H244684   4.699   0.456   3.029
14915TIP3   OH244685   0.328   5.251   2.179
14915TIP3    H144686   0.357   5.331   2.224
14915TIP3    H244687   0.405   5.195   2.176
14916TIP3   OH244688   4.529   6.000   2.096
14916TIP3    H144689   4.504   5.939   2.166
14916TIP3    H244690   4.527   6.086   2.138
14917TIP3   OH244691   0.393   2.260   1.864
14917TIP3    H144692   0.452   2.324   1.824
14917TIP3    H244693   0.408   2.270   1.958
14918TIP3   OH244694   4.092   2.865   2.734
14918TIP3    H144695   4.025   2.831   2.794
14918TIP3    H244696   4.094   2.959   2.750
14919TIP3   OH244697   0.913   2.135   4.092
14919TIP3    H144698   0.832   2.161   4.048
14919TIP3    H244699   0.908   2.176   4.178
14920TIP3   OH244700   5.259   3.556   4.911
14920TIP3    H144701   5.200   3.543   4.986
14920TIP3    H244702   5.203   3.543   4.834
14921TIP3   OH244703   3.225   7.142   5.593
14921TIP3    H144704   3.310   7.177   5.565
14921TIP3    H244705   3.163   7.177   5.529
14922TIP3   OH244706   7.793   2.683   5.950
14922TIP3    H144707   7.711   2.636   5.969
14922TIP3    H244708   7.768   2.775   5.949
14923TIP3   OH244709   1.346   2.282   0.714
14923TIP3    H144710   1.294   2.211   0.675
14923TIP3    H244711   1.434   2.269   0.679
14924TIP3   OH244712   7.936   6.631   5.434
14924TIP3    H144713   7.950   6.720   5.464
14924TIP3    H244714   8.001   6.619   5.364
14925TIP3   OH244715   4.914   5.499   4.452
14925TIP3    H144716   4.829   5.516   4.493
14925TIP3    H244717   4.973   5.562   4.494
14926TIP3   OH244718   1.205   5.656   3.643
14926TIP3    H144719   1.178   5.714   3.572
14926TIP3    H244720   1.285   5.696   3.677
14927TIP3   OH244721   4.350   6.021   5.216
14927TIP3    H144722   4.435   5.981   5.229
14927TIP3    H244723   4.292   5.976   5.277
14928TIP3   OH244724   3.836   5.903   5.081
14928TIP3    H144725   3.882   5.929   5.001
14928TIP3    H244726   3.767   5.969   5.091
14929TIP3   OH244727   2.668   3.275   4.542
14929TIP3    H144728   2.751   3.241   4.508
14929TIP3    H244729   2.683   3.370   4.551
14930TIP3   OH244730   4.360   0.670   1.332
14930TIP3    H144731   4.351   0.720   1.413
14930TIP3    H244732   4.430   0.715   1.284
14931TIP3   OH244733   8.189   5.529   5.374
14931TIP3    H144734   8.173   5.475   5.451
14931TIP3    H244735   8.103   5.565   5.352
14932TIP3   OH244736   6.586   7.405   1.030
14932TIP3    H144737   6.579   7.499   1.043
14932TIP3    H244738   6.551   7.367   1.110
14933TIP3   OH244739   4.643   6.601   6.198
14933TIP3    H144740   4.721   6.646   6.167
14933TIP3    H244741   4.674   6.543   6.268
14934TIP3   OH244742   0.611   6.989   6.277
14934TIP3    H144743   0.620   6.972   6.371
14934TIP3    H244744   0.700   6.979   6.243
14935TIP3   OH244745   1.649   3.635   2.476
14935TIP3    H144746   1.693   3.555   2.447
14935TIP3    H244747   1.632   3.683   2.396
14936TIP3   OH244748   2.892   4.617   6.323
14936TIP3    H144749   2.870   4.706   6.353
14936TIP3    H244750   2.985   4.622   6.301
14937TIP3   OH244751   4.488   0.603   0.053
14937TIP3    H144752   4.445   0.685   0.075
14937TIP3    H244753   4.478   0.595  -0.042
14938TIP3   OH244754   7.945   3.912   5.674
14938TIP3    H144755   7.858   3.883   5.647
14938TIP3    H244756   7.950   3.892   5.767
14939TIP3   OH244757   1.102   7.492   0.738
14939TIP3    H144758   1.168   7.426   0.715
14939TIP3    H244759   1.081   7.474   0.829
14940TIP3   OH244760   3.922   1.321   1.130
14940TIP3    H144761   3.938   1.229   1.107
14940TIP3    H244762   3.885   1.359   1.050
14941TIP3   OH244763   3.779   2.764   4.303
14941TIP3    H144764   3.820   2.693   4.253
14941TIP3    H244765   3.688   2.764   4.273
14942TIP3   OH244766   2.190   6.412   3.185
14942TIP3    H144767   2.134   6.340   3.156
14942TIP3    H244768   2.257   6.418   3.116
14943TIP3   OH244769   7.915   7.436   0.077
14943TIP3    H144770   7.860   7.404   0.006
14943TIP3    H244771   7.987   7.373   0.083
14944TIP3   OH244772   5.984   6.787   2.354
14944TIP3    H144773   6.025   6.835   2.282
14944TIP3    H244774   5.994   6.694   2.330
14945TIP3   OH244775   6.244   0.740   2.863
14945TIP3    H144776   6.338   0.724   2.861
14945TIP3    H244777   6.222   0.770   2.775
14946TIP3   OH244778   5.944   5.966   6.538
14946TIP3    H144779   6.011   5.901   6.558
14946TIP3    H244780   5.911   5.993   6.624
14947TIP3   OH244781   6.047   1.366   2.359
14947TIP3    H144782   6.022   1.275   2.344
14947TIP3    H244783   6.042   1.377   2.454
14948TIP3   OH244784   8.314   2.315   2.945
14948TIP3    H144785   8.223   2.345   2.951
14948TIP3    H244786   8.346   2.356   2.864
14949TIP3   OH244787   0.243   3.202   3.351
14949TIP3    H144788   0.252   3.116   3.393
14949TIP3    H244789   0.290   3.192   3.268
14950TIP3   OH244790   6.201   4.027   1.076
14950TIP3    H144791   6.287   3.986   1.085
14950TIP3    H244792   6.198   4.093   1.145
14951TIP3   OH244793   1.316   5.987   4.093
14951TIP3    H144794   1.225   5.983   4.121
14951TIP3    H244795   1.361   6.031   4.166
14952TIP3   OH244796   0.400   0.806   2.583
14952TIP3    H144797   0.397   0.895   2.548
14952TIP3    H244798   0.476   0.766   2.540
14953TIP3   OH244799   0.486   4.948   3.813
14953TIP3    H144800   0.480   4.892   3.735
14953TIP3    H244801   0.396   4.978   3.827
14954TIP3   OH244802   4.944   6.452   1.661
14954TIP3    H144803   4.890   6.381   1.626
14954TIP3    H244804   4.901   6.476   1.743
14955TIP3   OH244805   3.381   3.778   4.166
14955TIP3    H144806   3.303   3.811   4.211
14955TIP3    H244807   3.410   3.703   4.220
14956TIP3   OH244808   6.160   0.674   0.095
14956TIP3    H144809   6.176   0.686   0.001
14956TIP3    H244810   6.154   0.579   0.107
14957TIP3   OH244811   5.969   2.344   2.252
14957TIP3    H144812   5.940   2.436   2.248
14957TIP3    H244813   6.055   2.349   2.294
14958TIP3   OH244814   5.823   6.054   4.503
14958TIP3    H144815   5.763   6.111   4.552
14958TIP3    H244816   5.911   6.086   4.527
14959TIP3   OH244817   1.629   7.786   2.905
14959TIP3    H144818   1.650   7.830   2.988
14959TIP3    H244819   1.679   7.705   2.907
14960TIP3   OH244820   5.986   5.156   3.551
14960TIP3    H144821   6.002   5.236   3.501
14960TIP3    H244822   6.016   5.177   3.640
14961TIP3   OH244823   6.749   4.438   6.542
14961TIP3    H144824   6.700   4.365   6.504
14961TIP3    H244825   6.832   4.439   6.494
14962TIP3   OH244826   0.406   7.766   4.268
14962TIP3    H144827   0.451   7.706   4.208
14962TIP3    H244828   0.425   7.731   4.355
14963TIP3   OH244829   4.540   4.601   4.635
14963TIP3    H144830   4.508   4.547   4.707
14963TIP3    H244831   4.629   4.569   4.618
14964TIP3   OH244832   1.212   4.092   3.398
14964TIP3    H144833   1.238   4.062   3.485
14964TIP3    H244834   1.184   4.183   3.411
14965TIP3   OH244835   2.321   3.765   1.284
14965TIP3    H144836   2.304   3.693   1.345
14965TIP3    H244837   2.403   3.742   1.241
14966TIP3   OH244838   3.198   3.291   3.096
14966TIP3    H144839   3.143   3.271   3.020
14966TIP3    H244840   3.189   3.385   3.108
14967TIP3   OH244841   7.289   0.601   4.000
14967TIP3    H144842   7.287   0.577   3.908
14967TIP3    H244843   7.237   0.681   4.006
14968TIP3   OH244844   3.600   5.390   3.778
14968TIP3    H144845   3.649   5.343   3.846
14968TIP3    H244846   3.518   5.342   3.770
14969TIP3   OH244847   3.732   3.699   5.621
14969TIP3    H144848   3.709   3.607   5.611
14969TIP3    H244849   3.793   3.701   5.695
14970TIP3   OH244850   1.764   3.420   3.901
14970TIP3    H144851   1.818   3.341   3.914
14970TIP3    H244852   1.805   3.466   3.828
14971TIP3   OH244853   6.711   6.728   1.108
14971TIP3    H144854   6.749   6.807   1.148
14971TIP3    H244855   6.657   6.761   1.037
14972TIP3   OH244856   1.443   2.624   2.750
14972TIP3    H144857   1.438   2.588   2.661
14972TIP3    H244858   1.516   2.577   2.791
14973TIP3   OH244859   1.861   1.061   3.277
14973TIP3    H144860   1.951   1.041   3.253
14973TIP3    H244861   1.810   1.045   3.198
14974TIP3   OH244862   1.241   2.184   5.008
14974TIP3    H144863   1.325   2.230   5.003
14974TIP3    H244864   1.221   2.182   5.102
14975TIP3   OH244865   4.992   4.532   5.578
14975TIP3    H144866   5.021   4.495   5.495
14975TIP3    H244867   5.030   4.475   5.644
14976TIP3   OH244868   1.383   2.503   3.083
14976TIP3    H144869   1.444   2.471   3.016
14976TIP3    H244870   1.296   2.481   3.048
14977TIP3   OH244871   0.413   4.024   5.650
14977TIP3    H144872   0.438   4.054   5.562
14977TIP3    H244873   0.427   4.099   5.706
14978TIP3   OH244874   3.440   5.825   2.832
14978TIP3    H144875   3.454   5.731   2.820
14978TIP3    H244876   3.345   5.835   2.837
14979TIP3   OH244877   4.389   4.641   3.742
14979TIP3    H144878   4.421   4.671   3.827
14979TIP3    H244879   4.343   4.716   3.706
14980TIP3   OH244880   5.070   3.676   1.222
14980TIP3    H144881   5.104   3.672   1.311
14980TIP3    H244882   5.143   3.649   1.167
14981TIP3   OH244883   4.491   5.232   2.269
14981TIP3    H144884   4.490   5.298   2.339
14981TIP3    H244885   4.436   5.270   2.200
14982TIP3   OH244886   5.966   5.423   1.162
14982TIP3    H144887   5.942   5.360   1.094
14982TIP3    H244888   5.941   5.382   1.244
14983TIP3   OH244889   5.273   0.374   4.070
14983TIP3    H144890   5.365   0.377   4.098
14983TIP3    H244891   5.258   0.282   4.048
14984TIP3   OH244892   0.118   3.433   5.556
14984TIP3    H144893   0.150   3.353   5.515
14984TIP3    H244894   0.062   3.403   5.628
14985TIP3   OH244895   5.014   2.695   6.170
14985TIP3    H144896   4.982   2.777   6.208
14985TIP3    H244897   5.017   2.635   6.244
14986TIP3   OH244898   2.394   0.250   5.921
14986TIP3    H144899   2.364   0.285   6.004
14986TIP3    H244900   2.369   0.157   5.924
14987TIP3   OH244901   7.233   4.490   3.594
14987TIP3    H144902   7.319   4.465   3.627
14987TIP3    H244903   7.215   4.427   3.524
14988TIP3   OH244904   3.543   5.914   0.181
14988TIP3    H144905   3.465   5.864   0.204
14988TIP3    H244906   3.513   5.978   0.117
14989TIP3   OH244907   2.150   3.575   4.198
14989TIP3    H144908   2.095   3.592   4.275
14989TIP3    H244909   2.153   3.480   4.191
14990TIP3   OH244910   0.597   3.343   2.818
14990TIP3    H144911   0.523   3.397   2.792
14990TIP3    H244912   0.572   3.254   2.794
14991TIP3   OH244913   4.364   5.154   6.321
14991TIP3    H144914   4.418   5.097   6.266
14991TIP3    H244915   4.280   5.159   6.276
14992TIP3   OH244916   4.728   2.492   0.732
14992TIP3    H144917   4.766   2.484   0.645
14992TIP3    H244918   4.651   2.548   0.720
14993TIP3   OH244919   7.492   2.364   3.589
14993TIP3    H144920   7.558   2.300   3.562
14993TIP3    H244921   7.529   2.405   3.667
14994TIP3   OH244922   6.901   2.442   6.692
14994TIP3    H144923   6.851   2.454   6.612
14994TIP3    H244924   6.990   2.470   6.669
14995TIP3   OH244925   4.523   5.406   4.376
14995TIP3    H144926   4.548   5.339   4.439
14995TIP3    H244927   4.488   5.358   4.301
14996TIP3   OH244928   3.154   5.810   5.830
14996TIP3    H144929   3.205   5.729   5.835
14996TIP3    H244930   3.064   5.780   5.814
14997TIP3   OH244931   5.508   5.945   3.660
14997TIP3    H144932   5.458   5.934   3.741
14997TIP3    H244933   5.496   5.862   3.614
14998TIP3   OH244934   6.843   0.988   0.222
14998TIP3    H144935   6.829   0.903   0.181
14998TIP3    H244936   6.925   0.980   0.269
14999TIP3   OH244937   3.803   5.344   2.547
14999TIP3    H144938   3.869   5.400   2.506
14999TIP3    H244939   3.849   5.263   2.566
15000TIP3   OH244940   8.172   5.577   4.734
15000TIP3    H144941   8.156   5.671   4.727
15000TIP3    H244942   8.161   5.557   4.827
15001TIP3   OH244943   8.222   2.560   4.118
15001TIP3    H144944   8.249   2.533   4.030
15001TIP3    H244945   8.126   2.555   4.117
15002TIP3   OH244946   3.889   6.142   3.722
15002TIP3    H144947   3.971   6.135   3.772
15002TIP3    H244948   3.907   6.093   3.642
15003TIP3   OH244949   2.323   6.823   1.807
15003TIP3    H144950   2.413   6.821   1.839
15003TIP3    H244951   2.327   6.873   1.726
15004TIP3   OH244952   2.712   4.259   0.277
15004TIP3    H144953   2.734   4.235   0.367
15004TIP3    H244954   2.646   4.329   0.287
15005TIP3   OH244955   8.101   4.169   5.974
15005TIP3    H144956   8.065   4.242   5.924
15005TIP3    H244957   8.104   4.201   6.064
15006TIP3   OH244958   7.951   2.560   1.278
15006TIP3    H144959   7.947   2.617   1.355
15006TIP3    H244960   7.860   2.546   1.254
15007TIP3   OH244961   7.034   0.076   6.158
15007TIP3    H144962   7.021  -0.003   6.211
15007TIP3    H244963   7.105   0.122   6.201
15008TIP3   OH244964   3.373   6.860   3.118
15008TIP3    H144965   3.289   6.902   3.137
15008TIP3    H244966   3.435   6.932   3.110
15009TIP3   OH244967   5.753   7.561   0.033
15009TIP3    H144968   5.823   7.601  -0.019
15009TIP3    H244969   5.694   7.523  -0.032
15010TIP3   OH244970   6.433   5.633   5.122
15010TIP3    H144971   6.385   5.650   5.041
15010TIP3    H244972   6.525   5.639   5.098
15011TIP3   OH244973   4.241   7.215   5.520
15011TIP3    H144974   4.269   7.132   5.558
15011TIP3    H244975   4.189   7.256   5.589
15012TIP3   OH244976   8.236   3.341   0.937
15012TIP3    H144977   8.221   3.421   0.988
15012TIP3    H244978   8.220   3.367   0.846
15013TIP3   OH244979   6.418   2.987   3.322
15013TIP3    H144980   6.453   3.059   3.271
15013TIP3    H244981   6.324   3.006   3.330
15014TIP3   OH244982   2.420   2.367   2.834
15014TIP3    H144983   2.471   2.442   2.805
15014TIP3    H244984   2.401   2.385   2.926
15015TIP3   OH244985   2.755   4.501   0.664
15015TIP3    H144986   2.838   4.506   0.712
15015TIP3    H244987   2.695   4.555   0.716
15016TIP3   OH244988   6.687   1.878   3.042
15016TIP3    H144989   6.711   1.803   3.097
15016TIP3    H244990   6.771   1.909   3.006
15017TIP3   OH244991   2.004   3.640   2.389
15017TIP3    H144992   2.066   3.571   2.410
15017TIP3    H244993   1.946   3.644   2.466
15018TIP3   OH244994   1.196   5.306   2.254
15018TIP3    H144995   1.142   5.268   2.185
15018TIP3    H244996   1.185   5.400   2.244
15019TIP3   OH244997   0.150   0.676   3.489
15019TIP3    H144998   0.197   0.593   3.496
15019TIP3    H244999   0.061   0.656   3.519
15020TIP3   OH245000   0.968   5.031   6.720
15020TIP3    H145001   1.001   4.964   6.660
15020TIP3    H245002   0.934   5.099   6.662
15021TIP3   OH245003   3.760   5.459   4.177
15021TIP3    H145004   3.815   5.530   4.143
15021TIP3    H245005   3.821   5.385   4.185
15022TIP3   OH245006   1.019   5.194   4.122
15022TIP3    H145007   1.058   5.189   4.210
15022TIP3    H245008   1.094   5.195   4.063
15023TIP3   OH245009   8.155   4.833   2.462
15023TIP3    H145010   8.166   4.756   2.518
15023TIP3    H245011   8.224   4.824   2.396
15024TIP3   OH245012   6.681   4.181   3.534
15024TIP3    H145013   6.662   4.200   3.442
15024TIP3    H245014   6.762   4.229   3.552
15025TIP3   OH245015   4.300   7.684   2.962
15025TIP3    H145016   4.279   7.602   2.917
15025TIP3    H245017   4.234   7.693   3.031
15026TIP3   OH245018   2.851   5.152   2.851
15026TIP3    H145019   2.806   5.235   2.865
15026TIP3    H245020   2.879   5.124   2.939
15027TIP3   OH245021   7.204   2.943   0.500
15027TIP3    H145022   7.263   3.018   0.491
15027TIP3    H245023   7.140   2.971   0.566
15028TIP3   OH245024   0.911   3.378   3.848
15028TIP3    H145025   0.821   3.349   3.839
15028TIP3    H245026   0.905   3.459   3.899
15029TIP3   OH245027   1.778   3.584   5.341
15029TIP3    H145028   1.824   3.502   5.361
15029TIP3    H245029   1.813   3.648   5.403
15030TIP3   OH245030   1.748   3.607   4.096
15030TIP3    H145031   1.681   3.562   4.147
15030TIP3    H245032   1.754   3.556   4.014
15031TIP3   OH245033   2.972   0.676   3.406
15031TIP3    H145034   2.879   0.683   3.429
15031TIP3    H245035   2.996   0.586   3.431
15032TIP3   OH245036   0.996   2.148   2.989
15032TIP3    H145037   1.034   2.086   3.050
15032TIP3    H245038   0.978   2.096   2.910
15033TIP3   OH245039   5.543   3.189   0.227
15033TIP3    H145040   5.619   3.161   0.177
15033TIP3    H245041   5.475   3.205   0.161
15034TIP3   OH245042   5.141   6.492   0.272
15034TIP3    H145043   5.120   6.553   0.342
15034TIP3    H245044   5.136   6.405   0.312
15035TIP3   OH245045   1.058   5.229   0.844
15035TIP3    H145046   1.004   5.179   0.783
15035TIP3    H245047   1.022   5.318   0.841
15036TIP3   OH245048   4.598   6.516   0.545
15036TIP3    H145049   4.683   6.548   0.515
15036TIP3    H245050   4.589   6.551   0.634
15037TIP3   OH245051   3.920   4.240   4.432
15037TIP3    H145052   3.982   4.170   4.454
15037TIP3    H245053   3.927   4.250   4.337
15038TIP3   OH245054   7.868  -0.005   2.675
15038TIP3    H145055   7.795   0.045   2.713
15038TIP3    H245056   7.939   0.059   2.665
15039TIP3   OH245057   8.239   7.041   2.850
15039TIP3    H145058   8.226   7.136   2.851
15039TIP3    H245059   8.214   7.012   2.937
15040TIP3   OH245060   2.788   7.151   3.196
15040TIP3    H145061   2.844   7.215   3.239
15040TIP3    H245062   2.706   7.153   3.245
15041TIP3   OH245063   2.496   7.346   6.807
15041TIP3    H145064   2.506   7.439   6.826
15041TIP3    H245065   2.434   7.343   6.734
15042TIP3   OH245066   6.521   6.999   3.301
15042TIP3    H145067   6.524   6.919   3.354
15042TIP3    H245068   6.592   7.053   3.336
15043TIP3   OH245069   5.862   5.991   2.792
15043TIP3    H145070   5.954   6.020   2.788
15043TIP3    H245071   5.833   6.017   2.880
15044TIP3   OH245072   1.078   5.112   1.574
15044TIP3    H145073   1.046   5.138   1.488
15044TIP3    H245074   1.153   5.055   1.555
15045TIP3   OH245075   0.339   4.382   1.410
15045TIP3    H145076   0.420   4.412   1.370
15045TIP3    H245077   0.290   4.463   1.428
15046TIP3   OH245078   0.921   5.054   1.776
15046TIP3    H145079   0.837   5.017   1.749
15046TIP3    H245080   0.966   5.075   1.694
15047TIP3   OH245081   0.279   6.471   4.715
15047TIP3    H145082   0.286   6.481   4.620
15047TIP3    H245083   0.362   6.430   4.741
15048TIP3   OH245084   3.968   0.317   4.207
15048TIP3    H145085   3.894   0.261   4.230
15048TIP3    H245086   4.029   0.258   4.162
15049TIP3   OH245087   3.262   0.330   6.217
15049TIP3    H145088   3.313   0.349   6.296
15049TIP3    H245089   3.259   0.413   6.170
15050TIP3   OH245090   1.134   1.378   4.552
15050TIP3    H145091   1.130   1.409   4.642
15050TIP3    H245092   1.218   1.410   4.518
15051TIP3   OH245093   1.903   2.680   4.469
15051TIP3    H145094   1.826   2.699   4.415
15051TIP3    H245095   1.973   2.734   4.432
15052TIP3   OH245096   2.743   5.782   1.655
15052TIP3    H145097   2.690   5.773   1.576
15052TIP3    H245098   2.833   5.768   1.625
15053TIP3   OH245099   8.105   2.673   5.857
15053TIP3    H145100   8.151   2.622   5.924
15053TIP3    H245101   8.014   2.644   5.863
15054TIP3   OH245102   2.616   2.746   5.396
15054TIP3    H145103   2.689   2.783   5.346
15054TIP3    H245104   2.584   2.818   5.449
15055TIP3   OH245105   4.865   1.025   2.286
15055TIP3    H145106   4.857   0.937   2.323
15055TIP3    H245107   4.955   1.028   2.253
15056TIP3   OH245108   5.464   1.840   2.830
15056TIP3    H145109   5.539   1.864   2.775
15056TIP3    H245110   5.496   1.765   2.881
15057TIP3   OH245111   5.609   0.570   3.817
15057TIP3    H145112   5.607   0.481   3.784
15057TIP3    H245113   5.517   0.597   3.819
15058TIP3   OH245114   5.047   0.345   2.432
15058TIP3    H145115   5.086   0.322   2.347
15058TIP3    H245116   4.956   0.364   2.412
15059TIP3   OH245117   1.221   7.504   5.889
15059TIP3    H145118   1.214   7.413   5.918
15059TIP3    H245119   1.133   7.539   5.898
15060TIP3   OH245120   0.751   4.876   2.947
15060TIP3    H145121   0.694   4.921   3.009
15060TIP3    H245122   0.835   4.867   2.993
15061TIP3   OH245123   7.293   7.470   3.710
15061TIP3    H145124   7.312   7.522   3.632
15061TIP3    H245125   7.360   7.402   3.711
15062TIP3   OH245126   1.786   0.616   6.400
15062TIP3    H145127   1.718   0.558   6.366
15062TIP3    H245128   1.742   0.668   6.467
15063TIP3   OH245129   6.866   3.406   5.618
15063TIP3    H145130   6.908   3.342   5.677
15063TIP3    H245131   6.868   3.363   5.532
15064TIP3   OH245132   2.753   2.792   4.803
15064TIP3    H145133   2.848   2.802   4.809
15064TIP3    H245134   2.741   2.718   4.743
15065TIP3   OH245135   2.087   2.916   2.627
15065TIP3    H145136   2.048   2.929   2.541
15065TIP3    H245137   2.148   2.843   2.615
15066TIP3   OH245138   4.735   5.586   0.393
15066TIP3    H145139   4.755   5.679   0.408
15066TIP3    H245140   4.776   5.566   0.309
15067TIP3   OH245141   4.778   3.665   1.417
15067TIP3    H145142   4.786   3.665   1.322
15067TIP3    H245143   4.868   3.671   1.449
15068TIP3   OH245144   3.467   1.114   2.746
15068TIP3    H145145   3.382   1.137   2.784
15068TIP3    H245146   3.452   1.114   2.651
15069TIP3   OH245147   7.547   0.512   5.413
15069TIP3    H145148   7.611   0.457   5.368
15069TIP3    H245149   7.600   0.574   5.464
15070TIP3   OH245150   5.060   4.012   1.818
15070TIP3    H145151   5.146   4.054   1.824
15070TIP3    H245152   4.997   4.085   1.821
15071TIP3   OH245153   6.185   5.685   5.543
15071TIP3    H145154   6.269   5.728   5.550
15071TIP3    H245155   6.159   5.696   5.452
15072TIP3   OH245156   6.163   4.211   1.256
15072TIP3    H145157   6.211   4.197   1.338
15072TIP3    H245158   6.098   4.279   1.277
15073TIP3   OH245159   7.790   6.050   4.204
15073TIP3    H145160   7.706   6.008   4.191
15073TIP3    H245161   7.851   5.978   4.218
15074TIP3   OH245162   2.297   1.913   0.834
15074TIP3    H145163   2.383   1.871   0.828
15074TIP3    H245164   2.307   1.979   0.902
15075TIP3   OH245165   0.792   6.430   3.590
15075TIP3    H145166   0.834   6.468   3.513
15075TIP3    H245167   0.746   6.353   3.556
15076TIP3   OH245168   4.781   7.584   4.672
15076TIP3    H145169   4.835   7.627   4.739
15076TIP3    H245170   4.739   7.511   4.718
15077TIP3   OH245171   8.017   7.608   3.590
15077TIP3    H145172   7.981   7.592   3.503
15077TIP3    H245173   7.964   7.680   3.625
15078TIP3   OH245174   6.301   4.403   1.027
15078TIP3    H145175   6.309   4.313   1.060
15078TIP3    H245176   6.284   4.392   0.933
15079TIP3   OH245177   0.929   7.304   2.131
15079TIP3    H145178   0.998   7.357   2.170
15079TIP3    H245179   0.856   7.365   2.118
15080TIP3   OH245180   5.804   3.323   1.662
15080TIP3    H145181   5.710   3.341   1.661
15080TIP3    H245182   5.812   3.234   1.628
15081TIP3   OH245183   0.709   7.334   2.682
15081TIP3    H145184   0.699   7.345   2.588
15081TIP3    H245185   0.622   7.353   2.718
15082TIP3   OH245186   5.419   5.972   5.254
15082TIP3    H145187   5.427   5.909   5.183
15082TIP3    H245188   5.346   6.028   5.229
15083TIP3   OH245189   4.267   5.687   5.822
15083TIP3    H145190   4.275   5.699   5.916
15083TIP3    H245191   4.180   5.721   5.801
15084TIP3   OH245192   5.528   5.439   5.128
15084TIP3    H145193   5.451   5.464   5.077
15084TIP3    H245194   5.536   5.508   5.194
15085TIP3   OH245195   4.829   7.383   5.057
15085TIP3    H145196   4.757   7.355   5.113
15085TIP3    H245197   4.835   7.478   5.072
15086TIP3   OH245198   2.480   7.748   5.642
15086TIP3    H145199   2.394   7.781   5.667
15086TIP3    H245200   2.494   7.781   5.553
15087TIP3   OH245201   3.901   7.417   1.657
15087TIP3    H145202   3.896   7.381   1.568
15087TIP3    H245203   3.810   7.433   1.682
15088TIP3   OH245204   2.071   1.860   0.023
15088TIP3    H145205   2.116   1.911   0.090
15088TIP3    H245206   2.003   1.918  -0.011
15089TIP3   OH245207   1.434   4.069   3.178
15089TIP3    H145208   1.507   4.016   3.208
15089TIP3    H245209   1.372   4.069   3.251
15090TIP3   OH245210   8.023   6.120   3.090
15090TIP3    H145211   8.092   6.184   3.104
15090TIP3    H245212   7.981   6.147   3.008
15091TIP3   OH245213   0.236   3.678   6.271
15091TIP3    H145214   0.325   3.684   6.239
15091TIP3    H245215   0.183   3.665   6.192
15092TIP3   OH245216   3.145   0.078   2.540
15092TIP3    H145217   3.091   0.076   2.619
15092TIP3    H245218   3.213   0.012   2.556
15093TIP3   OH245219   5.190   5.991   1.895
15093TIP3    H145220   5.100   5.994   1.860
15093TIP3    H245221   5.243   5.963   1.820
15094TIP3   OH245222   1.495   3.691   2.696
15094TIP3    H145223   1.404   3.694   2.668
15094TIP3    H245224   1.544   3.667   2.618
15095TIP3   OH245225   0.624   5.432   2.924
15095TIP3    H145226   0.565   5.362   2.896
15095TIP3    H245227   0.628   5.492   2.849
15096TIP3   OH245228   2.355   6.483   5.795
15096TIP3    H145229   2.352   6.556   5.734
15096TIP3    H245230   2.314   6.516   5.875
15097TIP3   OH245231   6.970   3.664   3.304
15097TIP3    H145232   6.923   3.589   3.269
15097TIP3    H245233   6.950   3.664   3.398
15098TIP3   OH245234   2.482   2.718   3.767
15098TIP3    H145235   2.396   2.756   3.785
15098TIP3    H245236   2.541   2.793   3.760
15099TIP3   OH245237   7.192   3.221   2.021
15099TIP3    H145238   7.158   3.158   2.083
15099TIP3    H245239   7.218   3.169   1.945
15100TIP3   OH245240   6.329   6.793   5.315
15100TIP3    H145241   6.412   6.841   5.313
15100TIP3    H245242   6.262   6.861   5.319
15101TIP3   OH245243   7.018   2.781   3.803
15101TIP3    H145244   7.057   2.855   3.848
15101TIP3    H245245   6.965   2.820   3.734
15102TIP3   OH245246   6.909   5.482   5.217
15102TIP3    H145247   6.874   5.395   5.202
15102TIP3    H245248   7.001   5.468   5.238
15103TIP3   OH245249   5.079   2.726   4.863
15103TIP3    H145250   5.044   2.753   4.778
15103TIP3    H245251   5.025   2.773   4.927
15104TIP3   OH245252   5.488   4.090   3.506
15104TIP3    H145253   5.511   4.121   3.419
15104TIP3    H245254   5.513   3.998   3.506
15105TIP3   OH245255   5.981   6.000   6.818
15105TIP3    H145256   5.952   5.970   6.904
15105TIP3    H245257   6.053   5.942   6.794
15106TIP3   OH245258   5.917   6.349   1.422
15106TIP3    H145259   5.865   6.388   1.492
15106TIP3    H245260   5.933   6.420   1.360
15107TIP3   OH245261   5.333   3.387   1.521
15107TIP3    H145262   5.262   3.400   1.459
15107TIP3    H245263   5.412   3.411   1.473
15108TIP3   OH245264   2.870   1.215   1.116
15108TIP3    H145265   2.910   1.180   1.196
15108TIP3    H245266   2.941   1.214   1.052
15109TIP3   OH245267   6.184   1.810   6.623
15109TIP3    H145268   6.263   1.770   6.585
15109TIP3    H245269   6.168   1.887   6.569
15110TIP3   OH245270   5.322   5.808   0.192
15110TIP3    H145271   5.258   5.844   0.254
15110TIP3    H245272   5.289   5.721   0.170
15111TIP3   OH245273   7.620   4.319   4.021
15111TIP3    H145274   7.534   4.323   3.980
15111TIP3    H245275   7.671   4.260   3.965
15112TIP3   OH245276   2.287   5.672   3.589
15112TIP3    H145277   2.292   5.578   3.605
15112TIP3    H245278   2.245   5.680   3.503
15113TIP3   OH245279   5.094   2.473   1.792
15113TIP3    H145280   5.021   2.418   1.822
15113TIP3    H245281   5.167   2.449   1.849
15114TIP3   OH245282   0.236   4.105   4.187
15114TIP3    H145283   0.250   4.189   4.142
15114TIP3    H245284   0.284   4.042   4.134
15115TIP3   OH245285   1.873   2.422   2.083
15115TIP3    H145286   1.900   2.434   2.174
15115TIP3    H245287   1.819   2.499   2.063
15116TIP3   OH245288   4.892   3.713   6.414
15116TIP3    H145289   4.932   3.746   6.333
15116TIP3    H245290   4.965   3.675   6.463
15117TIP3   OH245291   8.130   3.749   0.522
15117TIP3    H145292   8.093   3.706   0.445
15117TIP3    H245293   8.059   3.804   0.555
15118TIP3   OH245294   1.626   1.737   5.769
15118TIP3    H145295   1.583   1.819   5.745
15118TIP3    H245296   1.685   1.718   5.696
15119TIP3   OH245297   1.474   4.250   2.749
15119TIP3    H145298   1.472   4.345   2.760
15119TIP3    H245299   1.412   4.232   2.678
15120TIP3   OH245300   4.189   0.081   6.329
15120TIP3    H145301   4.252   0.015   6.359
15120TIP3    H245302   4.239   0.162   6.326
15121TIP3   OH245303   3.953   7.669   2.229
15121TIP3    H145304   4.007   7.748   2.232
15121TIP3    H245305   3.865   7.701   2.209
15122TIP3   OH245306   5.128   4.228   6.234
15122TIP3    H145307   5.100   4.249   6.145
15122TIP3    H245308   5.071   4.280   6.291
15123TIP3   OH245309   3.652   1.597   0.728
15123TIP3    H145310   3.710   1.522   0.743
15123TIP3    H245311   3.709   1.673   0.739
15124TIP3   OH245312   5.866   7.274   2.361
15124TIP3    H145313   5.797   7.236   2.415
15124TIP3    H245314   5.915   7.331   2.421
15125TIP3   OH245315   4.530   5.159   2.790
15125TIP3    H145316   4.555   5.176   2.881
15125TIP3    H245317   4.604   5.111   2.753
15126TIP3   OH245318   5.337   0.940   2.031
15126TIP3    H145319   5.325   0.870   1.966
15126TIP3    H245320   5.274   0.920   2.100
15127TIP3   OH245321   2.204   3.202   2.591
15127TIP3    H145322   2.176   3.223   2.680
15127TIP3    H245323   2.134   3.147   2.555
15128TIP3   OH245324   3.926   0.392   3.665
15128TIP3    H145325   3.922   0.371   3.572
15128TIP3    H245326   4.016   0.371   3.690
15129TIP3   OH245327   1.019   0.497   6.687
15129TIP3    H145328   0.933   0.499   6.646
15129TIP3    H245329   1.023   0.578   6.738
15130TIP3   OH245330   3.617   4.925   4.934
15130TIP3    H145331   3.572   5.006   4.961
15130TIP3    H245332   3.704   4.955   4.908
15131TIP3   OH245333   1.654   1.068   0.730
15131TIP3    H145334   1.562   1.052   0.753
15131TIP3    H245335   1.652   1.153   0.686
15132TIP3   OH245336   5.729   5.675   0.349
15132TIP3    H145337   5.731   5.771   0.346
15132TIP3    H245338   5.793   5.651   0.415
15133TIP3   OH245339   4.627   0.067   1.845
15133TIP3    H145340   4.651   0.140   1.902
15133TIP3    H245341   4.711   0.032   1.815
15134TIP3   OH245342   3.791   4.691   6.667
15134TIP3    H145343   3.861   4.674   6.605
15134TIP3    H245344   3.778   4.786   6.664
15135TIP3   OH245345   5.695   3.890   3.177
15135TIP3    H145346   5.790   3.882   3.170
15135TIP3    H245347   5.662   3.840   3.102
15136TIP3   OH245348   2.740   3.943   0.875
15136TIP3    H145349   2.645   3.933   0.883
15136TIP3    H245350   2.775   3.855   0.881
15137TIP3   OH245351   3.122   2.152   2.892
15137TIP3    H145352   3.143   2.127   2.982
15137TIP3    H245353   3.091   2.242   2.898
15138TIP3   OH245354   2.360   7.573   3.679
15138TIP3    H145355   2.342   7.486   3.643
15138TIP3    H245356   2.391   7.624   3.604
15139TIP3   OH245357   4.852   3.331   5.964
15139TIP3    H145358   4.832   3.239   5.948
15139TIP3    H245359   4.794   3.380   5.906
15140TIP3   OH245360   2.996   1.892   6.519
15140TIP3    H145361   3.003   1.988   6.525
15140TIP3    H245362   2.972   1.864   6.607
15141TIP3   OH245363   4.993   3.758   0.816
15141TIP3    H145364   4.910   3.746   0.769
15141TIP3    H245365   5.002   3.678   0.869
15142TIP3   OH245366   4.619   2.879   2.539
15142TIP3    H145367   4.530   2.869   2.506
15142TIP3    H245368   4.673   2.828   2.478
15143TIP3   OH245369   4.964   2.435   4.450
15143TIP3    H145370   5.054   2.451   4.422
15143TIP3    H245371   4.972   2.369   4.519
15144TIP3   OH245372   8.327   3.683   2.003
15144TIP3    H145373   8.358   3.768   2.035
15144TIP3    H245374   8.402   3.625   2.011
15145TIP3   OH245375   3.116   6.299   2.196
15145TIP3    H145376   3.204   6.330   2.171
15145TIP3    H245377   3.095   6.233   2.131
15146TIP3   OH245378   3.596   3.188   0.119
15146TIP3    H145379   3.588   3.182   0.215
15146TIP3    H245380   3.634   3.104   0.093
15147TIP3   OH245381   2.598   1.469   1.517
15147TIP3    H145382   2.534   1.442   1.451
15147TIP3    H245383   2.608   1.393   1.573
15148TIP3   OH245384   6.305   2.550   4.278
15148TIP3    H145385   6.387   2.503   4.259
15148TIP3    H245386   6.283   2.525   4.367
15149TIP3   OH245387   7.355   3.197   2.992
15149TIP3    H145388   7.265   3.203   3.024
15149TIP3    H245389   7.407   3.174   3.069
15150TIP3   OH245390   3.915   4.506   3.880
15150TIP3    H145391   3.985   4.570   3.890
15150TIP3    H245392   3.918   4.454   3.961
15151TIP3   OH245393   6.225   1.540   4.000
15151TIP3    H145394   6.151   1.599   3.990
15151TIP3    H245395   6.256   1.523   3.911
15152TIP3   OH245396   4.719   1.491   4.703
15152TIP3    H145397   4.708   1.486   4.608
15152TIP3    H245398   4.813   1.480   4.717
15153TIP3   OH245399   1.100   3.833   3.953
15153TIP3    H145400   1.139   3.794   4.031
15153TIP3    H245401   1.154   3.801   3.881
15154TIP3   OH245402   7.142   5.547   2.479
15154TIP3    H145403   7.091   5.593   2.413
15154TIP3    H245404   7.173   5.616   2.537
15155TIP3   OH245405   6.613   3.863   5.437
15155TIP3    H145406   6.699   3.847   5.399
15155TIP3    H245407   6.625   3.940   5.493
15156TIP3   OH245408   4.355   0.834   6.247
15156TIP3    H145409   4.344   0.924   6.215
15156TIP3    H245410   4.278   0.818   6.300
15157TIP3   OH245411   3.727   4.461   0.332
15157TIP3    H145412   3.786   4.534   0.312
15157TIP3    H245413   3.713   4.418   0.247
15158TIP3   OH245414   1.286   4.131   5.986
15158TIP3    H145415   1.342   4.192   6.035
15158TIP3    H245416   1.197   4.159   6.006
15159TIP3   OH245417   6.015   1.687   1.310
15159TIP3    H145418   6.051   1.713   1.225
15159TIP3    H245419   5.946   1.625   1.289
15160TIP3   OH245420   0.407   7.015   0.012
15160TIP3    H145421   0.453   6.984   0.090
15160TIP3    H245422   0.424   6.949  -0.055
15161TIP3   OH245423   8.256   3.736   4.980
15161TIP3    H145424   8.205   3.726   4.899
15161TIP3    H245425   8.190   3.737   5.049
15162TIP3   OH245426   2.321   0.834   6.456
15162TIP3    H145427   2.348   0.808   6.544
15162TIP3    H245428   2.341   0.759   6.401
15163TIP3   OH245429   3.657   0.762   0.543
15163TIP3    H145430   3.632   0.763   0.451
15163TIP3    H245431   3.575   0.774   0.590
15164TIP3   OH245432   3.962   2.202   2.642
15164TIP3    H145433   3.910   2.123   2.652
15164TIP3    H245434   3.942   2.234   2.555
15165TIP3   OH245435   7.693   4.315   0.994
15165TIP3    H145436   7.711   4.407   1.013
15165TIP3    H245437   7.680   4.311   0.900
15166TIP3   OH245438   5.057   1.297   5.483
15166TIP3    H145439   4.978   1.316   5.432
15166TIP3    H245440   5.046   1.205   5.510
15167TIP3   OH245441   2.211   6.867   6.782
15167TIP3    H145442   2.218   6.858   6.877
15167TIP3    H245443   2.262   6.945   6.761
15168TIP3   OH245444   8.217   6.632   2.045
15168TIP3    H145445   8.280   6.630   1.973
15168TIP3    H245446   8.265   6.674   2.117
15169TIP3   OH245447   6.803   4.173   5.538
15169TIP3    H145448   6.732   4.229   5.571
15169TIP3    H245449   6.805   4.099   5.599
15170TIP3   OH245450   7.288   1.565   3.067
15170TIP3    H145451   7.263   1.473   3.069
15170TIP3    H245452   7.320   1.583   3.155
15171TIP3   OH245453   0.003   1.282   6.070
15171TIP3    H145454  -0.028   1.295   5.980
15171TIP3    H245455  -0.012   1.366   6.112
15172TIP3   OH245456   0.504   6.400   1.989
15172TIP3    H145457   0.478   6.312   2.016
15172TIP3    H245458   0.576   6.386   1.927
15173TIP3   OH245459   6.634   0.556   5.262
15173TIP3    H145460   6.621   0.489   5.194
15173TIP3    H245461   6.719   0.536   5.300
15174TIP3   OH245462   4.308   2.254   2.111
15174TIP3    H145463   4.382   2.300   2.071
15174TIP3    H245464   4.331   2.249   2.204
15175TIP3   OH245465   1.293   3.004   0.907
15175TIP3    H145466   1.219   3.023   0.964
15175TIP3    H245467   1.326   3.091   0.882
15176TIP3   OH245468   4.505   0.250   5.857
15176TIP3    H145469   4.483   0.317   5.792
15176TIP3    H245470   4.591   0.217   5.830
15177TIP3   OH245471   6.914   3.043   3.440
15177TIP3    H145472   6.975   3.030   3.368
15177TIP3    H245473   6.833   3.073   3.398
15178TIP3   OH245474   1.724   1.361   1.346
15178TIP3    H145475   1.814   1.345   1.373
15178TIP3    H245476   1.728   1.439   1.292
15179TIP3   OH245477   0.106   1.008   4.371
15179TIP3    H145478   0.191   1.035   4.338
15179TIP3    H245479   0.090   1.063   4.447
15180TIP3   OH245480   6.208   6.544   1.172
15180TIP3    H145481   6.206   6.563   1.266
15180TIP3    H245482   6.123   6.575   1.139
15181TIP3   OH245483   0.554   0.716   1.083
15181TIP3    H145484   0.565   0.695   0.990
15181TIP3    H245485   0.476   0.771   1.085
15182TIP3   OH245486   5.426   3.383   2.430
15182TIP3    H145487   5.362   3.313   2.440
15182TIP3    H245488   5.376   3.458   2.399
15183TIP3   OH245489   2.839   1.898   5.571
15183TIP3    H145490   2.851   1.924   5.662
15183TIP3    H245491   2.776   1.961   5.536
15184TIP3   OH245492   6.051   0.068   3.372
15184TIP3    H145493   6.094   0.095   3.453
15184TIP3    H245494   5.992  -0.003   3.398
15185TIP3   OH245495   2.343   6.423   2.436
15185TIP3    H145496   2.324   6.378   2.518
15185TIP3    H245497   2.269   6.484   2.425
15186TIP3   OH245498   7.262   6.754   3.430
15186TIP3    H145499   7.325   6.690   3.464
15186TIP3    H245500   7.315   6.824   3.393
15187TIP3   OH245501   4.925   0.403   3.120
15187TIP3    H145502   4.910   0.490   3.157
15187TIP3    H245503   4.956   0.351   3.194
15188TIP3   OH245504   8.189   4.916   0.939
15188TIP3    H145505   8.178   4.983   0.872
15188TIP3    H245506   8.180   4.833   0.892
15189TIP3   OH245507   6.127   1.434   6.034
15189TIP3    H145508   6.095   1.345   6.047
15189TIP3    H245509   6.123   1.447   5.939
15190TIP3   OH245510   5.510   5.299   2.497
15190TIP3    H145511   5.605   5.292   2.500
15190TIP3    H245512   5.493   5.377   2.444
15191TIP3   OH245513   3.465   6.490   2.777
15191TIP3    H145514   3.403   6.461   2.710
15191TIP3    H245515   3.513   6.410   2.801
15192TIP3   OH245516   5.219   6.577   4.980
15192TIP3    H145517   5.158   6.608   4.913
15192TIP3    H245518   5.167   6.520   5.037
15193TIP3   OH245519   7.924   0.621   5.939
15193TIP3    H145520   7.961   0.589   6.022
15193TIP3    H245521   7.950   0.556   5.874
15194TIP3   OH245522   4.997   5.327   3.251
15194TIP3    H145523   5.007   5.400   3.313
15194TIP3    H245524   5.032   5.362   3.169
15195TIP3   OH245525   2.119   2.698   2.217
15195TIP3    H145526   2.199   2.649   2.200
15195TIP3    H245527   2.132   2.781   2.170
15196TIP3   OH245528   6.343   0.719   4.007
15196TIP3    H145529   6.419   0.665   3.985
15196TIP3    H245530   6.377   0.809   4.008
15197TIP3   OH245531   5.611   1.116   0.100
15197TIP3    H145532   5.548   1.067   0.047
15197TIP3    H245533   5.697   1.082   0.074
15198TIP3   OH245534   4.213   4.847   1.741
15198TIP3    H145535   4.294   4.889   1.771
15198TIP3    H245536   4.237   4.809   1.656
15199TIP3   OH245537   1.923   1.430   6.295
15199TIP3    H145538   1.987   1.369   6.259
15199TIP3    H245539   1.969   1.514   6.300
15200TIP3   OH245540   1.568   1.629   4.372
15200TIP3    H145541   1.584   1.612   4.279
15200TIP3    H245542   1.509   1.704   4.373
15201TIP3   OH245543   6.358   6.641   0.923
15201TIP3    H145544   6.370   6.728   0.962
15201TIP3    H245545   6.266   6.621   0.938
15202TIP3   OH245546   4.250   7.387   3.773
15202TIP3    H145547   4.302   7.308   3.785
15202TIP3    H245548   4.205   7.400   3.857
15203TIP3   OH245549   7.723   1.489   5.529
15203TIP3    H145550   7.706   1.409   5.579
15203TIP3    H245551   7.813   1.511   5.549
15204TIP3   OH245552   6.623   0.465   5.755
15204TIP3    H145553   6.698   0.520   5.775
15204TIP3    H245554   6.610   0.411   5.833
15205TIP3   OH245555   1.755   2.259   0.904
15205TIP3    H145556   1.767   2.175   0.858
15205TIP3    H245557   1.816   2.319   0.862
15206TIP3   OH245558   4.924   4.351   2.647
15206TIP3    H145559   5.010   4.333   2.609
15206TIP3    H245560   4.933   4.328   2.739
15207TIP3   OH245561   3.133   3.837   6.824
15207TIP3    H145562   3.176   3.920   6.843
15207TIP3    H245563   3.205   3.775   6.813
15208TIP3   OH245564   4.345   6.115   6.063
15208TIP3    H145565   4.406   6.059   6.014
15208TIP3    H245566   4.358   6.092   6.154
15209TIP3   OH245567   0.579   7.804   3.885
15209TIP3    H145568   0.528   7.749   3.825
15209TIP3    H245569   0.655   7.750   3.908
15210TIP3   OH245570   5.272   2.554   2.939
15210TIP3    H145571   5.323   2.570   3.019
15210TIP3    H245572   5.196   2.612   2.946
15211TIP3   OH245573   1.102   0.859   4.982
15211TIP3    H145574   1.091   0.859   5.077
15211TIP3    H245575   1.013   0.863   4.947
15212TIP3   OH245576   5.360   1.177   4.880
15212TIP3    H145577   5.407   1.105   4.837
15212TIP3    H245578   5.399   1.256   4.844
15213TIP3   OH245579   6.475   2.209   5.303
15213TIP3    H145580   6.530   2.239   5.231
15213TIP3    H245581   6.499   2.118   5.317
15214TIP3   OH245582   8.104   1.974   0.766
15214TIP3    H145583   8.112   1.880   0.753
15214TIP3    H245584   8.064   2.006   0.685
15215TIP3   OH245585   1.752   4.423   0.508
15215TIP3    H145586   1.776   4.479   0.581
15215TIP3    H245587   1.762   4.334   0.542
15216TIP3   OH245588   0.227   1.878   2.389
15216TIP3    H145589   0.295   1.915   2.333
15216TIP3    H245590   0.254   1.788   2.405
15217TIP3   OH245591   1.377   1.024   1.897
15217TIP3    H145592   1.349   1.058   1.982
15217TIP3    H245593   1.459   1.070   1.879
15218TIP3   OH245594   7.399   1.304   3.276
15218TIP3    H145595   7.314   1.267   3.254
15218TIP3    H245596   7.383   1.355   3.355
15219TIP3   OH245597   5.405   6.402   2.229
15219TIP3    H145598   5.336   6.403   2.295
15219TIP3    H245599   5.484   6.376   2.277
15220TIP3   OH245600   2.613   0.981   6.847
15220TIP3    H145601   2.573   0.991   6.760
15220TIP3    H245602   2.705   0.966   6.829
15221TIP3   OH245603   3.872   2.827   6.507
15221TIP3    H145604   3.873   2.779   6.424
15221TIP3    H245605   3.780   2.852   6.519
15222TIP3   OH245606   7.954   5.426   1.704
15222TIP3    H145607   7.860   5.408   1.705
15222TIP3    H245608   7.983   5.408   1.793
15223TIP3   OH245609   0.743   1.500   2.655
15223TIP3    H145610   0.698   1.431   2.705
15223TIP3    H245611   0.777   1.560   2.721
15224TIP3   OH245612   0.238   7.308   1.540
15224TIP3    H145613   0.168   7.242   1.537
15224TIP3    H245614   0.306   7.273   1.484
15225TIP3   OH245615   8.378   7.195   2.269
15225TIP3    H145616   8.357   7.259   2.201
15225TIP3    H245617   8.436   7.242   2.329
15226TIP3   OH245618   7.668   7.228   5.707
15226TIP3    H145619   7.602   7.168   5.672
15226TIP3    H245620   7.729   7.242   5.635
15227TIP3   OH245621   3.790   6.044   5.734
15227TIP3    H145622   3.869   6.098   5.732
15227TIP3    H245623   3.728   6.095   5.787
15228TIP3   OH245624   8.109   1.864   1.320
15228TIP3    H145625   8.141   1.837   1.406
15228TIP3    H245626   8.166   1.936   1.295
15229TIP3   OH245627   7.948   1.563   0.806
15229TIP3    H145628   8.036   1.599   0.792
15229TIP3    H245629   7.962   1.469   0.814
15230TIP3   OH245630   0.661   3.376   3.730
15230TIP3    H145631   0.649   3.471   3.733
15230TIP3    H245632   0.665   3.356   3.637
15231TIP3   OH245633   6.173   6.063   3.921
15231TIP3    H145634   6.149   5.972   3.902
15231TIP3    H245635   6.251   6.057   3.975
15232TIP3   OH245636   3.128   1.101   1.773
15232TIP3    H145637   3.205   1.062   1.816
15232TIP3    H245638   3.055   1.047   1.802
15233TIP3   OH245639   4.103   1.343   1.365
15233TIP3    H145640   4.097   1.397   1.286
15233TIP3    H245641   4.106   1.407   1.437
15234TIP3   OH245642   8.368   4.327   2.907
15234TIP3    H145643   8.386   4.268   2.980
15234TIP3    H245644   8.427   4.400   2.920
15235TIP3   OH245645   5.715   5.284   6.133
15235TIP3    H145646   5.751   5.197   6.149
15235TIP3    H245647   5.641   5.269   6.075
15236TIP3   OH245648   1.567   2.682   5.080
15236TIP3    H145649   1.639   2.659   5.138
15236TIP3    H245650   1.579   2.626   5.003
15237TIP3   OH245651   6.463   0.544   4.394
15237TIP3    H145652   6.495   0.479   4.457
15237TIP3    H245653   6.379   0.510   4.365
15238TIP3   OH245654   2.355   0.513   3.729
15238TIP3    H145655   2.276   0.466   3.702
15238TIP3    H245656   2.339   0.537   3.820
15239TIP3   OH245657   1.173   5.427   5.834
15239TIP3    H145658   1.104   5.398   5.775
15239TIP3    H245659   1.240   5.464   5.777
15240TIP3   OH245660   3.368   0.368   1.688
15240TIP3    H145661   3.425   0.445   1.686
15240TIP3    H245662   3.409   0.309   1.751
15241TIP3   OH245663   0.552   6.345   4.603
15241TIP3    H145664   0.569   6.427   4.558
15241TIP3    H245665   0.528   6.283   4.534
15242TIP3   OH245666   6.849   1.350   0.861
15242TIP3    H145667   6.804   1.266   0.866
15242TIP3    H245668   6.848   1.373   0.768
15243TIP3   OH245669   7.433   2.557   2.535
15243TIP3    H145670   7.411   2.598   2.451
15243TIP3    H245671   7.518   2.595   2.558
15244TIP3   OH245672   8.097   6.274   1.320
15244TIP3    H145673   8.067   6.193   1.280
15244TIP3    H245674   8.017   6.324   1.336
15245TIP3   OH245675   4.577   7.233   0.454
15245TIP3    H145676   4.617   7.304   0.504
15245TIP3    H245677   4.548   7.275   0.373
15246TIP3   OH245678   3.663   1.700   6.072
15246TIP3    H145679   3.585   1.694   6.128
15246TIP3    H245680   3.725   1.638   6.112
15247TIP3   OH245681   0.115   3.019   5.307
15247TIP3    H145682   0.041   2.963   5.280
15247TIP3    H245683   0.145   3.058   5.225
15248TIP3   OH245684   4.790   4.494   4.271
15248TIP3    H145685   4.847   4.494   4.347
15248TIP3    H245686   4.827   4.428   4.213
15249TIP3   OH245687   3.222   0.303   4.121
15249TIP3    H145688   3.314   0.278   4.124
15249TIP3    H245689   3.175   0.220   4.127
15250TIP3   OH245690   6.282   1.400   6.368
15250TIP3    H145691   6.306   1.336   6.301
15250TIP3    H245692   6.287   1.351   6.450
15251TIP3   OH245693   6.062   4.183   2.116
15251TIP3    H145694   5.983   4.233   2.137
15251TIP3    H245695   6.125   4.248   2.085
15252TIP3   OH245696   4.622   7.766   1.235
15252TIP3    H145697   4.679   7.834   1.199
15252TIP3    H245698   4.675   7.724   1.302
15253TIP3   OH245699   2.332   0.564   2.402
15253TIP3    H145700   2.360   0.523   2.484
15253TIP3    H245701   2.273   0.634   2.429
15254TIP3   OH245702   2.487   5.662   6.591
15254TIP3    H145703   2.467   5.575   6.555
15254TIP3    H245704   2.402   5.707   6.592
15255TIP3   OH245705   5.990   4.237   5.553
15255TIP3    H145706   5.923   4.239   5.484
15255TIP3    H245707   5.945   4.203   5.630
15256TIP3   OH245708   1.711   6.832   1.704
15256TIP3    H145709   1.707   6.922   1.672
15256TIP3    H245710   1.652   6.831   1.780
15257TIP3   OH245711   4.074   6.151   0.313
15257TIP3    H145712   4.052   6.149   0.220
15257TIP3    H245713   4.168   6.170   0.315
15258TIP3   OH245714   8.116   7.115   3.478
15258TIP3    H145715   8.121   7.189   3.539
15258TIP3    H245716   8.114   7.038   3.534
15259TIP3   OH245717   3.166   7.164   4.347
15259TIP3    H145718   3.081   7.168   4.392
15259TIP3    H245719   3.212   7.243   4.374
15260TIP3   OH245720   6.977   6.761   1.802
15260TIP3    H145721   7.011   6.817   1.732
15260TIP3    H245722   6.925   6.694   1.756
15261TIP3   OH245723   8.068   1.676   6.362
15261TIP3    H145724   7.992   1.732   6.349
15261TIP3    H245725   8.041   1.590   6.330
15262TIP3   OH245726   2.726   4.792   4.509
15262TIP3    H145727   2.682   4.794   4.594
15262TIP3    H245728   2.783   4.869   4.509
15263TIP3   OH245729   2.822   3.993   2.296
15263TIP3    H145730   2.858   4.081   2.310
15263TIP3    H245731   2.734   3.997   2.334
15264TIP3   OH245732   3.944   3.426   3.056
15264TIP3    H145733   4.029   3.427   3.099
15264TIP3    H245734   3.960   3.464   2.970
15265TIP3   OH245735   4.588   7.666   1.929
15265TIP3    H145736   4.510   7.631   1.973
15265TIP3    H245737   4.555   7.705   1.848
15266TIP3   OH245738   7.063   0.532   4.447
15266TIP3    H145739   7.079   0.586   4.525
15266TIP3    H245740   7.084   0.590   4.373
15267TIP3   OH245741   5.583   4.756   5.274
15267TIP3    H145742   5.528   4.810   5.331
15267TIP3    H245743   5.607   4.813   5.202
15268TIP3   OH245744   7.771   2.796   3.841
15268TIP3    H145745   7.845   2.795   3.902
15268TIP3    H245746   7.694   2.785   3.896
15269TIP3   OH245747   0.434   1.744   3.097
15269TIP3    H145748   0.522   1.772   3.071
15269TIP3    H245749   0.440   1.648   3.102
15270TIP3   OH245750   0.928   2.656   2.112
15270TIP3    H145751   0.948   2.608   2.031
15270TIP3    H245752   0.851   2.611   2.147
15271TIP3   OH245753   3.855   0.912   2.726
15271TIP3    H145754   3.943   0.908   2.763
15271TIP3    H245755   3.860   0.863   2.644
15272TIP3   OH245756   0.135   4.039   0.964
15272TIP3    H145757   0.177   4.124   0.952
15272TIP3    H245758   0.042   4.058   0.973
15273TIP3   OH245759   1.052   0.259   3.798
15273TIP3    H145760   0.989   0.229   3.733
15273TIP3    H245761   1.136   0.222   3.770
15274TIP3   OH245762   2.724   1.655   5.675
15274TIP3    H145763   2.807   1.650   5.721
15274TIP3    H245764   2.730   1.735   5.623
15275TIP3   OH245765   6.730   6.080   3.328
15275TIP3    H145766   6.825   6.079   3.324
15275TIP3    H245767   6.709   6.080   3.421
15276TIP3   OH245768   2.857   2.853   2.154
15276TIP3    H145769   2.811   2.931   2.121
15276TIP3    H245770   2.915   2.888   2.221
15277TIP3   OH245771   1.489   7.153   6.219
15277TIP3    H145772   1.419   7.185   6.163
15277TIP3    H245773   1.463   7.064   6.243
15278TIP3   OH245774   5.060   2.489   3.170
15278TIP3    H145775   4.985   2.463   3.224
15278TIP3    H245776   5.064   2.423   3.101
15279TIP3   OH245777   6.649   4.797   1.147
15279TIP3    H145778   6.607   4.810   1.232
15279TIP3    H245779   6.577   4.774   1.088
15280TIP3   OH245780   0.479   1.667   3.707
15280TIP3    H145781   0.485   1.625   3.622
15280TIP3    H245782   0.427   1.607   3.761
15281TIP3   OH245783   2.798   3.146   0.056
15281TIP3    H145784   2.864   3.088   0.095
15281TIP3    H245785   2.815   3.141  -0.038
15282TIP3   OH245786   4.066   5.103   1.501
15282TIP3    H145787   4.060   5.178   1.559
15282TIP3    H245788   3.987   5.108   1.447
15283TIP3   OH245789   3.657   0.738   3.983
15283TIP3    H145790   3.714   0.661   3.986
15283TIP3    H245791   3.572   0.705   3.955
15284TIP3   OH245792   6.262   4.141   1.731
15284TIP3    H145793   6.178   4.187   1.740
15284TIP3    H245794   6.318   4.179   1.798
15285TIP3   OH245795   5.245   0.039   1.153
15285TIP3    H145796   5.254   0.134   1.158
15285TIP3    H245797   5.160   0.024   1.113
15286TIP3   OH245798   0.981   2.257   5.343
15286TIP3    H145799   1.060   2.214   5.309
15286TIP3    H245800   1.013   2.315   5.411
15287TIP3   OH245801   7.997   4.741   4.127
15287TIP3    H145802   8.069   4.803   4.137
15287TIP3    H245803   7.930   4.771   4.188
15288TIP3   OH245804   3.857   5.330   5.349
15288TIP3    H145805   3.800   5.254   5.364
15288TIP3    H245806   3.928   5.296   5.294
15289TIP3   OH245807   4.224   1.589   0.333
15289TIP3    H145808   4.264   1.582   0.419
15289TIP3    H245809   4.214   1.683   0.319
15290TIP3   OH245810   7.156   2.933   6.021
15290TIP3    H145811   7.092   2.883   6.072
15290TIP3    H245812   7.106   3.007   5.985
15291TIP3   OH245813   8.329   4.759   6.620
15291TIP3    H145814   8.319   4.839   6.568
15291TIP3    H245815   8.300   4.688   6.562
15292TIP3   OH245816   3.848   6.201   4.656
15292TIP3    H145817   3.882   6.204   4.567
15292TIP3    H245818   3.756   6.177   4.646
15293TIP3   OH245819   0.865   2.082   1.852
15293TIP3    H145820   0.803   2.040   1.793
15293TIP3    H245821   0.814   2.152   1.894
15294TIP3   OH245822   4.848   0.946   1.276
15294TIP3    H145823   4.866   0.944   1.182
15294TIP3    H245824   4.911   0.884   1.314
15295TIP3   OH245825   1.783   2.963   0.389
15295TIP3    H145826   1.730   2.948   0.468
15295TIP3    H245827   1.868   2.990   0.423
15296TIP3   OH245828   5.079   1.832   5.693
15296TIP3    H145829   5.148   1.834   5.759
15296TIP3    H245830   5.068   1.739   5.673
15297TIP3   OH245831   5.352   5.961   6.687
15297TIP3    H145832   5.350   6.018   6.611
15297TIP3    H245833   5.284   5.995   6.745
15298TIP3   OH245834   4.224   2.477   6.513
15298TIP3    H145835   4.165   2.411   6.478
15298TIP3    H245836   4.272   2.432   6.583
15299TIP3   OH245837   4.786   5.270   2.212
15299TIP3    H145838   4.811   5.179   2.194
15299TIP3    H245839   4.708   5.263   2.267
15300TIP3   OH245840   4.159   5.058   3.178
15300TIP3    H145841   4.070   5.058   3.212
15300TIP3    H245842   4.153   5.104   3.094
15301TIP3   OH245843   7.784   4.134   1.355
15301TIP3    H145844   7.809   4.226   1.346
15301TIP3    H245845   7.742   4.130   1.441
15302TIP3   OH245846   8.304   5.769   0.372
15302TIP3    H145847   8.325   5.676   0.377
15302TIP3    H245848   8.245   5.784   0.446
15303TIP3   OH245849   5.134   1.530   5.076
15303TIP3    H145850   5.044   1.500   5.063
15303TIP3    H245851   5.128   1.626   5.074
15304TIP3   OH245852   3.840   4.485   6.105
15304TIP3    H145853   3.893   4.410   6.133
15304TIP3    H245854   3.856   4.493   6.011
15305TIP3   OH245855   2.620   6.988   6.500
15305TIP3    H145856   2.690   7.046   6.530
15305TIP3    H245857   2.636   6.977   6.406
15306TIP3   OH245858   1.300   7.686   5.686
15306TIP3    H145859   1.219   7.736   5.691
15306TIP3    H245860   1.299   7.632   5.765
15307TIP3   OH245861   0.562   3.872   0.532
15307TIP3    H145862   0.630   3.934   0.556
15307TIP3    H245863   0.481   3.911   0.564
15308TIP3   OH245864   6.267   5.250   5.590
15308TIP3    H145865   6.355   5.264   5.555
15308TIP3    H245866   6.243   5.334   5.628
15309TIP3   OH245867   1.813   7.371   5.744
15309TIP3    H145868   1.793   7.428   5.818
15309TIP3    H245869   1.805   7.282   5.779
15310TIP3   OH245870   1.260   5.963   0.816
15310TIP3    H145871   1.306   5.999   0.740
15310TIP3    H245872   1.315   5.987   0.891
15311TIP3   OH245873   1.746   7.897   5.624
15311TIP3    H145874   1.659   7.868   5.599
15311TIP3    H245875   1.765   7.850   5.705
15312TIP3   OH245876   4.225   7.713   4.605
15312TIP3    H145877   4.300   7.658   4.580
15312TIP3    H245878   4.208   7.766   4.528
15313TIP3   OH245879   7.941   5.155   6.477
15313TIP3    H145880   7.968   5.065   6.456
15313TIP3    H245881   7.947   5.202   6.394
15314TIP3   OH245882   1.033   7.821   0.275
15314TIP3    H145883   0.959   7.785   0.226
15314TIP3    H245884   1.099   7.841   0.209
15315TIP3   OH245885   4.595   1.671   5.972
15315TIP3    H145886   4.516   1.721   5.952
15315TIP3    H245887   4.665   1.735   5.973
15316TIP3   OH245888   0.478   1.401   2.558
15316TIP3    H145889   0.459   1.307   2.562
15316TIP3    H245890   0.573   1.405   2.551
15317TIP3   OH245891   1.488   4.241   6.191
15317TIP3    H145892   1.547   4.281   6.127
15317TIP3    H245893   1.496   4.295   6.269
15318TIP3   OH245894   0.602   5.577   3.221
15318TIP3    H145895   0.576   5.500   3.171
15318TIP3    H245896   0.608   5.647   3.156
15319TIP3   OH245897   4.261   6.091   0.643
15319TIP3    H145898   4.343   6.066   0.687
15319TIP3    H245899   4.287   6.160   0.582
15320TIP3   OH245900   0.437   5.333   1.502
15320TIP3    H145901   0.388   5.388   1.564
15320TIP3    H245902   0.433   5.245   1.540
15321TIP3   OH245903   7.679   2.796   0.549
15321TIP3    H145904   7.757   2.848   0.569
15321TIP3    H245905   7.711   2.707   0.537
15322TIP3   OH245906   5.446   6.400   6.620
15322TIP3    H145907   5.410   6.364   6.539
15322TIP3    H245908   5.393   6.477   6.637
15323TIP3   OH245909   6.189   3.567   5.493
15323TIP3    H145910   6.197   3.482   5.450
15323TIP3    H245911   6.279   3.594   5.511
15324TIP3   OH245912   1.240   2.933   6.732
15324TIP3    H145913   1.295   2.901   6.802
15324TIP3    H245914   1.165   2.973   6.776
15325TIP3   OH245915   4.517   5.948   0.305
15325TIP3    H145916   4.598   5.952   0.356
15325TIP3    H245917   4.544   5.916   0.219
15326TIP3   OH245918   2.931   5.620   5.300
15326TIP3    H145919   2.933   5.669   5.382
15326TIP3    H245920   2.868   5.666   5.245
15327TIP3   OH245921   7.547   4.058   5.760
15327TIP3    H145922   7.612   4.125   5.744
15327TIP3    H245923   7.467   4.106   5.783
15328TIP3   OH245924   0.124   7.505   6.276
15328TIP3    H145925   0.092   7.550   6.198
15328TIP3    H245926   0.137   7.415   6.248
15329TIP3   OH245927   1.741   4.692   3.208
15329TIP3    H145928   1.761   4.730   3.122
15329TIP3    H245929   1.684   4.617   3.188
15330TIP3   OH245930   7.273   2.035   3.782
15330TIP3    H145931   7.197   2.017   3.727
15330TIP3    H245932   7.276   1.963   3.845
15331TIP3   OH245933   7.678   4.282   2.283
15331TIP3    H145934   7.646   4.356   2.231
15331TIP3    H245935   7.653   4.304   2.373
15332TIP3   OH245936   5.227   7.329   1.932
15332TIP3    H145937   5.251   7.319   2.025
15332TIP3    H245938   5.146   7.279   1.923
15333TIP3   OH245939   4.135   4.539   4.260
15333TIP3    H145940   4.106   4.448   4.266
15333TIP3    H245941   4.209   4.544   4.320
15334TIP3   OH245942   4.506   6.843   2.861
15334TIP3    H145943   4.429   6.862   2.915
15334TIP3    H245944   4.533   6.929   2.828
15335TIP3   OH245945   2.428   5.184   1.823
15335TIP3    H145946   2.342   5.220   1.804
15335TIP3    H245947   2.467   5.167   1.737
15336TIP3   OH245948   8.301   1.152   0.946
15336TIP3    H145949   8.371   1.165   1.009
15336TIP3    H245950   8.236   1.219   0.967
15337TIP3   OH245951   4.095   0.450   6.565
15337TIP3    H145952   4.107   0.545   6.554
15337TIP3    H245953   4.181   0.418   6.591
15338TIP3   OH245954   1.239   2.920   6.122
15338TIP3    H145955   1.226   2.948   6.031
15338TIP3    H245956   1.173   2.853   6.136
15339TIP3   OH245957   3.676   6.681   1.083
15339TIP3    H145958   3.659   6.708   1.174
15339TIP3    H245959   3.702   6.762   1.039
15340TIP3   OH245960   1.643   7.439   1.576
15340TIP3    H145961   1.604   7.521   1.547
15340TIP3    H245962   1.688   7.404   1.499
15341TIP3   OH245963   5.216   7.167   4.659
15341TIP3    H145964   5.284   7.234   4.669
15341TIP3    H245965   5.133   7.216   4.661
15342TIP3   OH245966   2.878   4.574   4.454
15342TIP3    H145967   2.826   4.654   4.467
15342TIP3    H245968   2.833   4.507   4.505
15343TIP3   OH245969   5.513   0.668   3.429
15343TIP3    H145970   5.446   0.679   3.497
15343TIP3    H245971   5.594   0.655   3.477
15344TIP3   OH245972   6.879   3.429   3.182
15344TIP3    H145973   6.827   3.434   3.102
15344TIP3    H245974   6.822   3.384   3.245
15345TIP3   OH245975   5.293   5.260   3.736
15345TIP3    H145976   5.198   5.263   3.751
15345TIP3    H245977   5.310   5.168   3.716
15346TIP3   OH245978   1.503   0.686   3.219
15346TIP3    H145979   1.521   0.593   3.205
15346TIP3    H245980   1.557   0.710   3.293
15347TIP3   OH245981   6.301   3.711   4.077
15347TIP3    H145982   6.354   3.744   4.149
15347TIP3    H245983   6.261   3.788   4.038
15348TIP3   OH245984   0.878   5.794   5.309
15348TIP3    H145985   0.905   5.753   5.391
15348TIP3    H245986   0.809   5.737   5.275
15349TIP3   OH245987   3.910   6.926   6.155
15349TIP3    H145988   3.951   7.011   6.167
15349TIP3    H245989   3.834   6.927   6.213
15350TIP3   OH245990   3.584   4.258   6.751
15350TIP3    H145991   3.587   4.163   6.763
15350TIP3    H245992   3.676   4.285   6.757
15351TIP3   OH245993   2.404   7.576   5.202
15351TIP3    H145994   2.329   7.558   5.259
15351TIP3    H245995   2.382   7.534   5.119
15352TIP3   OH245996   0.918   4.677   0.784
15352TIP3    H145997   0.977   4.660   0.857
15352TIP3    H245998   0.959   4.751   0.738
15353TIP3   OH245999   6.901   4.299   6.323
15353TIP3    H146000   6.973   4.318   6.383
15353TIP3    H246001   6.925   4.344   6.242
15354TIP3   OH246002   6.590   4.917   3.845
15354TIP3    H146003   6.612   4.998   3.799
15354TIP3    H246004   6.672   4.890   3.887
15355TIP3   OH246005   6.042   5.455   2.386
15355TIP3    H146006   6.089   5.374   2.368
15355TIP3    H246007   6.081   5.489   2.466
15356TIP3   OH246008   6.341   6.990   0.413
15356TIP3    H146009   6.270   6.995   0.478
15356TIP3    H246010   6.403   6.928   0.451
15357TIP3   OH246011   7.132   7.759   4.128
15357TIP3    H146012   7.146   7.715   4.044
15357TIP3    H246013   7.180   7.841   4.120
15358TIP3   OH246014   6.548   3.346   2.538
15358TIP3    H146015   6.472   3.398   2.567
15358TIP3    H246016   6.600   3.408   2.486
15359TIP3   OH246017   5.406   1.108   6.837
15359TIP3    H146018   5.485   1.057   6.854
15359TIP3    H246019   5.436   1.198   6.830
15360TIP3   OH246020   5.576   6.302   1.635
15360TIP3    H146021   5.506   6.367   1.628
15360TIP3    H246022   5.553   6.251   1.712
15361TIP3   OH246023   4.725   6.964   3.406
15361TIP3    H146024   4.658   6.918   3.456
15361TIP3    H246025   4.765   6.897   3.351
15362TIP3   OH246026   0.510   2.796   2.194
15362TIP3    H146027   0.465   2.805   2.109
15362TIP3    H246028   0.559   2.878   2.203
15363TIP3   OH246029   1.643   6.607   0.375
15363TIP3    H146030   1.658   6.561   0.292
15363TIP3    H246031   1.555   6.643   0.367
15364TIP3   OH246032   0.364   1.086   2.757
15364TIP3    H146033   0.354   1.147   2.831
15364TIP3    H246034   0.405   1.009   2.796
15365TIP3   OH246035   5.717   6.477   5.182
15365TIP3    H146036   5.741   6.467   5.274
15365TIP3    H246037   5.625   6.449   5.178
15366TIP3   OH246038   4.043   0.911   1.997
15366TIP3    H146039   4.086   0.995   1.978
15366TIP3    H246040   3.995   0.891   1.917
15367TIP3   OH246041   7.330   5.947   4.870
15367TIP3    H146042   7.235   5.935   4.872
15367TIP3    H246043   7.360   5.892   4.798
15368TIP3   OH246044   7.615   1.724   3.652
15368TIP3    H146045   7.638   1.684   3.736
15368TIP3    H246046   7.605   1.817   3.672
15369TIP3   OH246047   5.821   5.128   2.469
15369TIP3    H146048   5.781   5.113   2.383
15369TIP3    H246049   5.825   5.224   2.477
15370TIP3   OH246050   6.320   3.538   3.588
15370TIP3    H146051   6.294   3.584   3.668
15370TIP3    H246052   6.412   3.559   3.577
15371TIP3   OH246053   1.248   4.957   5.810
15371TIP3    H146054   1.252   4.864   5.788
15371TIP3    H246055   1.155   4.973   5.827
15372TIP3   OH246056   7.863   0.428   3.549
15372TIP3    H146057   7.930   0.494   3.534
15372TIP3    H246058   7.869   0.370   3.473
15373TIP3   OH246059   7.248   0.367   1.240
15373TIP3    H146060   7.285   0.454   1.226
15373TIP3    H246061   7.229   0.363   1.334
15374TIP3   OH246062   8.015   1.303   0.815
15374TIP3    H146063   7.929   1.286   0.776
15374TIP3    H246064   8.075   1.246   0.767
15375TIP3   OH246065   2.911   0.618   0.691
15375TIP3    H146066   2.876   0.598   0.778
15375TIP3    H246067   2.961   0.698   0.703
15376TIP3   OH246068   6.792   1.606   1.675
15376TIP3    H146069   6.870   1.610   1.620
15376TIP3    H246070   6.741   1.532   1.642
15377TIP3   OH246071   7.223   5.239   3.192
15377TIP3    H146072   7.214   5.250   3.287
15377TIP3    H246073   7.148   5.285   3.155
15378TIP3   OH246074   7.392   4.505   4.247
15378TIP3    H146075   7.460   4.560   4.207
15378TIP3    H246076   7.321   4.506   4.184
15379TIP3   OH246077   5.060   1.538   1.659
15379TIP3    H146078   5.040   1.495   1.576
15379TIP3    H246079   4.977   1.574   1.688
15380TIP3   OH246080   2.496   4.440   5.758
15380TIP3    H146081   2.557   4.513   5.748
15380TIP3    H246082   2.551   4.362   5.751
15381TIP3   OH246083   4.759   5.798   5.181
15381TIP3    H146084   4.820   5.801   5.108
15381TIP3    H246085   4.700   5.725   5.162
15382TIP3   OH246086   2.183   7.214   2.545
15382TIP3    H146087   2.169   7.307   2.562
15382TIP3    H246088   2.188   7.173   2.631
15383TIP3   OH246089   3.595   6.600   6.196
15383TIP3    H146090   3.686   6.624   6.212
15383TIP3    H246091   3.573   6.642   6.113
15384TIP3   OH246092   1.664   5.818   5.845
15384TIP3    H146093   1.614   5.742   5.876
15384TIP3    H246094   1.651   5.884   5.912
15385TIP3   OH246095   8.177   6.907   3.891
15385TIP3    H146096   8.222   6.963   3.954
15385TIP3    H246097   8.213   6.820   3.907
15386TIP3   OH246098   6.666   6.631   1.971
15386TIP3    H146099   6.580   6.659   2.001
15386TIP3    H246100   6.679   6.679   1.888
   8.39077   7.91090   6.85104   0.00000   0.00000  -2.79693   0.00000  -2.79693  -3.95545
