Title t= 233.00000 step= 116500
19942
    1ASP      N    1   2.076   2.464   2.584
    1ASP    HT1    2   2.069   2.387   2.515
    1ASP    HT2    3   2.144   2.423   2.650
    1ASP    HT3    4   2.126   2.548   2.547
    1ASP     CA    5   1.946   2.499   2.659
    1ASP     HA    6   1.978   2.554   2.746
    1ASP     CB    7   1.863   2.579   2.556
    1ASP    HB1    8   1.828   2.516   2.472
    1ASP    HB2    9   1.912   2.671   2.516
    1ASP     CG   10   1.736   2.640   2.620
    1ASP    OD1   11   1.642   2.684   2.545
    1ASP    OD2   12   1.738   2.648   2.745
    1ASP      C   13   1.864   2.376   2.709
    1ASP      O   14   1.886   2.266   2.656
    2ALA      N   15   1.780   2.384   2.811
    2ALA     HN   16   1.773   2.472   2.857
    2ALA     CA   17   1.693   2.273   2.851
    2ALA     HA   18   1.755   2.185   2.860
    2ALA     CB   19   1.628   2.333   2.978
    2ALA    HB1   20   1.555   2.263   3.022
    2ALA    HB2   21   1.575   2.428   2.953
    2ALA    HB3   22   1.706   2.360   3.053
    2ALA      C   23   1.585   2.238   2.742
    2ALA      O   24   1.513   2.318   2.681
    3ASP      N   25   1.569   2.107   2.722
    3ASP     HN   26   1.621   2.049   2.784
    3ASP     CA   27   1.469   2.034   2.642
    3ASP     HA   28   1.449   2.098   2.557
    3ASP     CB   29   1.530   1.904   2.572
    3ASP    HB1   30   1.444   1.844   2.536
    3ASP    HB2   31   1.553   1.847   2.665
    3ASP     CG   32   1.637   1.926   2.469
    3ASP    OD1   33   1.696   1.826   2.435
    3ASP    OD2   34   1.655   2.043   2.417
    3ASP      C   35   1.344   1.994   2.714
    3ASP      O   36   1.354   1.952   2.831
    4GLY      N   37   1.229   1.998   2.646
    4GLY     HN   38   1.235   2.014   2.548
    4GLY     CA   39   1.098   1.969   2.692
    4GLY    HA1   40   1.034   1.979   2.606
    4GLY    HA2   41   1.071   2.032   2.775
    4GLY      C   42   1.064   1.823   2.726
    4GLY      O   43   1.156   1.739   2.721
    5PRO      N   44   0.934   1.788   2.752
    5PRO     CD   45   0.822   1.882   2.742
    5PRO    HD1   46   0.778   1.895   2.641
    5PRO    HD2   47   0.850   1.984   2.777
    5PRO     CA   48   0.888   1.650   2.772
    5PRO     HA   49   0.938   1.617   2.861
    5PRO     CB   50   0.742   1.662   2.794
    5PRO    HB1   51   0.704   1.593   2.872
    5PRO    HB2   52   0.693   1.650   2.695
    5PRO     CG   53   0.713   1.807   2.831
    5PRO    HG1   54   0.609   1.843   2.819
    5PRO    HG2   55   0.735   1.827   2.938
    5PRO      C   56   0.924   1.540   2.681
    5PRO      O   57   0.922   1.561   2.563
    6GLY      N   58   0.975   1.421   2.724
    6GLY     HN   59   0.992   1.403   2.821
    6GLY     CA   60   0.975   1.302   2.643
    6GLY    HA1   61   1.027   1.229   2.703
    6GLY    HA2   62   1.031   1.319   2.552
    6GLY      C   63   0.845   1.242   2.611
    6GLY      O   64   0.744   1.311   2.593
    7ASP      N   65   0.845   1.107   2.603
    7ASP     HN   66   0.934   1.063   2.609
    7ASP     CA   67   0.733   1.013   2.592
    7ASP     HA   68   0.638   1.064   2.590
    7ASP     CB   69   0.739   0.947   2.448
    7ASP    HB1   70   0.818   0.871   2.433
    7ASP    HB2   71   0.762   1.024   2.371
    7ASP     CG   72   0.603   0.896   2.399
    7ASP    OD1   73   0.598   0.806   2.311
    7ASP    OD2   74   0.512   0.964   2.436
    7ASP      C   75   0.744   0.905   2.694
    7ASP      O   76   0.858   0.869   2.731
    8PRO      N   77   0.643   0.846   2.755
    8PRO     CD   78   0.508   0.895   2.756
    8PRO    HD1   79   0.450   0.836   2.682
    8PRO    HD2   80   0.508   1.004   2.732
    8PRO     CA   81   0.667   0.761   2.867
    8PRO     HA   82   0.733   0.813   2.935
    8PRO     CB   83   0.530   0.744   2.929
    8PRO    HB1   84   0.534   0.713   3.036
    8PRO    HB2   85   0.467   0.666   2.881
    8PRO     CG   86   0.460   0.877   2.902
    8PRO    HG1   87   0.350   0.863   2.901
    8PRO    HG2   88   0.498   0.960   2.966
    8PRO      C   89   0.727   0.626   2.836
    8PRO      O   90   0.814   0.583   2.915
    9ASP      N   91   0.679   0.557   2.729
    9ASP     HN   92   0.607   0.600   2.676
    9ASP     CA   93   0.717   0.421   2.703
    9ASP     HA   94   0.781   0.385   2.783
    9ASP     CB   95   0.586   0.338   2.697
    9ASP    HB1   96   0.618   0.248   2.642
    9ASP    HB2   97   0.512   0.398   2.638
    9ASP     CG   98   0.532   0.298   2.830
    9ASP    OD1   99   0.411   0.262   2.843
    9ASP    OD2  100   0.611   0.275   2.924
    9ASP      C  101   0.804   0.406   2.579
    9ASP      O  102   0.833   0.292   2.540
   10ALA      N  103   0.855   0.514   2.514
   10ALA     HN  104   0.831   0.604   2.550
   10ALA     CA  105   0.945   0.506   2.404
   10ALA     HA  106   0.907   0.435   2.332
   10ALA     CB  107   0.946   0.644   2.335
   10ALA    HB1  108   0.844   0.687   2.335
   10ALA    HB2  109   0.975   0.630   2.229
   10ALA    HB3  110   1.023   0.711   2.380
   10ALA      C  111   1.087   0.451   2.439
   10ALA      O  112   1.137   0.470   2.549
   11GLY      N  113   1.148   0.380   2.339
   11GLY     HN  114   1.105   0.384   2.249
   11GLY     CA  115   1.288   0.329   2.349
   11GLY    HA1  116   1.356   0.398   2.397
   11GLY    HA2  117   1.322   0.307   2.249
   11GLY      C  118   1.287   0.208   2.429
   11GLY    OT1  119   1.213   0.109   2.402
   11GLY    OT2  120   1.365   0.205   2.530
   12LIT    LIT  121   3.563   5.300   2.002
   13LIT    LIT  122   1.500   3.301   2.370
   14LIT    LIT  123   6.298   3.466   2.514
   15LIT    LIT  124   0.294   2.078   2.359
   16LIT    LIT  125   5.324   5.608   4.417
   17LIT    LIT  126   3.954   4.472   4.363
   18LIT    LIT  127   4.576   3.258   0.352
   19LIT    LIT  128   4.468   5.721   2.293
   20LIT    LIT  129   3.527   1.629   4.241
   21LIT    LIT  130   3.774   0.181   1.444
   22LIT    LIT  131   5.883   3.952   1.381
   23LIT    LIT  132   2.942   3.425   1.951
   24LIT    LIT  133   4.705   2.634   3.018
   25LIT    LIT  134   4.605   1.714   5.056
   26LIT    LIT  135   2.428   0.311   3.388
   27LIT    LIT  136   0.668   0.543   3.808
   28LIT    LIT  137   0.993   1.817   3.923
   29LIT    LIT  138   2.898   4.649   0.470
   30LIT    LIT  139   2.201   4.086   2.363
   31LIT    LIT  140   6.046   0.204   0.047
   32LIT    LIT  141   0.380   0.055   1.508
   33LIT    LIT  142   3.957   0.497   0.492
   34CLA    CLA  143   2.821   3.436   2.467
   35CLA    CLA  144   2.300   1.818   4.917
   36CLA    CLA  145   5.699   3.781   2.338
   37CLA    CLA  146   5.367   4.897   2.395
   38CLA    CLA  147   4.380   5.543   1.099
   39CLA    CLA  148   4.490   4.533   3.764
   40CLA    CLA  149   0.419   3.446   2.708
   41CLA    CLA  150   1.432   3.573   0.601
   42CLA    CLA  151   5.318   3.788   0.188
   43CLA    CLA  152   5.739   0.244   5.184
   44CLA    CLA  153   4.888   1.531   4.716
   45CLA    CLA  154   0.231   5.426   0.769
   46CLA    CLA  155   4.370   3.284   0.242
   47CLA    CLA  156   2.263   0.169   3.330
   48CLA    CLA  157   2.031   4.593   3.821
   49CLA    CLA  158   1.442   1.951   3.846
   50CLA    CLA  159   1.754   2.688   0.926
   51CLA    CLA  160   4.089   0.278   1.799
   52TIP3   OH2  161   1.180   4.522   5.002
   52TIP3    H1  162   1.188   4.615   5.023
   52TIP3    H2  163   1.266   4.486   5.020
   53TIP3   OH2  164   4.042   2.199   0.346
   53TIP3    H1  165   4.097   2.273   0.320
   53TIP3    H2  166   3.971   2.198   0.282
   54TIP3   OH2  167   1.836   1.532   4.550
   54TIP3    H1  168   1.921   1.532   4.507
   54TIP3    H2  169   1.852   1.573   4.635
   55TIP3   OH2  170   4.846   1.834   2.347
   55TIP3    H1  171   4.873   1.850   2.257
   55TIP3    H2  172   4.755   1.863   2.351
   56TIP3   OH2  173   3.325   5.364   1.690
   56TIP3    H1  174   3.390   5.394   1.753
   56TIP3    H2  175   3.246   5.350   1.743
   57TIP3   OH2  176   2.220   2.433   1.491
   57TIP3    H1  177   2.266   2.501   1.442
   57TIP3    H2  178   2.127   2.451   1.477
   58TIP3   OH2  179   1.431   4.756   2.654
   58TIP3    H1  180   1.364   4.779   2.718
   58TIP3    H2  181   1.496   4.826   2.661
   59TIP3   OH2  182   1.686   0.380   4.811
   59TIP3    H1  183   1.658   0.300   4.767
   59TIP3    H2  184   1.605   0.419   4.845
   60TIP3   OH2  185   3.324   4.151   1.964
   60TIP3    H1  186   3.267   4.165   2.040
   60TIP3    H2  187   3.265   4.150   1.890
   61TIP3   OH2  188   5.230   3.100   1.288
   61TIP3    H1  189   5.305   3.041   1.278
   61TIP3    H2  190   5.236   3.158   1.212
   62TIP3   OH2  191   0.229   3.048   3.842
   62TIP3    H1  192   0.235   3.066   3.935
   62TIP3    H2  193   0.309   3.087   3.805
   63TIP3   OH2  194   1.982   4.419   4.074
   63TIP3    H1  195   1.992   4.480   4.147
   63TIP3    H2  196   2.001   4.471   3.996
   64TIP3   OH2  197   0.331   2.551   0.867
   64TIP3    H1  198   0.298   2.626   0.916
   64TIP3    H2  199   0.409   2.523   0.915
   65TIP3   OH2  200   4.103   1.411   4.034
   65TIP3    H1  201   4.076   1.473   4.101
   65TIP3    H2  202   4.024   1.395   3.982
   66TIP3   OH2  203   5.725   2.690   0.886
   66TIP3    H1  204   5.754   2.772   0.925
   66TIP3    H2  205   5.797   2.663   0.829
   67TIP3   OH2  206   2.263   0.571   0.846
   67TIP3    H1  207   2.288   0.556   0.755
   67TIP3    H2  208   2.167   0.570   0.845
   68TIP3   OH2  209   1.663   1.045   3.980
   68TIP3    H1  210   1.722   1.066   4.053
   68TIP3    H2  211   1.643   0.952   3.992
   69TIP3   OH2  212   2.204   5.203   0.655
   69TIP3    H1  213   2.251   5.234   0.733
   69TIP3    H2  214   2.257   5.232   0.582
   70TIP3   OH2  215   0.152   1.487   1.783
   70TIP3    H1  216   0.161   1.483   1.878
   70TIP3    H2  217   0.163   1.580   1.761
   71TIP3   OH2  218   3.035   1.546   4.782
   71TIP3    H1  219   3.066   1.634   4.803
   71TIP3    H2  220   2.943   1.558   4.757
   72TIP3   OH2  221   4.233   2.848   0.489
   72TIP3    H1  222   4.301   2.802   0.538
   72TIP3    H2  223   4.205   2.919   0.548
   73TIP3   OH2  224   3.933   5.355   1.863
   73TIP3    H1  225   3.886   5.428   1.823
   73TIP3    H2  226   3.915   5.281   1.806
   74TIP3   OH2  227   2.471   1.293   1.850
   74TIP3    H1  228   2.487   1.268   1.941
   74TIP3    H2  229   2.435   1.382   1.855
   75TIP3   OH2  230   0.855   0.997   1.954
   75TIP3    H1  231   0.838   1.063   2.021
   75TIP3    H2  232   0.832   0.914   1.995
   76TIP3   OH2  233   0.127   5.482   2.882
   76TIP3    H1  234   0.048   5.531   2.859
   76TIP3    H2  235   0.195   5.517   2.825
   77TIP3   OH2  236   3.492   3.085   1.921
   77TIP3    H1  237   3.511   2.997   1.955
   77TIP3    H2  238   3.532   3.144   1.985
   78TIP3   OH2  239   0.105   5.554   0.493
   78TIP3    H1  240   0.131   5.549   0.585
   78TIP3    H2  241   0.014   5.581   0.495
   79TIP3   OH2  242   2.787   4.720   2.619
   79TIP3    H1  243   2.736   4.752   2.694
   79TIP3    H2  244   2.876   4.751   2.634
   80TIP3   OH2  245   1.034   1.698   4.783
   80TIP3    H1  246   1.063   1.607   4.787
   80TIP3    H2  247   0.977   1.708   4.859
   81TIP3   OH2  248   1.048   5.842   0.641
   81TIP3    H1  249   0.953   5.848   0.628
   81TIP3    H2  250   1.079   5.932   0.633
   82TIP3   OH2  251   4.691   0.128   1.681
   82TIP3    H1  252   4.729   0.059   1.628
   82TIP3    H2  253   4.601   0.098   1.698
   83TIP3   OH2  254   4.685   0.378   4.196
   83TIP3    H1  255   4.711   0.445   4.260
   83TIP3    H2  256   4.677   0.426   4.113
   84TIP3   OH2  257   2.217   2.243   3.605
   84TIP3    H1  258   2.220   2.209   3.694
   84TIP3    H2  259   2.131   2.216   3.572
   85TIP3   OH2  260   0.918   5.471   1.713
   85TIP3    H1  261   0.826   5.491   1.694
   85TIP3    H2  262   0.966   5.548   1.680
   86TIP3   OH2  263   4.940   2.669   1.085
   86TIP3    H1  264   5.029   2.639   1.066
   86TIP3    H2  265   4.951   2.753   1.129
   87TIP3   OH2  266   2.432   3.103   2.948
   87TIP3    H1  267   2.393   3.048   2.880
   87TIP3    H2  268   2.360   3.158   2.978
   88TIP3   OH2  269   2.688   0.373   3.720
   88TIP3    H1  270   2.665   0.369   3.813
   88TIP3    H2  271   2.765   0.316   3.712
   89TIP3   OH2  272   5.898   5.346   0.978
   89TIP3    H1  273   5.918   5.302   1.061
   89TIP3    H2  274   5.935   5.434   0.987
   90TIP3   OH2  275   1.575   0.508   4.508
   90TIP3    H1  276   1.632   0.541   4.577
   90TIP3    H2  277   1.589   0.568   4.434
   91TIP3   OH2  278   6.013   3.519   0.806
   91TIP3    H1  279   6.062   3.483   0.880
   91TIP3    H2  280   5.922   3.495   0.825
   92TIP3   OH2  281   3.975   4.394   2.098
   92TIP3    H1  282   3.958   4.386   2.191
   92TIP3    H2  283   4.064   4.427   2.092
   93TIP3   OH2  284   6.098   1.627   0.593
   93TIP3    H1  285   6.124   1.583   0.512
   93TIP3    H2  286   6.069   1.556   0.651
   94TIP3   OH2  287   4.021   4.829   2.820
   94TIP3    H1  288   3.939   4.789   2.849
   94TIP3    H2  289   4.090   4.776   2.861
   95TIP3   OH2  290   4.788   0.951   3.633
   95TIP3    H1  291   4.703   0.921   3.599
   95TIP3    H2  292   4.817   0.880   3.690
   96TIP3   OH2  293   0.347   0.410   0.755
   96TIP3    H1  294   0.419   0.437   0.698
   96TIP3    H2  295   0.362   0.317   0.770
   97TIP3   OH2  296   0.376  -0.027   4.766
   97TIP3    H1  297   0.414   0.024   4.838
   97TIP3    H2  298   0.281  -0.015   4.777
   98TIP3   OH2  299   0.073   4.729   4.687
   98TIP3    H1  300   0.064   4.691   4.774
   98TIP3    H2  301  -0.004   4.786   4.678
   99TIP3   OH2  302   5.282   3.968   1.035
   99TIP3    H1  303   5.370   3.983   0.998
   99TIP3    H2  304   5.285   3.879   1.069
  100TIP3   OH2  305   3.297   1.813   4.000
  100TIP3    H1  306   3.290   1.726   3.961
  100TIP3    H2  307   3.273   1.873   3.929
  101TIP3   OH2  308   4.223   1.087   1.809
  101TIP3    H1  309   4.171   1.148   1.862
  101TIP3    H2  310   4.256   1.023   1.871
  102TIP3   OH2  311   5.657   4.664   0.600
  102TIP3    H1  312   5.567   4.662   0.634
  102TIP3    H2  313   5.664   4.586   0.546
  103TIP3   OH2  314   3.936   5.279   1.252
  103TIP3    H1  315   4.026   5.287   1.219
  103TIP3    H2  316   3.889   5.235   1.181
  104TIP3   OH2  317   0.711   5.396   2.020
  104TIP3    H1  318   0.804   5.390   1.997
  104TIP3    H2  319   0.678   5.468   1.966
  105TIP3   OH2  320   1.920   4.934   2.246
  105TIP3    H1  321   1.841   4.904   2.200
  105TIP3    H2  322   1.966   4.987   2.182
  106TIP3   OH2  323   0.083   4.429   2.590
  106TIP3    H1  324   0.036   4.511   2.579
  106TIP3    H2  325   0.036   4.366   2.536
  107TIP3   OH2  326   3.698   4.136   3.925
  107TIP3    H1  327   3.630   4.202   3.916
  107TIP3    H2  328   3.658   4.066   3.977
  108TIP3   OH2  329   5.886   0.069   3.208
  108TIP3    H1  330   5.801   0.086   3.249
  108TIP3    H2  331   5.936   0.022   3.275
  109TIP3   OH2  332   1.971   3.156   3.040
  109TIP3    H1  333   1.892   3.108   3.015
  109TIP3    H2  334   1.974   3.230   2.979
  110TIP3   OH2  335   3.277   0.112   0.661
  110TIP3    H1  336   3.372   0.098   0.662
  110TIP3    H2  337   3.259   0.154   0.577
  111TIP3   OH2  338   1.947   1.733   0.106
  111TIP3    H1  339   1.958   1.641   0.084
  111TIP3    H2  340   1.853   1.748   0.099
  112TIP3   OH2  341   5.469   5.685   3.287
  112TIP3    H1  342   5.448   5.639   3.205
  112TIP3    H2  343   5.421   5.768   3.280
  113TIP3   OH2  344   2.815   5.578   3.551
  113TIP3    H1  345   2.894   5.532   3.579
  113TIP3    H2  346   2.779   5.524   3.481
  114TIP3   OH2  347   3.358   5.812   0.431
  114TIP3    H1  348   3.278   5.820   0.483
  114TIP3    H2  349   3.328   5.801   0.341
  115TIP3   OH2  350   5.562   4.866   1.505
  115TIP3    H1  351   5.470   4.868   1.531
  115TIP3    H2  352   5.610   4.891   1.583
  116TIP3   OH2  353   4.359   2.483   3.044
  116TIP3    H1  354   4.404   2.531   3.113
  116TIP3    H2  355   4.266   2.495   3.064
  117TIP3   OH2  356   6.022   1.561   4.794
  117TIP3    H1  357   6.097   1.547   4.852
  117TIP3    H2  358   6.010   1.477   4.750
  118TIP3   OH2  359   4.224   5.542   1.660
  118TIP3    H1  360   4.226   5.531   1.565
  118TIP3    H2  361   4.166   5.616   1.675
  119TIP3   OH2  362   5.823   3.242   1.926
  119TIP3    H1  363   5.880   3.185   1.977
  119TIP3    H2  364   5.863   3.329   1.934
  120TIP3   OH2  365   4.683   4.790   4.202
  120TIP3    H1  366   4.775   4.811   4.220
  120TIP3    H2  367   4.663   4.838   4.121
  121TIP3   OH2  368   6.057   0.414   0.382
  121TIP3    H1  369   6.081   0.496   0.425
  121TIP3    H2  370   6.103   0.347   0.431
  122TIP3   OH2  371   6.096   2.864   0.789
  122TIP3    H1  372   6.059   2.805   0.724
  122TIP3    H2  373   6.158   2.918   0.740
  123TIP3   OH2  374   2.365   5.559   3.485
  123TIP3    H1  375   2.408   5.591   3.406
  123TIP3    H2  376   2.432   5.566   3.554
  124TIP3   OH2  377   3.737   2.885   3.116
  124TIP3    H1  378   3.729   2.810   3.057
  124TIP3    H2  379   3.747   2.845   3.203
  125TIP3   OH2  380   1.390   1.778   0.775
  125TIP3    H1  381   1.442   1.709   0.733
  125TIP3    H2  382   1.381   1.748   0.866
  126TIP3   OH2  383   3.868   3.834   3.766
  126TIP3    H1  384   3.939   3.897   3.782
  126TIP3    H2  385   3.909   3.748   3.779
  127TIP3   OH2  386   2.101   3.263   2.715
  127TIP3    H1  387   2.100   3.168   2.713
  127TIP3    H2  388   2.152   3.289   2.638
  128TIP3   OH2  389   5.342   2.288   1.382
  128TIP3    H1  390   5.253   2.317   1.400
  128TIP3    H2  391   5.398   2.352   1.426
  129TIP3   OH2  392   3.888   2.989   4.107
  129TIP3    H1  393   3.828   3.011   4.178
  129TIP3    H2  394   3.914   3.074   4.070
  130TIP3   OH2  395   4.336   0.109   1.874
  130TIP3    H1  396   4.387   0.186   1.900
  130TIP3    H2  397   4.247   0.142   1.860
  131TIP3   OH2  398   1.987   2.342   0.343
  131TIP3    H1  399   1.975   2.296   0.259
  131TIP3    H2  400   2.066   2.303   0.380
  132TIP3   OH2  401   3.892   1.915   0.965
  132TIP3    H1  402   3.848   1.848   0.913
  132TIP3    H2  403   3.940   1.967   0.901
  133TIP3   OH2  404   5.408   4.976   5.143
  133TIP3    H1  405   5.471   4.995   5.073
  133TIP3    H2  406   5.425   4.884   5.165
  134TIP3   OH2  407   4.295   0.179   3.805
  134TIP3    H1  408   4.382   0.160   3.839
  134TIP3    H2  409   4.282   0.272   3.824
  135TIP3   OH2  410   4.137   2.390   3.766
  135TIP3    H1  411   4.065   2.438   3.725
  135TIP3    H2  412   4.166   2.446   3.838
  136TIP3   OH2  413   4.056   1.566   4.718
  136TIP3    H1  414   4.026   1.587   4.807
  136TIP3    H2  415   4.151   1.572   4.722
  137TIP3   OH2  416   3.058   1.468   3.670
  137TIP3    H1  417   3.111   1.458   3.591
  137TIP3    H2  418   2.995   1.396   3.665
  138TIP3   OH2  419   2.272   5.770   3.012
  138TIP3    H1  420   2.180   5.790   2.996
  138TIP3    H2  421   2.302   5.726   2.933
  139TIP3   OH2  422   0.932   0.952   4.478
  139TIP3    H1  423   0.921   0.861   4.503
  139TIP3    H2  424   0.980   0.949   4.395
  140TIP3   OH2  425   0.539   2.508   2.375
  140TIP3    H1  426   0.473   2.559   2.328
  140TIP3    H2  427   0.556   2.433   2.318
  141TIP3   OH2  428   3.456   4.786   1.642
  141TIP3    H1  429   3.440   4.875   1.672
  141TIP3    H2  430   3.545   4.787   1.607
  142TIP3   OH2  431   4.823   3.008   1.939
  142TIP3    H1  432   4.867   2.976   1.860
  142TIP3    H2  433   4.775   2.933   1.972
  143TIP3   OH2  434   4.865   5.722   1.328
  143TIP3    H1  435   4.852   5.641   1.377
  143TIP3    H2  436   4.941   5.706   1.273
  144TIP3   OH2  437   0.369   0.255   2.415
  144TIP3    H1  438   0.376   0.196   2.490
  144TIP3    H2  439   0.283   0.296   2.424
  145TIP3   OH2  440   4.496   3.594   4.171
  145TIP3    H1  441   4.568   3.642   4.130
  145TIP3    H2  442   4.493   3.627   4.260
  146TIP3   OH2  443   4.191   3.532   1.060
  146TIP3    H1  444   4.212   3.439   1.055
  146TIP3    H2  445   4.202   3.553   1.153
  147TIP3   OH2  446   4.511   3.096   2.504
  147TIP3    H1  447   4.601   3.091   2.536
  147TIP3    H2  448   4.458   3.091   2.583
  148TIP3   OH2  449   1.034   1.238   1.344
  148TIP3    H1  450   0.946   1.202   1.338
  148TIP3    H2  451   1.023   1.332   1.326
  149TIP3   OH2  452   4.425   4.901   1.951
  149TIP3    H1  453   4.346   4.953   1.964
  149TIP3    H2  454   4.434   4.848   2.030
  150TIP3   OH2  455   1.875   3.951   5.025
  150TIP3    H1  456   1.850   3.921   4.938
  150TIP3    H2  457   1.812   3.909   5.084
  151TIP3   OH2  458   4.328   2.984   2.674
  151TIP3    H1  459   4.268   3.052   2.703
  151TIP3    H2  460   4.297   2.904   2.717
  152TIP3   OH2  461   3.420   4.117   2.896
  152TIP3    H1  462   3.370   4.137   2.817
  152TIP3    H2  463   3.425   4.201   2.942
  153TIP3   OH2  464   3.716   5.723   4.411
  153TIP3    H1  465   3.775   5.666   4.362
  153TIP3    H2  466   3.644   5.666   4.438
  154TIP3   OH2  467   0.237   3.910   3.019
  154TIP3    H1  468   0.148   3.920   3.051
  154TIP3    H2  469   0.250   3.984   2.959
  155TIP3   OH2  470   1.287   3.609   4.160
  155TIP3    H1  471   1.264   3.614   4.253
  155TIP3    H2  472   1.268   3.519   4.136
  156TIP3   OH2  473   4.345   1.401   3.920
  156TIP3    H1  474   4.263   1.435   3.956
  156TIP3    H2  475   4.341   1.425   3.827
  157TIP3   OH2  476   5.539   5.659   4.768
  157TIP3    H1  477   5.573   5.742   4.802
  157TIP3    H2  478   5.481   5.626   4.836
  158TIP3   OH2  479   2.387   0.401   1.359
  158TIP3    H1  480   2.395   0.489   1.395
  158TIP3    H2  481   2.318   0.360   1.412
  159TIP3   OH2  482   1.901   2.214   0.688
  159TIP3    H1  483   1.822   2.261   0.714
  159TIP3    H2  484   1.973   2.274   0.708
  160TIP3   OH2  485   4.553   1.611   4.602
  160TIP3    H1  486   4.586   1.522   4.614
  160TIP3    H2  487   4.625   1.667   4.631
  161TIP3   OH2  488   4.502   3.545   1.354
  161TIP3    H1  489   4.503   3.558   1.449
  161TIP3    H2  490   4.429   3.485   1.339
  162TIP3   OH2  491   0.998   5.726   2.086
  162TIP3    H1  492   0.957   5.740   2.171
  162TIP3    H2  493   0.980   5.634   2.066
  163TIP3   OH2  494   3.337   4.088   1.060
  163TIP3    H1  495   3.427   4.062   1.036
  163TIP3    H2  496   3.347   4.175   1.097
  164TIP3   OH2  497   5.206   0.067   3.163
  164TIP3    H1  498   5.136   0.126   3.135
  164TIP3    H2  499   5.164  -0.018   3.172
  165TIP3   OH2  500   4.049   0.819   4.340
  165TIP3    H1  501   4.135   0.860   4.334
  165TIP3    H2  502   4.007   0.838   4.256
  166TIP3   OH2  503   3.443   0.594   5.070
  166TIP3    H1  504   3.356   0.600   5.109
  166TIP3    H2  505   3.471   0.685   5.060
  167TIP3   OH2  506   5.166   0.903   0.270
  167TIP3    H1  507   5.148   0.917   0.363
  167TIP3    H2  508   5.182   0.991   0.235
  168TIP3   OH2  509   1.163   0.431   0.016
  168TIP3    H1  510   1.125   0.354  -0.027
  168TIP3    H2  511   1.090   0.468   0.067
  169TIP3   OH2  512   4.294   3.740   1.535
  169TIP3    H1  513   4.349   3.673   1.575
  169TIP3    H2  514   4.356   3.795   1.486
  170TIP3   OH2  515   4.324   0.018   4.223
  170TIP3    H1  516   4.356   0.054   4.306
  170TIP3    H2  517   4.253   0.076   4.198
  171TIP3   OH2  518   0.078   2.669   2.542
  171TIP3    H1  519   0.053   2.630   2.626
  171TIP3    H2  520   0.085   2.763   2.561
  172TIP3   OH2  521   0.977   5.496   1.149
  172TIP3    H1  522   0.922   5.484   1.071
  172TIP3    H2  523   0.977   5.410   1.191
  173TIP3   OH2  524   0.453   4.978   3.802
  173TIP3    H1  525   0.457   4.995   3.707
  173TIP3    H2  526   0.435   5.064   3.841
  174TIP3   OH2  527   2.936   5.303   4.013
  174TIP3    H1  528   2.997   5.315   3.941
  174TIP3    H2  529   2.940   5.209   4.032
  175TIP3   OH2  530   2.482   5.392   2.781
  175TIP3    H1  531   2.417   5.325   2.802
  175TIP3    H2  532   2.429   5.466   2.748
  176TIP3   OH2  533   0.040   5.907   0.600
  176TIP3    H1  534  -0.054   5.893   0.609
  176TIP3    H2  535   0.080   5.835   0.649
  177TIP3   OH2  536   6.004   0.218   3.772
  177TIP3    H1  537   6.073   0.197   3.835
  177TIP3    H2  538   5.923   0.187   3.814
  178TIP3   OH2  539   2.444   4.491   2.642
  178TIP3    H1  540   2.408   4.577   2.664
  178TIP3    H2  541   2.367   4.434   2.635
  179TIP3   OH2  542   3.996   0.509   1.149
  179TIP3    H1  543   4.078   0.464   1.128
  179TIP3    H2  544   4.020   0.570   1.220
  180TIP3   OH2  545   6.189   5.411   3.623
  180TIP3    H1  546   6.139   5.493   3.626
  180TIP3    H2  547   6.266   5.432   3.571
  181TIP3   OH2  548   5.716   5.166   1.996
  181TIP3    H1  549   5.711   5.103   2.068
  181TIP3    H2  550   5.646   5.228   2.013
  182TIP3   OH2  551   1.570   5.945   4.587
  182TIP3    H1  552   1.580   5.898   4.505
  182TIP3    H2  553   1.598   5.883   4.654
  183TIP3   OH2  554   4.345   1.592   2.727
  183TIP3    H1  555   4.307   1.504   2.735
  183TIP3    H2  556   4.285   1.648   2.777
  184TIP3   OH2  557   2.554   1.191   1.617
  184TIP3    H1  558   2.525   1.261   1.559
  184TIP3    H2  559   2.547   1.228   1.705
  185TIP3   OH2  560   1.954   0.700   3.010
  185TIP3    H1  561   1.891   0.638   3.047
  185TIP3    H2  562   1.917   0.722   2.924
  186TIP3   OH2  563   1.271   3.039   0.047
  186TIP3    H1  564   1.304   2.950   0.043
  186TIP3    H2  565   1.349   3.094   0.053
  187TIP3   OH2  566   3.927   1.137   1.059
  187TIP3    H1  567   3.941   1.208   0.997
  187TIP3    H2  568   3.833   1.124   1.059
  188TIP3   OH2  569   3.651   4.776   0.673
  188TIP3    H1  570   3.611   4.739   0.594
  188TIP3    H2  571   3.620   4.867   0.675
  189TIP3   OH2  572   3.234   0.820   0.174
  189TIP3    H1  573   3.204   0.770   0.250
  189TIP3    H2  574   3.261   0.904   0.210
  190TIP3   OH2  575   3.526   3.146   2.754
  190TIP3    H1  576   3.572   3.086   2.813
  190TIP3    H2  577   3.597   3.193   2.709
  191TIP3   OH2  578   5.122   0.731   0.074
  191TIP3    H1  579   5.183   0.775   0.015
  191TIP3    H2  580   5.109   0.793   0.146
  192TIP3   OH2  581   6.196   2.529   0.659
  192TIP3    H1  582   6.242   2.574   0.588
  192TIP3    H2  583   6.254   2.539   0.735
  193TIP3   OH2  584   5.115   4.890   1.910
  193TIP3    H1  585   5.049   4.925   1.969
  193TIP3    H2  586   5.074   4.891   1.824
  194TIP3   OH2  587   2.469   2.524   2.698
  194TIP3    H1  588   2.465   2.585   2.626
  194TIP3    H2  589   2.511   2.446   2.661
  195TIP3   OH2  590   3.452   1.267   2.604
  195TIP3    H1  591   3.384   1.199   2.614
  195TIP3    H2  592   3.406   1.349   2.620
  196TIP3   OH2  593   0.881   3.463   2.722
  196TIP3    H1  594   0.836   3.379   2.732
  196TIP3    H2  595   0.813   3.524   2.694
  197TIP3   OH2  596   5.758   2.067   0.578
  197TIP3    H1  597   5.680   2.115   0.551
  197TIP3    H2  598   5.736   2.032   0.664
  198TIP3   OH2  599   3.760   2.184   4.003
  198TIP3    H1  600   3.706   2.261   4.019
  198TIP3    H2  601   3.762   2.176   3.907
  199TIP3   OH2  602   2.426   0.795   0.838
  199TIP3    H1  603   2.427   0.874   0.892
  199TIP3    H2  604   2.352   0.745   0.871
  200TIP3   OH2  605   0.415   1.520   2.861
  200TIP3    H1  606   0.390   1.596   2.808
  200TIP3    H2  607   0.390   1.544   2.950
  201TIP3   OH2  608   5.058   5.300   4.855
  201TIP3    H1  609   5.140   5.337   4.886
  201TIP3    H2  610   4.995   5.372   4.860
  202TIP3   OH2  611   1.442   3.781   3.271
  202TIP3    H1  612   1.406   3.828   3.346
  202TIP3    H2  613   1.470   3.850   3.210
  203TIP3   OH2  614   0.773   3.725   4.590
  203TIP3    H1  615   0.847   3.738   4.530
  203TIP3    H2  616   0.809   3.668   4.659
  204TIP3   OH2  617   2.747   2.662   0.545
  204TIP3    H1  618   2.687   2.737   0.540
  204TIP3    H2  619   2.692   2.590   0.577
  205TIP3   OH2  620   0.160   4.744   0.791
  205TIP3    H1  621   0.139   4.685   0.863
  205TIP3    H2  622   0.178   4.828   0.833
  206TIP3   OH2  623   1.813   2.214   4.640
  206TIP3    H1  624   1.744   2.250   4.584
  206TIP3    H2  625   1.894   2.253   4.607
  207TIP3   OH2  626   0.294   3.939   4.686
  207TIP3    H1  627   0.245   4.010   4.645
  207TIP3    H2  628   0.375   3.980   4.715
  208TIP3   OH2  629   5.526   1.689   0.680
  208TIP3    H1  630   5.617   1.696   0.708
  208TIP3    H2  631   5.495   1.779   0.677
  209TIP3   OH2  632   1.392   5.004   2.866
  209TIP3    H1  633   1.354   5.092   2.858
  209TIP3    H2  634   1.484   5.016   2.841
  210TIP3   OH2  635   2.405   0.328   2.828
  210TIP3    H1  636   2.481   0.313   2.884
  210TIP3    H2  637   2.424   0.280   2.747
  211TIP3   OH2  638   3.635   0.466   4.789
  211TIP3    H1  639   3.546   0.457   4.823
  211TIP3    H2  640   3.655   0.380   4.751
  212TIP3   OH2  641   2.059   0.125   1.745
  212TIP3    H1  642   2.075   0.040   1.702
  212TIP3    H2  643   1.971   0.116   1.782
  213TIP3   OH2  644   4.418   2.686   5.027
  213TIP3    H1  645   4.496   2.654   5.073
  213TIP3    H2  646   4.450   2.759   4.974
  214TIP3   OH2  647   6.079   4.827   5.085
  214TIP3    H1  648   6.005   4.805   5.141
  214TIP3    H2  649   6.149   4.851   5.146
  215TIP3   OH2  650   5.407   0.937   4.332
  215TIP3    H1  651   5.358   0.856   4.317
  215TIP3    H2  652   5.485   0.909   4.380
  216TIP3   OH2  653   6.281   4.546   1.805
  216TIP3    H1  654   6.326   4.605   1.745
  216TIP3    H2  655   6.334   4.467   1.805
  217TIP3   OH2  656   2.871   2.041   1.751
  217TIP3    H1  657   2.860   1.988   1.830
  217TIP3    H2  658   2.796   2.101   1.752
  218TIP3   OH2  659   5.505   2.487   3.492
  218TIP3    H1  660   5.559   2.408   3.496
  218TIP3    H2  661   5.564   2.555   3.460
  219TIP3   OH2  662   4.680   1.835   4.332
  219TIP3    H1  663   4.751   1.798   4.384
  219TIP3    H2  664   4.665   1.922   4.371
  220TIP3   OH2  665   1.464   1.190   1.103
  220TIP3    H1  666   1.484   1.282   1.089
  220TIP3    H2  667   1.549   1.146   1.099
  221TIP3   OH2  668   2.756   0.082   5.184
  221TIP3    H1  669   2.684   0.047   5.131
  221TIP3    H2  670   2.785   0.008   5.238
  222TIP3   OH2  671   0.208   4.582   1.015
  222TIP3    H1  672   0.139   4.586   1.081
  222TIP3    H2  673   0.283   4.627   1.056
  223TIP3   OH2  674   3.439   1.764   2.894
  223TIP3    H1  675   3.521   1.764   2.845
  223TIP3    H2  676   3.459   1.813   2.974
  224TIP3   OH2  677   4.923   5.264   3.683
  224TIP3    H1  678   4.898   5.226   3.599
  224TIP3    H2  679   4.905   5.358   3.674
  225TIP3   OH2  680   2.152   5.066   3.891
  225TIP3    H1  681   2.220   5.040   3.953
  225TIP3    H2  682   2.076   5.013   3.916
  226TIP3   OH2  683   5.228   3.328   3.091
  226TIP3    H1  684   5.295   3.381   3.048
  226TIP3    H2  685   5.276   3.259   3.136
  227TIP3   OH2  686   4.974   1.658   4.175
  227TIP3    H1  687   4.972   1.605   4.255
  227TIP3    H2  688   5.065   1.654   4.147
  228TIP3   OH2  689   4.611   2.487   2.926
  228TIP3    H1  690   4.530   2.454   2.967
  228TIP3    H2  691   4.623   2.431   2.849
  229TIP3   OH2  692   3.370   5.285   5.082
  229TIP3    H1  693   3.426   5.254   5.153
  229TIP3    H2  694   3.292   5.230   5.088
  230TIP3   OH2  695   6.117   5.173   1.403
  230TIP3    H1  696   6.183   5.147   1.339
  230TIP3    H2  697   6.163   5.170   1.487
  231TIP3   OH2  698   5.256   3.574   2.056
  231TIP3    H1  699   5.202   3.576   1.978
  231TIP3    H2  700   5.346   3.578   2.024
  232TIP3   OH2  701   3.426   2.388   4.720
  232TIP3    H1  702   3.458   2.409   4.807
  232TIP3    H2  703   3.435   2.293   4.713
  233TIP3   OH2  704   5.155   2.429   4.426
  233TIP3    H1  705   5.188   2.424   4.337
  233TIP3    H2  706   5.221   2.480   4.473
  234TIP3   OH2  707   4.714   0.564   3.988
  234TIP3    H1  708   4.650   0.633   3.973
  234TIP3    H2  709   4.782   0.606   4.040
  235TIP3   OH2  710   1.628   5.398   1.312
  235TIP3    H1  711   1.568   5.417   1.384
  235TIP3    H2  712   1.580   5.424   1.233
  236TIP3   OH2  713   1.374   3.876   4.246
  236TIP3    H1  714   1.280   3.895   4.243
  236TIP3    H2  715   1.380   3.781   4.238
  237TIP3   OH2  716   1.668   2.862   5.052
  237TIP3    H1  717   1.578   2.844   5.077
  237TIP3    H2  718   1.677   2.823   4.965
  238TIP3   OH2  719   3.807   5.582   0.601
  238TIP3    H1  720   3.808   5.515   0.669
  238TIP3    H2  721   3.715   5.588   0.575
  239TIP3   OH2  722   5.784   0.336   4.881
  239TIP3    H1  723   5.755   0.427   4.887
  239TIP3    H2  724   5.769   0.300   4.969
  240TIP3   OH2  725   2.922   1.374   1.533
  240TIP3    H1  726   2.944   1.320   1.608
  240TIP3    H2  727   2.944   1.463   1.560
  241TIP3   OH2  728   0.812   0.147   3.741
  241TIP3    H1  729   0.804   0.099   3.659
  241TIP3    H2  730   0.723   0.150   3.775
  242TIP3   OH2  731   0.366   3.453   0.182
  242TIP3    H1  732   0.385   3.518   0.114
  242TIP3    H2  733   0.289   3.406   0.150
  243TIP3   OH2  734   4.909   0.139   3.116
  243TIP3    H1  735   4.869   0.225   3.100
  243TIP3    H2  736   4.863   0.079   3.058
  244TIP3   OH2  737   2.185   4.503   4.671
  244TIP3    H1  738   2.177   4.597   4.651
  244TIP3    H2  739   2.276   4.493   4.698
  245TIP3   OH2  740   5.759   4.480   4.936
  245TIP3    H1  741   5.841   4.527   4.953
  245TIP3    H2  742   5.690   4.540   4.966
  246TIP3   OH2  743   1.675   0.675   4.328
  246TIP3    H1  744   1.669   0.756   4.378
  246TIP3    H2  745   1.769   0.659   4.319
  247TIP3   OH2  746   1.397   1.856   0.061
  247TIP3    H1  747   1.484   1.826   0.087
  247TIP3    H2  748   1.348   1.776   0.045
  248TIP3   OH2  749   3.036   5.006   3.881
  248TIP3    H1  750   2.968   4.987   3.945
  248TIP3    H2  751   3.049   4.923   3.834
  249TIP3   OH2  752   0.891   0.342   3.541
  249TIP3    H1  753   0.796   0.342   3.529
  249TIP3    H2  754   0.906   0.283   3.615
  250TIP3   OH2  755   2.872   2.962   4.356
  250TIP3    H1  756   2.826   3.036   4.396
  250TIP3    H2  757   2.929   2.928   4.425
  251TIP3   OH2  758   0.339   2.885   5.071
  251TIP3    H1  759   0.354   2.964   5.122
  251TIP3    H2  760   0.392   2.818   5.114
  252TIP3   OH2  761   1.403   3.933   0.393
  252TIP3    H1  762   1.384   3.941   0.487
  252TIP3    H2  763   1.320   3.906   0.354
  253TIP3   OH2  764   4.661   1.986   3.332
  253TIP3    H1  765   4.749   1.962   3.362
  253TIP3    H2  766   4.662   2.082   3.331
  254TIP3   OH2  767   5.946   5.236   3.014
  254TIP3    H1  768   5.914   5.275   3.095
  254TIP3    H2  769   6.038   5.216   3.031
  255TIP3   OH2  770   3.605   3.073   2.378
  255TIP3    H1  771   3.568   2.985   2.374
  255TIP3    H2  772   3.659   3.080   2.299
  256TIP3   OH2  773   4.214   4.386   4.770
  256TIP3    H1  774   4.258   4.373   4.854
  256TIP3    H2  775   4.268   4.450   4.724
  257TIP3   OH2  776   0.857   3.052   1.918
  257TIP3    H1  777   0.939   3.053   1.869
  257TIP3    H2  778   0.876   2.998   1.995
  258TIP3   OH2  779   3.589   3.530   3.923
  258TIP3    H1  780   3.661   3.471   3.904
  258TIP3    H2  781   3.531   3.480   3.980
  259TIP3   OH2  782   0.752   2.575   2.542
  259TIP3    H1  783   0.683   2.580   2.476
  259TIP3    H2  784   0.832   2.594   2.494
  260TIP3   OH2  785   0.437   0.153   0.765
  260TIP3    H1  786   0.433   0.121   0.856
  260TIP3    H2  787   0.530   0.151   0.743
  261TIP3   OH2  788   3.333   2.585   4.989
  261TIP3    H1  789   3.322   2.657   4.926
  261TIP3    H2  790   3.426   2.562   4.983
  262TIP3   OH2  791   4.616   1.236   2.334
  262TIP3    H1  792   4.689   1.281   2.291
  262TIP3    H2  793   4.548   1.303   2.342
  263TIP3   OH2  794   0.610   4.769   4.500
  263TIP3    H1  795   0.568   4.683   4.501
  263TIP3    H2  796   0.644   4.778   4.411
  264TIP3   OH2  797   4.670   5.827   4.528
  264TIP3    H1  798   4.596   5.838   4.588
  264TIP3    H2  799   4.747   5.851   4.581
  265TIP3   OH2  800   2.825   2.821   1.595
  265TIP3    H1  801   2.847   2.729   1.611
  265TIP3    H2  802   2.821   2.861   1.682
  266TIP3   OH2  803   5.047   4.496   2.278
  266TIP3    H1  804   5.078   4.577   2.320
  266TIP3    H2  805   5.111   4.480   2.208
  267TIP3   OH2  806   0.997   0.934   1.020
  267TIP3    H1  807   1.045   0.964   1.096
  267TIP3    H2  808   1.060   0.938   0.948
  268TIP3   OH2  809   2.264   5.276   2.961
  268TIP3    H1  810   2.233   5.339   2.895
  268TIP3    H2  811   2.221   5.303   3.042
  269TIP3   OH2  812   2.925   3.982   1.243
  269TIP3    H1  813   2.915   3.888   1.224
  269TIP3    H2  814   3.018   3.993   1.264
  270TIP3   OH2  815   2.388   3.591   2.589
  270TIP3    H1  816   2.457   3.594   2.523
  270TIP3    H2  817   2.417   3.651   2.657
  271TIP3   OH2  818   0.923   4.316   0.285
  271TIP3    H1  819   0.868   4.362   0.348
  271TIP3    H2  820   1.012   4.333   0.314
  272TIP3   OH2  821   2.728   4.742   0.482
  272TIP3    H1  822   2.718   4.831   0.514
  272TIP3    H2  823   2.643   4.702   0.496
  273TIP3   OH2  824   1.106   0.744   4.772
  273TIP3    H1  825   1.014   0.732   4.794
  273TIP3    H2  826   1.128   0.668   4.718
  274TIP3   OH2  827   0.397   0.901   0.028
  274TIP3    H1  828   0.334   0.973   0.037
  274TIP3    H2  829   0.344   0.827  -0.002
  275TIP3   OH2  830   4.039   2.508   2.175
  275TIP3    H1  831   4.007   2.445   2.110
  275TIP3    H2  832   4.133   2.514   2.158
  276TIP3   OH2  833   1.448   0.317   3.718
  276TIP3    H1  834   1.529   0.264   3.722
  276TIP3    H2  835   1.477   0.406   3.738
  277TIP3   OH2  836   2.034   0.558   3.713
  277TIP3    H1  837   1.989   0.477   3.688
  277TIP3    H2  838   1.965   0.613   3.750
  278TIP3   OH2  839   3.350   1.126   3.596
  278TIP3    H1  840   3.422   1.076   3.558
  278TIP3    H2  841   3.278   1.063   3.602
  279TIP3   OH2  842   3.060   2.901   3.261
  279TIP3    H1  843   2.992   2.966   3.246
  279TIP3    H2  844   3.137   2.936   3.217
  280TIP3   OH2  845   4.433   0.588   4.645
  280TIP3    H1  846   4.522   0.596   4.678
  280TIP3    H2  847   4.409   0.497   4.663
  281TIP3   OH2  848   4.145   0.182   2.093
  281TIP3    H1  849   4.119   0.092   2.069
  281TIP3    H2  850   4.120   0.234   2.017
  282TIP3   OH2  851   2.352   4.767   4.318
  282TIP3    H1  852   2.425   4.719   4.280
  282TIP3    H2  853   2.280   4.704   4.323
  283TIP3   OH2  854   4.989   5.113   1.386
  283TIP3    H1  855   5.004   5.115   1.481
  283TIP3    H2  856   5.070   5.078   1.350
  284TIP3   OH2  857   1.705   4.949   1.246
  284TIP3    H1  858   1.729   4.918   1.158
  284TIP3    H2  859   1.669   4.871   1.289
  285TIP3   OH2  860   5.692   1.846   2.140
  285TIP3    H1  861   5.711   1.764   2.096
  285TIP3    H2  862   5.763   1.905   2.114
  286TIP3   OH2  863   0.775   4.922   0.068
  286TIP3    H1  864   0.782   4.837   0.111
  286TIP3    H2  865   0.858   4.933   0.022
  287TIP3   OH2  866   2.552   0.352   0.938
  287TIP3    H1  867   2.622   0.414   0.956
  287TIP3    H2  868   2.528   0.367   0.847
  288TIP3   OH2  869   2.216   3.991   1.802
  288TIP3    H1  870   2.282   4.059   1.807
  288TIP3    H2  871   2.185   3.980   1.892
  289TIP3   OH2  872   0.978   1.487   3.298
  289TIP3    H1  873   0.885   1.504   3.290
  289TIP3    H2  874   1.007   1.545   3.369
  290TIP3   OH2  875   0.762   2.084   2.370
  290TIP3    H1  876   0.788   2.148   2.436
  290TIP3    H2  877   0.843   2.040   2.346
  291TIP3   OH2  878   2.437   3.633   1.464
  291TIP3    H1  879   2.500   3.569   1.497
  291TIP3    H2  880   2.373   3.580   1.417
  292TIP3   OH2  881   0.830   1.945   1.074
  292TIP3    H1  882   0.760   1.988   1.123
  292TIP3    H2  883   0.911   1.976   1.114
  293TIP3   OH2  884   1.102   0.383   4.706
  293TIP3    H1  885   1.127   0.434   4.783
  293TIP3    H2  886   1.177   0.389   4.648
  294TIP3   OH2  887   1.449   2.043   1.778
  294TIP3    H1  888   1.537   2.007   1.784
  294TIP3    H2  889   1.421   2.021   1.689
  295TIP3   OH2  890   2.411   3.080   2.332
  295TIP3    H1  891   2.490   3.051   2.287
  295TIP3    H2  892   2.373   3.146   2.274
  296TIP3   OH2  893   1.376   1.686   2.899
  296TIP3    H1  894   1.284   1.666   2.878
  296TIP3    H2  895   1.389   1.775   2.867
  297TIP3   OH2  896   3.369   4.617   2.787
  297TIP3    H1  897   3.296   4.556   2.780
  297TIP3    H2  898   3.406   4.620   2.698
  298TIP3   OH2  899   2.509   4.163   2.552
  298TIP3    H1  900   2.544   4.243   2.513
  298TIP3    H2  901   2.559   4.153   2.633
  299TIP3   OH2  902   1.536   2.476   2.423
  299TIP3    H1  903   1.574   2.546   2.477
  299TIP3    H2  904   1.589   2.399   2.442
  300TIP3   OH2  905   1.956   4.969   2.791
  300TIP3    H1  906   1.988   5.055   2.764
  300TIP3    H2  907   1.928   4.927   2.709
  301TIP3   OH2  908   4.569   4.764   2.166
  301TIP3    H1  909   4.588   4.692   2.106
  301TIP3    H2  910   4.519   4.724   2.237
  302TIP3   OH2  911   5.804   4.728   0.225
  302TIP3    H1  912   5.714   4.697   0.233
  302TIP3    H2  913   5.849   4.694   0.302
  303TIP3   OH2  914   2.368   0.664   3.926
  303TIP3    H1  915   2.406   0.656   4.013
  303TIP3    H2  916   2.424   0.728   3.881
  304TIP3   OH2  917  -0.002   3.403   3.803
  304TIP3    H1  918   0.032   3.328   3.755
  304TIP3    H2  919   0.070   3.429   3.861
  305TIP3   OH2  920   5.729   5.017   3.360
  305TIP3    H1  921   5.732   4.967   3.442
  305TIP3    H2  922   5.768   4.958   3.295
  306TIP3   OH2  923   2.164   0.289   2.532
  306TIP3    H1  924   2.167   0.274   2.437
  306TIP3    H2  925   2.227   0.227   2.568
  307TIP3   OH2  926   3.593   2.317   3.199
  307TIP3    H1  927   3.506   2.302   3.164
  307TIP3    H2  928   3.647   2.250   3.157
  308TIP3   OH2  929   3.910   5.530   3.449
  308TIP3    H1  930   3.956   5.518   3.533
  308TIP3    H2  931   3.905   5.442   3.412
  309TIP3   OH2  932   5.572   0.671   3.546
  309TIP3    H1  933   5.581   0.651   3.453
  309TIP3    H2  934   5.500   0.734   3.550
  310TIP3   OH2  935   0.514   4.286   4.356
  310TIP3    H1  936   0.472   4.250   4.278
  310TIP3    H2  937   0.448   4.343   4.396
  311TIP3   OH2  938   2.896   3.003   4.076
  311TIP3    H1  939   2.962   2.946   4.036
  311TIP3    H2  940   2.876   2.962   4.160
  312TIP3   OH2  941   5.771   2.319   1.334
  312TIP3    H1  942   5.772   2.370   1.253
  312TIP3    H2  943   5.682   2.284   1.340
  313TIP3   OH2  944   5.901   2.581   1.313
  313TIP3    H1  945   5.874   2.645   1.246
  313TIP3    H2  946   5.822   2.565   1.364
  314TIP3   OH2  947   3.831   4.528   3.347
  314TIP3    H1  948   3.913   4.492   3.313
  314TIP3    H2  949   3.847   4.543   3.440
  315TIP3   OH2  950   4.591   4.442   3.488
  315TIP3    H1  951   4.663   4.500   3.465
  315TIP3    H2  952   4.564   4.471   3.575
  316TIP3   OH2  953   3.032   5.234   3.756
  316TIP3    H1  954   3.045   5.170   3.826
  316TIP3    H2  955   2.976   5.189   3.692
  317TIP3   OH2  956   2.184   3.361   0.739
  317TIP3    H1  957   2.266   3.348   0.786
  317TIP3    H2  958   2.211   3.395   0.653
  318TIP3   OH2  959   5.792   4.763   4.751
  318TIP3    H1  960   5.714   4.748   4.804
  318TIP3    H2  961   5.799   4.685   4.696
  319TIP3   OH2  962   3.844   0.272   2.894
  319TIP3    H1  963   3.914   0.337   2.892
  319TIP3    H2  964   3.887   0.192   2.925
  320TIP3   OH2  965   1.739   3.633   4.275
  320TIP3    H1  966   1.705   3.719   4.251
  320TIP3    H2  967   1.760   3.641   4.368
  321TIP3   OH2  968   2.978   0.909   0.590
  321TIP3    H1  969   2.968   0.999   0.620
  321TIP3    H2  970   2.933   0.906   0.505
  322TIP3   OH2  971   5.029   2.381   0.681
  322TIP3    H1  972   4.981   2.327   0.744
  322TIP3    H2  973   5.030   2.468   0.719
  323TIP3   OH2  974   1.997   2.828   2.032
  323TIP3    H1  975   1.975   2.778   1.953
  323TIP3    H2  976   2.013   2.917   1.999
  324TIP3   OH2  977   6.045   0.794   3.515
  324TIP3    H1  978   6.062   0.720   3.458
  324TIP3    H2  979   5.950   0.791   3.532
  325TIP3   OH2  980   2.242   4.466   1.345
  325TIP3    H1  981   2.228   4.480   1.251
  325TIP3    H2  982   2.286   4.546   1.375
  326TIP3   OH2  983   1.123   1.593   1.866
  326TIP3    H1  984   1.077   1.627   1.943
  326TIP3    H2  985   1.065   1.613   1.792
  327TIP3   OH2  986   3.147   1.710   0.626
  327TIP3    H1  987   3.072   1.768   0.635
  327TIP3    H2  988   3.213   1.762   0.579
  328TIP3   OH2  989   3.741   4.803   1.525
  328TIP3    H1  990   3.828   4.843   1.529
  328TIP3    H2  991   3.759   4.709   1.516
  329TIP3   OH2  992   4.901   5.958   2.252
  329TIP3    H1  993   4.913   5.876   2.301
  329TIP3    H2  994   4.978   6.010   2.275
  330TIP3   OH2  995   6.009   0.422   5.108
  330TIP3    H1  996   5.922   0.397   5.140
  330TIP3    H2  997   5.995   0.507   5.065
  331TIP3   OH2  998   6.311   3.555   2.335
  331TIP3    H1  999   6.393   3.590   2.299
  331TIP3    H2 1000   6.247   3.569   2.266
  332TIP3   OH2 1001   0.658   2.824   0.436
  332TIP3    H1 1002   0.706   2.876   0.371
  332TIP3    H2 1003   0.566   2.841   0.417
  333TIP3   OH2 1004   3.374   5.084   1.605
  333TIP3    H1 1005   3.345   5.045   1.687
  333TIP3    H2 1006   3.395   5.175   1.627
  334TIP3   OH2 1007   2.668   5.909   0.164
  334TIP3    H1 1008   2.611   5.833   0.153
  334TIP3    H2 1009   2.665   5.927   0.258
  335TIP3   OH2 1010   3.392   4.572   0.212
  335TIP3    H1 1011   3.358   4.658   0.239
  335TIP3    H2 1012   3.403   4.579   0.117
  336TIP3   OH2 1013   0.813   3.907   2.912
  336TIP3    H1 1014   0.904   3.919   2.886
  336TIP3    H2 1015   0.808   3.816   2.941
  337TIP3   OH2 1016   1.265   1.039   1.673
  337TIP3    H1 1017   1.247   1.006   1.586
  337TIP3    H2 1018   1.247   1.133   1.667
  338TIP3   OH2 1019   5.462   4.998   4.477
  338TIP3    H1 1020   5.518   4.964   4.547
  338TIP3    H2 1021   5.389   5.040   4.523
  339TIP3   OH2 1022   2.117   3.168   4.141
  339TIP3    H1 1023   2.129   3.262   4.129
  339TIP3    H2 1024   2.096   3.158   4.234
  340TIP3   OH2 1025   6.104   4.964   1.039
  340TIP3    H1 1026   6.148   5.032   1.090
  340TIP3    H2 1027   6.014   4.965   1.069
  341TIP3   OH2 1028   3.772   1.453   0.141
  341TIP3    H1 1029   3.685   1.447   0.101
  341TIP3    H2 1030   3.792   1.546   0.141
  342TIP3   OH2 1031   1.269   4.436   2.045
  342TIP3    H1 1032   1.214   4.509   2.017
  342TIP3    H2 1033   1.345   4.477   2.086
  343TIP3   OH2 1034   2.692   0.109   0.539
  343TIP3    H1 1035   2.615   0.161   0.559
  343TIP3    H2 1036   2.660   0.019   0.534
  344TIP3   OH2 1037   1.288   5.260   2.867
  344TIP3    H1 1038   1.197   5.236   2.883
  344TIP3    H2 1039   1.288   5.294   2.777
  345TIP3   OH2 1040   4.668   1.125   0.861
  345TIP3    H1 1041   4.591   1.144   0.808
  345TIP3    H2 1042   4.741   1.164   0.813
  346TIP3   OH2 1043   3.003   4.562   1.487
  346TIP3    H1 1044   2.954   4.594   1.562
  346TIP3    H2 1045   2.952   4.488   1.454
  347TIP3   OH2 1046   6.108   2.839   4.819
  347TIP3    H1 1047   6.181   2.858   4.760
  347TIP3    H2 1048   6.037   2.811   4.762
  348TIP3   OH2 1049   0.786   4.770   3.648
  348TIP3    H1 1050   0.720   4.810   3.591
  348TIP3    H2 1051   0.738   4.749   3.729
  349TIP3   OH2 1052   1.360   3.778   0.826
  349TIP3    H1 1053   1.402   3.726   0.757
  349TIP3    H2 1054   1.372   3.869   0.798
  350TIP3   OH2 1055   1.072   4.813   4.759
  350TIP3    H1 1056   1.139   4.811   4.827
  350TIP3    H2 1057   0.992   4.841   4.804
  351TIP3   OH2 1058   3.552   1.603   2.649
  351TIP3    H1 1059   3.588   1.588   2.562
  351TIP3    H2 1060   3.458   1.586   2.639
  352TIP3   OH2 1061   2.217   0.473   0.568
  352TIP3    H1 1062   2.176   0.409   0.510
  352TIP3    H2 1063   2.227   0.552   0.514
  353TIP3   OH2 1064   4.067   3.655   3.847
  353TIP3    H1 1065   4.115   3.606   3.914
  353TIP3    H2 1066   4.125   3.654   3.771
  354TIP3   OH2 1067   3.801   3.369   1.524
  354TIP3    H1 1068   3.785   3.328   1.439
  354TIP3    H2 1069   3.870   3.317   1.564
  355TIP3   OH2 1070   0.137   1.959   4.352
  355TIP3    H1 1071   0.057   1.986   4.307
  355TIP3    H2 1072   0.195   1.929   4.282
  356TIP3   OH2 1073   3.767   0.250   5.105
  356TIP3    H1 1074   3.714   0.198   5.044
  356TIP3    H2 1075   3.852   0.257   5.062
  357TIP3   OH2 1076   3.873   4.126   3.692
  357TIP3    H1 1077   3.934   4.180   3.741
  357TIP3    H2 1078   3.810   4.094   3.757
  358TIP3   OH2 1079   5.512   1.015   0.038
  358TIP3    H1 1080   5.541   0.931   0.073
  358TIP3    H2 1081   5.549   1.019  -0.050
  359TIP3   OH2 1082   1.078   0.635   1.223
  359TIP3    H1 1083   1.002   0.694   1.219
  359TIP3    H2 1084   1.109   0.642   1.313
  360TIP3   OH2 1085   6.182   1.867   2.662
  360TIP3    H1 1086   6.094   1.905   2.670
  360TIP3    H2 1087   6.200   1.830   2.749
  361TIP3   OH2 1088   4.655   4.429   2.979
  361TIP3    H1 1089   4.627   4.520   2.988
  361TIP3    H2 1090   4.750   4.432   2.989
  362TIP3   OH2 1091   0.116   3.925   4.413
  362TIP3    H1 1092   0.209   3.938   4.395
  362TIP3    H2 1093   0.096   3.989   4.482
  363TIP3   OH2 1094   4.569   0.986   2.229
  363TIP3    H1 1095   4.591   1.060   2.286
  363TIP3    H2 1096   4.493   1.017   2.179
  364TIP3   OH2 1097   1.415   1.337   0.150
  364TIP3    H1 1098   1.448   1.426   0.139
  364TIP3    H2 1099   1.386   1.333   0.242
  365TIP3   OH2 1100   3.845   3.880   0.947
  365TIP3    H1 1101   3.908   3.862   0.877
  365TIP3    H2 1102   3.879   3.831   1.022
  366TIP3   OH2 1103   0.531   0.126   4.931
  366TIP3    H1 1104   0.506   0.218   4.931
  366TIP3    H2 1105   0.616   0.124   4.975
  367TIP3   OH2 1106   3.417   4.335   2.460
  367TIP3    H1 1107   3.473   4.258   2.472
  367TIP3    H2 1108   3.449   4.376   2.380
  368TIP3   OH2 1109   3.124   1.126   2.864
  368TIP3    H1 1110   3.098   1.212   2.831
  368TIP3    H2 1111   3.098   1.126   2.956
  369TIP3   OH2 1112   1.943   1.013   2.699
  369TIP3    H1 1113   2.020   1.012   2.756
  369TIP3    H2 1114   1.970   1.064   2.623
  370TIP3   OH2 1115   5.203   1.773   3.211
  370TIP3    H1 1116   5.286   1.799   3.252
  370TIP3    H2 1117   5.172   1.700   3.264
  371TIP3   OH2 1118   1.880   2.664   2.202
  371TIP3    H1 1119   1.928   2.720   2.142
  371TIP3    H2 1120   1.853   2.722   2.273
  372TIP3   OH2 1121   3.097   3.084   2.537
  372TIP3    H1 1122   3.082   3.002   2.490
  372TIP3    H2 1123   3.192   3.093   2.542
  373TIP3   OH2 1124   5.776   5.782   1.618
  373TIP3    H1 1125   5.737   5.869   1.607
  373TIP3    H2 1126   5.733   5.728   1.552
  374TIP3   OH2 1127   0.857   3.470   0.962
  374TIP3    H1 1128   0.875   3.472   0.869
  374TIP3    H2 1129   0.884   3.382   0.990
  375TIP3   OH2 1130   4.018   0.786   2.992
  375TIP3    H1 1131   3.983   0.846   3.059
  375TIP3    H2 1132   4.030   0.841   2.915
  376TIP3   OH2 1133   5.319   2.962   3.075
  376TIP3    H1 1134   5.388   2.897   3.089
  376TIP3    H2 1135   5.308   2.966   2.980
  377TIP3   OH2 1136   1.581   3.636   4.878
  377TIP3    H1 1137   1.488   3.660   4.876
  377TIP3    H2 1138   1.584   3.549   4.838
  378TIP3   OH2 1139   0.496   2.144   3.865
  378TIP3    H1 1140   0.575   2.197   3.871
  378TIP3    H2 1141   0.437   2.195   3.809
  379TIP3   OH2 1142   5.864   4.274   0.659
  379TIP3    H1 1143   5.773   4.295   0.639
  379TIP3    H2 1144   5.915   4.314   0.588
  380TIP3   OH2 1145   2.283   2.991   1.854
  380TIP3    H1 1146   2.257   3.002   1.763
  380TIP3    H2 1147   2.296   2.897   1.864
  381TIP3   OH2 1148   1.158   4.881   3.302
  381TIP3    H1 1149   1.124   4.959   3.258
  381TIP3    H2 1150   1.093   4.862   3.369
  382TIP3   OH2 1151   3.053   3.357   3.689
  382TIP3    H1 1152   3.022   3.394   3.772
  382TIP3    H2 1153   3.092   3.431   3.643
  383TIP3   OH2 1154   6.203   2.401   2.086
  383TIP3    H1 1155   6.298   2.395   2.090
  383TIP3    H2 1156   6.182   2.397   1.992
  384TIP3   OH2 1157   2.989   0.675   3.998
  384TIP3    H1 1158   3.045   0.751   4.017
  384TIP3    H2 1159   3.050   0.605   3.976
  385TIP3   OH2 1160   3.582   4.380   2.236
  385TIP3    H1 1161   3.549   4.389   2.147
  385TIP3    H2 1162   3.610   4.289   2.243
  386TIP3   OH2 1163   1.167   0.495   4.961
  386TIP3    H1 1164   1.184   0.541   5.043
  386TIP3    H2 1165   1.071   0.489   4.957
  387TIP3   OH2 1166   4.658   1.144   4.896
  387TIP3    H1 1167   4.614   1.060   4.910
  387TIP3    H2 1168   4.648   1.160   4.802
  388TIP3   OH2 1169   0.476   3.228   4.467
  388TIP3    H1 1170   0.518   3.147   4.498
  388TIP3    H2 1171   0.527   3.253   4.390
  389TIP3   OH2 1172   0.890   1.218   2.963
  389TIP3    H1 1173   0.964   1.220   3.024
  389TIP3    H2 1174   0.867   1.125   2.956
  390TIP3   OH2 1175   1.899   3.863   2.984
  390TIP3    H1 1176   1.878   3.811   3.062
  390TIP3    H2 1177   1.969   3.922   3.013
  391TIP3   OH2 1178   3.463   5.148   4.206
  391TIP3    H1 1179   3.414   5.088   4.263
  391TIP3    H2 1180   3.531   5.184   4.263
  392TIP3   OH2 1181   2.993   5.621   4.912
  392TIP3    H1 1182   3.047   5.561   4.963
  392TIP3    H2 1183   2.971   5.692   4.972
  393TIP3   OH2 1184   3.283   0.090   4.994
  393TIP3    H1 1185   3.242   0.011   4.958
  393TIP3    H2 1186   3.229   0.162   4.962
  394TIP3   OH2 1187   2.381   2.362   3.877
  394TIP3    H1 1188   2.342   2.275   3.883
  394TIP3    H2 1189   2.313   2.416   3.838
  395TIP3   OH2 1190   1.864   3.944   0.614
  395TIP3    H1 1191   1.802   3.940   0.541
  395TIP3    H2 1192   1.911   3.861   0.611
  396TIP3   OH2 1193   0.337   2.006   0.062
  396TIP3    H1 1194   0.288   1.988  -0.018
  396TIP3    H2 1195   0.427   2.017   0.034
  397TIP3   OH2 1196   2.633   5.115   4.158
  397TIP3    H1 1197   2.649   5.209   4.161
  397TIP3    H2 1198   2.668   5.082   4.241
  398TIP3   OH2 1199   5.556   2.233   3.728
  398TIP3    H1 1200   5.462   2.248   3.715
  398TIP3    H2 1201   5.571   2.144   3.696
  399TIP3   OH2 1202   4.059   3.932   0.088
  399TIP3    H1 1203   4.046   4.022   0.056
  399TIP3    H2 1204   4.112   3.942   0.167
  400TIP3   OH2 1205   5.360   2.521   0.731
  400TIP3    H1 1206   5.421   2.548   0.662
  400TIP3    H2 1207   5.405   2.449   0.776
  401TIP3   OH2 1208   2.817   4.482   2.291
  401TIP3    H1 1209   2.866   4.557   2.326
  401TIP3    H2 1210   2.732   4.519   2.268
  402TIP3   OH2 1211   4.112   0.728   1.326
  402TIP3    H1 1212   4.205   0.709   1.339
  402TIP3    H2 1213   4.107   0.768   1.240
  403TIP3   OH2 1214   2.277   1.872   3.796
  403TIP3    H1 1215   2.309   1.858   3.707
  403TIP3    H2 1216   2.199   1.816   3.803
  404TIP3   OH2 1217   1.817   0.747   2.761
  404TIP3    H1 1218   1.831   0.835   2.727
  404TIP3    H2 1219   1.834   0.689   2.687
  405TIP3   OH2 1220   1.107   4.234   1.759
  405TIP3    H1 1221   1.072   4.160   1.709
  405TIP3    H2 1222   1.166   4.194   1.823
  406TIP3   OH2 1223   2.257   2.375   2.770
  406TIP3    H1 1224   2.257   2.297   2.826
  406TIP3    H2 1225   2.345   2.411   2.778
  407TIP3   OH2 1226   0.230   3.112   1.170
  407TIP3    H1 1227   0.161   3.131   1.107
  407TIP3    H2 1228   0.263   3.197   1.196
  408TIP3   OH2 1229   0.579   5.408   4.170
  408TIP3    H1 1230   0.500   5.408   4.115
  408TIP3    H2 1231   0.545   5.402   4.259
  409TIP3   OH2 1232   3.256   2.047   4.161
  409TIP3    H1 1233   3.274   1.965   4.116
  409TIP3    H2 1234   3.162   2.062   4.147
  410TIP3   OH2 1235   0.245   2.573   2.943
  410TIP3    H1 1236   0.300   2.494   2.938
  410TIP3    H2 1237   0.295   2.633   2.998
  411TIP3   OH2 1238   3.395   1.062   0.919
  411TIP3    H1 1239   3.357   1.120   0.853
  411TIP3    H2 1240   3.449   1.120   0.973
  412TIP3   OH2 1241   0.723   1.318   4.755
  412TIP3    H1 1242   0.722   1.227   4.724
  412TIP3    H2 1243   0.723   1.311   4.851
  413TIP3   OH2 1244   4.072   3.876   2.419
  413TIP3    H1 1245   4.091   3.969   2.410
  413TIP3    H2 1246   4.119   3.835   2.346
  414TIP3   OH2 1247   1.106   0.865   0.758
  414TIP3    H1 1248   1.041   0.798   0.776
  414TIP3    H2 1249   1.060   0.930   0.704
  415TIP3   OH2 1250   2.708   3.017   2.275
  415TIP3    H1 1251   2.746   2.931   2.293
  415TIP3    H2 1252   2.687   3.053   2.361
  416TIP3   OH2 1253   1.540   1.572   0.041
  416TIP3    H1 1254   1.587   1.637   0.094
  416TIP3    H2 1255   1.584   1.575  -0.044
  417TIP3   OH2 1256   4.928   2.892   4.540
  417TIP3    H1 1257   4.983   2.967   4.515
  417TIP3    H2 1258   4.942   2.828   4.470
  418TIP3   OH2 1259   3.522   1.002   1.874
  418TIP3    H1 1260   3.447   1.060   1.890
  418TIP3    H2 1261   3.567   0.997   1.958
  419TIP3   OH2 1262   0.603   3.937   4.523
  419TIP3    H1 1263   0.667   3.867   4.538
  419TIP3    H2 1264   0.587   3.974   4.610
  420TIP3   OH2 1265   4.192   2.499   2.531
  420TIP3    H1 1266   4.108   2.484   2.487
  420TIP3    H2 1267   4.256   2.499   2.459
  421TIP3   OH2 1268   0.702   3.034   3.103
  421TIP3    H1 1269   0.670   3.104   3.046
  421TIP3    H2 1270   0.704   2.957   3.046
  422TIP3   OH2 1271   0.079   0.211   0.628
  422TIP3    H1 1272   0.046   0.292   0.588
  422TIP3    H2 1273   0.094   0.235   0.720
  423TIP3   OH2 1274   3.723   4.417   0.701
  423TIP3    H1 1275   3.653   4.352   0.691
  423TIP3    H2 1276   3.738   4.450   0.612
  424TIP3   OH2 1277   4.134   0.234   4.727
  424TIP3    H1 1278   4.065   0.178   4.764
  424TIP3    H2 1279   4.100   0.323   4.738
  425TIP3   OH2 1280   1.855   1.884   4.864
  425TIP3    H1 1281   1.809   1.910   4.785
  425TIP3    H2 1282   1.831   1.792   4.877
  426TIP3   OH2 1283   3.657   0.215   3.476
  426TIP3    H1 1284   3.744   0.247   3.500
  426TIP3    H2 1285   3.671   0.123   3.451
  427TIP3   OH2 1286   3.900   5.523   1.494
  427TIP3    H1 1287   3.964   5.539   1.425
  427TIP3    H2 1288   3.816   5.548   1.456
  428TIP3   OH2 1289   1.153   5.043   1.946
  428TIP3    H1 1290   1.225   5.056   2.008
  428TIP3    H2 1291   1.112   4.961   1.973
  429TIP3   OH2 1292   5.687   5.495   2.829
  429TIP3    H1 1293   5.653   5.583   2.815
  429TIP3    H2 1294   5.632   5.457   2.898
  430TIP3   OH2 1295   3.143   5.930   4.192
  430TIP3    H1 1296   3.147   5.978   4.109
  430TIP3    H2 1297   3.130   5.997   4.258
  431TIP3   OH2 1298   0.665   2.991   4.025
  431TIP3    H1 1299   0.574   2.964   4.018
  431TIP3    H2 1300   0.683   2.994   4.119
  432TIP3   OH2 1301   0.901   5.455   3.255
  432TIP3    H1 1302   0.951   5.533   3.281
  432TIP3    H2 1303   0.925   5.441   3.163
  433TIP3   OH2 1304   1.705   3.011   1.670
  433TIP3    H1 1305   1.750   3.084   1.712
  433TIP3    H2 1306   1.628   3.049   1.629
  434TIP3   OH2 1307   2.365   2.460   3.538
  434TIP3    H1 1308   2.443   2.460   3.594
  434TIP3    H2 1309   2.310   2.391   3.574
  435TIP3   OH2 1310   5.834   1.348   5.158
  435TIP3    H1 1311   5.746   1.355   5.122
  435TIP3    H2 1312   5.883   1.296   5.094
  436TIP3   OH2 1313   2.604   4.680   4.197
  436TIP3    H1 1314   2.637   4.753   4.144
  436TIP3    H2 1315   2.618   4.603   4.143
  437TIP3   OH2 1316   4.028   1.050   2.870
  437TIP3    H1 1317   3.975   1.028   2.793
  437TIP3    H2 1318   3.995   1.135   2.898
  438TIP3   OH2 1319   4.187   1.986   3.462
  438TIP3    H1 1320   4.110   2.027   3.502
  438TIP3    H2 1321   4.209   2.043   3.388
  439TIP3   OH2 1322   1.161   0.361   3.711
  439TIP3    H1 1323   1.133   0.330   3.797
  439TIP3    H2 1324   1.251   0.329   3.702
  440TIP3   OH2 1325   1.691   0.196   3.644
  440TIP3    H1 1326   1.686   0.105   3.616
  440TIP3    H2 1327   1.678   0.247   3.564
  441TIP3   OH2 1328   3.572   1.581   4.980
  441TIP3    H1 1329   3.507   1.619   4.921
  441TIP3    H2 1330   3.565   1.487   4.966
  442TIP3   OH2 1331   0.770   4.174   3.132
  442TIP3    H1 1332   0.747   4.104   3.192
  442TIP3    H2 1333   0.738   4.254   3.175
  443TIP3   OH2 1334   3.444   2.577   0.743
  443TIP3    H1 1335   3.366   2.632   0.739
  443TIP3    H2 1336   3.414   2.490   0.717
  444TIP3   OH2 1337   4.907   2.822   0.111
  444TIP3    H1 1338   4.999   2.843   0.123
  444TIP3    H2 1339   4.907   2.743   0.057
  445TIP3   OH2 1340   2.624   4.543   4.446
  445TIP3    H1 1341   2.674   4.462   4.443
  445TIP3    H2 1342   2.644   4.588   4.365
  446TIP3   OH2 1343   4.199   3.994   0.311
  446TIP3    H1 1344   4.128   4.013   0.373
  446TIP3    H2 1345   4.267   4.058   0.333
  447TIP3   OH2 1346   5.988   4.186   2.945
  447TIP3    H1 1347   6.069   4.189   2.998
  447TIP3    H2 1348   6.003   4.248   2.874
  448TIP3   OH2 1349   5.043   4.442   3.188
  448TIP3    H1 1350   5.037   4.538   3.178
  448TIP3    H2 1351   4.965   4.418   3.238
  449TIP3   OH2 1352   6.108   5.601   1.452
  449TIP3    H1 1353   6.043   5.553   1.502
  449TIP3    H2 1354   6.057   5.667   1.404
  450TIP3   OH2 1355   5.226   2.649   4.593
  450TIP3    H1 1356   5.148   2.673   4.643
  450TIP3    H2 1357   5.300   2.678   4.647
  451TIP3   OH2 1358   4.137   3.766   2.852
  451TIP3    H1 1359   4.134   3.855   2.817
  451TIP3    H2 1360   4.133   3.710   2.775
  452TIP3   OH2 1361   0.460   4.207   0.680
  452TIP3    H1 1362   0.393   4.244   0.737
  452TIP3    H2 1363   0.502   4.282   0.640
  453TIP3   OH2 1364   5.793   2.073   2.280
  453TIP3    H1 1365   5.726   2.011   2.252
  453TIP3    H2 1366   5.864   2.062   2.216
  454TIP3   OH2 1367   5.800   2.393   0.586
  454TIP3    H1 1368   5.743   2.364   0.656
  454TIP3    H2 1369   5.769   2.346   0.508
  455TIP3   OH2 1370   5.785   3.248   3.133
  455TIP3    H1 1371   5.708   3.246   3.076
  455TIP3    H2 1372   5.749   3.242   3.221
  456TIP3   OH2 1373   5.054   4.007   5.120
  456TIP3    H1 1374   5.126   3.995   5.058
  456TIP3    H2 1375   5.040   3.919   5.157
  457TIP3   OH2 1376   3.639   5.088   1.419
  457TIP3    H1 1377   3.546   5.068   1.429
  457TIP3    H2 1378   3.683   5.004   1.435
  458TIP3   OH2 1379   2.079   3.443   2.014
  458TIP3    H1 1380   2.026   3.474   2.088
  458TIP3    H2 1381   2.034   3.477   1.937
  459TIP3   OH2 1382   3.761   2.381   4.779
  459TIP3    H1 1383   3.855   2.386   4.766
  459TIP3    H2 1384   3.746   2.292   4.811
  460TIP3   OH2 1385   0.158   2.931   2.622
  460TIP3    H1 1386   0.223   2.875   2.665
  460TIP3    H2 1387   0.103   2.963   2.694
  461TIP3   OH2 1388   1.095   2.175   4.152
  461TIP3    H1 1389   1.048   2.206   4.229
  461TIP3    H2 1390   1.140   2.095   4.182
  462TIP3   OH2 1391   1.762   4.893   2.975
  462TIP3    H1 1392   1.829   4.953   2.943
  462TIP3    H2 1393   1.804   4.846   3.046
  463TIP3   OH2 1394   5.711   0.215   4.630
  463TIP3    H1 1395   5.771   0.270   4.681
  463TIP3    H2 1396   5.662   0.166   4.696
  464TIP3   OH2 1397   0.434   1.777   5.027
  464TIP3    H1 1398   0.520   1.747   5.055
  464TIP3    H2 1399   0.423   1.739   4.940
  465TIP3   OH2 1400   6.278   3.378   0.527
  465TIP3    H1 1401   6.221   3.303   0.511
  465TIP3    H2 1402   6.352   3.365   0.468
  466TIP3   OH2 1403   4.305   1.633   1.800
  466TIP3    H1 1404   4.240   1.651   1.731
  466TIP3    H2 1405   4.378   1.592   1.754
  467TIP3   OH2 1406   3.188   4.506   2.446
  467TIP3    H1 1407   3.118   4.443   2.463
  467TIP3    H2 1408   3.263   4.472   2.496
  468TIP3   OH2 1409   0.035   2.650   0.836
  468TIP3    H1 1410   0.116   2.599   0.831
  468TIP3    H2 1411   0.064   2.738   0.861
  469TIP3   OH2 1412   3.460   1.077   2.933
  469TIP3    H1 1413   3.472   1.171   2.922
  469TIP3    H2 1414   3.411   1.050   2.855
  470TIP3   OH2 1415   2.376   2.721   4.599
  470TIP3    H1 1416   2.389   2.653   4.665
  470TIP3    H2 1417   2.459   2.769   4.598
  471TIP3   OH2 1418   4.461   3.083   5.191
  471TIP3    H1 1419   4.388   3.141   5.211
  471TIP3    H2 1420   4.425   3.022   5.127
  472TIP3   OH2 1421   1.934   3.634   0.079
  472TIP3    H1 1422   1.841   3.647   0.100
  472TIP3    H2 1423   1.964   3.569   0.142
  473TIP3   OH2 1424   2.450   4.540   3.046
  473TIP3    H1 1425   2.363   4.545   3.007
  473TIP3    H2 1426   2.485   4.457   3.015
  474TIP3   OH2 1427   0.744   4.226   4.676
  474TIP3    H1 1428   0.822   4.196   4.629
  474TIP3    H2 1429   0.700   4.285   4.614
  475TIP3   OH2 1430   1.047   2.959   1.338
  475TIP3    H1 1431   1.056   2.867   1.312
  475TIP3    H2 1432   0.952   2.975   1.335
  476TIP3   OH2 1433   4.139   4.919   0.931
  476TIP3    H1 1434   4.068   4.888   0.875
  476TIP3    H2 1435   4.216   4.871   0.901
  477TIP3   OH2 1436   4.938   4.158   0.364
  477TIP3    H1 1437   4.927   4.105   0.286
  477TIP3    H2 1438   4.857   4.209   0.371
  478TIP3   OH2 1439   2.530   4.510   2.267
  478TIP3    H1 1440   2.453   4.503   2.211
  478TIP3    H2 1441   2.520   4.593   2.312
  479TIP3   OH2 1442   0.702   5.935   0.028
  479TIP3    H1 1443   0.687   5.976   0.114
  479TIP3    H2 1444   0.700   5.841   0.046
  480TIP3   OH2 1445   3.516   5.044   2.344
  480TIP3    H1 1446   3.437   5.075   2.388
  480TIP3    H2 1447   3.574   5.018   2.416
  481TIP3   OH2 1448   1.822   5.334   2.057
  481TIP3    H1 1449   1.792   5.425   2.054
  481TIP3    H2 1450   1.805   5.306   2.147
  482TIP3   OH2 1451   2.532   0.813   3.786
  482TIP3    H1 1452   2.612   0.774   3.821
  482TIP3    H2 1453   2.562   0.888   3.734
  483TIP3   OH2 1454   5.406   0.279   0.332
  483TIP3    H1 1455   5.499   0.298   0.338
  483TIP3    H2 1456   5.371   0.307   0.417
  484TIP3   OH2 1457   0.626   4.446   3.647
  484TIP3    H1 1458   0.614   4.429   3.740
  484TIP3    H2 1459   0.718   4.424   3.630
  485TIP3   OH2 1460   2.824   2.749   0.063
  485TIP3    H1 1461   2.907   2.722   0.102
  485TIP3    H2 1462   2.834   2.729  -0.030
  486TIP3   OH2 1463   1.789   4.791   0.637
  486TIP3    H1 1464   1.851   4.863   0.642
  486TIP3    H2 1465   1.833   4.718   0.682
  487TIP3   OH2 1466   4.482   2.951   4.920
  487TIP3    H1 1467   4.514   3.009   4.850
  487TIP3    H2 1468   4.554   2.946   4.982
  488TIP3   OH2 1469   2.450   4.249   1.209
  488TIP3    H1 1470   2.511   4.206   1.268
  488TIP3    H2 1471   2.423   4.328   1.255
  489TIP3   OH2 1472   0.115   2.459   0.383
  489TIP3    H1 1473   0.169   2.467   0.305
  489TIP3    H2 1474   0.117   2.545   0.423
  490TIP3   OH2 1475   5.697   2.896   3.997
  490TIP3    H1 1476   5.642   2.933   4.066
  490TIP3    H2 1477   5.767   2.849   4.043
  491TIP3   OH2 1478   2.571   1.850   1.446
  491TIP3    H1 1479   2.656   1.820   1.478
  491TIP3    H2 1480   2.520   1.769   1.435
  492TIP3   OH2 1481   0.581   5.394   2.894
  492TIP3    H1 1482   0.608   5.302   2.901
  492TIP3    H2 1483   0.488   5.390   2.873
  493TIP3   OH2 1484   2.020   4.530   0.516
  493TIP3    H1 1485   2.015   4.471   0.591
  493TIP3    H2 1486   1.964   4.488   0.450
  494TIP3   OH2 1487   4.024   1.142   3.877
  494TIP3    H1 1488   4.091   1.109   3.818
  494TIP3    H2 1489   4.067   1.144   3.963
  495TIP3   OH2 1490   5.501   1.531   0.170
  495TIP3    H1 1491   5.451   1.455   0.140
  495TIP3    H2 1492   5.541   1.502   0.252
  496TIP3   OH2 1493   1.291   2.015   4.804
  496TIP3    H1 1494   1.208   2.036   4.846
  496TIP3    H2 1495   1.277   1.929   4.764
  497TIP3   OH2 1496   1.792   0.579   1.586
  497TIP3    H1 1497   1.779   0.489   1.556
  497TIP3    H2 1498   1.795   0.572   1.682
  498TIP3   OH2 1499   3.094   0.697   3.710
  498TIP3    H1 1500   3.065   0.707   3.801
  498TIP3    H2 1501   3.108   0.786   3.679
  499TIP3   OH2 1502   4.266   0.405   1.216
  499TIP3    H1 1503   4.356   0.374   1.207
  499TIP3    H2 1504   4.248   0.400   1.310
  500TIP3   OH2 1505   1.092   2.239   1.607
  500TIP3    H1 1506   1.011   2.234   1.556
  500TIP3    H2 1507   1.121   2.148   1.617
  501TIP3   OH2 1508   3.865   5.187   2.396
  501TIP3    H1 1509   3.921   5.211   2.469
  501TIP3    H2 1510   3.903   5.231   2.320
  502TIP3   OH2 1511   3.769   0.324   2.200
  502TIP3    H1 1512   3.765   0.398   2.261
  502TIP3    H2 1513   3.836   0.350   2.136
  503TIP3   OH2 1514   3.263   1.788   1.869
  503TIP3    H1 1515   3.328   1.789   1.939
  503TIP3    H2 1516   3.188   1.742   1.907
  504TIP3   OH2 1517   4.795   3.731   3.749
  504TIP3    H1 1518   4.766   3.707   3.661
  504TIP3    H2 1519   4.767   3.822   3.759
  505TIP3   OH2 1520   5.601   5.810   0.822
  505TIP3    H1 1521   5.590   5.888   0.768
  505TIP3    H2 1522   5.570   5.836   0.909
  506TIP3   OH2 1523   1.932   5.816   1.255
  506TIP3    H1 1524   2.027   5.826   1.250
  506TIP3    H2 1525   1.918   5.722   1.263
  507TIP3   OH2 1526   3.125   5.627   2.928
  507TIP3    H1 1527   3.036   5.638   2.896
  507TIP3    H2 1528   3.162   5.559   2.872
  508TIP3   OH2 1529   5.153   1.499   3.318
  508TIP3    H1 1530   5.067   1.458   3.319
  508TIP3    H2 1531   5.194   1.465   3.238
  509TIP3   OH2 1532   5.262   4.426   0.558
  509TIP3    H1 1533   5.336   4.385   0.603
  509TIP3    H2 1534   5.200   4.355   0.544
  510TIP3   OH2 1535   0.644   3.937   5.092
  510TIP3    H1 1536   0.734   3.921   5.122
  510TIP3    H2 1537   0.647   4.026   5.057
  511TIP3   OH2 1538   6.227   3.355   5.004
  511TIP3    H1 1539   6.242   3.394   4.918
  511TIP3    H2 1540   6.208   3.263   4.985
  512TIP3   OH2 1541   3.507   5.340   0.692
  512TIP3    H1 1542   3.601   5.330   0.679
  512TIP3    H2 1543   3.468   5.306   0.611
  513TIP3   OH2 1544   2.019   0.830   3.310
  513TIP3    H1 1545   2.091   0.867   3.257
  513TIP3    H2 1546   2.061   0.763   3.364
  514TIP3   OH2 1547   1.655   2.955   2.638
  514TIP3    H1 1548   1.646   2.864   2.611
  514TIP3    H2 1549   1.723   2.955   2.706
  515TIP3   OH2 1550   4.829   2.734   2.154
  515TIP3    H1 1551   4.787   2.672   2.094
  515TIP3    H2 1552   4.757   2.787   2.189
  516TIP3   OH2 1553   4.053   1.855   2.976
  516TIP3    H1 1554   4.062   1.936   2.927
  516TIP3    H2 1555   3.965   1.859   3.013
  517TIP3   OH2 1556   1.323   6.001   1.740
  517TIP3    H1 1557   1.333   5.918   1.694
  517TIP3    H2 1558   1.409   6.018   1.778
  518TIP3   OH2 1559   5.068   5.375   4.000
  518TIP3    H1 1560   5.137   5.363   3.935
  518TIP3    H2 1561   4.995   5.323   3.968
  519TIP3   OH2 1562   5.769   4.847   4.220
  519TIP3    H1 1563   5.687   4.800   4.206
  519TIP3    H2 1564   5.835   4.795   4.174
  520TIP3   OH2 1565   6.362   3.658   1.954
  520TIP3    H1 1566   6.339   3.575   1.996
  520TIP3    H2 1567   6.437   3.690   2.004
  521TIP3   OH2 1568   2.117   2.305   2.098
  521TIP3    H1 1569   2.043   2.366   2.108
  521TIP3    H2 1570   2.131   2.271   2.186
  522TIP3   OH2 1571   3.329   3.953   4.669
  522TIP3    H1 1572   3.279   3.964   4.588
  522TIP3    H2 1573   3.264   3.923   4.733
  523TIP3   OH2 1574   0.848   0.904   3.260
  523TIP3    H1 1575   0.881   0.884   3.172
  523TIP3    H2 1576   0.754   0.882   3.255
  524TIP3   OH2 1577   6.302   3.721   0.614
  524TIP3    H1 1578   6.219   3.674   0.611
  524TIP3    H2 1579   6.368   3.651   0.623
  525TIP3   OH2 1580   4.741   0.767   0.461
  525TIP3    H1 1581   4.651   0.756   0.493
  525TIP3    H2 1582   4.756   0.689   0.407
  526TIP3   OH2 1583   2.977   2.640   3.178
  526TIP3    H1 1584   2.905   2.601   3.228
  526TIP3    H2 1585   2.974   2.733   3.199
  527TIP3   OH2 1586   6.195   1.502   2.476
  527TIP3    H1 1587   6.290   1.507   2.489
  527TIP3    H2 1588   6.186   1.452   2.394
  528TIP3   OH2 1589   1.245   1.297   1.545
  528TIP3    H1 1590   1.191   1.309   1.623
  528TIP3    H2 1591   1.186   1.257   1.481
  529TIP3   OH2 1592   5.039   2.370   1.892
  529TIP3    H1 1593   5.104   2.432   1.924
  529TIP3    H2 1594   4.959   2.421   1.883
  530TIP3   OH2 1595   5.678   0.110   0.182
  530TIP3    H1 1596   5.669   0.180   0.246
  530TIP3    H2 1597   5.590   0.074   0.173
  531TIP3   OH2 1598   4.152   3.967   3.766
  531TIP3    H1 1599   4.131   4.051   3.725
  531TIP3    H2 1600   4.198   3.992   3.847
  532TIP3   OH2 1601   0.585   0.869   1.288
  532TIP3    H1 1602   0.511   0.811   1.272
  532TIP3    H2 1603   0.545   0.949   1.323
  533TIP3   OH2 1604   4.080   2.862   0.229
  533TIP3    H1 1605   4.082   2.913   0.148
  533TIP3    H2 1606   4.166   2.877   0.269
  534TIP3   OH2 1607   3.625   1.632   2.385
  534TIP3    H1 1608   3.686   1.700   2.415
  534TIP3    H2 1609   3.567   1.678   2.325
  535TIP3   OH2 1610   2.266   3.120   4.942
  535TIP3    H1 1611   2.230   3.205   4.967
  535TIP3    H2 1612   2.358   3.125   4.966
  536TIP3   OH2 1613   1.216   2.286   2.929
  536TIP3    H1 1614   1.288   2.343   2.955
  536TIP3    H2 1615   1.217   2.287   2.833
  537TIP3   OH2 1616   0.791   5.079   3.640
  537TIP3    H1 1617   0.814   5.107   3.551
  537TIP3    H2 1618   0.854   5.010   3.660
  538TIP3   OH2 1619   5.407   5.185   3.099
  538TIP3    H1 1620   5.320   5.222   3.086
  538TIP3    H2 1621   5.408   5.155   3.190
  539TIP3   OH2 1622   4.305   0.667   0.183
  539TIP3    H1 1623   4.332   0.600   0.120
  539TIP3    H2 1624   4.350   0.643   0.264
  540TIP3   OH2 1625   5.711   5.714   1.879
  540TIP3    H1 1626   5.629   5.760   1.901
  540TIP3    H2 1627   5.735   5.748   1.793
  541TIP3   OH2 1628   5.287   0.169   1.845
  541TIP3    H1 1629   5.310   0.252   1.886
  541TIP3    H2 1630   5.203   0.186   1.803
  542TIP3   OH2 1631   3.779   1.760   0.108
  542TIP3    H1 1632   3.697   1.797   0.138
  542TIP3    H2 1633   3.832   1.749   0.187
  543TIP3   OH2 1634   3.515   1.828   4.185
  543TIP3    H1 1635   3.576   1.861   4.120
  543TIP3    H2 1636   3.430   1.828   4.141
  544TIP3   OH2 1637   2.634   3.335   4.201
  544TIP3    H1 1638   2.690   3.332   4.124
  544TIP3    H2 1639   2.649   3.422   4.238
  545TIP3   OH2 1640   4.420   3.897   0.848
  545TIP3    H1 1641   4.350   3.941   0.800
  545TIP3    H2 1642   4.500   3.925   0.804
  546TIP3   OH2 1643   5.228   4.201   2.181
  546TIP3    H1 1644   5.314   4.165   2.202
  546TIP3    H2 1645   5.187   4.215   2.266
  547TIP3   OH2 1646   0.820   5.429   2.312
  547TIP3    H1 1647   0.812   5.409   2.219
  547TIP3    H2 1648   0.837   5.523   2.316
  548TIP3   OH2 1649   4.325   2.137   0.694
  548TIP3    H1 1650   4.389   2.069   0.673
  548TIP3    H2 1651   4.372   2.197   0.751
  549TIP3   OH2 1652   2.633   4.203   4.927
  549TIP3    H1 1653   2.658   4.151   5.003
  549TIP3    H2 1654   2.566   4.151   4.882
  550TIP3   OH2 1655   0.571   1.395   3.093
  550TIP3    H1 1656   0.567   1.385   2.998
  550TIP3    H2 1657   0.486   1.363   3.123
  551TIP3   OH2 1658   2.048   0.247   0.847
  551TIP3    H1 1659   2.127   0.268   0.797
  551TIP3    H2 1660   2.071   0.267   0.938
  552TIP3   OH2 1661   1.233   4.002   3.290
  552TIP3    H1 1662   1.163   4.033   3.233
  552TIP3    H2 1663   1.296   4.073   3.293
  553TIP3   OH2 1664   5.336   0.245   4.783
  553TIP3    H1 1665   5.412   0.189   4.800
  553TIP3    H2 1666   5.370   0.335   4.790
  554TIP3   OH2 1667   1.302   2.203   1.287
  554TIP3    H1 1668   1.279   2.273   1.348
  554TIP3    H2 1669   1.395   2.217   1.268
  555TIP3   OH2 1670   2.576   4.990   3.269
  555TIP3    H1 1671   2.572   5.049   3.344
  555TIP3    H2 1672   2.507   4.926   3.285
  556TIP3   OH2 1673   5.873   3.987   2.740
  556TIP3    H1 1674   5.915   4.071   2.758
  556TIP3    H2 1675   5.913   3.927   2.803
  557TIP3   OH2 1676   5.644   2.005   0.822
  557TIP3    H1 1677   5.689   1.955   0.890
  557TIP3    H2 1678   5.551   1.989   0.840
  558TIP3   OH2 1679   5.106   2.833   2.355
  558TIP3    H1 1680   5.040   2.897   2.327
  558TIP3    H2 1681   5.055   2.762   2.395
  559TIP3   OH2 1682   5.528   0.061   4.798
  559TIP3    H1 1683   5.603   0.033   4.850
  559TIP3    H2 1684   5.489  -0.021   4.767
  560TIP3   OH2 1685   2.934   2.553   3.694
  560TIP3    H1 1686   2.979   2.629   3.657
  560TIP3    H2 1687   2.876   2.590   3.760
  561TIP3   OH2 1688   5.903   2.225   3.809
  561TIP3    H1 1689   5.810   2.245   3.816
  561TIP3    H2 1690   5.915   2.146   3.862
  562TIP3   OH2 1691   5.452   5.129   2.722
  562TIP3    H1 1692   5.500   5.192   2.667
  562TIP3    H2 1693   5.361   5.159   2.718
  563TIP3   OH2 1694   1.278   2.363   2.294
  563TIP3    H1 1695   1.321   2.441   2.260
  563TIP3    H2 1696   1.341   2.292   2.279
  564TIP3   OH2 1697   1.051   0.440   3.338
  564TIP3    H1 1698   1.125   0.497   3.358
  564TIP3    H2 1699   1.022   0.408   3.423
  565TIP3   OH2 1700   3.397   4.813   2.996
  565TIP3    H1 1701   3.429   4.862   2.920
  565TIP3    H2 1702   3.378   4.726   2.962
  566TIP3   OH2 1703   5.656   4.368   4.086
  566TIP3    H1 1704   5.599   4.319   4.144
  566TIP3    H2 1705   5.657   4.318   4.004
  567TIP3   OH2 1706   1.032   0.075   3.876
  567TIP3    H1 1707   1.053   0.166   3.898
  567TIP3    H2 1708   0.962   0.081   3.812
  568TIP3   OH2 1709   2.108   2.979   0.950
  568TIP3    H1 1710   2.029   3.024   0.918
  568TIP3    H2 1711   2.129   2.917   0.881
  569TIP3   OH2 1712   1.934   5.889   2.106
  569TIP3    H1 1713   1.920   5.847   2.021
  569TIP3    H2 1714   1.858   5.863   2.158
  570TIP3   OH2 1715   2.073   4.412   4.906
  570TIP3    H1 1716   1.979   4.405   4.890
  570TIP3    H2 1717   2.107   4.459   4.829
  571TIP3   OH2 1718   2.074   4.833   0.445
  571TIP3    H1 1719   2.127   4.889   0.501
  571TIP3    H2 1720   2.082   4.746   0.483
  572TIP3   OH2 1721   0.690   5.305   0.505
  572TIP3    H1 1722   0.708   5.230   0.448
  572TIP3    H2 1723   0.777   5.335   0.533
  573TIP3   OH2 1724   0.993   4.810   0.461
  573TIP3    H1 1725   0.932   4.763   0.518
  573TIP3    H2 1726   0.940   4.836   0.386
  574TIP3   OH2 1727   6.023   0.217   3.005
  574TIP3    H1 1728   5.975   0.163   3.067
  574TIP3    H2 1729   6.098   0.163   2.979
  575TIP3   OH2 1730   4.882   2.830   3.362
  575TIP3    H1 1731   4.973   2.843   3.334
  575TIP3    H2 1732   4.846   2.919   3.369
  576TIP3   OH2 1733   5.449   3.178   0.891
  576TIP3    H1 1734   5.430   3.121   0.817
  576TIP3    H2 1735   5.463   3.265   0.853
  577TIP3   OH2 1736   5.495   4.915   3.767
  577TIP3    H1 1737   5.491   4.998   3.814
  577TIP3    H2 1738   5.446   4.854   3.823
  578TIP3   OH2 1739   3.382  -0.014   4.720
  578TIP3    H1 1740   3.373  -0.047   4.630
  578TIP3    H2 1741   3.331   0.067   4.720
  579TIP3   OH2 1742   0.619   0.440   1.739
  579TIP3    H1 1743   0.708   0.460   1.709
  579TIP3    H2 1744   0.620   0.346   1.754
  580TIP3   OH2 1745   1.435   3.795   3.569
  580TIP3    H1 1746   1.381   3.822   3.643
  580TIP3    H2 1747   1.409   3.704   3.553
  581TIP3   OH2 1748   2.349   1.779   0.649
  581TIP3    H1 1749   2.374   1.818   0.733
  581TIP3    H2 1750   2.294   1.704   0.673
  582TIP3   OH2 1751   4.333   1.186   2.619
  582TIP3    H1 1752   4.411   1.131   2.630
  582TIP3    H2 1753   4.282   1.140   2.552
  583TIP3   OH2 1754   5.992   1.447   0.762
  583TIP3    H1 1755   6.034   1.365   0.736
  583TIP3    H2 1756   5.941   1.424   0.839
  584TIP3   OH2 1757   1.886   0.254   0.140
  584TIP3    H1 1758   1.864   0.259   0.233
  584TIP3    H2 1759   1.809   0.290   0.096
  585TIP3   OH2 1760   3.324   2.708   4.005
  585TIP3    H1 1761   3.378   2.743   3.934
  585TIP3    H2 1762   3.377   2.723   4.084
  586TIP3   OH2 1763   0.871   4.776   2.156
  586TIP3    H1 1764   0.778   4.766   2.138
  586TIP3    H2 1765   0.915   4.728   2.086
  587TIP3   OH2 1766   1.212   4.342   0.330
  587TIP3    H1 1767   1.263   4.385   0.399
  587TIP3    H2 1768   1.272   4.278   0.292
  588TIP3   OH2 1769   4.253   3.713   0.276
  588TIP3    H1 1770   4.264   3.804   0.303
  588TIP3    H2 1771   4.263   3.715   0.180
  589TIP3   OH2 1772   1.534   0.384   2.966
  589TIP3    H1 1773   1.505   0.447   3.033
  589TIP3    H2 1774   1.576   0.314   3.016
  590TIP3   OH2 1775   4.448   1.372   4.798
  590TIP3    H1 1776   4.495   1.325   4.730
  590TIP3    H2 1777   4.431   1.307   4.866
  591TIP3   OH2 1778   2.891   2.441  -0.010
  591TIP3    H1 1779   2.796   2.433  -0.015
  591TIP3    H2 1780   2.907   2.499   0.065
  592TIP3   OH2 1781   5.249   2.825   1.846
  592TIP3    H1 1782   5.161   2.861   1.837
  592TIP3    H2 1783   5.255   2.800   1.939
  593TIP3   OH2 1784   1.056   1.662   3.504
  593TIP3    H1 1785   1.005   1.742   3.500
  593TIP3    H2 1786   1.147   1.690   3.491
  594TIP3   OH2 1787   1.999   2.388   4.505
  594TIP3    H1 1788   2.075   2.390   4.564
  594TIP3    H2 1789   2.003   2.471   4.458
  595TIP3   OH2 1790   2.625   2.166   0.066
  595TIP3    H1 1791   2.599   2.243   0.015
  595TIP3    H2 1792   2.601   2.092   0.010
  596TIP3   OH2 1793   2.213   5.662   1.543
  596TIP3    H1 1794   2.170   5.589   1.587
  596TIP3    H2 1795   2.275   5.695   1.608
  597TIP3   OH2 1796   5.562   1.660   1.521
  597TIP3    H1 1797   5.626   1.710   1.571
  597TIP3    H2 1798   5.549   1.710   1.440
  598TIP3   OH2 1799   4.764   4.852   4.725
  598TIP3    H1 1800   4.761   4.829   4.632
  598TIP3    H2 1801   4.673   4.869   4.749
  599TIP3   OH2 1802   5.558   3.987   0.116
  599TIP3    H1 1803   5.504   3.910   0.134
  599TIP3    H2 1804   5.506   4.039   0.055
  600TIP3   OH2 1805   2.150   4.067   4.465
  600TIP3    H1 1806   2.184   4.087   4.552
  600TIP3    H2 1807   2.117   3.978   4.471
  601TIP3   OH2 1808   4.205   5.929   4.675
  601TIP3    H1 1809   4.240   6.005   4.629
  601TIP3    H2 1810   4.127   5.962   4.719
  602TIP3   OH2 1811   2.927   0.234   1.761
  602TIP3    H1 1812   2.897   0.225   1.670
  602TIP3    H2 1813   2.989   0.163   1.773
  603TIP3   OH2 1814   3.124   3.305   0.043
  603TIP3    H1 1815   3.075   3.314  -0.039
  603TIP3    H2 1816   3.166   3.390   0.055
  604TIP3   OH2 1817   6.214   0.988   1.845
  604TIP3    H1 1818   6.258   1.050   1.905
  604TIP3    H2 1819   6.173   1.044   1.780
  605TIP3   OH2 1820   2.482   0.788   1.995
  605TIP3    H1 1821   2.424   0.726   1.950
  605TIP3    H2 1822   2.508   0.850   1.927
  606TIP3   OH2 1823   3.340   4.381   1.176
  606TIP3    H1 1824   3.423   4.428   1.188
  606TIP3    H2 1825   3.276   4.435   1.224
  607TIP3   OH2 1826   3.494   0.005   4.134
  607TIP3    H1 1827   3.515   0.062   4.208
  607TIP3    H2 1828   3.540   0.044   4.060
  608TIP3   OH2 1829   3.239   3.934   2.962
  608TIP3    H1 1830   3.317   3.988   2.953
  608TIP3    H2 1831   3.243   3.873   2.888
  609TIP3   OH2 1832   6.028   3.087   5.038
  609TIP3    H1 1833   6.046   2.993   5.033
  609TIP3    H2 1834   5.947   3.099   4.988
  610TIP3   OH2 1835   5.550   4.611   3.442
  610TIP3    H1 1836   5.555   4.521   3.411
  610TIP3    H2 1837   5.568   4.604   3.536
  611TIP3   OH2 1838   5.870   4.538   4.405
  611TIP3    H1 1839   5.889   4.631   4.416
  611TIP3    H2 1840   5.812   4.517   4.478
  612TIP3   OH2 1841   0.983   2.526   2.360
  612TIP3    H1 1842   0.994   2.432   2.347
  612TIP3    H2 1843   0.945   2.558   2.278
  613TIP3   OH2 1844   4.582   3.444   1.865
  613TIP3    H1 1845   4.610   3.525   1.908
  613TIP3    H2 1846   4.598   3.376   1.930
  614TIP3   OH2 1847   2.109   3.151   3.860
  614TIP3    H1 1848   2.063   3.152   3.944
  614TIP3    H2 1849   2.201   3.165   3.882
  615TIP3   OH2 1850   2.151   4.605   5.091
  615TIP3    H1 1851   2.063   4.638   5.110
  615TIP3    H2 1852   2.136   4.524   5.043
  616TIP3   OH2 1853   5.880   0.439   4.316
  616TIP3    H1 1854   5.964   0.459   4.274
  616TIP3    H2 1855   5.899   0.361   4.369
  617TIP3   OH2 1856   0.426   5.266   4.606
  617TIP3    H1 1857   0.352   5.311   4.565
  617TIP3    H2 1858   0.405   5.173   4.597
  618TIP3   OH2 1859   1.453   0.910   3.324
  618TIP3    H1 1860   1.387   0.956   3.272
  618TIP3    H2 1861   1.480   0.837   3.269
  619TIP3   OH2 1862   2.708   4.373   2.572
  619TIP3    H1 1863   2.742   4.421   2.497
  619TIP3    H2 1864   2.637   4.428   2.605
  620TIP3   OH2 1865   0.809   5.761   3.935
  620TIP3    H1 1866   0.832   5.773   3.843
  620TIP3    H2 1867   0.820   5.667   3.950
  621TIP3   OH2 1868   5.154   1.025   0.977
  621TIP3    H1 1869   5.212   1.043   1.051
  621TIP3    H2 1870   5.181   1.088   0.910
  622TIP3   OH2 1871   5.406   3.995   2.347
  622TIP3    H1 1872   5.340   3.934   2.314
  622TIP3    H2 1873   5.487   3.942   2.349
  623TIP3   OH2 1874   2.754   2.232   1.371
  623TIP3    H1 1875   2.839   2.189   1.367
  623TIP3    H2 1876   2.694   2.170   1.330
  624TIP3   OH2 1877   1.092   4.625   0.187
  624TIP3    H1 1878   1.099   4.569   0.264
  624TIP3    H2 1879   1.001   4.655   0.188
  625TIP3   OH2 1880   0.939   4.012   1.243
  625TIP3    H1 1881   0.847   3.999   1.218
  625TIP3    H2 1882   0.973   4.074   1.178
  626TIP3   OH2 1883   2.309   4.994   2.941
  626TIP3    H1 1884   2.286   4.928   3.006
  626TIP3    H2 1885   2.261   5.072   2.967
  627TIP3   OH2 1886   5.652   0.146   2.897
  627TIP3    H1 1887   5.673   0.159   2.990
  627TIP3    H2 1888   5.585   0.078   2.898
  628TIP3   OH2 1889   3.293   2.326   4.235
  628TIP3    H1 1890   3.278   2.237   4.267
  628TIP3    H2 1891   3.222   2.342   4.173
  629TIP3   OH2 1892   2.269   2.032   5.144
  629TIP3    H1 1893   2.268   1.953   5.089
  629TIP3    H2 1894   2.214   2.094   5.096
  630TIP3   OH2 1895   4.089   3.181   3.112
  630TIP3    H1 1896   4.070   3.275   3.117
  630TIP3    H2 1897   4.104   3.154   3.202
  631TIP3   OH2 1898   1.903   2.715   1.295
  631TIP3    H1 1899   1.933   2.632   1.258
  631TIP3    H2 1900   1.812   2.723   1.267
  632TIP3   OH2 1901   3.691   3.645   4.856
  632TIP3    H1 1902   3.692   3.654   4.761
  632TIP3    H2 1903   3.612   3.593   4.874
  633TIP3   OH2 1904   4.906   0.751   3.789
  633TIP3    H1 1905   4.996   0.781   3.803
  633TIP3    H2 1906   4.875   0.727   3.876
  634TIP3   OH2 1907   1.635   1.364   4.962
  634TIP3    H1 1908   1.709   1.420   4.986
  634TIP3    H2 1909   1.667   1.275   4.976
  635TIP3   OH2 1910   6.139   3.361   3.972
  635TIP3    H1 1911   6.200   3.408   3.916
  635TIP3    H2 1912   6.144   3.406   4.056
  636TIP3   OH2 1913   0.788   4.776   0.876
  636TIP3    H1 1914   0.758   4.776   0.967
  636TIP3    H2 1915   0.875   4.736   0.880
  637TIP3   OH2 1916   0.362   1.701   4.207
  637TIP3    H1 1917   0.327   1.714   4.119
  637TIP3    H2 1918   0.305   1.634   4.246
  638TIP3   OH2 1919   0.984   0.052   2.077
  638TIP3    H1 1920   0.984   0.045   2.172
  638TIP3    H2 1921   0.948  -0.032   2.047
  639TIP3   OH2 1922   0.758   5.865   1.147
  639TIP3    H1 1923   0.801   5.823   1.072
  639TIP3    H2 1924   0.748   5.957   1.120
  640TIP3   OH2 1925   4.723   1.409   1.334
  640TIP3    H1 1926   4.714   1.501   1.359
  640TIP3    H2 1927   4.816   1.398   1.316
  641TIP3   OH2 1928   4.366   5.718   3.950
  641TIP3    H1 1929   4.433   5.651   3.963
  641TIP3    H2 1930   4.393   5.764   3.871
  642TIP3   OH2 1931   3.938   0.322   2.524
  642TIP3    H1 1932   4.012   0.305   2.466
  642TIP3    H2 1933   3.976   0.368   2.599
  643TIP3   OH2 1934   2.788   3.537   4.561
  643TIP3    H1 1935   2.821   3.620   4.596
  643TIP3    H2 1936   2.779   3.552   4.467
  644TIP3   OH2 1937   1.532   3.228   4.202
  644TIP3    H1 1938   1.587   3.284   4.148
  644TIP3    H2 1939   1.469   3.190   4.141
  645TIP3   OH2 1940   3.834   1.198   2.269
  645TIP3    H1 1941   3.844   1.105   2.251
  645TIP3    H2 1942   3.921   1.227   2.298
  646TIP3   OH2 1943   2.186   3.633   3.494
  646TIP3    H1 1944   2.223   3.701   3.550
  646TIP3    H2 1945   2.150   3.569   3.555
  647TIP3   OH2 1946   1.488   4.702   1.039
  647TIP3    H1 1947   1.497   4.633   0.973
  647TIP3    H2 1948   1.411   4.752   1.012
  648TIP3   OH2 1949   6.045   0.976   3.935
  648TIP3    H1 1950   6.100   1.042   3.975
  648TIP3    H2 1951   6.100   0.898   3.931
  649TIP3   OH2 1952   2.956   0.266   3.849
  649TIP3    H1 1953   2.966   0.314   3.767
  649TIP3    H2 1954   3.024   0.302   3.906
  650TIP3   OH2 1955   0.303   5.746   2.876
  650TIP3    H1 1956   0.211   5.759   2.896
  650TIP3    H2 1957   0.337   5.696   2.950
  651TIP3   OH2 1958   4.688   1.613   4.140
  651TIP3    H1 1959   4.777   1.578   4.130
  651TIP3    H2 1960   4.701   1.701   4.177
  652TIP3   OH2 1961   2.339   2.790   5.121
  652TIP3    H1 1962   2.432   2.804   5.106
  652TIP3    H2 1963   2.305   2.760   5.036
  653TIP3   OH2 1964   3.419   3.160   4.298
  653TIP3    H1 1965   3.344   3.137   4.353
  653TIP3    H2 1966   3.382   3.167   4.210
  654TIP3   OH2 1967   4.551   3.237   4.374
  654TIP3    H1 1968   4.643   3.215   4.358
  654TIP3    H2 1969   4.554   3.301   4.445
  655TIP3   OH2 1970   1.841   2.990   0.993
  655TIP3    H1 1971   1.798   2.906   0.979
  655TIP3    H2 1972   1.795   3.050   0.933
  656TIP3   OH2 1973   2.897   2.362   1.020
  656TIP3    H1 1974   2.919   2.276   1.057
  656TIP3    H2 1975   2.820   2.390   1.070
  657TIP3   OH2 1976   5.157   1.314   0.641
  657TIP3    H1 1977   5.235   1.330   0.587
  657TIP3    H2 1978   5.091   1.372   0.604
  658TIP3   OH2 1979   4.536   3.128   3.849
  658TIP3    H1 1980   4.617   3.139   3.800
  658TIP3    H2 1981   4.513   3.216   3.879
  659TIP3   OH2 1982   1.322   3.320   2.442
  659TIP3    H1 1983   1.253   3.363   2.493
  659TIP3    H2 1984   1.291   3.230   2.431
  660TIP3   OH2 1985   1.656   3.894   4.162
  660TIP3    H1 1986   1.564   3.917   4.148
  660TIP3    H2 1987   1.690   3.876   4.074
  661TIP3   OH2 1988   3.379   3.848   3.954
  661TIP3    H1 1989   3.409   3.890   3.873
  661TIP3    H2 1990   3.455   3.799   3.984
  662TIP3   OH2 1991   3.540   2.036   4.993
  662TIP3    H1 1992   3.569   1.964   5.049
  662TIP3    H2 1993   3.611   2.048   4.930
  663TIP3   OH2 1994   5.413   2.228   2.539
  663TIP3    H1 1995   5.502   2.201   2.562
  663TIP3    H2 1996   5.388   2.169   2.468
  664TIP3   OH2 1997   1.894   5.630   2.662
  664TIP3    H1 1998   1.990   5.627   2.661
  664TIP3    H2 1999   1.870   5.664   2.576
  665TIP3   OH2 2000   4.517   5.853   2.978
  665TIP3    H1 2001   4.569   5.920   3.022
  665TIP3    H2 2002   4.582   5.793   2.941
  666TIP3   OH2 2003   3.015  -0.005   1.550
  666TIP3    H1 2004   3.013   0.059   1.479
  666TIP3    H2 2005   2.983  -0.086   1.510
  667TIP3   OH2 2006   1.874   2.073   1.451
  667TIP3    H1 2007   1.857   2.089   1.544
  667TIP3    H2 2008   1.901   1.982   1.446
  668TIP3   OH2 2009   1.979   1.191   0.626
  668TIP3    H1 2010   2.068   1.215   0.601
  668TIP3    H2 2011   1.990   1.110   0.677
  669TIP3   OH2 2012   4.876   1.303   4.993
  669TIP3    H1 2013   4.821   1.235   4.954
  669TIP3    H2 2014   4.889   1.366   4.922
  670TIP3   OH2 2015   5.223   2.109   5.133
  670TIP3    H1 2016   5.275   2.054   5.192
  670TIP3    H2 2017   5.287   2.150   5.076
  671TIP3   OH2 2018   2.319   1.710   2.822
  671TIP3    H1 2019   2.226   1.686   2.819
  671TIP3    H2 2020   2.346   1.711   2.730
  672TIP3   OH2 2021   4.974   5.916   4.002
  672TIP3    H1 2022   4.958   5.841   3.946
  672TIP3    H2 2023   5.041   5.967   3.956
  673TIP3   OH2 2024   1.697   3.724   0.740
  673TIP3    H1 2025   1.762   3.656   0.726
  673TIP3    H2 2026   1.613   3.680   0.725
  674TIP3   OH2 2027   0.189   1.107   0.088
  674TIP3    H1 2028   0.097   1.081   0.090
  674TIP3    H2 2029   0.187   1.203   0.084
  675TIP3   OH2 2030   4.705   0.936   3.893
  675TIP3    H1 2031   4.800   0.930   3.907
  675TIP3    H2 2032   4.677   1.005   3.953
  676TIP3   OH2 2033   0.004   0.188   4.568
  676TIP3    H1 2034   0.050   0.231   4.496
  676TIP3    H2 2035  -0.057   0.255   4.601
  677TIP3   OH2 2036   1.562   3.335   2.195
  677TIP3    H1 2037   1.581   3.403   2.129
  677TIP3    H2 2038   1.622   3.264   2.173
  678TIP3   OH2 2039   3.636   1.173   1.040
  678TIP3    H1 2040   3.604   1.258   1.070
  678TIP3    H2 2041   3.641   1.181   0.945
  679TIP3   OH2 2042   1.076   3.380   4.851
  679TIP3    H1 2043   1.122   3.392   4.934
  679TIP3    H2 2044   1.137   3.413   4.785
  680TIP3   OH2 2045   3.239   1.417   3.213
  680TIP3    H1 2046   3.233   1.323   3.196
  680TIP3    H2 2047   3.154   1.452   3.186
  681TIP3   OH2 2048   0.971   1.018   3.715
  681TIP3    H1 2049   0.992   1.111   3.717
  681TIP3    H2 2050   0.896   1.012   3.656
  682TIP3   OH2 2051   6.367   4.985   3.030
  682TIP3    H1 2052   6.327   5.071   3.022
  682TIP3    H2 2053   6.297   4.929   3.063
  683TIP3   OH2 2054   0.135   4.126   4.614
  683TIP3    H1 2055   0.046   4.114   4.646
  683TIP3    H2 2056   0.174   4.191   4.673
  684TIP3   OH2 2057   0.877   0.682   4.569
  684TIP3    H1 2058   0.788   0.686   4.605
  684TIP3    H2 2059   0.866   0.697   4.475
  685TIP3   OH2 2060   1.858   0.565   0.643
  685TIP3    H1 2061   1.785   0.627   0.639
  685TIP3    H2 2062   1.928   0.614   0.686
  686TIP3   OH2 2063   1.471   4.937   3.474
  686TIP3    H1 2064   1.479   4.953   3.380
  686TIP3    H2 2065   1.433   5.018   3.509
  687TIP3   OH2 2066   0.770   0.031   3.486
  687TIP3    H1 2067   0.856   0.051   3.450
  687TIP3    H2 2068   0.710   0.092   3.444
  688TIP3   OH2 2069   0.666   0.446   2.116
  688TIP3    H1 2070   0.606   0.372   2.118
  688TIP3    H2 2071   0.611   0.520   2.089
  689TIP3   OH2 2072   1.743   2.288   2.430
  689TIP3    H1 2073   1.822   2.265   2.479
  689TIP3    H2 2074   1.695   2.206   2.420
  690TIP3   OH2 2075   3.591   3.745   0.784
  690TIP3    H1 2076   3.668   3.757   0.840
  690TIP3    H2 2077   3.519   3.731   0.845
  691TIP3   OH2 2078   2.674   1.191   3.334
  691TIP3    H1 2079   2.660   1.233   3.249
  691TIP3    H2 2080   2.681   1.097   3.314
  692TIP3   OH2 2081   1.783   5.102   0.946
  692TIP3    H1 2082   1.738   5.168   0.893
  692TIP3    H2 2083   1.812   5.149   1.024
  693TIP3   OH2 2084   3.889   3.093   0.510
  693TIP3    H1 2085   3.888   3.016   0.453
  693TIP3    H2 2086   3.981   3.102   0.537
  694TIP3   OH2 2087   3.604   3.337   3.515
  694TIP3    H1 2088   3.677   3.308   3.460
  694TIP3    H2 2089   3.526   3.317   3.464
  695TIP3   OH2 2090   5.536   3.772   4.753
  695TIP3    H1 2091   5.612   3.714   4.759
  695TIP3    H2 2092   5.532   3.816   4.837
  696TIP3   OH2 2093   0.844   2.646   5.158
  696TIP3    H1 2094   0.869   2.564   5.115
  696TIP3    H2 2095   0.782   2.619   5.226
  697TIP3   OH2 2096   4.322   5.337   4.682
  697TIP3    H1 2097   4.285   5.308   4.599
  697TIP3    H2 2098   4.413   5.360   4.662
  698TIP3   OH2 2099   4.301   4.754   1.698
  698TIP3    H1 2100   4.332   4.842   1.681
  698TIP3    H2 2101   4.240   4.736   1.626
  699TIP3   OH2 2102   1.859   4.317   1.163
  699TIP3    H1 2103   1.834   4.276   1.246
  699TIP3    H2 2104   1.778   4.317   1.112
  700TIP3   OH2 2105   5.737   0.016   1.600
  700TIP3    H1 2106   5.656   0.023   1.550
  700TIP3    H2 2107   5.788   0.093   1.574
  701TIP3   OH2 2108   3.250   5.929   0.926
  701TIP3    H1 2109   3.315   5.859   0.932
  701TIP3    H2 2110   3.174   5.896   0.975
  702TIP3   OH2 2111   4.123   5.399   4.135
  702TIP3    H1 2112   4.144   5.491   4.116
  702TIP3    H2 2113   4.073   5.370   4.059
  703TIP3   OH2 2114   4.353   4.532   4.037
  703TIP3    H1 2115   4.386   4.554   3.950
  703TIP3    H2 2116   4.408   4.459   4.065
  704TIP3   OH2 2117   3.035   1.394   2.933
  704TIP3    H1 2118   3.062   1.451   2.861
  704TIP3    H2 2119   2.997   1.453   2.998
  705TIP3   OH2 2120   5.570   0.553   1.522
  705TIP3    H1 2121   5.635   0.580   1.586
  705TIP3    H2 2122   5.499   0.515   1.574
  706TIP3   OH2 2123   0.882   4.967   2.916
  706TIP3    H1 2124   0.887   4.930   2.828
  706TIP3    H2 2125   0.956   4.929   2.963
  707TIP3   OH2 2126   5.597   4.337   1.518
  707TIP3    H1 2127   5.513   4.381   1.528
  707TIP3    H2 2128   5.657   4.404   1.485
  708TIP3   OH2 2129   0.384   2.726   2.226
  708TIP3    H1 2130   0.326   2.666   2.274
  708TIP3    H2 2131   0.414   2.788   2.292
  709TIP3   OH2 2132   5.298   3.770   1.383
  709TIP3    H1 2133   5.385   3.750   1.417
  709TIP3    H2 2134   5.264   3.686   1.353
  710TIP3   OH2 2135   0.223   5.685   0.268
  710TIP3    H1 2136   0.216   5.779   0.286
  710TIP3    H2 2137   0.161   5.645   0.329
  711TIP3   OH2 2138   3.353   5.906   2.315
  711TIP3    H1 2139   3.406   5.897   2.395
  711TIP3    H2 2140   3.282   5.842   2.326
  712TIP3   OH2 2141   0.366   5.482   3.992
  712TIP3    H1 2142   0.419   5.561   3.986
  712TIP3    H2 2143   0.276   5.512   3.975
  713TIP3   OH2 2144   1.483   2.353   1.662
  713TIP3    H1 2145   1.415   2.323   1.721
  713TIP3    H2 2146   1.436   2.381   1.583
  714TIP3   OH2 2147   1.386   1.279   0.453
  714TIP3    H1 2148   1.362   1.313   0.540
  714TIP3    H2 2149   1.302   1.270   0.408
  715TIP3   OH2 2150   6.317   1.819   4.839
  715TIP3    H1 2151   6.264   1.799   4.916
  715TIP3    H2 2152   6.365   1.739   4.820
  716TIP3   OH2 2153   6.012   3.593   0.550
  716TIP3    H1 2154   6.017   3.582   0.645
  716TIP3    H2 2155   5.985   3.684   0.538
  717TIP3   OH2 2156   3.179   3.189   1.082
  717TIP3    H1 2157   3.179   3.203   1.176
  717TIP3    H2 2158   3.257   3.137   1.065
  718TIP3   OH2 2159   2.376   1.444   2.206
  718TIP3    H1 2160   2.298   1.413   2.159
  718TIP3    H2 2161   2.448   1.428   2.145
  719TIP3   OH2 2162   3.464   0.287   0.187
  719TIP3    H1 2163   3.397   0.271   0.253
  719TIP3    H2 2164   3.418   0.331   0.115
  720TIP3   OH2 2165   4.322   3.533   2.149
  720TIP3    H1 2166   4.306   3.480   2.227
  720TIP3    H2 2167   4.279   3.485   2.078
  721TIP3   OH2 2168   1.600   3.733   1.640
  721TIP3    H1 2169   1.663   3.729   1.568
  721TIP3    H2 2170   1.515   3.725   1.597
  722TIP3   OH2 2171   0.623   2.749   1.556
  722TIP3    H1 2172   0.651   2.812   1.622
  722TIP3    H2 2173   0.662   2.781   1.475
  723TIP3   OH2 2174   6.239   3.935   1.746
  723TIP3    H1 2175   6.289   3.935   1.664
  723TIP3    H2 2176   6.239   4.026   1.774
  724TIP3   OH2 2177   1.786   5.063   1.930
  724TIP3    H1 2178   1.753   5.153   1.927
  724TIP3    H2 2179   1.819   5.047   1.841
  725TIP3   OH2 2180   0.559   4.791   4.218
  725TIP3    H1 2181   0.636   4.740   4.245
  725TIP3    H2 2182   0.592   4.846   4.147
  726TIP3   OH2 2183   0.171   0.399   1.488
  726TIP3    H1 2184   0.203   0.450   1.563
  726TIP3    H2 2185   0.080   0.425   1.479
  727TIP3   OH2 2186   3.532   5.912   1.237
  727TIP3    H1 2187   3.613   5.916   1.185
  727TIP3    H2 2188   3.506   6.004   1.246
  728TIP3   OH2 2189   5.413   1.060   2.113
  728TIP3    H1 2190   5.476   1.131   2.101
  728TIP3    H2 2191   5.332   1.093   2.074
  729TIP3   OH2 2192   5.649   0.559   1.249
  729TIP3    H1 2193   5.620   0.650   1.237
  729TIP3    H2 2194   5.597   0.526   1.322
  730TIP3   OH2 2195   3.181   0.784   4.918
  730TIP3    H1 2196   3.267   0.826   4.912
  730TIP3    H2 2197   3.152   0.778   4.827
  731TIP3   OH2 2198   3.937   3.398   1.796
  731TIP3    H1 2199   3.866   3.459   1.776
  731TIP3    H2 2200   3.921   3.322   1.740
  732TIP3   OH2 2201   0.218   1.168   3.772
  732TIP3    H1 2202   0.237   1.135   3.684
  732TIP3    H2 2203   0.147   1.230   3.760
  733TIP3   OH2 2204   3.455   4.676   2.548
  733TIP3    H1 2205   3.414   4.677   2.462
  733TIP3    H2 2206   3.547   4.660   2.531
  734TIP3   OH2 2207   1.604   2.620   4.468
  734TIP3    H1 2208   1.599   2.618   4.372
  734TIP3    H2 2209   1.695   2.644   4.486
  735TIP3   OH2 2210   0.947   3.123   4.907
  735TIP3    H1 2211   0.892   3.165   4.972
  735TIP3    H2 2212   1.002   3.193   4.872
  736TIP3   OH2 2213   0.481   3.325   3.503
  736TIP3    H1 2214   0.498   3.316   3.409
  736TIP3    H2 2215   0.430   3.405   3.510
  737TIP3   OH2 2216   1.265   2.710   0.099
  737TIP3    H1 2217   1.258   2.637   0.161
  737TIP3    H2 2218   1.297   2.670   0.019
  738TIP3   OH2 2219   4.540   0.421   1.152
  738TIP3    H1 2220   4.541   0.397   1.060
  738TIP3    H2 2221   4.614   0.482   1.162
  739TIP3   OH2 2222   3.884   2.207   0.109
  739TIP3    H1 2223   3.870   2.222   0.016
  739TIP3    H2 2224   3.809   2.154   0.137
  740TIP3   OH2 2225   0.919   0.314   2.096
  740TIP3    H1 2226   0.836   0.339   2.138
  740TIP3    H2 2227   0.921   0.219   2.101
  741TIP3   OH2 2228   3.425   0.414   1.905
  741TIP3    H1 2229   3.358   0.449   1.964
  741TIP3    H2 2230   3.392   0.432   1.817
  742TIP3   OH2 2231   5.048   0.321   4.611
  742TIP3    H1 2232   5.113   0.251   4.610
  742TIP3    H2 2233   4.990   0.301   4.537
  743TIP3   OH2 2234   1.925   4.112   3.800
  743TIP3    H1 2235   1.931   4.031   3.750
  743TIP3    H2 2236   2.012   4.152   3.792
  744TIP3   OH2 2237   4.470   4.264   1.087
  744TIP3    H1 2238   4.388   4.310   1.074
  744TIP3    H2 2239   4.445   4.172   1.099
  745TIP3   OH2 2240   2.476   5.168   0.477
  745TIP3    H1 2241   2.540   5.237   0.494
  745TIP3    H2 2242   2.451   5.179   0.385
  746TIP3   OH2 2243   4.680   2.070   2.189
  746TIP3    H1 2244   4.660   2.011   2.261
  746TIP3    H2 2245   4.656   2.022   2.110
  747TIP3   OH2 2246   3.423   1.922   1.630
  747TIP3    H1 2247   3.385   1.881   1.708
  747TIP3    H2 2248   3.515   1.895   1.631
  748TIP3   OH2 2249   1.223   0.369   0.808
  748TIP3    H1 2250   1.136   0.337   0.830
  748TIP3    H2 2251   1.271   0.367   0.891
  749TIP3   OH2 2252   3.752   3.489   2.058
  749TIP3    H1 2253   3.772   3.572   2.014
  749TIP3    H2 2254   3.810   3.425   2.016
  750TIP3   OH2 2255   5.141   1.049   0.528
  750TIP3    H1 2256   5.064   1.009   0.569
  750TIP3    H2 2257   5.149   1.135   0.570
  751TIP3   OH2 2258   0.960   3.006   3.519
  751TIP3    H1 2259   0.892   3.028   3.583
  751TIP3    H2 2260   0.976   3.088   3.472
  752TIP3   OH2 2261   3.552   4.607   1.828
  752TIP3    H1 2262   3.590   4.547   1.763
  752TIP3    H2 2263   3.504   4.671   1.776
  753TIP3   OH2 2264   1.842   2.482   0.530
  753TIP3    H1 2265   1.828   2.540   0.454
  753TIP3    H2 2266   1.915   2.426   0.504
  754TIP3   OH2 2267   0.292   5.977   4.110
  754TIP3    H1 2268   0.373   5.959   4.062
  754TIP3    H2 2269   0.228   5.917   4.073
  755TIP3   OH2 2270   3.153   3.602   2.969
  755TIP3    H1 2271   3.183   3.621   2.880
  755TIP3    H2 2272   3.109   3.517   2.962
  756TIP3   OH2 2273   2.532   1.672   2.309
  756TIP3    H1 2274   2.576   1.723   2.240
  756TIP3    H2 2275   2.451   1.641   2.267
  757TIP3   OH2 2276   1.140   1.891   0.457
  757TIP3    H1 2277   1.065   1.936   0.496
  757TIP3    H2 2278   1.216   1.933   0.497
  758TIP3   OH2 2279   3.653   5.333   3.540
  758TIP3    H1 2280   3.603   5.414   3.543
  758TIP3    H2 2281   3.593   5.266   3.571
  759TIP3   OH2 2282   1.348   4.678   3.268
  759TIP3    H1 2283   1.263   4.718   3.286
  759TIP3    H2 2284   1.389   4.737   3.204
  760TIP3   OH2 2285   2.109   1.319   2.076
  760TIP3    H1 2286   2.082   1.227   2.071
  760TIP3    H2 2287   2.090   1.354   1.989
  761TIP3   OH2 2288   5.868   1.715   1.335
  761TIP3    H1 2289   5.801   1.745   1.397
  761TIP3    H2 2290   5.908   1.796   1.303
  762TIP3   OH2 2291   2.717   2.202   2.230
  762TIP3    H1 2292   2.632   2.224   2.192
  762TIP3    H2 2293   2.773   2.276   2.208
  763TIP3   OH2 2294   0.970   3.734   2.196
  763TIP3    H1 2295   0.992   3.774   2.280
  763TIP3    H2 2296   0.893   3.680   2.214
  764TIP3   OH2 2297   2.402   2.696   3.409
  764TIP3    H1 2298   2.497   2.708   3.403
  764TIP3    H2 2299   2.391   2.610   3.450
  765TIP3   OH2 2300   4.601   4.142   0.223
  765TIP3    H1 2301   4.631   4.055   0.249
  765TIP3    H2 2302   4.650   4.202   0.279
  766TIP3   OH2 2303   0.751   2.424   3.058
  766TIP3    H1 2304   0.828   2.482   3.054
  766TIP3    H2 2305   0.677   2.484   3.048
  767TIP3   OH2 2306   5.315   1.312   1.647
  767TIP3    H1 2307   5.284   1.223   1.666
  767TIP3    H2 2308   5.404   1.314   1.681
  768TIP3   OH2 2309   0.741   2.393   3.621
  768TIP3    H1 2310   0.694   2.441   3.689
  768TIP3    H2 2311   0.733   2.447   3.542
  769TIP3   OH2 2312   3.952   3.563   4.832
  769TIP3    H1 2313   3.883   3.605   4.883
  769TIP3    H2 2314   3.906   3.501   4.776
  770TIP3   OH2 2315   4.827   5.447   2.314
  770TIP3    H1 2316   4.776   5.394   2.254
  770TIP3    H2 2317   4.876   5.508   2.258
  771TIP3   OH2 2318   1.092   4.061   4.849
  771TIP3    H1 2319   1.039   4.030   4.776
  771TIP3    H2 2320   1.108   4.153   4.830
  772TIP3   OH2 2321   4.979   3.860   4.498
  772TIP3    H1 2322   5.065   3.859   4.455
  772TIP3    H2 2323   4.965   3.953   4.520
  773TIP3   OH2 2324   5.676   3.037   4.283
  773TIP3    H1 2325   5.761   3.026   4.326
  773TIP3    H2 2326   5.612   3.009   4.349
  774TIP3   OH2 2327   0.416   3.613   3.753
  774TIP3    H1 2328   0.408   3.706   3.776
  774TIP3    H2 2329   0.503   3.588   3.782
  775TIP3   OH2 2330   6.241   4.790   3.397
  775TIP3    H1 2331   6.314   4.844   3.366
  775TIP3    H2 2332   6.193   4.768   3.317
  776TIP3   OH2 2333   2.159   4.040   2.792
  776TIP3    H1 2334   2.207   3.958   2.788
  776TIP3    H2 2335   2.137   4.050   2.885
  777TIP3   OH2 2336   0.607   4.915   3.282
  777TIP3    H1 2337   0.700   4.915   3.260
  777TIP3    H2 2338   0.569   4.984   3.229
  778TIP3   OH2 2339   3.989   3.942   5.180
  778TIP3    H1 2340   3.914   4.000   5.191
  778TIP3    H2 2341   3.975   3.899   5.096
  779TIP3   OH2 2342   6.255   3.222   4.418
  779TIP3    H1 2343   6.223   3.197   4.331
  779TIP3    H2 2344   6.350   3.220   4.411
  780TIP3   OH2 2345   1.409   0.526   3.417
  780TIP3    H1 2346   1.368   0.446   3.384
  780TIP3    H2 2347   1.490   0.535   3.367
  781TIP3   OH2 2348   1.570   2.952   4.446
  781TIP3    H1 2349   1.600   2.862   4.441
  781TIP3    H2 2350   1.478   2.949   4.422
  782TIP3   OH2 2351   0.402   5.552   3.515
  782TIP3    H1 2352   0.346   5.475   3.508
  782TIP3    H2 2353   0.403   5.572   3.609
  783TIP3   OH2 2354   0.466   5.602   3.096
  783TIP3    H1 2355   0.392   5.552   3.131
  783TIP3    H2 2356   0.523   5.536   3.056
  784TIP3   OH2 2357   5.755   2.248   0.832
  784TIP3    H1 2358   5.699   2.170   0.822
  784TIP3    H2 2359   5.737   2.279   0.921
  785TIP3   OH2 2360   5.892   4.308   0.386
  785TIP3    H1 2361   5.894   4.226   0.337
  785TIP3    H2 2362   5.958   4.362   0.343
  786TIP3   OH2 2363   3.682   0.225   0.968
  786TIP3    H1 2364   3.671   0.291   0.900
  786TIP3    H2 2365   3.620   0.250   1.036
  787TIP3   OH2 2366   0.408   3.163   3.695
  787TIP3    H1 2367   0.440   3.077   3.670
  787TIP3    H2 2368   0.452   3.224   3.635
  788TIP3   OH2 2369   0.489   1.735   3.250
  788TIP3    H1 2370   0.510   1.795   3.321
  788TIP3    H2 2371   0.451   1.659   3.293
  789TIP3   OH2 2372   1.622   2.964   0.782
  789TIP3    H1 2373   1.645   3.003   0.698
  789TIP3    H2 2374   1.682   2.890   0.792
  790TIP3   OH2 2375   3.783   4.718   2.892
  790TIP3    H1 2376   3.727   4.642   2.905
  790TIP3    H2 2377   3.726   4.783   2.850
  791TIP3   OH2 2378   0.505   0.639   2.535
  791TIP3    H1 2379   0.411   0.639   2.513
  791TIP3    H2 2380   0.546   0.692   2.467
  792TIP3   OH2 2381   5.203   3.798   2.232
  792TIP3    H1 2382   5.198   3.723   2.173
  792TIP3    H2 2383   5.113   3.810   2.263
  793TIP3   OH2 2384   4.813   0.911   4.344
  793TIP3    H1 2385   4.771   0.997   4.351
  793TIP3    H2 2386   4.906   0.931   4.331
  794TIP3   OH2 2387   5.682   5.424   2.334
  794TIP3    H1 2388   5.653   5.514   2.319
  794TIP3    H2 2389   5.747   5.408   2.266
  795TIP3   OH2 2390   2.022   1.407   0.957
  795TIP3    H1 2391   2.002   1.319   0.987
  795TIP3    H2 2392   1.974   1.416   0.875
  796TIP3   OH2 2393   4.898   4.006   3.934
  796TIP3    H1 2394   4.966   4.056   3.889
  796TIP3    H2 2395   4.819   4.019   3.881
  797TIP3   OH2 2396   1.691   4.771   4.777
  797TIP3    H1 2397   1.739   4.827   4.717
  797TIP3    H2 2398   1.750   4.756   4.851
  798TIP3   OH2 2399   2.943   3.433   0.328
  798TIP3    H1 2400   2.886   3.385   0.388
  798TIP3    H2 2401   2.988   3.366   0.278
  799TIP3   OH2 2402   4.936   1.986   3.366
  799TIP3    H1 2403   4.987   2.054   3.323
  799TIP3    H2 2404   4.951   2.000   3.460
  800TIP3   OH2 2405   4.971   3.338   0.612
  800TIP3    H1 2406   4.888   3.310   0.571
  800TIP3    H2 2407   5.024   3.369   0.539
  801TIP3   OH2 2408   1.786   3.789   2.718
  801TIP3    H1 2409   1.797   3.840   2.799
  801TIP3    H2 2410   1.710   3.733   2.736
  802TIP3   OH2 2411   1.104   2.127   2.232
  802TIP3    H1 2412   1.128   2.217   2.251
  802TIP3    H2 2413   1.151   2.075   2.298
  803TIP3   OH2 2414   5.193   0.341   2.617
  803TIP3    H1 2415   5.204   0.323   2.710
  803TIP3    H2 2416   5.127   0.279   2.587
  804TIP3   OH2 2417   3.200   4.394   0.955
  804TIP3    H1 2418   3.233   4.311   0.919
  804TIP3    H2 2419   3.267   4.421   1.017
  805TIP3   OH2 2420   0.238   5.488   2.277
  805TIP3    H1 2421   0.291   5.542   2.336
  805TIP3    H2 2422   0.183   5.436   2.335
  806TIP3   OH2 2423   4.063   2.417   0.677
  806TIP3    H1 2424   4.152   2.383   0.673
  806TIP3    H2 2425   4.069   2.504   0.638
  807TIP3   OH2 2426   5.252   1.918   4.090
  807TIP3    H1 2427   5.288   1.925   4.178
  807TIP3    H2 2428   5.256   1.824   4.070
  808TIP3   OH2 2429   1.146   3.714   4.681
  808TIP3    H1 2430   1.061   3.699   4.723
  808TIP3    H2 2431   1.179   3.626   4.663
  809TIP3   OH2 2432   4.062   0.061   2.932
  809TIP3    H1 2433   4.074   0.121   2.858
  809TIP3    H2 2434   4.018  -0.015   2.894
  810TIP3   OH2 2435   2.948   5.910   0.265
  810TIP3    H1 2436   2.874   5.878   0.214
  810TIP3    H2 2437   3.023   5.860   0.233
  811TIP3   OH2 2438   5.933   5.796   2.221
  811TIP3    H1 2439   6.003   5.752   2.271
  811TIP3    H2 2440   5.897   5.860   2.282
  812TIP3   OH2 2441   1.854   5.892   0.502
  812TIP3    H1 2442   1.831   5.928   0.416
  812TIP3    H2 2443   1.936   5.936   0.525
  813TIP3   OH2 2444   3.682   2.865   3.954
  813TIP3    H1 2445   3.597   2.897   3.923
  813TIP3    H2 2446   3.720   2.940   4.001
  814TIP3   OH2 2447   1.592   3.120   3.522
  814TIP3    H1 2448   1.639   3.070   3.455
  814TIP3    H2 2449   1.499   3.103   3.505
  815TIP3   OH2 2450   3.770   4.962   2.527
  815TIP3    H1 2451   3.861   4.941   2.548
  815TIP3    H2 2452   3.775   5.043   2.476
  816TIP3   OH2 2453   3.365   0.772   3.884
  816TIP3    H1 2454   3.315   0.837   3.933
  816TIP3    H2 2455   3.393   0.709   3.950
  817TIP3   OH2 2456   3.945   2.112   2.067
  817TIP3    H1 2457   3.955   2.044   2.000
  817TIP3    H2 2458   3.940   2.194   2.017
  818TIP3   OH2 2459   1.330   5.074   2.208
  818TIP3    H1 2460   1.344   5.011   2.280
  818TIP3    H2 2461   1.254   5.125   2.235
  819TIP3   OH2 2462   2.787   4.007   1.747
  819TIP3    H1 2463   2.743   3.980   1.828
  819TIP3    H2 2464   2.873   3.965   1.751
  820TIP3   OH2 2465   0.984   1.426   4.799
  820TIP3    H1 2466   0.928   1.360   4.841
  820TIP3    H2 2467   0.943   1.442   4.714
  821TIP3   OH2 2468   3.537   1.965   0.698
  821TIP3    H1 2469   3.489   1.891   0.734
  821TIP3    H2 2470   3.561   2.017   0.775
  822TIP3   OH2 2471   5.959   5.601   1.008
  822TIP3    H1 2472   6.033   5.619   1.067
  822TIP3    H2 2473   5.882   5.620   1.061
  823TIP3   OH2 2474   2.715   1.409   2.366
  823TIP3    H1 2475   2.643   1.366   2.413
  823TIP3    H2 2476   2.672   1.459   2.297
  824TIP3   OH2 2477   0.101   2.089   1.279
  824TIP3    H1 2478   0.150   2.099   1.198
  824TIP3    H2 2479   0.016   2.130   1.261
  825TIP3   OH2 2480   4.263   5.390   3.194
  825TIP3    H1 2481   4.258   5.388   3.098
  825TIP3    H2 2482   4.213   5.314   3.222
  826TIP3   OH2 2483   1.088   3.630   3.431
  826TIP3    H1 2484   1.059   3.594   3.516
  826TIP3    H2 2485   1.064   3.722   3.435
  827TIP3   OH2 2486   3.284   3.492   1.521
  827TIP3    H1 2487   3.267   3.527   1.433
  827TIP3    H2 2488   3.239   3.553   1.580
  828TIP3   OH2 2489   2.755   2.805   1.956
  828TIP3    H1 2490   2.739   2.713   1.939
  828TIP3    H2 2491   2.668   2.844   1.963
  829TIP3   OH2 2492   5.805   0.378   3.949
  829TIP3    H1 2493   5.862   0.336   4.014
  829TIP3    H2 2494   5.826   0.472   3.958
  830TIP3   OH2 2495   0.787   2.423   4.053
  830TIP3    H1 2496   0.714   2.438   4.113
  830TIP3    H2 2497   0.781   2.331   4.029
  831TIP3   OH2 2498   2.177   3.419   4.082
  831TIP3    H1 2499   2.223   3.487   4.131
  831TIP3    H2 2500   2.227   3.411   4.001
  832TIP3   OH2 2501   1.665   5.786   4.806
  832TIP3    H1 2502   1.623   5.765   4.889
  832TIP3    H2 2503   1.722   5.711   4.788
  833TIP3   OH2 2504   2.081   2.102   4.096
  833TIP3    H1 2505   2.008   2.146   4.053
  833TIP3    H2 2506   2.042   2.060   4.173
  834TIP3   OH2 2507   1.365   4.168   0.194
  834TIP3    H1 2508   1.312   4.159   0.115
  834TIP3    H2 2509   1.410   4.085   0.203
  835TIP3   OH2 2510   4.914   4.609   3.584
  835TIP3    H1 2511   4.837   4.650   3.622
  835TIP3    H2 2512   4.907   4.627   3.490
  836TIP3   OH2 2513   3.725   0.952   1.691
  836TIP3    H1 2514   3.666   0.956   1.766
  836TIP3    H2 2515   3.795   0.892   1.719
  837TIP3   OH2 2516   3.902   1.561   4.964
  837TIP3    H1 2517   3.878   1.622   5.034
  837TIP3    H2 2518   3.819   1.519   4.941
  838TIP3   OH2 2519   0.604   0.648   3.653
  838TIP3    H1 2520   0.533   0.707   3.628
  838TIP3    H2 2521   0.623   0.598   3.574
  839TIP3   OH2 2522   0.099   4.314   1.769
  839TIP3    H1 2523   0.111   4.245   1.703
  839TIP3    H2 2524   0.126   4.273   1.851
  840TIP3   OH2 2525   3.970   5.650   4.260
  840TIP3    H1 2526   3.982   5.587   4.332
  840TIP3    H2 2527   3.985   5.599   4.181
  841TIP3   OH2 2528   1.539   2.261   0.980
  841TIP3    H1 2529   1.541   2.170   0.952
  841TIP3    H2 2530   1.524   2.310   0.899
  842TIP3   OH2 2531   1.430   3.145   0.869
  842TIP3    H1 2532   1.417   3.204   0.795
  842TIP3    H2 2533   1.506   3.092   0.844
  843TIP3   OH2 2534   4.547   0.834   3.565
  843TIP3    H1 2535   4.545   0.745   3.531
  843TIP3    H2 2536   4.459   0.850   3.598
  844TIP3   OH2 2537   5.947   5.768   1.322
  844TIP3    H1 2538   5.887   5.740   1.253
  844TIP3    H2 2539   6.010   5.824   1.276
  845TIP3   OH2 2540   4.034   5.116   0.666
  845TIP3    H1 2541   4.123   5.082   0.662
  845TIP3    H2 2542   3.993   5.068   0.738
  846TIP3   OH2 2543   5.459   3.425   0.758
  846TIP3    H1 2544   5.379   3.466   0.789
  846TIP3    H2 2545   5.528   3.488   0.778
  847TIP3   OH2 2546   4.075   5.306   2.548
  847TIP3    H1 2547   4.138   5.247   2.591
  847TIP3    H2 2548   4.031   5.350   2.621
  848TIP3   OH2 2549   1.470   2.867   3.905
  848TIP3    H1 2550   1.536   2.800   3.921
  848TIP3    H2 2551   1.398   2.844   3.963
  849TIP3   OH2 2552   1.943   1.127   2.262
  849TIP3    H1 2553   1.950   1.211   2.307
  849TIP3    H2 2554   2.032   1.092   2.261
  850TIP3   OH2 2555   2.240   3.701   1.715
  850TIP3    H1 2556   2.298   3.700   1.639
  850TIP3    H2 2557   2.259   3.784   1.758
  851TIP3   OH2 2558   4.714   0.416   2.141
  851TIP3    H1 2559   4.715   0.458   2.227
  851TIP3    H2 2560   4.770   0.339   2.151
  852TIP3   OH2 2561   4.620   5.244   0.489
  852TIP3    H1 2562   4.613   5.191   0.409
  852TIP3    H2 2563   4.611   5.180   0.560
  853TIP3   OH2 2564   1.293   2.546   0.990
  853TIP3    H1 2565   1.336   2.621   0.949
  853TIP3    H2 2566   1.353   2.518   1.059
  854TIP3   OH2 2567   2.695   3.092   0.304
  854TIP3    H1 2568   2.729   3.095   0.215
  854TIP3    H2 2569   2.670   3.000   0.317
  855TIP3   OH2 2570   3.176   5.525   0.387
  855TIP3    H1 2571   3.116   5.574   0.331
  855TIP3    H2 2572   3.250   5.503   0.331
  856TIP3   OH2 2573   5.037   0.000   1.730
  856TIP3    H1 2574   5.026   0.094   1.744
  856TIP3    H2 2575   4.989  -0.040   1.803
  857TIP3   OH2 2576   5.960   3.266   3.499
  857TIP3    H1 2577   6.034   3.206   3.502
  857TIP3    H2 2578   5.993   3.348   3.534
  858TIP3   OH2 2579   0.205   5.485   3.147
  858TIP3    H1 2580   0.200   5.396   3.181
  858TIP3    H2 2581   0.155   5.484   3.066
  859TIP3   OH2 2582   3.113   0.402   1.276
  859TIP3    H1 2583   3.185   0.447   1.320
  859TIP3    H2 2584   3.097   0.455   1.198
  860TIP3   OH2 2585   1.934   2.437   3.853
  860TIP3    H1 2586   2.019   2.452   3.811
  860TIP3    H2 2587   1.883   2.515   3.831
  861TIP3   OH2 2588   4.797   4.855   1.836
  861TIP3    H1 2589   4.771   4.903   1.915
  861TIP3    H2 2590   4.760   4.768   1.848
  862TIP3   OH2 2591   0.095   2.203   1.517
  862TIP3    H1 2592   0.057   2.123   1.552
  862TIP3    H2 2593   0.110   2.184   1.424
  863TIP3   OH2 2594   3.275   5.535   1.932
  863TIP3    H1 2595   3.183   5.542   1.958
  863TIP3    H2 2596   3.303   5.626   1.918
  864TIP3   OH2 2597   4.588   1.632   2.554
  864TIP3    H1 2598   4.635   1.550   2.540
  864TIP3    H2 2599   4.511   1.607   2.605
  865TIP3   OH2 2600   3.922   5.391   2.769
  865TIP3    H1 2601   3.878   5.372   2.851
  865TIP3    H2 2602   3.863   5.451   2.723
  866TIP3   OH2 2603   2.324   0.219   5.117
  866TIP3    H1 2604   2.268   0.144   5.133
  866TIP3    H2 2605   2.321   0.269   5.199
  867TIP3   OH2 2606   5.154   1.426   2.518
  867TIP3    H1 2607   5.152   1.425   2.422
  867TIP3    H2 2608   5.091   1.495   2.542
  868TIP3   OH2 2609   1.976   0.910   3.859
  868TIP3    H1 2610   2.045   0.892   3.923
  868TIP3    H2 2611   1.930   0.826   3.850
  869TIP3   OH2 2612   1.117   1.653   2.341
  869TIP3    H1 2613   1.189   1.593   2.323
  869TIP3    H2 2614   1.077   1.619   2.420
  870TIP3   OH2 2615   1.307   2.817   4.102
  870TIP3    H1 2616   1.326   2.725   4.120
  870TIP3    H2 2617   1.211   2.820   4.095
  871TIP3   OH2 2618   3.686   5.688   4.055
  871TIP3    H1 2619   3.636   5.624   4.106
  871TIP3    H2 2620   3.760   5.638   4.020
  872TIP3   OH2 2621   0.457   5.691   2.367
  872TIP3    H1 2622   0.522   5.734   2.310
  872TIP3    H2 2623   0.487   5.600   2.372
  873TIP3   OH2 2624   0.629   2.688   2.760
  873TIP3    H1 2625   0.701   2.722   2.814
  873TIP3    H2 2626   0.672   2.650   2.683
  874TIP3   OH2 2627   6.090  -0.013   3.353
  874TIP3    H1 2628   6.073  -0.090   3.407
  874TIP3    H2 2629   6.172   0.023   3.387
  875TIP3   OH2 2630   3.646   2.475   2.556
  875TIP3    H1 2631   3.582   2.544   2.574
  875TIP3    H2 2632   3.622   2.404   2.615
  876TIP3   OH2 2633   4.944   1.684   3.693
  876TIP3    H1 2634   4.944   1.776   3.721
  876TIP3    H2 2635   4.892   1.639   3.759
  877TIP3   OH2 2636   4.610   1.620   2.027
  877TIP3    H1 2637   4.592   1.708   1.995
  877TIP3    H2 2638   4.530   1.593   2.071
  878TIP3   OH2 2639   2.886   0.296   0.565
  878TIP3    H1 2640   2.909   0.312   0.657
  878TIP3    H2 2641   2.817   0.230   0.569
  879TIP3   OH2 2642   6.147   2.116   4.918
  879TIP3    H1 2643   6.122   2.024   4.926
  879TIP3    H2 2644   6.092   2.162   4.982
  880TIP3   OH2 2645   2.192   5.395   0.156
  880TIP3    H1 2646   2.215   5.314   0.111
  880TIP3    H2 2647   2.199   5.463   0.089
  881TIP3   OH2 2648   6.201   2.674   3.241
  881TIP3    H1 2649   6.158   2.747   3.284
  881TIP3    H2 2650   6.289   2.672   3.278
  882TIP3   OH2 2651   0.205   1.093   4.062
  882TIP3    H1 2652   0.185   1.086   3.968
  882TIP3    H2 2653   0.208   1.187   4.078
  883TIP3   OH2 2654   5.455   0.355   2.485
  883TIP3    H1 2655   5.370   0.344   2.527
  883TIP3    H2 2656   5.514   0.298   2.535
  884TIP3   OH2 2657   2.880   1.971   4.663
  884TIP3    H1 2658   2.950   1.932   4.715
  884TIP3    H2 2659   2.845   2.041   4.718
  885TIP3   OH2 2660   4.629   4.071   2.341
  885TIP3    H1 2661   4.556   4.045   2.397
  885TIP3    H2 2662   4.682   3.991   2.333
  886TIP3   OH2 2663   1.622   4.904   0.451
  886TIP3    H1 2664   1.691   4.873   0.510
  886TIP3    H2 2665   1.614   4.835   0.385
  887TIP3   OH2 2666   4.710   3.731   4.904
  887TIP3    H1 2667   4.656   3.701   4.978
  887TIP3    H2 2668   4.800   3.715   4.932
  888TIP3   OH2 2669   4.998   1.270   4.523
  888TIP3    H1 2670   4.974   1.325   4.597
  888TIP3    H2 2671   5.025   1.187   4.562
  889TIP3   OH2 2672   5.875   4.844   3.203
  889TIP3    H1 2673   5.878   4.781   3.131
  889TIP3    H2 2674   5.914   4.796   3.277
  890TIP3   OH2 2675   5.642   5.221   4.728
  890TIP3    H1 2676   5.640   5.126   4.719
  890TIP3    H2 2677   5.602   5.254   4.648
  891TIP3   OH2 2678   6.143   0.157   0.528
  891TIP3    H1 2679   6.186   0.110   0.456
  891TIP3    H2 2680   6.208   0.156   0.598
  892TIP3   OH2 2681   1.020   2.579   2.956
  892TIP3    H1 2682   1.025   2.566   2.862
  892TIP3    H2 2683   1.098   2.536   2.991
  893TIP3   OH2 2684   5.107   2.534   2.917
  893TIP3    H1 2685   5.144   2.576   2.839
  893TIP3    H2 2686   5.078   2.448   2.886
  894TIP3   OH2 2687   4.135   1.512   0.605
  894TIP3    H1 2688   4.212   1.499   0.549
  894TIP3    H2 2689   4.171   1.532   0.691
  895TIP3   OH2 2690   3.199   4.611   1.284
  895TIP3    H1 2691   3.233   4.676   1.345
  895TIP3    H2 2692   3.128   4.567   1.332
  896TIP3   OH2 2693   4.690   0.450   4.778
  896TIP3    H1 2694   4.620   0.418   4.835
  896TIP3    H2 2695   4.753   0.379   4.775
  897TIP3   OH2 2696   0.428   5.332   1.921
  897TIP3    H1 2697   0.388   5.406   1.965
  897TIP3    H2 2698   0.505   5.369   1.877
  898TIP3   OH2 2699   5.455   1.408   4.031
  898TIP3    H1 2700   5.494   1.466   4.097
  898TIP3    H2 2701   5.409   1.341   4.083
  899TIP3   OH2 2702   5.432   5.132   3.912
  899TIP3    H1 2703   5.392   5.150   3.997
  899TIP3    H2 2704   5.526   5.143   3.926
  900TIP3   OH2 2705   2.778   3.966   0.941
  900TIP3    H1 2706   2.817   3.894   0.990
  900TIP3    H2 2707   2.693   3.932   0.912
  901TIP3   OH2 2708   2.290   0.418   4.890
  901TIP3    H1 2709   2.381   0.440   4.869
  901TIP3    H2 2710   2.295   0.376   4.975
  902TIP3   OH2 2711   3.072   0.433   2.969
  902TIP3    H1 2712   3.055   0.438   3.064
  902TIP3    H2 2713   3.140   0.367   2.960
  903TIP3   OH2 2714   2.768   4.079   3.843
  903TIP3    H1 2715   2.693   4.099   3.899
  903TIP3    H2 2716   2.784   4.160   3.795
  904TIP3   OH2 2717   5.748   1.629   3.253
  904TIP3    H1 2718   5.689   1.674   3.193
  904TIP3    H2 2719   5.695   1.612   3.331
  905TIP3   OH2 2720   4.171   3.612   5.151
  905TIP3    H1 2721   4.075   3.619   5.150
  905TIP3    H2 2722   4.191   3.571   5.235
  906TIP3   OH2 2723   5.019   5.744   2.438
  906TIP3    H1 2724   5.008   5.721   2.530
  906TIP3    H2 2725   5.104   5.787   2.434
  907TIP3   OH2 2726   0.511   3.978   0.556
  907TIP3    H1 2727   0.492   4.069   0.576
  907TIP3    H2 2728   0.459   3.928   0.620
  908TIP3   OH2 2729   0.773   0.956   3.525
  908TIP3    H1 2730   0.799   0.964   3.433
  908TIP3    H2 2731   0.795   0.866   3.548
  909TIP3   OH2 2732   6.051   2.901   3.279
  909TIP3    H1 2733   6.059   2.995   3.263
  909TIP3    H2 2734   5.976   2.873   3.226
  910TIP3   OH2 2735   3.253   3.258   3.045
  910TIP3    H1 2736   3.169   3.265   2.998
  910TIP3    H2 2737   3.274   3.349   3.069
  911TIP3   OH2 2738   5.523   5.382   4.514
  911TIP3    H1 2739   5.553   5.352   4.428
  911TIP3    H2 2740   5.562   5.469   4.524
  912TIP3   OH2 2741   5.598   4.979   1.243
  912TIP3    H1 2742   5.583   4.940   1.329
  912TIP3    H2 2743   5.633   5.066   1.262
  913TIP3   OH2 2744   0.168   2.440   2.093
  913TIP3    H1 2745   0.238   2.378   2.072
  913TIP3    H2 2746   0.194   2.478   2.177
  914TIP3   OH2 2747   2.797   3.993   0.035
  914TIP3    H1 2748   2.820   4.020   0.124
  914TIP3    H2 2749   2.879   4.001  -0.014
  915TIP3   OH2 2750   4.456   0.436   0.291
  915TIP3    H1 2751   4.375   0.399   0.256
  915TIP3    H2 2752   4.521   0.420   0.223
  916TIP3   OH2 2753   2.947   4.279   1.436
  916TIP3    H1 2754   3.029   4.241   1.403
  916TIP3    H2 2755   2.878   4.223   1.399
  917TIP3   OH2 2756   3.761   2.289   1.148
  917TIP3    H1 2757   3.694   2.319   1.087
  917TIP3    H2 2758   3.714   2.265   1.227
  918TIP3   OH2 2759   4.203   2.813   1.935
  918TIP3    H1 2760   4.291   2.850   1.947
  918TIP3    H2 2761   4.183   2.830   1.843
  919TIP3   OH2 2762   3.995   0.725   2.339
  919TIP3    H1 2763   4.003   0.721   2.243
  919TIP3    H2 2764   4.078   0.692   2.371
  920TIP3   OH2 2765   1.044   4.620   1.995
  920TIP3    H1 2766   1.018   4.535   1.960
  920TIP3    H2 2767   1.079   4.667   1.920
  921TIP3   OH2 2768   2.817   5.001   1.747
  921TIP3    H1 2769   2.820   5.073   1.685
  921TIP3    H2 2770   2.791   5.041   1.830
  922TIP3   OH2 2771   0.625   3.811   1.478
  922TIP3    H1 2772   0.599   3.755   1.551
  922TIP3    H2 2773   0.680   3.756   1.423
  923TIP3   OH2 2774   4.700   2.732   2.754
  923TIP3    H1 2775   4.624   2.748   2.698
  923TIP3    H2 2776   4.703   2.809   2.811
  924TIP3   OH2 2777   2.269   4.302   4.107
  924TIP3    H1 2778   2.272   4.300   4.203
  924TIP3    H2 2779   2.247   4.393   4.086
  925TIP3   OH2 2780   2.910   5.133   0.450
  925TIP3    H1 2781   2.843   5.081   0.407
  925TIP3    H2 2782   2.904   5.219   0.408
  926TIP3   OH2 2783   1.287   3.879   1.202
  926TIP3    H1 2784   1.201   3.881   1.245
  926TIP3    H2 2785   1.301   3.787   1.181
  927TIP3   OH2 2786   3.555   0.115   3.879
  927TIP3    H1 2787   3.589   0.202   3.857
  927TIP3    H2 2788   3.629   0.056   3.865
  928TIP3   OH2 2789   1.015   2.249   4.405
  928TIP3    H1 2790   1.034   2.319   4.467
  928TIP3    H2 2791   1.049   2.170   4.447
  929TIP3   OH2 2792   6.231   5.362   0.710
  929TIP3    H1 2793   6.269   5.437   0.757
  929TIP3    H2 2794   6.302   5.297   0.708
  930TIP3   OH2 2795   0.398   3.507   4.417
  930TIP3    H1 2796   0.420   3.569   4.487
  930TIP3    H2 2797   0.454   3.432   4.433
  931TIP3   OH2 2798   0.910   4.408   1.835
  931TIP3    H1 2799   0.911   4.439   1.744
  931TIP3    H2 2800   0.977   4.340   1.838
  932TIP3   OH2 2801   4.110   5.485   4.796
  932TIP3    H1 2802   4.156   5.569   4.788
  932TIP3    H2 2803   4.162   5.425   4.743
  933TIP3   OH2 2804   3.673   5.093   0.116
  933TIP3    H1 2805   3.768   5.079   0.111
  933TIP3    H2 2806   3.661   5.186   0.095
  934TIP3   OH2 2807   5.089   3.173   4.026
  934TIP3    H1 2808   5.020   3.236   4.005
  934TIP3    H2 2809   5.053   3.088   4.002
  935TIP3   OH2 2810   3.676   1.122   4.547
  935TIP3    H1 2811   3.760   1.167   4.538
  935TIP3    H2 2812   3.612   1.193   4.554
  936TIP3   OH2 2813   0.288   0.579   4.417
  936TIP3    H1 2814   0.267   0.655   4.472
  936TIP3    H2 2815   0.207   0.564   4.367
  937TIP3   OH2 2816   2.853   2.811   2.346
  937TIP3    H1 2817   2.941   2.846   2.330
  937TIP3    H2 2818   2.869   2.727   2.388
  938TIP3   OH2 2819   4.589   5.224   0.955
  938TIP3    H1 2820   4.649   5.178   0.896
  938TIP3    H2 2821   4.644   5.291   0.997
  939TIP3   OH2 2822   5.862   4.320   1.916
  939TIP3    H1 2823   5.831   4.243   1.963
  939TIP3    H2 2824   5.784   4.355   1.874
  940TIP3   OH2 2825   6.205   1.995   2.183
  940TIP3    H1 2826   6.206   2.059   2.254
  940TIP3    H2 2827   6.236   1.914   2.223
  941TIP3   OH2 2828   3.841   1.752   1.530
  941TIP3    H1 2829   3.767   1.765   1.590
  941TIP3    H2 2830   3.849   1.835   1.484
  942TIP3   OH2 2831   6.028   3.813   1.343
  942TIP3    H1 2832   6.069   3.833   1.259
  942TIP3    H2 2833   6.059   3.724   1.363
  943TIP3   OH2 2834   4.283   2.590   2.756
  943TIP3    H1 2835   4.257   2.541   2.678
  943TIP3    H2 2836   4.349   2.652   2.725
  944TIP3   OH2 2837   0.303   2.348   1.690
  944TIP3    H1 2838   0.226   2.325   1.637
  944TIP3    H2 2839   0.316   2.441   1.673
  945TIP3   OH2 2840   3.457   1.219   2.060
  945TIP3    H1 2841   3.534   1.248   2.011
  945TIP3    H2 2842   3.485   1.222   2.152
  946TIP3   OH2 2843   1.412   4.979   5.134
  946TIP3    H1 2844   1.388   4.968   5.226
  946TIP3    H2 2845   1.468   5.057   5.134
  947TIP3   OH2 2846   2.604   3.761   2.223
  947TIP3    H1 2847   2.697   3.778   2.236
  947TIP3    H2 2848   2.560   3.801   2.298
  948TIP3   OH2 2849   4.447   2.089   3.013
  948TIP3    H1 2850   4.461   1.995   3.025
  948TIP3    H2 2851   4.527   2.129   3.045
  949TIP3   OH2 2852   1.232   4.170   2.016
  949TIP3    H1 2853   1.242   4.259   2.050
  949TIP3    H2 2854   1.309   4.123   2.048
  950TIP3   OH2 2855   1.029   3.567   0.187
  950TIP3    H1 2856   1.033   3.497   0.252
  950TIP3    H2 2857   0.964   3.628   0.221
  951TIP3   OH2 2858   3.078   5.224   1.874
  951TIP3    H1 2859   3.099   5.247   1.964
  951TIP3    H2 2860   3.100   5.132   1.866
  952TIP3   OH2 2861   1.749   1.985   3.174
  952TIP3    H1 2862   1.808   1.909   3.171
  952TIP3    H2 2863   1.680   1.960   3.235
  953TIP3   OH2 2864   5.408   4.617   1.125
  953TIP3    H1 2865   5.496   4.642   1.153
  953TIP3    H2 2866   5.379   4.553   1.190
  954TIP3   OH2 2867   2.182   4.838   1.580
  954TIP3    H1 2868   2.148   4.827   1.669
  954TIP3    H2 2869   2.115   4.802   1.523
  955TIP3   OH2 2870   6.033   0.005   4.876
  955TIP3    H1 2871   6.038   0.097   4.851
  955TIP3    H2 2872   6.111  -0.010   4.929
  956TIP3   OH2 2873   2.495   5.916   3.256
  956TIP3    H1 2874   2.487   5.821   3.240
  956TIP3    H2 2875   2.462   5.956   3.176
  957TIP3   OH2 2876   5.339   3.141   1.929
  957TIP3    H1 2877   5.248   3.147   1.901
  957TIP3    H2 2878   5.341   3.065   1.987
  958TIP3   OH2 2879   6.254   0.892   0.626
  958TIP3    H1 2880   6.241   0.893   0.720
  958TIP3    H2 2881   6.307   0.970   0.609
  959TIP3   OH2 2882   2.558   1.914   3.385
  959TIP3    H1 2883   2.629   1.899   3.322
  959TIP3    H2 2884   2.593   1.981   3.444
  960TIP3   OH2 2885   0.352   1.764   2.729
  960TIP3    H1 2886   0.281   1.826   2.710
  960TIP3    H2 2887   0.416   1.816   2.779
  961TIP3   OH2 2888   0.850   1.584   0.291
  961TIP3    H1 2889   0.839   1.664   0.241
  961TIP3    H2 2890   0.794   1.595   0.368
  962TIP3   OH2 2891   5.280   3.151   3.791
  962TIP3    H1 2892   5.235   3.144   3.875
  962TIP3    H2 2893   5.362   3.103   3.803
  963TIP3   OH2 2894   6.158   5.899   3.865
  963TIP3    H1 2895   6.240   5.922   3.820
  963TIP3    H2 2896   6.160   5.804   3.871
  964TIP3   OH2 2897   2.519   0.005   3.013
  964TIP3    H1 2898   2.455   0.045   3.071
  964TIP3    H2 2899   2.479  -0.078   2.987
  965TIP3   OH2 2900   2.333   0.951   3.394
  965TIP3    H1 2901   2.354   0.875   3.340
  965TIP3    H2 2902   2.284   0.916   3.469
  966TIP3   OH2 2903   0.653   4.736   1.185
  966TIP3    H1 2904   0.748   4.734   1.196
  966TIP3    H2 2905   0.621   4.788   1.259
  967TIP3   OH2 2906   4.969   2.555   2.295
  967TIP3    H1 2907   4.927   2.623   2.242
  967TIP3    H2 2908   4.946   2.473   2.251
  968TIP3   OH2 2909   0.850   5.273   4.354
  968TIP3    H1 2910   0.910   5.321   4.297
  968TIP3    H2 2911   0.800   5.217   4.295
  969TIP3   OH2 2912   4.382   5.407   1.383
  969TIP3    H1 2913   4.437   5.335   1.410
  969TIP3    H2 2914   4.370   5.394   1.289
  970TIP3   OH2 2915   0.185   3.732   4.817
  970TIP3    H1 2916   0.220   3.807   4.768
  970TIP3    H2 2917   0.099   3.761   4.846
  971TIP3   OH2 2918   0.031   0.041   3.143
  971TIP3    H1 2919   0.089   0.112   3.118
  971TIP3    H2 2920   0.016  -0.008   3.062
  972TIP3   OH2 2921   2.385   5.501   0.519
  972TIP3    H1 2922   2.433   5.536   0.595
  972TIP3    H2 2923   2.445   5.438   0.479
  973TIP3   OH2 2924   6.189   2.338   4.562
  973TIP3    H1 2925   6.195   2.348   4.657
  973TIP3    H2 2926   6.182   2.244   4.549
  974TIP3   OH2 2927   1.418   4.906   4.862
  974TIP3    H1 2928   1.447   4.951   4.941
  974TIP3    H2 2929   1.498   4.894   4.810
  975TIP3   OH2 2930   5.246   3.280   1.073
  975TIP3    H1 2931   5.300   3.219   1.022
  975TIP3    H2 2932   5.183   3.314   1.009
  976TIP3   OH2 2933   3.772   1.200   4.975
  976TIP3    H1 2934   3.792   1.279   4.925
  976TIP3    H2 2935   3.842   1.138   4.953
  977TIP3   OH2 2936   2.893   1.879   1.950
  977TIP3    H1 2937   2.966   1.820   1.935
  977TIP3    H2 2938   2.908   1.915   2.037
  978TIP3   OH2 2939   5.801   3.464   3.682
  978TIP3    H1 2940   5.782   3.370   3.686
  978TIP3    H2 2941   5.856   3.480   3.759
  979TIP3   OH2 2942   2.654   0.332   3.977
  979TIP3    H1 2943   2.717   0.260   3.989
  979TIP3    H2 2944   2.581   0.310   4.035
  980TIP3   OH2 2945   3.099   1.235   1.372
  980TIP3    H1 2946   3.103   1.140   1.363
  980TIP3    H2 2947   3.027   1.251   1.433
  981TIP3   OH2 2948   1.108   3.814   1.960
  981TIP3    H1 2949   1.039   3.809   2.026
  981TIP3    H2 2950   1.135   3.724   1.946
  982TIP3   OH2 2951   0.438   5.250   0.128
  982TIP3    H1 2952   0.371   5.318   0.131
  982TIP3    H2 2953   0.519   5.297   0.107
  983TIP3   OH2 2954   0.333   0.206   3.305
  983TIP3    H1 2955   0.251   0.226   3.259
  983TIP3    H2 2956   0.338   0.271   3.375
  984TIP3   OH2 2957   0.686   4.958   4.684
  984TIP3    H1 2958   0.609   4.977   4.738
  984TIP3    H2 2959   0.656   4.893   4.621
  985TIP3   OH2 2960   3.472   5.334   0.987
  985TIP3    H1 2961   3.413   5.398   1.027
  985TIP3    H2 2962   3.486   5.367   0.898
  986TIP3   OH2 2963   1.694   4.897   3.617
  986TIP3    H1 2964   1.615   4.894   3.562
  986TIP3    H2 2965   1.749   4.826   3.585
  987TIP3   OH2 2966   4.775   0.879   0.809
  987TIP3    H1 2967   4.737   0.965   0.824
  987TIP3    H2 2968   4.709   0.831   0.760
  988TIP3   OH2 2969   4.859   4.332   2.129
  988TIP3    H1 2970   4.923   4.380   2.182
  988TIP3    H2 2971   4.779   4.333   2.181
  989TIP3   OH2 2972   4.429   4.377   4.969
  989TIP3    H1 2973   4.430   4.340   5.057
  989TIP3    H2 2974   4.436   4.471   4.982
  990TIP3   OH2 2975   4.783   3.220   3.762
  990TIP3    H1 2976   4.814   3.265   3.841
  990TIP3    H2 2977   4.825   3.266   3.690
  991TIP3   OH2 2978   1.539   3.561   2.009
  991TIP3    H1 2979   1.457   3.607   2.024
  991TIP3    H2 2980   1.536   3.537   1.916
  992TIP3   OH2 2981   0.806   5.144   1.415
  992TIP3    H1 2982   0.715   5.173   1.420
  992TIP3    H2 2983   0.851   5.194   1.483
  993TIP3   OH2 2984   4.849   5.794   1.654
  993TIP3    H1 2985   4.921   5.854   1.635
  993TIP3    H2 2986   4.856   5.726   1.587
  994TIP3   OH2 2987   3.202   4.021   0.588
  994TIP3    H1 2988   3.254   3.966   0.529
  994TIP3    H2 2989   3.159   4.084   0.530
  995TIP3   OH2 2990   1.280   0.073   2.150
  995TIP3    H1 2991   1.202   0.119   2.117
  995TIP3    H2 2992   1.286   0.099   2.242
  996TIP3   OH2 2993   4.974   2.029   4.401
  996TIP3    H1 2994   5.012   2.084   4.332
  996TIP3    H2 2995   5.011   2.063   4.482
  997TIP3   OH2 2996   4.598   1.915   1.975
  997TIP3    H1 2997   4.505   1.903   1.992
  997TIP3    H2 2998   4.601   1.959   1.890
  998TIP3   OH2 2999   0.305   0.627   0.345
  998TIP3    H1 3000   0.373   0.560   0.350
  998TIP3    H2 3001   0.257   0.619   0.428
  999TIP3   OH2 3002   6.274   3.633   3.087
  999TIP3    H1 3003   6.239   3.618   2.999
  999TIP3    H2 3004   6.197   3.635   3.144
 1000TIP3   OH2 3005   6.122   4.333   4.898
 1000TIP3    H1 3006   6.072   4.413   4.911
 1000TIP3    H2 3007   6.120   4.290   4.984
 1001TIP3   OH2 3008   1.171   5.433   4.745
 1001TIP3    H1 3009   1.168   5.342   4.774
 1001TIP3    H2 3010   1.108   5.437   4.673
 1002TIP3   OH2 3011   5.644   5.000   4.985
 1002TIP3    H1 3012   5.734   4.968   4.984
 1002TIP3    H2 3013   5.651   5.093   5.006
 1003TIP3   OH2 3014   0.064   2.570   3.669
 1003TIP3    H1 3015   0.031   2.480   3.670
 1003TIP3    H2 3016   0.004   2.617   3.727
 1004TIP3   OH2 3017   3.814   4.214   0.152
 1004TIP3    H1 3018   3.789   4.124   0.171
 1004TIP3    H2 3019   3.733   4.255   0.121
 1005TIP3   OH2 3020   0.320   3.786   3.330
 1005TIP3    H1 3021   0.277   3.789   3.244
 1005TIP3    H2 3022   0.281   3.859   3.378
 1006TIP3   OH2 3023   0.106   0.313   3.139
 1006TIP3    H1 3024   0.164   0.377   3.099
 1006TIP3    H2 3025   0.028   0.363   3.165
 1007TIP3   OH2 3026   3.853   2.088   2.638
 1007TIP3    H1 3027   3.768   2.132   2.628
 1007TIP3    H2 3028   3.914   2.144   2.589
 1008TIP3   OH2 3029   2.995   4.031   3.047
 1008TIP3    H1 3030   2.966   3.956   3.100
 1008TIP3    H2 3031   3.080   4.004   3.013
 1009TIP3   OH2 3032   3.309   0.897   3.263
 1009TIP3    H1 3033   3.241   0.955   3.229
 1009TIP3    H2 3034   3.261   0.822   3.299
 1010TIP3   OH2 3035   3.898   3.206   2.071
 1010TIP3    H1 3036   3.921   3.164   1.988
 1010TIP3    H2 3037   3.854   3.137   2.121
 1011TIP3   OH2 3038   4.370   0.368   3.482
 1011TIP3    H1 3039   4.415   0.398   3.402
 1011TIP3    H2 3040   4.407   0.282   3.500
 1012TIP3   OH2 3041   4.796   4.544   2.429
 1012TIP3    H1 3042   4.734   4.483   2.388
 1012TIP3    H2 3043   4.879   4.528   2.385
 1013TIP3   OH2 3044   0.013   5.207   2.807
 1013TIP3    H1 3045   0.060   5.285   2.836
 1013TIP3    H2 3046  -0.031   5.234   2.727
 1014TIP3   OH2 3047   3.993   1.167   4.403
 1014TIP3    H1 3048   4.062   1.127   4.456
 1014TIP3    H2 3049   3.955   1.234   4.460
 1015TIP3   OH2 3050   2.893   5.914   3.472
 1015TIP3    H1 3051   2.823   5.979   3.461
 1015TIP3    H2 3052   2.973   5.967   3.482
 1016TIP3   OH2 3053   1.526   3.703   2.799
 1016TIP3    H1 3054   1.473   3.669   2.727
 1016TIP3    H2 3055   1.462   3.740   2.860
 1017TIP3   OH2 3056   0.485   3.242   0.354
 1017TIP3    H1 3057   0.487   3.270   0.263
 1017TIP3    H2 3058   0.414   3.292   0.393
 1018TIP3   OH2 3059   5.687   5.862   3.543
 1018TIP3    H1 3060   5.663   5.890   3.455
 1018TIP3    H2 3061   5.782   5.872   3.547
 1019TIP3   OH2 3062   1.660   1.268   3.333
 1019TIP3    H1 3063   1.610   1.221   3.266
 1019TIP3    H2 3064   1.623   1.239   3.416
 1020TIP3   OH2 3065   2.938   2.792   2.686
 1020TIP3    H1 3066   3.010   2.754   2.636
 1020TIP3    H2 3067   2.871   2.724   2.689
 1021TIP3   OH2 3068   4.669   2.120   0.970
 1021TIP3    H1 3069   4.639   2.043   0.922
 1021TIP3    H2 3070   4.718   2.085   1.044
 1022TIP3   OH2 3071   4.348   2.977   3.988
 1022TIP3    H1 3072   4.298   3.049   4.027
 1022TIP3    H2 3073   4.410   3.020   3.929
 1023TIP3   OH2 3074   1.055   1.243   3.201
 1023TIP3    H1 3075   1.147   1.271   3.208
 1023TIP3    H2 3076   1.006   1.311   3.249
 1024TIP3   OH2 3077   4.389   2.748   4.584
 1024TIP3    H1 3078   4.309   2.778   4.541
 1024TIP3    H2 3079   4.377   2.653   4.591
 1025TIP3   OH2 3080   6.166   4.931   3.624
 1025TIP3    H1 3081   6.205   5.015   3.647
 1025TIP3    H2 3082   6.189   4.917   3.532
 1026TIP3   OH2 3083   3.658   0.248   1.884
 1026TIP3    H1 3084   3.637   0.179   1.947
 1026TIP3    H2 3085   3.583   0.307   1.887
 1027TIP3   OH2 3086   0.287   4.341   0.052
 1027TIP3    H1 3087   0.207   4.289   0.055
 1027TIP3    H2 3088   0.354   4.280   0.020
 1028TIP3   OH2 3089   0.963   0.930   3.021
 1028TIP3    H1 3090   0.954   0.906   2.929
 1028TIP3    H2 3091   1.057   0.927   3.037
 1029TIP3   OH2 3092   5.989   4.493   0.891
 1029TIP3    H1 3093   5.902   4.470   0.857
 1029TIP3    H2 3094   6.048   4.430   0.850
 1030TIP3   OH2 3095   0.113   2.880   0.925
 1030TIP3    H1 3096   0.201   2.917   0.930
 1030TIP3    H2 3097   0.066   2.938   0.864
 1031TIP3   OH2 3098   1.729   4.498   3.824
 1031TIP3    H1 3099   1.748   4.437   3.895
 1031TIP3    H2 3100   1.815   4.523   3.789
 1032TIP3   OH2 3101   0.916   3.622   4.813
 1032TIP3    H1 3102   0.964   3.544   4.841
 1032TIP3    H2 3103   0.851   3.635   4.881
 1033TIP3   OH2 3104   0.520   3.277   3.234
 1033TIP3    H1 3105   0.442   3.280   3.178
 1033TIP3    H2 3106   0.593   3.274   3.173
 1034TIP3   OH2 3107   4.643   4.518   0.844
 1034TIP3    H1 3108   4.657   4.598   0.793
 1034TIP3    H2 3109   4.646   4.448   0.779
 1035TIP3   OH2 3110   2.609   0.719   1.600
 1035TIP3    H1 3111   2.573   0.775   1.669
 1035TIP3    H2 3112   2.658   0.651   1.646
 1036TIP3   OH2 3113   2.203   0.330   4.203
 1036TIP3    H1 3114   2.166   0.242   4.193
 1036TIP3    H2 3115   2.149   0.385   4.145
 1037TIP3   OH2 3116   1.786   4.949   4.583
 1037TIP3    H1 3117   1.864   4.934   4.529
 1037TIP3    H2 3118   1.719   4.979   4.522
 1038TIP3   OH2 3119   6.125   4.106   5.100
 1038TIP3    H1 3120   6.085   4.060   5.026
 1038TIP3    H2 3121   6.219   4.102   5.084
 1039TIP3   OH2 3122   3.193   0.494   3.940
 1039TIP3    H1 3123   3.224   0.416   3.894
 1039TIP3    H2 3124   3.263   0.515   4.001
 1040TIP3   OH2 3125   6.014   4.520   1.763
 1040TIP3    H1 3126   5.977   4.467   1.834
 1040TIP3    H2 3127   6.108   4.522   1.782
 1041TIP3   OH2 3128   5.567   1.663   1.880
 1041TIP3    H1 3129   5.482   1.650   1.922
 1041TIP3    H2 3130   5.627   1.607   1.929
 1042TIP3   OH2 3131   0.277   2.246   3.694
 1042TIP3    H1 3132   0.210   2.208   3.751
 1042TIP3    H2 3133   0.296   2.177   3.630
 1043TIP3   OH2 3134   1.546   5.704   3.165
 1043TIP3    H1 3135   1.512   5.739   3.247
 1043TIP3    H2 3136   1.589   5.779   3.123
 1044TIP3   OH2 3137   0.674   0.241   1.318
 1044TIP3    H1 3138   0.736   0.310   1.342
 1044TIP3    H2 3139   0.600   0.287   1.279
 1045TIP3   OH2 3140   3.413   2.291   0.934
 1045TIP3    H1 3141   3.381   2.294   0.845
 1045TIP3    H2 3142   3.502   2.257   0.927
 1046TIP3   OH2 3143   0.477   2.101   4.724
 1046TIP3    H1 3144   0.446   2.011   4.710
 1046TIP3    H2 3145   0.565   2.102   4.687
 1047TIP3   OH2 3146   4.169   4.848   3.319
 1047TIP3    H1 3147   4.228   4.795   3.265
 1047TIP3    H2 3148   4.082   4.811   3.304
 1048TIP3   OH2 3149   3.254   3.148   0.435
 1048TIP3    H1 3150   3.165   3.149   0.401
 1048TIP3    H2 3151   3.310   3.153   0.357
 1049TIP3   OH2 3152   4.839   3.234   4.652
 1049TIP3    H1 3153   4.894   3.199   4.581
 1049TIP3    H2 3154   4.869   3.325   4.662
 1050TIP3   OH2 3155   1.578   5.271   3.927
 1050TIP3    H1 3156   1.587   5.316   3.843
 1050TIP3    H2 3157   1.617   5.184   3.912
 1051TIP3   OH2 3158   5.406   1.527   2.822
 1051TIP3    H1 3159   5.481   1.585   2.835
 1051TIP3    H2 3160   5.338   1.563   2.878
 1052TIP3   OH2 3161   5.195   3.224   4.261
 1052TIP3    H1 3162   5.284   3.257   4.272
 1052TIP3    H2 3163   5.173   3.242   4.169
 1053TIP3   OH2 3164   4.566   5.221   1.460
 1053TIP3    H1 3165   4.653   5.228   1.422
 1053TIP3    H2 3166   4.552   5.127   1.469
 1054TIP3   OH2 3167   0.527   1.398   4.340
 1054TIP3    H1 3168   0.571   1.365   4.262
 1054TIP3    H2 3169   0.435   1.403   4.314
 1055TIP3   OH2 3170   1.051   2.444   4.571
 1055TIP3    H1 3171   1.108   2.503   4.522
 1055TIP3    H2 3172   1.001   2.502   4.628
 1056TIP3   OH2 3173   1.379   0.922   0.143
 1056TIP3    H1 3174   1.358   0.833   0.116
 1056TIP3    H2 3175   1.365   0.975   0.064
 1057TIP3   OH2 3176   4.845   5.145   4.491
 1057TIP3    H1 3177   4.873   5.062   4.452
 1057TIP3    H2 3178   4.757   5.127   4.526
 1058TIP3   OH2 3179   0.972   5.207   1.661
 1058TIP3    H1 3180   1.067   5.195   1.661
 1058TIP3    H2 3181   0.959   5.296   1.693
 1059TIP3   OH2 3182   1.544   1.071   0.540
 1059TIP3    H1 3183   1.486   1.140   0.505
 1059TIP3    H2 3184   1.486   0.996   0.553
 1060TIP3   OH2 3185   0.439   0.891   0.965
 1060TIP3    H1 3186   0.403   0.963   1.017
 1060TIP3    H2 3187   0.534   0.896   0.980
 1061TIP3   OH2 3188   2.855   1.056   2.631
 1061TIP3    H1 3189   2.901   1.012   2.702
 1061TIP3    H2 3190   2.827   0.985   2.573
 1062TIP3   OH2 3191   0.617   3.659   2.875
 1062TIP3    H1 3192   0.587   3.572   2.848
 1062TIP3    H2 3193   0.543   3.696   2.923
 1063TIP3   OH2 3194   0.239   4.009   3.445
 1063TIP3    H1 3195   0.185   4.087   3.433
 1063TIP3    H2 3196   0.229   3.987   3.538
 1064TIP3   OH2 3197   0.251   0.878   2.419
 1064TIP3    H1 3198   0.345   0.894   2.410
 1064TIP3    H2 3199   0.244   0.783   2.428
 1065TIP3   OH2 3200   1.000   2.200   0.704
 1065TIP3    H1 3201   1.024   2.291   0.722
 1065TIP3    H2 3202   1.049   2.149   0.769
 1066TIP3   OH2 3203   5.280   4.274   1.926
 1066TIP3    H1 3204   5.259   4.230   2.008
 1066TIP3    H2 3205   5.231   4.226   1.860
 1067TIP3   OH2 3206   5.962   1.239   1.916
 1067TIP3    H1 3207   6.008   1.198   1.843
 1067TIP3    H2 3208   6.019   1.309   1.945
 1068TIP3   OH2 3209   4.949   5.990   0.879
 1068TIP3    H1 3210   4.917   5.911   0.923
 1068TIP3    H2 3211   5.011   6.028   0.941
 1069TIP3   OH2 3212   3.297   5.113   2.487
 1069TIP3    H1 3213   3.240   5.187   2.465
 1069TIP3    H2 3214   3.324   5.129   2.578
 1070TIP3   OH2 3215   2.986   0.247   4.174
 1070TIP3    H1 3216   2.977   0.168   4.121
 1070TIP3    H2 3217   2.922   0.236   4.244
 1071TIP3   OH2 3218   5.984   0.490   1.043
 1071TIP3    H1 3219   5.918   0.438   0.998
 1071TIP3    H2 3220   5.936   0.536   1.112
 1072TIP3   OH2 3221   1.634   5.790   5.114
 1072TIP3    H1 3222   1.680   5.809   5.196
 1072TIP3    H2 3223   1.585   5.870   5.095
 1073TIP3   OH2 3224   4.526   3.862   4.680
 1073TIP3    H1 3225   4.513   3.928   4.748
 1073TIP3    H2 3226   4.584   3.797   4.721
 1074TIP3   OH2 3227   3.548   5.479   2.614
 1074TIP3    H1 3228   3.468   5.511   2.655
 1074TIP3    H2 3229   3.526   5.474   2.521
 1075TIP3   OH2 3230   4.941   4.894   4.938
 1075TIP3    H1 3231   4.878   4.880   4.868
 1075TIP3    H2 3232   5.026   4.876   4.898
 1076TIP3   OH2 3233   0.576   0.120   3.845
 1076TIP3    H1 3234   0.482   0.123   3.863
 1076TIP3    H2 3235   0.613   0.074   3.920
 1077TIP3   OH2 3236   1.025   5.491   4.270
 1077TIP3    H1 3237   1.110   5.535   4.270
 1077TIP3    H2 3238   0.963   5.556   4.302
 1078TIP3   OH2 3239   1.141   1.006   4.811
 1078TIP3    H1 3240   1.213   1.002   4.873
 1078TIP3    H2 3241   1.124   0.915   4.787
 1079TIP3   OH2 3242   6.143   2.397   0.364
 1079TIP3    H1 3243   6.214   2.431   0.419
 1079TIP3    H2 3244   6.106   2.325   0.414
 1080TIP3   OH2 3245   4.004   2.159   3.559
 1080TIP3    H1 3246   3.978   2.251   3.552
 1080TIP3    H2 3247   4.073   2.158   3.625
 1081TIP3   OH2 3248   0.032   2.971   1.875
 1081TIP3    H1 3249   0.121   2.998   1.852
 1081TIP3    H2 3250  -0.012   3.053   1.899
 1082TIP3   OH2 3251   4.176   1.892   0.076
 1082TIP3    H1 3252   4.263   1.860   0.052
 1082TIP3    H2 3253   4.171   1.879   0.171
 1083TIP3   OH2 3254   4.934   4.309   3.737
 1083TIP3    H1 3255   4.980   4.368   3.677
 1083TIP3    H2 3256   4.991   4.232   3.743
 1084TIP3   OH2 3257   5.041   3.148   4.479
 1084TIP3    H1 3258   4.979   3.154   4.406
 1084TIP3    H2 3259   5.124   3.178   4.443
 1085TIP3   OH2 3260   2.356   4.724   2.743
 1085TIP3    H1 3261   2.305   4.680   2.812
 1085TIP3    H2 3262   2.291   4.757   2.682
 1086TIP3   OH2 3263   4.486   1.854   3.499
 1086TIP3    H1 3264   4.399   1.853   3.459
 1086TIP3    H2 3265   4.536   1.917   3.446
 1087TIP3   OH2 3266   1.800   1.557   5.075
 1087TIP3    H1 3267   1.877   1.538   5.129
 1087TIP3    H2 3268   1.764   1.637   5.112
 1088TIP3   OH2 3269   2.126   3.233   4.670
 1088TIP3    H1 3270   2.178   3.156   4.693
 1088TIP3    H2 3271   2.189   3.306   4.672
 1089TIP3   OH2 3272   3.768   4.236   3.445
 1089TIP3    H1 3273   3.815   4.211   3.524
 1089TIP3    H2 3274   3.771   4.332   3.444
 1090TIP3   OH2 3275   2.033   3.611   4.339
 1090TIP3    H1 3276   2.034   3.540   4.404
 1090TIP3    H2 3277   1.945   3.608   4.302
 1091TIP3   OH2 3278   3.433   3.252   3.767
 1091TIP3    H1 3279   3.475   3.307   3.701
 1091TIP3    H2 3280   3.415   3.170   3.721
 1092TIP3   OH2 3281   5.210   1.182   4.048
 1092TIP3    H1 3282   5.181   1.241   4.118
 1092TIP3    H2 3283   5.230   1.241   3.975
 1093TIP3   OH2 3284   5.115   1.625   1.797
 1093TIP3    H1 3285   5.028   1.588   1.802
 1093TIP3    H2 3286   5.160   1.572   1.731
 1094TIP3   OH2 3287   2.130   0.928   3.611
 1094TIP3    H1 3288   2.084   0.925   3.695
 1094TIP3    H2 3289   2.069   0.974   3.552
 1095TIP3   OH2 3290   2.579   4.575   3.499
 1095TIP3    H1 3291   2.582   4.545   3.590
 1095TIP3    H2 3292   2.544   4.501   3.450
 1096TIP3   OH2 3293   2.753   1.039   4.999
 1096TIP3    H1 3294   2.687   0.969   5.005
 1096TIP3    H2 3295   2.823   1.011   5.057
 1097TIP3   OH2 3296   2.908   5.542   1.591
 1097TIP3    H1 3297   2.968   5.488   1.539
 1097TIP3    H2 3298   2.903   5.496   1.675
 1098TIP3   OH2 3299   5.159   2.662   0.030
 1098TIP3    H1 3300   5.216   2.620  -0.034
 1098TIP3    H2 3301   5.073   2.622   0.015
 1099TIP3   OH2 3302   0.123   1.992   4.651
 1099TIP3    H1 3303   0.151   1.998   4.559
 1099TIP3    H2 3304   0.075   1.909   4.656
 1100TIP3   OH2 3305   4.955   4.765   0.766
 1100TIP3    H1 3306   4.953   4.849   0.812
 1100TIP3    H2 3307   5.041   4.763   0.724
 1101TIP3   OH2 3308   2.760   4.881   1.315
 1101TIP3    H1 3309   2.851   4.853   1.317
 1101TIP3    H2 3310   2.720   4.839   1.391
 1102TIP3   OH2 3311   3.735   1.278   0.379
 1102TIP3    H1 3312   3.812   1.310   0.426
 1102TIP3    H2 3313   3.740   1.321   0.293
 1103TIP3   OH2 3314   2.400   3.281   0.910
 1103TIP3    H1 3315   2.409   3.343   0.982
 1103TIP3    H2 3316   2.446   3.322   0.837
 1104TIP3   OH2 3317   0.524   1.071   3.318
 1104TIP3    H1 3318   0.559   0.984   3.300
 1104TIP3    H2 3319   0.600   1.129   3.312
 1105TIP3   OH2 3320   5.285   0.929   3.968
 1105TIP3    H1 3321   5.292   1.015   4.009
 1105TIP3    H2 3322   5.291   0.868   4.041
 1106TIP3   OH2 3323   4.122   4.225   0.049
 1106TIP3    H1 3324   4.049   4.233  -0.013
 1106TIP3    H2 3325   4.182   4.162   0.007
 1107TIP3   OH2 3326   6.231   1.653   4.086
 1107TIP3    H1 3327   6.172   1.706   4.033
 1107TIP3    H2 3328   6.197   1.659   4.175
 1108TIP3   OH2 3329   0.408   3.172   1.931
 1108TIP3    H1 3330   0.408   3.132   1.844
 1108TIP3    H2 3331   0.356   3.112   1.985
 1109TIP3   OH2 3332   2.375   0.717   3.242
 1109TIP3    H1 3333   2.458   0.702   3.195
 1109TIP3    H2 3334   2.310   0.725   3.173
 1110TIP3   OH2 3335   3.866   2.114   0.574
 1110TIP3    H1 3336   3.938   2.114   0.510
 1110TIP3    H2 3337   3.909   2.124   0.659
 1111TIP3   OH2 3338   5.341   1.050   4.845
 1111TIP3    H1 3339   5.351   1.079   4.936
 1111TIP3    H2 3340   5.250   1.072   4.823
 1112TIP3   OH2 3341   1.800   3.624   2.140
 1112TIP3    H1 3342   1.790   3.585   2.227
 1112TIP3    H2 3343   1.713   3.617   2.101
 1113TIP3   OH2 3344   5.350   1.331   4.786
 1113TIP3    H1 3345   5.421   1.327   4.849
 1113TIP3    H2 3346   5.282   1.274   4.822
 1114TIP3   OH2 3347   1.230   3.158   3.199
 1114TIP3    H1 3348   1.145   3.160   3.156
 1114TIP3    H2 3349   1.250   3.250   3.216
 1115TIP3   OH2 3350   1.972   0.801   2.330
 1115TIP3    H1 3351   2.048   0.745   2.311
 1115TIP3    H2 3352   2.007   0.890   2.326
 1116TIP3   OH2 3353   4.318   0.955   2.103
 1116TIP3    H1 3354   4.260   0.977   2.176
 1116TIP3    H2 3355   4.340   0.863   2.116
 1117TIP3   OH2 3356   5.729   3.337   2.227
 1117TIP3    H1 3357   5.709   3.406   2.291
 1117TIP3    H2 3358   5.663   3.347   2.159
 1118TIP3   OH2 3359   0.563   3.259   4.206
 1118TIP3    H1 3360   0.649   3.216   4.199
 1118TIP3    H2 3361   0.536   3.272   4.116
 1119TIP3   OH2 3362   1.878   3.064   2.405
 1119TIP3    H1 3363   1.819   3.005   2.358
 1119TIP3    H2 3364   1.853   3.054   2.497
 1120TIP3   OH2 3365   5.169   4.765   4.809
 1120TIP3    H1 3366   5.131   4.813   4.735
 1120TIP3    H2 3367   5.226   4.829   4.851
 1121TIP3   OH2 3368   2.042   4.987   5.036
 1121TIP3    H1 3369   1.959   5.033   5.046
 1121TIP3    H2 3370   2.043   4.923   5.106
 1122TIP3   OH2 3371   1.305   4.117   2.966
 1122TIP3    H1 3372   1.336   4.122   2.875
 1122TIP3    H2 3373   1.210   4.123   2.960
 1123TIP3   OH2 3374   6.133   2.875   4.262
 1123TIP3    H1 3375   6.183   2.939   4.211
 1123TIP3    H2 3376   6.198   2.811   4.291
 1124TIP3   OH2 3377   0.378   1.602   0.428
 1124TIP3    H1 3378   0.433   1.576   0.501
 1124TIP3    H2 3379   0.422   1.569   0.350
 1125TIP3   OH2 3380   4.410   0.866   4.621
 1125TIP3    H1 3381   4.505   0.877   4.620
 1125TIP3    H2 3382   4.397   0.772   4.636
 1126TIP3   OH2 3383   0.776   1.308   3.536
 1126TIP3    H1 3384   0.776   1.270   3.448
 1126TIP3    H2 3385   0.701   1.267   3.580
 1127TIP3   OH2 3386   5.005   3.741   3.323
 1127TIP3    H1 3387   5.062   3.817   3.318
 1127TIP3    H2 3388   5.064   3.668   3.343
 1128TIP3   OH2 3389   3.518   5.487   4.202
 1128TIP3    H1 3390   3.431   5.458   4.173
 1128TIP3    H2 3391   3.569   5.406   4.208
 1129TIP3   OH2 3392   5.302   2.697   5.011
 1129TIP3    H1 3393   5.280   2.637   5.082
 1129TIP3    H2 3394   5.255   2.778   5.033
 1130TIP3   OH2 3395   4.855   2.175   0.365
 1130TIP3    H1 3396   4.851   2.106   0.299
 1130TIP3    H2 3397   4.913   2.241   0.328
 1131TIP3   OH2 3398   5.344   5.603   5.105
 1131TIP3    H1 3399   5.429   5.580   5.142
 1131TIP3    H2 3400   5.353   5.696   5.081
 1132TIP3   OH2 3401   3.362   1.611   1.691
 1132TIP3    H1 3402   3.346   1.673   1.762
 1132TIP3    H2 3403   3.453   1.627   1.664
 1133TIP3   OH2 3404   5.313   4.709   1.919
 1133TIP3    H1 3405   5.399   4.746   1.900
 1133TIP3    H2 3406   5.257   4.785   1.936
 1134TIP3   OH2 3407   2.189   1.492   1.632
 1134TIP3    H1 3408   2.279   1.461   1.634
 1134TIP3    H2 3409   2.196   1.587   1.633
 1135TIP3   OH2 3410   2.821   1.109   1.444
 1135TIP3    H1 3411   2.802   1.017   1.461
 1135TIP3    H2 3412   2.745   1.156   1.477
 1136TIP3   OH2 3413   2.073   5.160   1.665
 1136TIP3    H1 3414   2.003   5.180   1.604
 1136TIP3    H2 3415   2.047   5.203   1.747
 1137TIP3   OH2 3416   4.612   5.372   4.644
 1137TIP3    H1 3417   4.631   5.311   4.573
 1137TIP3    H2 3418   4.687   5.365   4.703
 1138TIP3   OH2 3419   2.125   1.083   4.542
 1138TIP3    H1 3420   2.188   1.119   4.479
 1138TIP3    H2 3421   2.077   1.016   4.492
 1139TIP3   OH2 3422   4.027   5.658   2.157
 1139TIP3    H1 3423   4.034   5.651   2.252
 1139TIP3    H2 3424   3.936   5.683   2.141
 1140TIP3   OH2 3425   2.238   1.413   4.018
 1140TIP3    H1 3426   2.158   1.465   4.013
 1140TIP3    H2 3427   2.299   1.468   4.067
 1141TIP3   OH2 3428   3.196   5.914   3.715
 1141TIP3    H1 3429   3.180   5.820   3.722
 1141TIP3    H2 3430   3.188   5.933   3.621
 1142TIP3   OH2 3431   4.521   5.874   1.502
 1142TIP3    H1 3432   4.464   5.838   1.571
 1142TIP3    H2 3433   4.548   5.798   1.452
 1143TIP3   OH2 3434   4.741   5.847   2.635
 1143TIP3    H1 3435   4.823   5.871   2.678
 1143TIP3    H2 3436   4.694   5.930   2.624
 1144TIP3   OH2 3437   3.456   5.355   3.261
 1144TIP3    H1 3438   3.500   5.402   3.331
 1144TIP3    H2 3439   3.503   5.380   3.182
 1145TIP3   OH2 3440   4.507   4.985   1.028
 1145TIP3    H1 3441   4.436   4.961   0.968
 1145TIP3    H2 3442   4.532   5.073   1.001
 1146TIP3   OH2 3443   0.874   5.324   5.063
 1146TIP3    H1 3444   0.779   5.331   5.070
 1146TIP3    H2 3445   0.889   5.239   5.022
 1147TIP3   OH2 3446   3.932   2.090   4.615
 1147TIP3    H1 3447   4.004   2.153   4.611
 1147TIP3    H2 3448   3.932   2.047   4.530
 1148TIP3   OH2 3449   6.354   1.464   3.929
 1148TIP3    H1 3450   6.311   1.525   3.989
 1148TIP3    H2 3451   6.328   1.495   3.842
 1149TIP3   OH2 3452   1.320   0.710   0.420
 1149TIP3    H1 3453   1.299   0.659   0.498
 1149TIP3    H2 3454   1.416   0.706   0.414
 1150TIP3   OH2 3455   3.669   2.638   4.756
 1150TIP3    H1 3456   3.721   2.665   4.831
 1150TIP3    H2 3457   3.686   2.545   4.746
 1151TIP3   OH2 3458   2.863   2.543   1.642
 1151TIP3    H1 3459   2.908   2.550   1.557
 1151TIP3    H2 3460   2.783   2.494   1.623
 1152TIP3   OH2 3461   2.311   5.242   4.246
 1152TIP3    H1 3462   2.366   5.306   4.201
 1152TIP3    H2 3463   2.359   5.220   4.325
 1153TIP3   OH2 3464   5.637   2.733   3.399
 1153TIP3    H1 3465   5.718   2.708   3.443
 1153TIP3    H2 3466   5.611   2.815   3.442
 1154TIP3   OH2 3467   2.080   3.777   2.754
 1154TIP3    H1 3468   1.992   3.744   2.737
 1154TIP3    H2 3469   2.072   3.872   2.747
 1155TIP3   OH2 3470   5.083   3.828   1.197
 1155TIP3    H1 3471   5.103   3.914   1.160
 1155TIP3    H2 3472   5.155   3.812   1.259
 1156TIP3   OH2 3473   1.740   5.488   4.527
 1156TIP3    H1 3474   1.741   5.517   4.618
 1156TIP3    H2 3475   1.682   5.412   4.526
 1157TIP3   OH2 3476   1.785   0.541   2.325
 1157TIP3    H1 3477   1.754   0.606   2.388
 1157TIP3    H2 3478   1.852   0.492   2.372
 1158TIP3   OH2 3479   3.030   1.067   2.284
 1158TIP3    H1 3480   3.100   1.014   2.323
 1158TIP3    H2 3481   2.981   1.005   2.230
 1159TIP3   OH2 3482   0.250   1.223   1.662
 1159TIP3    H1 3483   0.210   1.290   1.717
 1159TIP3    H2 3484   0.182   1.201   1.598
 1160TIP3   OH2 3485   3.909   3.210   2.832
 1160TIP3    H1 3486   3.816   3.185   2.838
 1160TIP3    H2 3487   3.945   3.186   2.917
 1161TIP3   OH2 3488   5.417   4.121   4.534
 1161TIP3    H1 3489   5.406   4.031   4.502
 1161TIP3    H2 3490   5.351   4.171   4.485
 1162TIP3   OH2 3491   3.911   3.324   0.792
 1162TIP3    H1 3492   3.973   3.358   0.728
 1162TIP3    H2 3493   3.947   3.351   0.877
 1163TIP3   OH2 3494   3.635   1.681   1.738
 1163TIP3    H1 3495   3.687   1.619   1.789
 1163TIP3    H2 3496   3.627   1.757   1.795
 1164TIP3   OH2 3497   0.704   3.230   0.559
 1164TIP3    H1 3498   0.724   3.145   0.598
 1164TIP3    H2 3499   0.622   3.217   0.512
 1165TIP3   OH2 3500   4.412   2.959   1.697
 1165TIP3    H1 3501   4.501   2.988   1.678
 1165TIP3    H2 3502   4.417   2.863   1.694
 1166TIP3   OH2 3503   5.098   4.598   3.777
 1166TIP3    H1 3504   5.038   4.610   3.703
 1166TIP3    H2 3505   5.168   4.543   3.742
 1167TIP3   OH2 3506   2.029   5.196   2.645
 1167TIP3    H1 3507   1.942   5.216   2.611
 1167TIP3    H2 3508   2.085   5.190   2.567
 1168TIP3   OH2 3509   1.665   3.852   5.159
 1168TIP3    H1 3510   1.666   3.763   5.192
 1168TIP3    H2 3511   1.585   3.858   5.107
 1169TIP3   OH2 3512   4.267   5.853   2.881
 1169TIP3    H1 3513   4.226   5.767   2.874
 1169TIP3    H2 3514   4.348   5.837   2.929
 1170TIP3   OH2 3515   2.321   5.983   1.526
 1170TIP3    H1 3516   2.326   6.031   1.443
 1170TIP3    H2 3517   2.357   5.896   1.505
 1171TIP3   OH2 3518   1.698   4.509   3.544
 1171TIP3    H1 3519   1.674   4.521   3.636
 1171TIP3    H2 3520   1.719   4.416   3.537
 1172TIP3   OH2 3521   2.237   3.644   2.930
 1172TIP3    H1 3522   2.198   3.714   2.879
 1172TIP3    H2 3523   2.311   3.685   2.975
 1173TIP3   OH2 3524   1.354   3.999   1.494
 1173TIP3    H1 3525   1.403   3.969   1.418
 1173TIP3    H2 3526   1.283   4.053   1.458
 1174TIP3   OH2 3527   1.593   0.107   1.290
 1174TIP3    H1 3528   1.675   0.059   1.298
 1174TIP3    H2 3529   1.561   0.116   1.380
 1175TIP3   OH2 3530   5.348   2.396   2.284
 1175TIP3    H1 3531   5.354   2.329   2.215
 1175TIP3    H2 3532   5.347   2.346   2.365
 1176TIP3   OH2 3533   0.394   1.571   4.795
 1176TIP3    H1 3534   0.322   1.507   4.799
 1176TIP3    H2 3535   0.473   1.518   4.782
 1177TIP3   OH2 3536   5.807   5.092   2.524
 1177TIP3    H1 3537   5.782   5.164   2.581
 1177TIP3    H2 3538   5.739   5.026   2.538
 1178TIP3   OH2 3539   4.239   4.955   2.261
 1178TIP3    H1 3540   4.321   4.992   2.295
 1178TIP3    H2 3541   4.188   5.032   2.233
 1179TIP3   OH2 3542   0.605   5.321   5.101
 1179TIP3    H1 3543   0.543   5.306   5.172
 1179TIP3    H2 3544   0.551   5.333   5.023
 1180TIP3   OH2 3545   3.498   2.612   3.404
 1180TIP3    H1 3546   3.474   2.614   3.496
 1180TIP3    H2 3547   3.415   2.626   3.358
 1181TIP3   OH2 3548   4.959   0.132   5.069
 1181TIP3    H1 3549   5.019   0.182   5.125
 1181TIP3    H2 3550   4.872   0.151   5.103
 1182TIP3   OH2 3551   6.129   3.117   0.540
 1182TIP3    H1 3552   6.056   3.179   0.537
 1182TIP3    H2 3553   6.088   3.032   0.552
 1183TIP3   OH2 3554   2.976   1.193   0.674
 1183TIP3    H1 3555   2.886   1.190   0.706
 1183TIP3    H2 3556   2.971   1.245   0.593
 1184TIP3   OH2 3557   4.615   2.816   3.002
 1184TIP3    H1 3558   4.523   2.824   2.977
 1184TIP3    H2 3559   4.637   2.900   3.042
 1185TIP3   OH2 3560   1.930   4.554   1.259
 1185TIP3    H1 3561   1.838   4.581   1.260
 1185TIP3    H2 3562   1.930   4.471   1.211
 1186TIP3   OH2 3563   2.610   4.841   2.806
 1186TIP3    H1 3564   2.609   4.858   2.901
 1186TIP3    H2 3565   2.518   4.823   2.785
 1187TIP3   OH2 3566   2.034   3.858  -0.014
 1187TIP3    H1 3567   2.007   3.933   0.040
 1187TIP3    H2 3568   1.995   3.782   0.029
 1188TIP3   OH2 3569   4.508   1.359   1.096
 1188TIP3    H1 3570   4.590   1.402   1.071
 1188TIP3    H2 3571   4.504   1.367   1.191
 1189TIP3   OH2 3572   2.140   2.704   0.440
 1189TIP3    H1 3573   2.086   2.767   0.393
 1189TIP3    H2 3574   2.099   2.697   0.527
 1190TIP3   OH2 3575   0.401   0.625   1.290
 1190TIP3    H1 3576   0.356   0.606   1.208
 1190TIP3    H2 3577   0.331   0.632   1.355
 1191TIP3   OH2 3578   3.784   4.093   1.232
 1191TIP3    H1 3579   3.736   4.121   1.309
 1191TIP3    H2 3580   3.866   4.142   1.236
 1192TIP3   OH2 3581   3.351   1.308   0.173
 1192TIP3    H1 3582   3.328   1.382   0.229
 1192TIP3    H2 3583   3.268   1.266   0.152
 1193TIP3   OH2 3584   2.000   3.897   4.082
 1193TIP3    H1 3585   1.961   3.958   4.145
 1193TIP3    H2 3586   1.946   3.907   4.004
 1194TIP3   OH2 3587   1.086   1.973   1.623
 1194TIP3    H1 3588   1.161   1.914   1.636
 1194TIP3    H2 3589   1.030   1.958   1.699
 1195TIP3   OH2 3590   4.305   0.257   0.513
 1195TIP3    H1 3591   4.280   0.268   0.422
 1195TIP3    H2 3592   4.289   0.165   0.532
 1196TIP3   OH2 3593   4.590   2.995   4.478
 1196TIP3    H1 3594   4.547   2.909   4.482
 1196TIP3    H2 3595   4.532   3.048   4.425
 1197TIP3   OH2 3596   4.157   4.482   0.068
 1197TIP3    H1 3597   4.164   4.388   0.082
 1197TIP3    H2 3598   4.147   4.519   0.156
 1198TIP3   OH2 3599   5.441   4.187   4.154
 1198TIP3    H1 3600   5.501   4.112   4.159
 1198TIP3    H2 3601   5.372   4.168   4.217
 1199TIP3   OH2 3602   5.210   0.266   0.543
 1199TIP3    H1 3603   5.147   0.308   0.601
 1199TIP3    H2 3604   5.180   0.175   0.536
 1200TIP3   OH2 3605   3.550   4.238   0.592
 1200TIP3    H1 3606   3.527   4.252   0.500
 1200TIP3    H2 3607   3.509   4.154   0.614
 1201TIP3   OH2 3608   5.294   4.213   1.251
 1201TIP3    H1 3609   5.251   4.227   1.167
 1201TIP3    H2 3610   5.369   4.158   1.231
 1202TIP3   OH2 3611   0.095   1.488   0.773
 1202TIP3    H1 3612   0.171   1.524   0.819
 1202TIP3    H2 3613   0.028   1.557   0.781
 1203TIP3   OH2 3614   4.455   1.222   4.372
 1203TIP3    H1 3615   4.493   1.257   4.292
 1203TIP3    H2 3616   4.371   1.267   4.381
 1204TIP3   OH2 3617   5.650   3.497   1.816
 1204TIP3    H1 3618   5.666   3.563   1.883
 1204TIP3    H2 3619   5.611   3.423   1.864
 1205TIP3   OH2 3620   4.123   5.646   0.948
 1205TIP3    H1 3621   4.171   5.592   1.011
 1205TIP3    H2 3622   4.059   5.692   1.001
 1206TIP3   OH2 3623   5.243   0.627   2.591
 1206TIP3    H1 3624   5.231   0.533   2.601
 1206TIP3    H2 3625   5.336   0.641   2.613
 1207TIP3   OH2 3626   2.626   0.768   3.397
 1207TIP3    H1 3627   2.562   0.776   3.326
 1207TIP3    H2 3628   2.581   0.717   3.464
 1208TIP3   OH2 3629   4.965   4.388   1.020
 1208TIP3    H1 3630   5.031   4.327   1.054
 1208TIP3    H2 3631   4.890   4.333   1.000
 1209TIP3   OH2 3632   6.047   5.796   1.677
 1209TIP3    H1 3633   5.972   5.737   1.684
 1209TIP3    H2 3634   6.107   5.751   1.618
 1210TIP3   OH2 3635   1.422   0.954   1.887
 1210TIP3    H1 3636   1.383   1.009   1.819
 1210TIP3    H2 3637   1.369   0.970   1.965
 1211TIP3   OH2 3638   5.654   0.021   3.468
 1211TIP3    H1 3639   5.580   0.064   3.511
 1211TIP3    H2 3640   5.714   0.093   3.447
 1212TIP3   OH2 3641   2.001   1.130   1.014
 1212TIP3    H1 3642   1.952   1.069   1.069
 1212TIP3    H2 3643   1.983   1.102   0.924
 1213TIP3   OH2 3644   3.913   4.220   4.084
 1213TIP3    H1 3645   3.928   4.302   4.037
 1213TIP3    H2 3646   3.845   4.176   4.033
 1214TIP3   OH2 3647   3.393   5.949   4.479
 1214TIP3    H1 3648   3.446   5.908   4.410
 1214TIP3    H2 3649   3.429   5.913   4.560
 1215TIP3   OH2 3650   2.487   5.740   4.588
 1215TIP3    H1 3651   2.479   5.819   4.535
 1215TIP3    H2 3652   2.490   5.771   4.679
 1216TIP3   OH2 3653   1.609   0.525   1.260
 1216TIP3    H1 3654   1.670   0.478   1.316
 1216TIP3    H2 3655   1.634   0.617   1.267
 1217TIP3   OH2 3656   0.952   5.937   4.359
 1217TIP3    H1 3657   0.877   5.997   4.357
 1217TIP3    H2 3658   0.994   5.948   4.274
 1218TIP3   OH2 3659   6.048   0.001   1.530
 1218TIP3    H1 3660   6.050   0.087   1.571
 1218TIP3    H2 3661   6.051   0.019   1.436
 1219TIP3   OH2 3662   6.175   4.184   1.903
 1219TIP3    H1 3663   6.265   4.196   1.932
 1219TIP3    H2 3664   6.122   4.229   1.970
 1220TIP3   OH2 3665   0.106   3.610   1.150
 1220TIP3    H1 3666   0.145   3.674   1.091
 1220TIP3    H2 3667   0.177   3.548   1.169
 1221TIP3   OH2 3668   2.983   0.096   5.019
 1221TIP3    H1 3669   2.940   0.130   5.098
 1221TIP3    H2 3670   3.021   0.012   5.047
 1222TIP3   OH2 3671   4.922   3.394   0.062
 1222TIP3    H1 3672   4.987   3.380   0.130
 1222TIP3    H2 3673   4.898   3.305   0.034
 1223TIP3   OH2 3674   2.722   0.617   3.931
 1223TIP3    H1 3675   2.722   0.522   3.915
 1223TIP3    H2 3676   2.809   0.635   3.965
 1224TIP3   OH2 3677   2.484   5.968   2.783
 1224TIP3    H1 3678   2.524   6.016   2.710
 1224TIP3    H2 3679   2.392   5.960   2.758
 1225TIP3   OH2 3680   3.659   5.639   1.085
 1225TIP3    H1 3681   3.692   5.552   1.062
 1225TIP3    H2 3682   3.662   5.641   1.181
 1226TIP3   OH2 3683   3.263   0.269   4.201
 1226TIP3    H1 3684   3.268   0.361   4.226
 1226TIP3    H2 3685   3.171   0.245   4.217
 1227TIP3   OH2 3686   4.982   5.492   1.761
 1227TIP3    H1 3687   4.898   5.471   1.801
 1227TIP3    H2 3688   4.968   5.482   1.667
 1228TIP3   OH2 3689   2.103   4.362   3.086
 1228TIP3    H1 3690   2.153   4.294   3.129
 1228TIP3    H2 3691   2.068   4.321   3.006
 1229TIP3   OH2 3692   2.427   2.766   0.535
 1229TIP3    H1 3693   2.436   2.733   0.625
 1229TIP3    H2 3694   2.340   2.738   0.508
 1230TIP3   OH2 3695   5.684   1.400   2.548
 1230TIP3    H1 3696   5.774   1.430   2.547
 1230TIP3    H2 3697   5.649   1.426   2.463
 1231TIP3   OH2 3698   5.824   2.765   2.721
 1231TIP3    H1 3699   5.889   2.763   2.650
 1231TIP3    H2 3700   5.795   2.675   2.729
 1232TIP3   OH2 3701   2.857   1.820   1.479
 1232TIP3    H1 3702   2.898   1.794   1.396
 1232TIP3    H2 3703   2.918   1.790   1.546
 1233TIP3   OH2 3704   3.859   3.706   3.008
 1233TIP3    H1 3705   3.942   3.745   2.978
 1233TIP3    H2 3706   3.792   3.764   2.972
 1234TIP3   OH2 3707   6.308   4.961   2.693
 1234TIP3    H1 3708   6.323   4.969   2.787
 1234TIP3    H2 3709   6.233   5.019   2.676
 1235TIP3   OH2 3710   0.909   4.396   3.673
 1235TIP3    H1 3711   0.941   4.470   3.622
 1235TIP3    H2 3712   0.955   4.402   3.757
 1236TIP3   OH2 3713   3.277   2.626   3.197
 1236TIP3    H1 3714   3.313   2.695   3.141
 1236TIP3    H2 3715   3.190   2.656   3.219
 1237TIP3   OH2 3716   5.146   0.332   1.548
 1237TIP3    H1 3717   5.172   0.414   1.506
 1237TIP3    H2 3718   5.169   0.264   1.485
 1238TIP3   OH2 3719   2.986   4.868   0.086
 1238TIP3    H1 3720   2.977   4.802   0.017
 1238TIP3    H2 3721   3.080   4.886   0.090
 1239TIP3   OH2 3722   0.925   2.141   1.983
 1239TIP3    H1 3723   0.982   2.138   2.059
 1239TIP3    H2 3724   0.932   2.054   1.944
 1240TIP3   OH2 3725   1.291   2.421   3.172
 1240TIP3    H1 3726   1.362   2.408   3.236
 1240TIP3    H2 3727   1.321   2.493   3.117
 1241TIP3   OH2 3728   5.901   5.022   2.285
 1241TIP3    H1 3729   5.891   5.107   2.242
 1241TIP3    H2 3730   5.891   5.041   2.379
 1242TIP3   OH2 3731   5.545   2.848   3.182
 1242TIP3    H1 3732   5.555   2.936   3.219
 1242TIP3    H2 3733   5.565   2.789   3.254
 1243TIP3   OH2 3734   6.107   0.856   0.856
 1243TIP3    H1 3735   6.027   0.810   0.832
 1243TIP3    H2 3736   6.150   0.797   0.918
 1244TIP3   OH2 3737   6.363   1.961   3.393
 1244TIP3    H1 3738   6.272   1.989   3.402
 1244TIP3    H2 3739   6.367   1.878   3.440
 1245TIP3   OH2 3740   4.181   3.407   1.620
 1245TIP3    H1 3741   4.130   3.479   1.657
 1245TIP3    H2 3742   4.167   3.334   1.680
 1246TIP3   OH2 3743   4.558   5.502   3.940
 1246TIP3    H1 3744   4.570   5.421   3.988
 1246TIP3    H2 3745   4.614   5.565   3.985
 1247TIP3   OH2 3746   3.605   3.347   0.256
 1247TIP3    H1 3747   3.639   3.414   0.197
 1247TIP3    H2 3748   3.663   3.351   0.333
 1248TIP3   OH2 3749   5.670   2.397   3.266
 1248TIP3    H1 3750   5.740   2.448   3.226
 1248TIP3    H2 3751   5.712   2.354   3.341
 1249TIP3   OH2 3752   5.789   3.925   5.147
 1249TIP3    H1 3753   5.717   3.918   5.210
 1249TIP3    H2 3754   5.816   4.017   5.151
 1250TIP3   OH2 3755   4.495   4.691   1.043
 1250TIP3    H1 3756   4.554   4.742   1.099
 1250TIP3    H2 3757   4.539   4.606   1.033
 1251TIP3   OH2 3758   1.315   0.143   4.930
 1251TIP3    H1 3759   1.250   0.149   5.000
 1251TIP3    H2 3760   1.399   0.161   4.973
 1252TIP3   OH2 3761   5.485   2.456   4.230
 1252TIP3    H1 3762   5.411   2.430   4.176
 1252TIP3    H2 3763   5.541   2.507   4.172
 1253TIP3   OH2 3764   5.058   0.646   2.410
 1253TIP3    H1 3765   5.127   0.662   2.475
 1253TIP3    H2 3766   5.092   0.684   2.329
 1254TIP3   OH2 3767   5.687   4.467   0.863
 1254TIP3    H1 3768   5.692   4.457   0.768
 1254TIP3    H2 3769   5.607   4.518   0.878
 1255TIP3   OH2 3770   3.170   4.193   4.720
 1255TIP3    H1 3771   3.253   4.147   4.708
 1255TIP3    H2 3772   3.181   4.242   4.801
 1256TIP3   OH2 3773   2.963   1.460   3.215
 1256TIP3    H1 3774   2.906   1.386   3.237
 1256TIP3    H2 3775   2.955   1.520   3.289
 1257TIP3   OH2 3776   5.296   5.938   4.795
 1257TIP3    H1 3777   5.371   5.948   4.736
 1257TIP3    H2 3778   5.334   5.906   4.877
 1258TIP3   OH2 3779   1.192   1.386   4.008
 1258TIP3    H1 3780   1.186   1.457   3.944
 1258TIP3    H2 3781   1.284   1.358   4.005
 1259TIP3   OH2 3782   5.976   5.444   2.513
 1259TIP3    H1 3783   5.909   5.436   2.445
 1259TIP3    H2 3784   5.948   5.382   2.581
 1260TIP3   OH2 3785   0.800   3.055   3.732
 1260TIP3    H1 3786   0.865   3.003   3.779
 1260TIP3    H2 3787   0.816   3.145   3.759
 1261TIP3   OH2 3788   3.850   1.623   3.105
 1261TIP3    H1 3789   3.915   1.566   3.064
 1261TIP3    H2 3790   3.811   1.570   3.174
 1262TIP3   OH2 3791   3.545   1.374   2.989
 1262TIP3    H1 3792   3.614   1.391   2.924
 1262TIP3    H2 3793   3.581   1.406   3.071
 1263TIP3   OH2 3794   2.770   0.347   0.158
 1263TIP3    H1 3795   2.681   0.345   0.192
 1263TIP3    H2 3796   2.812   0.268   0.194
 1264TIP3   OH2 3797   4.104   3.375   4.954
 1264TIP3    H1 3798   4.184   3.369   4.903
 1264TIP3    H2 3799   4.066   3.459   4.929
 1265TIP3   OH2 3800   3.609   5.246   1.815
 1265TIP3    H1 3801   3.619   5.318   1.752
 1265TIP3    H2 3802   3.669   5.179   1.784
 1266TIP3   OH2 3803   3.801   5.798   0.829
 1266TIP3    H1 3804   3.844   5.740   0.766
 1266TIP3    H2 3805   3.714   5.761   0.841
 1267TIP3   OH2 3806   5.769   3.317   3.926
 1267TIP3    H1 3807   5.780   3.338   4.019
 1267TIP3    H2 3808   5.688   3.267   3.922
 1268TIP3   OH2 3809   0.068   2.696   3.416
 1268TIP3    H1 3810   0.048   2.667   3.505
 1268TIP3    H2 3811   0.155   2.735   3.423
 1269TIP3   OH2 3812   3.411   5.677   1.314
 1269TIP3    H1 3813   3.462   5.758   1.303
 1269TIP3    H2 3814   3.329   5.694   1.267
 1270TIP3   OH2 3815   2.985   0.608   3.322
 1270TIP3    H1 3816   2.954   0.518   3.325
 1270TIP3    H2 3817   3.078   0.602   3.301
 1271TIP3   OH2 3818   1.204   2.271   5.173
 1271TIP3    H1 3819   1.152   2.312   5.104
 1271TIP3    H2 3820   1.284   2.241   5.129
 1272TIP3   OH2 3821   0.203   5.234   3.153
 1272TIP3    H1 3822   0.228   5.202   3.240
 1272TIP3    H2 3823   0.260   5.187   3.092
 1273TIP3   OH2 3824   2.669   0.208   2.460
 1273TIP3    H1 3825   2.644   0.188   2.370
 1273TIP3    H2 3826   2.596   0.176   2.513
 1274TIP3   OH2 3827   2.374   2.723   1.892
 1274TIP3    H1 3828   2.432   2.729   1.815
 1274TIP3    H2 3829   2.318   2.647   1.873
 1275TIP3   OH2 3830   2.414   2.620   1.407
 1275TIP3    H1 3831   2.451   2.683   1.469
 1275TIP3    H2 3832   2.445   2.650   1.321
 1276TIP3   OH2 3833   5.601   3.964   4.219
 1276TIP3    H1 3834   5.679   3.955   4.163
 1276TIP3    H2 3835   5.636   3.980   4.306
 1277TIP3   OH2 3836   4.279   0.919   3.619
 1277TIP3    H1 3837   4.302   0.983   3.686
 1277TIP3    H2 3838   4.233   0.970   3.552
 1278TIP3   OH2 3839   1.307   4.307   0.924
 1278TIP3    H1 3840   1.385   4.357   0.947
 1278TIP3    H2 3841   1.236   4.372   0.925
 1279TIP3   OH2 3842   4.512   5.488   1.709
 1279TIP3    H1 3843   4.422   5.519   1.694
 1279TIP3    H2 3844   4.558   5.511   1.629
 1280TIP3   OH2 3845   2.409   2.457   4.235
 1280TIP3    H1 3846   2.370   2.376   4.204
 1280TIP3    H2 3847   2.334   2.513   4.256
 1281TIP3   OH2 3848   4.941   0.171   2.525
 1281TIP3    H1 3849   4.956   0.266   2.528
 1281TIP3    H2 3850   4.958   0.147   2.434
 1282TIP3   OH2 3851   2.644   1.402   4.976
 1282TIP3    H1 3852   2.555   1.376   4.999
 1282TIP3    H2 3853   2.699   1.338   5.021
 1283TIP3   OH2 3854   2.061   4.177   2.258
 1283TIP3    H1 3855   1.993   4.222   2.307
 1283TIP3    H2 3856   2.035   4.187   2.166
 1284TIP3   OH2 3857   3.691   4.981   2.799
 1284TIP3    H1 3858   3.703   5.074   2.820
 1284TIP3    H2 3859   3.704   4.976   2.705
 1285TIP3   OH2 3860   0.485   3.732   1.233
 1285TIP3    H1 3861   0.576   3.746   1.205
 1285TIP3    H2 3862   0.486   3.645   1.272
 1286TIP3   OH2 3863   4.499   0.775   2.561
 1286TIP3    H1 3864   4.546   0.856   2.579
 1286TIP3    H2 3865   4.495   0.771   2.465
 1287TIP3   OH2 3866   2.245   1.259   4.714
 1287TIP3    H1 3867   2.188   1.266   4.790
 1287TIP3    H2 3868   2.200   1.197   4.656
 1288TIP3   OH2 3869   4.094   3.099   0.067
 1288TIP3    H1 3870   4.083   3.179   0.119
 1288TIP3    H2 3871   4.102   3.130  -0.023
 1289TIP3   OH2 3872   1.194   5.223   3.785
 1289TIP3    H1 3873   1.228   5.282   3.852
 1289TIP3    H2 3874   1.104   5.204   3.813
 1290TIP3   OH2 3875   1.621   1.994   1.224
 1290TIP3    H1 3876   1.674   1.923   1.261
 1290TIP3    H2 3877   1.570   2.027   1.297
 1291TIP3   OH2 3878   6.074   1.888   3.080
 1291TIP3    H1 3879   5.981   1.886   3.057
 1291TIP3    H2 3880   6.105   1.974   3.053
 1292TIP3   OH2 3881   5.187   0.598   1.541
 1292TIP3    H1 3882   5.253   0.664   1.516
 1292TIP3    H2 3883   5.234   0.538   1.599
 1293TIP3   OH2 3884   6.076   4.818   1.520
 1293TIP3    H1 3885   6.105   4.908   1.506
 1293TIP3    H2 3886   6.056   4.814   1.614
 1294TIP3   OH2 3887   4.035   0.480   4.052
 1294TIP3    H1 3888   4.120   0.438   4.038
 1294TIP3    H2 3889   4.002   0.443   4.133
 1295TIP3   OH2 3890   5.742   3.829   1.260
 1295TIP3    H1 3891   5.789   3.754   1.223
 1295TIP3    H2 3892   5.675   3.791   1.316
 1296TIP3   OH2 3893   2.176   5.562   4.923
 1296TIP3    H1 3894   2.245   5.600   4.870
 1296TIP3    H2 3895   2.174   5.470   4.897
 1297TIP3   OH2 3896   4.177   0.581   2.857
 1297TIP3    H1 3897   4.127   0.658   2.884
 1297TIP3    H2 3898   4.140   0.509   2.907
 1298TIP3   OH2 3899   5.133   3.640   1.789
 1298TIP3    H1 3900   5.170   3.726   1.768
 1298TIP3    H2 3901   5.038   3.655   1.786
 1299TIP3   OH2 3902   1.249   1.534   1.397
 1299TIP3    H1 3903   1.242   1.457   1.454
 1299TIP3    H2 3904   1.305   1.594   1.446
 1300TIP3   OH2 3905   3.555   0.604   2.140
 1300TIP3    H1 3906   3.558   0.517   2.101
 1300TIP3    H2 3907   3.521   0.589   2.228
 1301TIP3   OH2 3908   4.297   2.108   3.247
 1301TIP3    H1 3909   4.225   2.167   3.223
 1301TIP3    H2 3910   4.364   2.125   3.182
 1302TIP3   OH2 3911   3.414   4.167   3.257
 1302TIP3    H1 3912   3.452   4.086   3.292
 1302TIP3    H2 3913   3.472   4.191   3.185
 1303TIP3   OH2 3914   3.611   4.894   1.072
 1303TIP3    H1 3915   3.668   4.835   1.120
 1303TIP3    H2 3916   3.522   4.862   1.089
 1304TIP3   OH2 3917   0.805   3.951   4.179
 1304TIP3    H1 3918   0.757   4.017   4.230
 1304TIP3    H2 3919   0.784   3.972   4.088
 1305TIP3   OH2 3920   0.017   4.319   3.247
 1305TIP3    H1 3921  -0.006   4.389   3.308
 1305TIP3    H2 3922   0.096   4.279   3.284
 1306TIP3   OH2 3923   0.978   0.377   0.949
 1306TIP3    H1 3924   1.016   0.342   1.029
 1306TIP3    H2 3925   0.883   0.363   0.960
 1307TIP3   OH2 3926   1.583   4.538   4.877
 1307TIP3    H1 3927   1.532   4.552   4.957
 1307TIP3    H2 3928   1.613   4.626   4.852
 1308TIP3   OH2 3929   4.203   3.027   1.508
 1308TIP3    H1 3930   4.220   2.981   1.426
 1308TIP3    H2 3931   4.285   3.021   1.557
 1309TIP3   OH2 3932   1.412   4.244   3.636
 1309TIP3    H1 3933   1.503   4.225   3.613
 1309TIP3    H2 3934   1.388   4.318   3.581
 1310TIP3   OH2 3935   0.215   5.424   0.096
 1310TIP3    H1 3936   0.129   5.390   0.120
 1310TIP3    H2 3937   0.214   5.516   0.123
 1311TIP3   OH2 3938   6.286   5.178   3.681
 1311TIP3    H1 3939   6.226   5.252   3.673
 1311TIP3    H2 3940   6.362   5.213   3.726
 1312TIP3   OH2 3941   5.992   5.759   0.067
 1312TIP3    H1 3942   5.947   5.675   0.070
 1312TIP3    H2 3943   5.960   5.805   0.145
 1313TIP3   OH2 3944   2.941   4.043   4.684
 1313TIP3    H1 3945   2.877   4.016   4.751
 1313TIP3    H2 3946   3.013   4.082   4.733
 1314TIP3   OH2 3947   3.724   1.610   1.234
 1314TIP3    H1 3948   3.737   1.692   1.187
 1314TIP3    H2 3949   3.812   1.584   1.261
 1315TIP3   OH2 3950   3.736   5.332   4.654
 1315TIP3    H1 3951   3.678   5.315   4.728
 1315TIP3    H2 3952   3.814   5.279   4.672
 1316TIP3   OH2 3953   3.377   5.308   2.058
 1316TIP3    H1 3954   3.308   5.265   2.110
 1316TIP3    H2 3955   3.338   5.391   2.030
 1317TIP3   OH2 3956   0.351   3.092   2.846
 1317TIP3    H1 3957   0.349   3.163   2.909
 1317TIP3    H2 3958   0.260   3.081   2.818
 1318TIP3   OH2 3959   2.587   0.292   2.181
 1318TIP3    H1 3960   2.620   0.244   2.105
 1318TIP3    H2 3961   2.582   0.383   2.151
 1319TIP3   OH2 3962   3.011   3.326   2.943
 1319TIP3    H1 3963   3.003   3.297   2.852
 1319TIP3    H2 3964   2.928   3.304   2.983
 1320TIP3   OH2 3965   1.112   3.289   2.918
 1320TIP3    H1 3966   1.034   3.323   2.962
 1320TIP3    H2 3967   1.183   3.345   2.950
 1321TIP3   OH2 3968   0.431   5.082   1.787
 1321TIP3    H1 3969   0.373   5.021   1.832
 1321TIP3    H2 3970   0.442   5.155   1.848
 1322TIP3   OH2 3971   5.760   5.004   4.528
 1322TIP3    H1 3972   5.676   4.977   4.491
 1322TIP3    H2 3973   5.786   5.081   4.476
 1323TIP3   OH2 3974   1.406   4.898   4.162
 1323TIP3    H1 3975   1.458   4.818   4.147
 1323TIP3    H2 3976   1.367   4.917   4.077
 1324TIP3   OH2 3977   6.182   2.707   3.759
 1324TIP3    H1 3978   6.130   2.768   3.811
 1324TIP3    H2 3979   6.159   2.728   3.668
 1325TIP3   OH2 3980   3.673   3.598   0.177
 1325TIP3    H1 3981   3.756   3.636   0.148
 1325TIP3    H2 3982   3.621   3.673   0.205
 1326TIP3   OH2 3983   2.466   4.032   4.449
 1326TIP3    H1 3984   2.407   4.011   4.521
 1326TIP3    H2 3985   2.538   4.081   4.490
 1327TIP3   OH2 3986   6.015   2.472   2.936
 1327TIP3    H1 3987   6.044   2.381   2.939
 1327TIP3    H2 3988   5.985   2.491   3.025
 1328TIP3   OH2 3989   2.606   5.411   3.028
 1328TIP3    H1 3990   2.654   5.328   3.027
 1328TIP3    H2 3991   2.559   5.412   2.944
 1329TIP3   OH2 3992   5.696   0.599   4.446
 1329TIP3    H1 3993   5.758   0.544   4.399
 1329TIP3    H2 3994   5.611   0.557   4.432
 1330TIP3   OH2 3995   4.851   2.031   4.834
 1330TIP3    H1 3996   4.902   2.105   4.801
 1330TIP3    H2 3997   4.883   2.019   4.924
 1331TIP3   OH2 3998   1.067   3.765   3.093
 1331TIP3    H1 3999   1.080   3.691   3.153
 1331TIP3    H2 4000   1.002   3.734   3.030
 1332TIP3   OH2 4001   5.540   0.719   3.974
 1332TIP3    H1 4002   5.566   0.795   3.922
 1332TIP3    H2 4003   5.623   0.681   4.004
 1333TIP3   OH2 4004   2.838   1.318   3.547
 1333TIP3    H1 4005   2.788   1.282   3.473
 1333TIP3    H2 4006   2.792   1.399   3.569
 1334TIP3   OH2 4007   6.109   4.023   2.225
 1334TIP3    H1 4008   6.092   4.106   2.181
 1334TIP3    H2 4009   6.190   3.991   2.184
 1335TIP3   OH2 4010   2.935   2.709   0.858
 1335TIP3    H1 4011   2.980   2.778   0.907
 1335TIP3    H2 4012   2.899   2.651   0.924
 1336TIP3   OH2 4013   3.785   2.087   4.864
 1336TIP3    H1 4014   3.857   2.080   4.927
 1336TIP3    H2 4015   3.826   2.071   4.779
 1337TIP3   OH2 4016   5.338   3.007   3.485
 1337TIP3    H1 4017   5.290   3.037   3.563
 1337TIP3    H2 4018   5.291   2.930   3.456
 1338TIP3   OH2 4019   2.794   0.613   4.653
 1338TIP3    H1 4020   2.832   0.664   4.581
 1338TIP3    H2 4021   2.750   0.540   4.610
 1339TIP3   OH2 4022   0.321   4.660   3.862
 1339TIP3    H1 4023   0.377   4.687   3.935
 1339TIP3    H2 4024   0.263   4.735   3.849
 1340TIP3   OH2 4025   5.796   5.566   3.809
 1340TIP3    H1 4026   5.863   5.593   3.871
 1340TIP3    H2 4027   5.716   5.609   3.838
 1341TIP3   OH2 4028   4.362   2.879   1.319
 1341TIP3    H1 4029   4.449   2.913   1.339
 1341TIP3    H2 4030   4.376   2.785   1.303
 1342TIP3   OH2 4031   5.740   2.992   0.877
 1342TIP3    H1 4032   5.740   3.054   0.804
 1342TIP3    H2 4033   5.714   2.909   0.839
 1343TIP3   OH2 4034   4.813   2.007   1.176
 1343TIP3    H1 4035   4.829   2.090   1.222
 1343TIP3    H2 4036   4.897   1.962   1.178
 1344TIP3   OH2 4037   3.046   1.693   2.990
 1344TIP3    H1 4038   3.037   1.775   2.942
 1344TIP3    H2 4039   3.124   1.651   2.953
 1345TIP3   OH2 4040   3.273   3.315   2.222
 1345TIP3    H1 4041   3.203   3.265   2.180
 1345TIP3    H2 4042   3.228   3.380   2.276
 1346TIP3   OH2 4043   1.017   3.250   4.357
 1346TIP3    H1 4044   1.080   3.246   4.429
 1346TIP3    H2 4045   0.967   3.331   4.373
 1347TIP3   OH2 4046   2.153   5.952   0.535
 1347TIP3    H1 4047   2.231   5.899   0.518
 1347TIP3    H2 4048   2.160   5.974   0.628
 1348TIP3   OH2 4049   1.380   5.404   2.441
 1348TIP3    H1 4050   1.470   5.409   2.472
 1348TIP3    H2 4051   1.340   5.337   2.496
 1349TIP3   OH2 4052   5.174   2.500   1.525
 1349TIP3    H1 4053   5.195   2.571   1.464
 1349TIP3    H2 4054   5.239   2.509   1.595
 1350TIP3   OH2 4055   2.496   2.012   1.906
 1350TIP3    H1 4056   2.429   1.959   1.863
 1350TIP3    H2 4057   2.577   1.993   1.860
 1351TIP3   OH2 4058   6.041   0.696   0.151
 1351TIP3    H1 4059   6.131   0.717   0.176
 1351TIP3    H2 4060   5.987   0.753   0.205
 1352TIP3   OH2 4061   4.631   4.174   2.650
 1352TIP3    H1 4062   4.604   4.242   2.588
 1352TIP3    H2 4063   4.577   4.098   2.628
 1353TIP3   OH2 4064   0.478   2.437   1.081
 1353TIP3    H1 4065   0.509   2.437   1.171
 1353TIP3    H2 4066   0.384   2.421   1.088
 1354TIP3   OH2 4067   5.039   3.382   0.332
 1354TIP3    H1 4068   5.129   3.414   0.337
 1354TIP3    H2 4069   5.047   3.288   0.347
 1355TIP3   OH2 4070   3.764   3.153   3.673
 1355TIP3    H1 4071   3.695   3.201   3.626
 1355TIP3    H2 4072   3.780   3.206   3.751
 1356TIP3   OH2 4073   0.050   3.116   2.826
 1356TIP3    H1 4074   0.015   3.199   2.856
 1356TIP3    H2 4075  -0.002   3.050   2.873
 1357TIP3   OH2 4076  -0.005   1.871   0.122
 1357TIP3    H1 4077  -0.003   1.967   0.131
 1357TIP3    H2 4078   0.056   1.839   0.188
 1358TIP3   OH2 4079   0.134   4.934   3.311
 1358TIP3    H1 4080   0.180   4.953   3.229
 1358TIP3    H2 4081   0.076   5.009   3.324
 1359TIP3   OH2 4082   0.407   2.744   1.138
 1359TIP3    H1 4083   0.431   2.655   1.114
 1359TIP3    H2 4084   0.381   2.738   1.230
 1360TIP3   OH2 4085   5.317   1.306   0.348
 1360TIP3    H1 4086   5.398   1.297   0.298
 1360TIP3    H2 4087   5.260   1.237   0.313
 1361TIP3   OH2 4088   0.048   4.640   3.150
 1361TIP3    H1 4089  -0.022   4.693   3.112
 1361TIP3    H2 4090   0.118   4.702   3.167
 1362TIP3   OH2 4091   4.084   1.273   1.543
 1362TIP3    H1 4092   3.992   1.298   1.533
 1362TIP3    H2 4093   4.084   1.215   1.620
 1363TIP3   OH2 4094   5.594   2.977   3.496
 1363TIP3    H1 4095   5.501   2.999   3.504
 1363TIP3    H2 4096   5.634   3.055   3.458
 1364TIP3   OH2 4097   1.965  -0.026   4.508
 1364TIP3    H1 4098   1.950   0.067   4.489
 1364TIP3    H2 4099   2.053  -0.029   4.546
 1365TIP3   OH2 4100   4.269   4.688   2.880
 1365TIP3    H1 4101   4.318   4.609   2.858
 1365TIP3    H2 4102   4.311   4.757   2.828
 1366TIP3   OH2 4103   6.181   4.346   2.446
 1366TIP3    H1 4104   6.196   4.436   2.473
 1366TIP3    H2 4105   6.089   4.330   2.465
 1367TIP3   OH2 4106   5.511   2.486   1.517
 1367TIP3    H1 4107   5.584   2.547   1.509
 1367TIP3    H2 4108   5.461   2.519   1.592
 1368TIP3   OH2 4109   4.001   1.289   0.493
 1368TIP3    H1 4110   4.039   1.361   0.543
 1368TIP3    H2 4111   4.062   1.273   0.422
 1369TIP3   OH2 4112   1.854   2.396   2.163
 1369TIP3    H1 4113   1.884   2.484   2.183
 1369TIP3    H2 4114   1.794   2.373   2.234
 1370TIP3   OH2 4115   3.245   1.374   3.489
 1370TIP3    H1 4116   3.283   1.286   3.495
 1370TIP3    H2 4117   3.259   1.401   3.398
 1371TIP3   OH2 4118   0.939   2.198   3.694
 1371TIP3    H1 4119   0.978   2.183   3.608
 1371TIP3    H2 4120   0.873   2.266   3.680
 1372TIP3   OH2 4121   2.477   5.712   2.484
 1372TIP3    H1 4122   2.403   5.661   2.450
 1372TIP3    H2 4123   2.474   5.794   2.435
 1373TIP3   OH2 4124   0.014   1.931   3.874
 1373TIP3    H1 4125   0.091   1.905   3.925
 1373TIP3    H2 4126   0.001   2.023   3.896
 1374TIP3   OH2 4127   3.417   0.595   3.673
 1374TIP3    H1 4128   3.397   0.666   3.734
 1374TIP3    H2 4129   3.440   0.520   3.729
 1375TIP3   OH2 4130   3.793   2.356   0.710
 1375TIP3    H1 4131   3.799   2.288   0.643
 1375TIP3    H2 4132   3.881   2.392   0.716
 1376TIP3   OH2 4133   5.427   1.518   3.130
 1376TIP3    H1 4134   5.456   1.486   3.215
 1376TIP3    H2 4135   5.373   1.446   3.094
 1377TIP3   OH2 4136   5.811   1.844   3.717
 1377TIP3    H1 4137   5.885   1.904   3.721
 1377TIP3    H2 4138   5.849   1.757   3.731
 1378TIP3   OH2 4139   5.573   1.436   1.675
 1378TIP3    H1 4140   5.542   1.499   1.740
 1378TIP3    H2 4141   5.596   1.489   1.599
 1379TIP3   OH2 4142   0.712   1.930   3.700
 1379TIP3    H1 4143   0.750   1.957   3.783
 1379TIP3    H2 4144   0.687   2.012   3.656
 1380TIP3   OH2 4145   3.770   5.121   1.089
 1380TIP3    H1 4146   3.800   5.100   1.001
 1380TIP3    H2 4147   3.707   5.053   1.110
 1381TIP3   OH2 4148   3.440   0.653   0.708
 1381TIP3    H1 4149   3.365   0.674   0.652
 1381TIP3    H2 4150   3.508   0.625   0.647
 1382TIP3   OH2 4151   2.976   2.667   4.147
 1382TIP3    H1 4152   3.028   2.746   4.131
 1382TIP3    H2 4153   2.994   2.644   4.238
 1383TIP3   OH2 4154   6.242   0.876   4.633
 1383TIP3    H1 4155   6.292   0.797   4.614
 1383TIP3    H2 4156   6.224   0.872   4.727
 1384TIP3   OH2 4157   2.807   4.881   3.125
 1384TIP3    H1 4158   2.723   4.925   3.132
 1384TIP3    H2 4159   2.788   4.801   3.076
 1385TIP3   OH2 4160   5.630   3.708   3.743
 1385TIP3    H1 4161   5.687   3.633   3.729
 1385TIP3    H2 4162   5.562   3.699   3.677
 1386TIP3   OH2 4163   5.065   2.162   4.619
 1386TIP3    H1 4164   5.155   2.191   4.610
 1386TIP3    H2 4165   5.017   2.240   4.646
 1387TIP3   OH2 4166   0.558   1.137   0.843
 1387TIP3    H1 4167   0.650   1.159   0.831
 1387TIP3    H2 4168   0.553   1.043   0.822
 1388TIP3   OH2 4169   0.557   4.049   4.763
 1388TIP3    H1 4170   0.518   4.114   4.821
 1388TIP3    H2 4171   0.640   4.087   4.736
 1389TIP3   OH2 4172   1.433   0.495   4.875
 1389TIP3    H1 4173   1.346   0.488   4.914
 1389TIP3    H2 4174   1.493   0.498   4.950
 1390TIP3   OH2 4175   1.979   3.414   4.518
 1390TIP3    H1 4176   1.897   3.382   4.481
 1390TIP3    H2 4177   2.030   3.335   4.538
 1391TIP3   OH2 4178   3.559   0.926   2.610
 1391TIP3    H1 4179   3.535   0.834   2.626
 1391TIP3    H2 4180   3.487   0.976   2.647
 1392TIP3   OH2 4181   2.368   5.162   1.818
 1392TIP3    H1 4182   2.293   5.106   1.841
 1392TIP3    H2 4183   2.419   5.110   1.757
 1393TIP3   OH2 4184   4.006   1.850   4.819
 1393TIP3    H1 4185   3.991   1.790   4.747
 1393TIP3    H2 4186   4.012   1.936   4.778
 1394TIP3   OH2 4187   0.353   5.765   1.897
 1394TIP3    H1 4188   0.260   5.742   1.908
 1394TIP3    H2 4189   0.374   5.818   1.973
 1395TIP3   OH2 4190   5.502   0.963   2.600
 1395TIP3    H1 4191   5.459   0.995   2.521
 1395TIP3    H2 4192   5.583   1.014   2.606
 1396TIP3   OH2 4193   1.275   4.047   0.842
 1396TIP3    H1 4194   1.242   4.026   0.755
 1396TIP3    H2 4195   1.249   4.138   0.856
 1397TIP3   OH2 4196   0.512   5.147   2.691
 1397TIP3    H1 4197   0.430   5.097   2.693
 1397TIP3    H2 4198   0.529   5.161   2.598
 1398TIP3   OH2 4199   1.322   1.445   2.290
 1398TIP3    H1 4200   1.337   1.431   2.384
 1398TIP3    H2 4201   1.409   1.462   2.254
 1399TIP3   OH2 4202   4.975   2.798   0.464
 1399TIP3    H1 4203   4.940   2.720   0.422
 1399TIP3    H2 4204   5.070   2.789   0.458
 1400TIP3   OH2 4205   4.584   1.256   3.435
 1400TIP3    H1 4206   4.553   1.228   3.521
 1400TIP3    H2 4207   4.510   1.240   3.376
 1401TIP3   OH2 4208   5.743   4.263   2.715
 1401TIP3    H1 4209   5.678   4.301   2.774
 1401TIP3    H2 4210   5.738   4.169   2.731
 1402TIP3   OH2 4211   5.690   2.123   1.978
 1402TIP3    H1 4212   5.750   2.163   2.041
 1402TIP3    H2 4213   5.724   2.147   1.892
 1403TIP3   OH2 4214   2.963   0.085   3.455
 1403TIP3    H1 4215   3.020   0.008   3.446
 1403TIP3    H2 4216   3.007   0.140   3.520
 1404TIP3   OH2 4217   6.140   2.724   1.917
 1404TIP3    H1 4218   6.229   2.687   1.915
 1404TIP3    H2 4219   6.097   2.680   1.990
 1405TIP3   OH2 4220   3.056   2.170   0.093
 1405TIP3    H1 4221   3.077   2.094   0.039
 1405TIP3    H2 4222   3.078   2.245   0.039
 1406TIP3   OH2 4223   4.617   2.936   1.331
 1406TIP3    H1 4224   4.699   2.886   1.330
 1406TIP3    H2 4225   4.626   2.995   1.406
 1407TIP3   OH2 4226   1.617   5.760   1.217
 1407TIP3    H1 4227   1.641   5.675   1.180
 1407TIP3    H2 4228   1.627   5.821   1.144
 1408TIP3   OH2 4229   0.787   2.298   1.791
 1408TIP3    H1 4230   0.728   2.358   1.837
 1408TIP3    H2 4231   0.831   2.249   1.861
 1409TIP3   OH2 4232   2.724   5.031   4.397
 1409TIP3    H1 4233   2.730   5.087   4.474
 1409TIP3    H2 4234   2.754   4.946   4.426
 1410TIP3   OH2 4235   4.904   4.187   3.393
 1410TIP3    H1 4236   4.962   4.173   3.319
 1410TIP3    H2 4237   4.953   4.153   3.468
 1411TIP3   OH2 4238   4.492   1.792   0.052
 1411TIP3    H1 4239   4.507   1.845   0.130
 1411TIP3    H2 4240   4.542   1.712   0.068
 1412TIP3   OH2 4241   1.952   0.434   2.512
 1412TIP3    H1 4242   1.901   0.416   2.591
 1412TIP3    H2 4243   2.042   0.409   2.534
 1413TIP3   OH2 4244   5.244   5.078   1.214
 1413TIP3    H1 4245   5.257   4.993   1.172
 1413TIP3    H2 4246   5.232   5.139   1.141
 1414TIP3   OH2 4247   3.585   4.153   1.660
 1414TIP3    H1 4248   3.678   4.175   1.663
 1414TIP3    H2 4249   3.571   4.096   1.737
 1415TIP3   OH2 4250   4.637   5.811   2.353
 1415TIP3    H1 4251   4.693   5.852   2.287
 1415TIP3    H2 4252   4.684   5.822   2.435
 1416TIP3   OH2 4253   5.037   3.991   0.771
 1416TIP3    H1 4254   5.015   4.001   0.864
 1416TIP3    H2 4255   5.021   4.077   0.733
 1417TIP3   OH2 4256   1.286   3.943   4.649
 1417TIP3    H1 4257   1.224   4.014   4.634
 1417TIP3    H2 4258   1.230   3.866   4.666
 1418TIP3   OH2 4259   5.590   4.710   4.966
 1418TIP3    H1 4260   5.565   4.801   4.984
 1418TIP3    H2 4261   5.506   4.664   4.957
 1419TIP3   OH2 4262   4.218   0.725   1.824
 1419TIP3    H1 4263   4.237   0.643   1.777
 1419TIP3    H2 4264   4.185   0.784   1.757
 1420TIP3   OH2 4265   0.157   2.814   4.876
 1420TIP3    H1 4266   0.121   2.902   4.882
 1420TIP3    H2 4267   0.224   2.811   4.944
 1421TIP3   OH2 4268   6.042   4.469   2.788
 1421TIP3    H1 4269   6.109   4.538   2.786
 1421TIP3    H2 4270   5.979   4.495   2.721
 1422TIP3   OH2 4271   5.372   2.499   0.266
 1422TIP3    H1 4272   5.319   2.468   0.193
 1422TIP3    H2 4273   5.308   2.520   0.334
 1423TIP3   OH2 4274   4.232   3.207   4.060
 1423TIP3    H1 4275   4.226   3.217   4.155
 1423TIP3    H2 4276   4.262   3.292   4.029
 1424TIP3   OH2 4277   2.946   1.117   0.244
 1424TIP3    H1 4278   3.014   1.072   0.193
 1424TIP3    H2 4279   2.864   1.092   0.202
 1425TIP3   OH2 4280   5.215   2.860   0.967
 1425TIP3    H1 4281   5.211   2.781   1.021
 1425TIP3    H2 4282   5.305   2.860   0.932
 1426TIP3   OH2 4283   1.470   1.985   3.053
 1426TIP3    H1 4284   1.557   2.006   3.018
 1426TIP3    H2 4285   1.415   1.973   2.976
 1427TIP3   OH2 4286   4.981   0.935   3.441
 1427TIP3    H1 4287   4.926   0.954   3.517
 1427TIP3    H2 4288   4.950   0.850   3.411
 1428TIP3   OH2 4289   2.832   5.672   3.936
 1428TIP3    H1 4290   2.748   5.711   3.961
 1428TIP3    H2 4291   2.866   5.728   3.866
 1429TIP3   OH2 4292   1.058   2.526   4.018
 1429TIP3    H1 4293   0.979   2.477   4.038
 1429TIP3    H2 4294   1.038   2.616   4.040
 1430TIP3   OH2 4295   0.527   1.067   1.453
 1430TIP3    H1 4296   0.516   1.162   1.455
 1430TIP3    H2 4297   0.557   1.044   1.541
 1431TIP3   OH2 4298   1.739   3.275   0.231
 1431TIP3    H1 4299   1.787   3.351   0.197
 1431TIP3    H2 4300   1.665   3.265   0.172
 1432TIP3   OH2 4301   2.717   0.224   1.512
 1432TIP3    H1 4302   2.631   0.183   1.515
 1432TIP3    H2 4303   2.747   0.208   1.422
 1433TIP3   OH2 4304   2.158   3.063   0.434
 1433TIP3    H1 4305   2.248   3.071   0.405
 1433TIP3    H2 4306   2.132   2.975   0.407
 1434TIP3   OH2 4307   4.398   3.061   2.989
 1434TIP3    H1 4308   4.375   2.969   2.977
 1434TIP3    H2 4309   4.322   3.109   2.955
 1435TIP3   OH2 4310   0.785   2.583   0.832
 1435TIP3    H1 4311   0.747   2.619   0.752
 1435TIP3    H2 4312   0.832   2.504   0.803
 1436TIP3   OH2 4313   6.237   1.598   0.366
 1436TIP3    H1 4314   6.305   1.563   0.423
 1436TIP3    H2 4315   6.225   1.530   0.300
 1437TIP3   OH2 4316   2.263   5.665   0.851
 1437TIP3    H1 4317   2.185   5.669   0.795
 1437TIP3    H2 4318   2.234   5.617   0.929
 1438TIP3   OH2 4319   2.247   0.674   1.767
 1438TIP3    H1 4320   2.184   0.687   1.838
 1438TIP3    H2 4321   2.262   0.762   1.732
 1439TIP3   OH2 4322   4.977   5.088   2.044
 1439TIP3    H1 4323   4.989   5.133   2.128
 1439TIP3    H2 4324   4.884   5.100   2.024
 1440TIP3   OH2 4325   2.336   1.317   2.966
 1440TIP3    H1 4326   2.342   1.226   2.995
 1440TIP3    H2 4327   2.244   1.341   2.980
 1441TIP3   OH2 4328   3.465   3.490   2.048
 1441TIP3    H1 4329   3.418   3.420   2.093
 1441TIP3    H2 4330   3.557   3.466   2.057
 1442TIP3   OH2 4331   1.591   5.906   1.831
 1442TIP3    H1 4332   1.558   5.956   1.905
 1442TIP3    H2 4333   1.685   5.920   1.832
 1443TIP3   OH2 4334   4.535   0.226   1.345
 1443TIP3    H1 4335   4.543   0.307   1.295
 1443TIP3    H2 4336   4.519   0.254   1.435
 1444TIP3   OH2 4337   5.164   0.102   0.790
 1444TIP3    H1 4338   5.140   0.179   0.842
 1444TIP3    H2 4339   5.237   0.063   0.838
 1445TIP3   OH2 4340   6.334   2.287   0.792
 1445TIP3    H1 4341   6.309   2.196   0.803
 1445TIP3    H2 4342   6.366   2.293   0.702
 1446TIP3   OH2 4343   4.404   1.576   2.179
 1446TIP3    H1 4344   4.392   1.484   2.156
 1446TIP3    H2 4345   4.416   1.576   2.274
 1447TIP3   OH2 4346   2.048   2.764   0.772
 1447TIP3    H1 4347   2.020   2.828   0.707
 1447TIP3    H2 4348   1.973   2.754   0.830
 1448TIP3   OH2 4349   4.486   4.513   1.470
 1448TIP3    H1 4350   4.523   4.469   1.394
 1448TIP3    H2 4351   4.537   4.594   1.479
 1449TIP3   OH2 4352   5.301   0.989   2.370
 1449TIP3    H1 4353   5.284   1.067   2.423
 1449TIP3    H2 4354   5.325   1.024   2.284
 1450TIP3   OH2 4355   5.624   0.663   0.820
 1450TIP3    H1 4356   5.711   0.674   0.782
 1450TIP3    H2 4357   5.630   0.583   0.873
 1451TIP3   OH2 4358   4.200   5.454   2.140
 1451TIP3    H1 4359   4.218   5.438   2.048
 1451TIP3    H2 4360   4.146   5.533   2.141
 1452TIP3   OH2 4361   2.597   0.298   3.269
 1452TIP3    H1 4362   2.641   0.231   3.218
 1452TIP3    H2 4363   2.635   0.381   3.239
 1453TIP3   OH2 4364   0.160   4.698   2.296
 1453TIP3    H1 4365   0.249   4.695   2.260
 1453TIP3    H2 4366   0.166   4.755   2.372
 1454TIP3   OH2 4367   2.291   3.288   2.492
 1454TIP3    H1 4368   2.317   3.370   2.450
 1454TIP3    H2 4369   2.332   3.219   2.440
 1455TIP3   OH2 4370   0.971   3.229   1.065
 1455TIP3    H1 4371   1.042   3.232   1.001
 1455TIP3    H2 4372   0.996   3.295   1.131
 1456TIP3   OH2 4373   4.013   2.096   5.012
 1456TIP3    H1 4374   4.076   2.092   4.941
 1456TIP3    H2 4375   4.054   2.047   5.084
 1457TIP3   OH2 4376   3.519   2.036   1.104
 1457TIP3    H1 4377   3.538   2.043   1.010
 1457TIP3    H2 4378   3.482   1.949   1.114
 1458TIP3   OH2 4379   3.101   4.575   4.651
 1458TIP3    H1 4380   3.098   4.523   4.731
 1458TIP3    H2 4381   3.009   4.595   4.631
 1459TIP3   OH2 4382   4.147   1.578   2.008
 1459TIP3    H1 4383   4.219   1.583   2.071
 1459TIP3    H2 4384   4.187   1.602   1.924
 1460TIP3   OH2 4385   2.265   2.437   3.136
 1460TIP3    H1 4386   2.330   2.504   3.116
 1460TIP3    H2 4387   2.316   2.362   3.167
 1461TIP3   OH2 4388   0.864   2.840   3.899
 1461TIP3    H1 4389   0.827   2.756   3.871
 1461TIP3    H2 4390   0.788   2.895   3.916
 1462TIP3   OH2 4391   1.871   4.975   1.670
 1462TIP3    H1 4392   1.964   4.974   1.647
 1462TIP3    H2 4393   1.835   4.894   1.633
 1463TIP3   OH2 4394   5.431   2.997   0.693
 1463TIP3    H1 4395   5.492   2.996   0.619
 1463TIP3    H2 4396   5.350   3.033   0.657
 1464TIP3   OH2 4397   5.707   1.294   3.103
 1464TIP3    H1 4398   5.656   1.329   3.176
 1464TIP3    H2 4399   5.714   1.367   3.042
 1465TIP3   OH2 4400   6.040   4.382   4.230
 1465TIP3    H1 4401   5.977   4.427   4.287
 1465TIP3    H2 4402   6.122   4.430   4.244
 1466TIP3   OH2 4403   0.522   4.773  -0.035
 1466TIP3    H1 4404   0.612   4.799  -0.052
 1466TIP3    H2 4405   0.511   4.781   0.059
 1467TIP3   OH2 4406   4.230   1.418   4.410
 1467TIP3    H1 4407   4.203   1.441   4.321
 1467TIP3    H2 4408   4.287   1.490   4.437
 1468TIP3   OH2 4409   3.784   1.686   3.730
 1468TIP3    H1 4410   3.795   1.722   3.642
 1468TIP3    H2 4411   3.691   1.697   3.749
 1469TIP3   OH2 4412   4.565   4.742   0.207
 1469TIP3    H1 4413   4.514   4.705   0.136
 1469TIP3    H2 4414   4.616   4.669   0.242
 1470TIP3   OH2 4415   4.962   2.414   4.629
 1470TIP3    H1 4416   5.011   2.419   4.547
 1470TIP3    H2 4417   4.968   2.503   4.665
 1471TIP3   OH2 4418   5.830   5.374   4.857
 1471TIP3    H1 4419   5.755   5.319   4.832
 1471TIP3    H2 4420   5.897   5.356   4.792
 1472TIP3   OH2 4421   5.500   3.353   2.686
 1472TIP3    H1 4422   5.508   3.435   2.636
 1472TIP3    H2 4423   5.407   3.346   2.706
 1473TIP3   OH2 4424   5.164   3.088   0.682
 1473TIP3    H1 4425   5.186   3.011   0.734
 1473TIP3    H2 4426   5.156   3.159   0.745
 1474TIP3   OH2 4427   0.404   0.650   2.166
 1474TIP3    H1 4428   0.390   0.720   2.102
 1474TIP3    H2 4429   0.469   0.685   2.227
 1475TIP3   OH2 4430   3.497   5.688   3.480
 1475TIP3    H1 4431   3.490   5.621   3.548
 1475TIP3    H2 4432   3.558   5.753   3.518
 1476TIP3   OH2 4433   2.865   1.410   1.179
 1476TIP3    H1 4434   2.874   1.315   1.187
 1476TIP3    H2 4435   2.887   1.444   1.265
 1477TIP3   OH2 4436   2.478   3.200   1.282
 1477TIP3    H1 4437   2.420   3.212   1.358
 1477TIP3    H2 4438   2.432   3.137   1.227
 1478TIP3   OH2 4439   1.900   2.305   4.073
 1478TIP3    H1 4440   1.806   2.290   4.085
 1478TIP3    H2 4441   1.906   2.355   3.992
 1479TIP3   OH2 4442   3.966   5.156   4.201
 1479TIP3    H1 4443   3.880   5.179   4.165
 1479TIP3    H2 4444   4.003   5.240   4.228
 1480TIP3   OH2 4445   4.690   2.678   5.123
 1480TIP3    H1 4446   4.760   2.650   5.183
 1480TIP3    H2 4447   4.708   2.631   5.042
 1481TIP3   OH2 4448   4.589   1.039   2.567
 1481TIP3    H1 4449   4.682   1.051   2.585
 1481TIP3    H2 4450   4.567   1.108   2.505
 1482TIP3   OH2 4451   0.403   3.105   0.591
 1482TIP3    H1 4452   0.393   3.028   0.646
 1482TIP3    H2 4453   0.429   3.071   0.505
 1483TIP3   OH2 4454   0.837   1.384   0.098
 1483TIP3    H1 4455   0.755   1.345   0.130
 1483TIP3    H2 4456   0.851   1.460   0.156
 1484TIP3   OH2 4457   6.176   1.742   4.347
 1484TIP3    H1 4458   6.101   1.704   4.393
 1484TIP3    H2 4459   6.176   1.834   4.372
 1485TIP3   OH2 4460   5.915   3.476   1.777
 1485TIP3    H1 4461   5.945   3.563   1.804
 1485TIP3    H2 4462   5.821   3.485   1.766
 1486TIP3   OH2 4463   3.963   4.299   4.895
 1486TIP3    H1 4464   4.030   4.299   4.826
 1486TIP3    H2 4465   4.010   4.270   4.974
 1487TIP3   OH2 4466   1.962   3.856   3.661
 1487TIP3    H1 4467   1.877   3.811   3.663
 1487TIP3    H2 4468   1.980   3.867   3.567
 1488TIP3   OH2 4469   1.449  -0.004   3.892
 1488TIP3    H1 4470   1.422   0.023   3.980
 1488TIP3    H2 4471   1.538   0.029   3.883
 1489TIP3   OH2 4472   3.128   3.176   3.506
 1489TIP3    H1 4473   3.137   3.224   3.423
 1489TIP3    H2 4474   3.098   3.242   3.568
 1490TIP3   OH2 4475   4.355   4.819   0.397
 1490TIP3    H1 4476   4.406   4.815   0.316
 1490TIP3    H2 4477   4.286   4.883   0.379
 1491TIP3   OH2 4478   3.045   2.287   0.707
 1491TIP3    H1 4479   3.008   2.210   0.751
 1491TIP3    H2 4480   2.974   2.317   0.650
 1492TIP3   OH2 4481   6.260   2.077   4.238
 1492TIP3    H1 4482   6.247   2.149   4.177
 1492TIP3    H2 4483   6.172   2.047   4.260
 1493TIP3   OH2 4484   2.247   1.525   0.751
 1493TIP3    H1 4485   2.185   1.581   0.797
 1493TIP3    H2 4486   2.307   1.494   0.819
 1494TIP3   OH2 4487   0.516   1.395   1.663
 1494TIP3    H1 4488   0.584   1.366   1.602
 1494TIP3    H2 4489   0.435   1.358   1.628
 1495TIP3   OH2 4490   5.317   1.578   1.988
 1495TIP3    H1 4491   5.311   1.612   2.078
 1495TIP3    H2 4492   5.240   1.613   1.944
 1496TIP3   OH2 4493   1.530   4.931   1.608
 1496TIP3    H1 4494   1.551   5.002   1.548
 1496TIP3    H2 4495   1.569   4.958   1.691
 1497TIP3   OH2 4496   4.045   0.542   0.310
 1497TIP3    H1 4497   4.007   0.513   0.227
 1497TIP3    H2 4498   4.118   0.599   0.284
 1498TIP3   OH2 4499   1.013   2.021   4.866
 1498TIP3    H1 4500   0.956   2.035   4.942
 1498TIP3    H2 4501   0.993   1.931   4.838
 1499TIP3   OH2 4502   2.539   0.392   0.265
 1499TIP3    H1 4503   2.511   0.345   0.344
 1499TIP3    H2 4504   2.467   0.381   0.203
 1500TIP3   OH2 4505   5.851   3.871   1.561
 1500TIP3    H1 4506   5.837   3.949   1.615
 1500TIP3    H2 4507   5.884   3.805   1.623
 1501TIP3   OH2 4508   1.108   3.105   1.795
 1501TIP3    H1 4509   1.137   3.164   1.726
 1501TIP3    H2 4510   1.163   3.128   1.871
 1502TIP3   OH2 4511   4.441   4.182   3.822
 1502TIP3    H1 4512   4.351   4.209   3.807
 1502TIP3    H2 4513   4.493   4.259   3.802
 1503TIP3   OH2 4514   5.256   4.386   3.403
 1503TIP3    H1 4515   5.295   4.305   3.371
 1503TIP3    H2 4516   5.210   4.422   3.327
 1504TIP3   OH2 4517   1.861   5.033   4.294
 1504TIP3    H1 4518   1.927   5.102   4.299
 1504TIP3    H2 4519   1.779   5.079   4.272
 1505TIP3   OH2 4520   5.764   2.641   0.458
 1505TIP3    H1 4521   5.735   2.639   0.367
 1505TIP3    H2 4522   5.812   2.559   0.470
 1506TIP3   OH2 4523   0.206   3.271   4.406
 1506TIP3    H1 4524   0.246   3.231   4.483
 1506TIP3    H2 4525   0.240   3.360   4.405
 1507TIP3   OH2 4526   0.754   4.749   0.610
 1507TIP3    H1 4527   0.677   4.806   0.609
 1507TIP3    H2 4528   0.764   4.724   0.701
 1508TIP3   OH2 4529   0.875   3.279   2.125
 1508TIP3    H1 4530   0.897   3.252   2.214
 1508TIP3    H2 4531   0.920   3.215   2.069
 1509TIP3   OH2 4532   5.064   5.725   3.563
 1509TIP3    H1 4533   5.130   5.760   3.622
 1509TIP3    H2 4534   5.105   5.649   3.522
 1510TIP3   OH2 4535   5.574   3.935   2.065
 1510TIP3    H1 4536   5.619   3.922   2.148
 1510TIP3    H2 4537   5.591   4.027   2.043
 1511TIP3   OH2 4538   0.753   2.484   0.317
 1511TIP3    H1 4539   0.812   2.508   0.245
 1511TIP3    H2 4540   0.762   2.555   0.380
 1512TIP3   OH2 4541   3.683   4.799   4.634
 1512TIP3    H1 4542   3.726   4.783   4.718
 1512TIP3    H2 4543   3.669   4.894   4.632
 1513TIP3   OH2 4544   5.921   1.313   4.033
 1513TIP3    H1 4545   5.840   1.298   3.985
 1513TIP3    H2 4546   5.990   1.298   3.969
 1514TIP3   OH2 4547   6.277   0.782   1.565
 1514TIP3    H1 4548   6.319   0.706   1.606
 1514TIP3    H2 4549   6.316   0.857   1.609
 1515TIP3   OH2 4550   1.016   5.835   4.637
 1515TIP3    H1 4551   0.989   5.876   4.555
 1515TIP3    H2 4552   1.099   5.793   4.616
 1516TIP3   OH2 4553   3.155   1.727   0.309
 1516TIP3    H1 4554   3.072   1.774   0.319
 1516TIP3    H2 4555   3.222   1.794   0.324
 1517TIP3   OH2 4556   5.203   4.241   1.002
 1517TIP3    H1 4557   5.262   4.275   0.935
 1517TIP3    H2 4558   5.218   4.146   1.002
 1518TIP3   OH2 4559   1.999   3.278   2.270
 1518TIP3    H1 4560   2.094   3.270   2.282
 1518TIP3    H2 4561   1.962   3.213   2.330
 1519TIP3   OH2 4562   1.489   5.582   4.239
 1519TIP3    H1 4563   1.461   5.495   4.209
 1519TIP3    H2 4564   1.565   5.602   4.185
 1520TIP3   OH2 4565   1.904   1.992   2.337
 1520TIP3    H1 4566   1.836   2.001   2.405
 1520TIP3    H2 4567   1.863   1.938   2.269
 1521TIP3   OH2 4568   0.776   5.804   3.659
 1521TIP3    H1 4569   0.743   5.876   3.605
 1521TIP3    H2 4570   0.779   5.729   3.600
 1522TIP3   OH2 4571   4.840   5.238   1.822
 1522TIP3    H1 4572   4.759   5.251   1.773
 1522TIP3    H2 4573   4.880   5.160   1.782
 1523TIP3   OH2 4574   0.108   3.767   4.117
 1523TIP3    H1 4575   0.031   3.812   4.152
 1523TIP3    H2 4576   0.153   3.835   4.067
 1524TIP3   OH2 4577   5.037   2.139   2.018
 1524TIP3    H1 4578   5.033   2.223   1.973
 1524TIP3    H2 4579   5.110   2.147   2.079
 1525TIP3   OH2 4580   4.416   2.436   4.440
 1525TIP3    H1 4581   4.321   2.426   4.431
 1525TIP3    H2 4582   4.452   2.359   4.396
 1526TIP3   OH2 4583   0.157   4.027   4.114
 1526TIP3    H1 4584   0.225   3.985   4.166
 1526TIP3    H2 4585   0.113   4.087   4.174
 1527TIP3   OH2 4586   3.454   1.691   0.735
 1527TIP3    H1 4587   3.513   1.700   0.660
 1527TIP3    H2 4588   3.366   1.694   0.697
 1528TIP3   OH2 4589   0.795   3.029   1.112
 1528TIP3    H1 4590   0.871   3.087   1.098
 1528TIP3    H2 4591   0.721   3.089   1.115
 1529TIP3   OH2 4592   2.122   1.866   2.159
 1529TIP3    H1 4593   2.032   1.834   2.153
 1529TIP3    H2 4594   2.151   1.872   2.068
 1530TIP3   OH2 4595   2.635   0.567   2.875
 1530TIP3    H1 4596   2.559   0.547   2.820
 1530TIP3    H2 4597   2.646   0.662   2.867
 1531TIP3   OH2 4598   3.237   5.087   4.529
 1531TIP3    H1 4599   3.264   4.996   4.515
 1531TIP3    H2 4600   3.142   5.083   4.537
 1532TIP3   OH2 4601   2.012   3.527   0.892
 1532TIP3    H1 4602   2.044   3.592   0.955
 1532TIP3    H2 4603   2.092   3.494   0.850
 1533TIP3   OH2 4604   1.273   5.832   3.071
 1533TIP3    H1 4605   1.306   5.891   3.138
 1533TIP3    H2 4606   1.329   5.755   3.076
 1534TIP3   OH2 4607   3.747   3.549   3.234
 1534TIP3    H1 4608   3.692   3.616   3.275
 1534TIP3    H2 4609   3.812   3.599   3.184
 1535TIP3   OH2 4610   1.015   4.919   1.446
 1535TIP3    H1 4611   0.970   5.004   1.444
 1535TIP3    H2 4612   1.091   4.934   1.502
 1536TIP3   OH2 4613   5.447   0.555   4.186
 1536TIP3    H1 4614   5.473   0.620   4.121
 1536TIP3    H2 4615   5.461   0.471   4.144
 1537TIP3   OH2 4616   4.516   5.959   4.346
 1537TIP3    H1 4617   4.427   5.925   4.358
 1537TIP3    H2 4618   4.572   5.894   4.389
 1538TIP3   OH2 4619   5.943   2.498   0.193
 1538TIP3    H1 4620   6.014   2.463   0.246
 1538TIP3    H2 4621   5.987   2.537   0.117
 1539TIP3   OH2 4622   0.299   4.346   0.851
 1539TIP3    H1 4623   0.286   4.434   0.887
 1539TIP3    H2 4624   0.293   4.288   0.927
 1540TIP3   OH2 4625   0.934   2.675   4.689
 1540TIP3    H1 4626   0.864   2.610   4.692
 1540TIP3    H2 4627   0.890   2.758   4.704
 1541TIP3   OH2 4628   2.522   4.687   5.128
 1541TIP3    H1 4629   2.498   4.634   5.053
 1541TIP3    H2 4630   2.448   4.747   5.140
 1542TIP3   OH2 4631   2.010   1.655   0.487
 1542TIP3    H1 4632   2.089   1.701   0.459
 1542TIP3    H2 4633   1.976   1.615   0.407
 1543TIP3   OH2 4634   0.784   3.380   1.316
 1543TIP3    H1 4635   0.767   3.291   1.349
 1543TIP3    H2 4636   0.879   3.388   1.316
 1544TIP3   OH2 4637   4.663   2.587   4.418
 1544TIP3    H1 4638   4.572   2.572   4.393
 1544TIP3    H2 4639   4.658   2.626   4.505
 1545TIP3   OH2 4640   2.472   0.135   2.632
 1545TIP3    H1 4641   2.532   0.091   2.693
 1545TIP3    H2 4642   2.415   0.065   2.599
 1546TIP3   OH2 4643   4.222   0.792   5.085
 1546TIP3    H1 4644   4.202   0.766   4.995
 1546TIP3    H2 4645   4.277   0.870   5.077
 1547TIP3   OH2 4646   0.711   2.305   1.523
 1547TIP3    H1 4647   0.690   2.212   1.520
 1547TIP3    H2 4648   0.737   2.321   1.614
 1548TIP3   OH2 4649   1.923   4.699   3.532
 1548TIP3    H1 4650   1.901   4.618   3.486
 1548TIP3    H2 4651   1.958   4.669   3.616
 1549TIP3   OH2 4652   0.477   1.986   1.173
 1549TIP3    H1 4653   0.392   2.023   1.153
 1549TIP3    H2 4654   0.540   2.047   1.135
 1550TIP3   OH2 4655   5.069   1.908   1.241
 1550TIP3    H1 4656   5.086   1.835   1.300
 1550TIP3    H2 4657   5.141   1.969   1.256
 1551TIP3   OH2 4658   2.754   1.185   0.036
 1551TIP3    H1 4659   2.820   1.128  -0.004
 1551TIP3    H2 4660   2.765   1.269  -0.009
 1552TIP3   OH2 4661   5.383   3.456   4.323
 1552TIP3    H1 4662   5.356   3.540   4.286
 1552TIP3    H2 4663   5.333   3.449   4.404
 1553TIP3   OH2 4664   2.065   1.614   2.721
 1553TIP3    H1 4665   2.131   1.569   2.668
 1553TIP3    H2 4666   2.022   1.674   2.660
 1554TIP3   OH2 4667   0.510   4.080   0.914
 1554TIP3    H1 4668   0.488   4.115   0.827
 1554TIP3    H2 4669   0.529   4.158   0.966
 1555TIP3   OH2 4670   4.930   5.026   1.071
 1555TIP3    H1 4671   4.983   5.019   1.150
 1555TIP3    H2 4672   4.929   5.120   1.051
 1556TIP3   OH2 4673   6.349   0.448   0.501
 1556TIP3    H1 4674   6.424   0.507   0.512
 1556TIP3    H2 4675   6.289   0.497   0.445
 1557TIP3   OH2 4676   5.179   2.076   2.717
 1557TIP3    H1 4677   5.248   2.111   2.661
 1557TIP3    H2 4678   5.106   2.059   2.658
 1558TIP3   OH2 4679   2.892   2.533   2.455
 1558TIP3    H1 4680   2.918   2.446   2.486
 1558TIP3    H2 4681   2.968   2.589   2.472
 1559TIP3   OH2 4682   0.783   3.684   1.277
 1559TIP3    H1 4683   0.792   3.592   1.302
 1559TIP3    H2 4684   0.840   3.693   1.200
 1560TIP3   OH2 4685   4.130   2.207   2.617
 1560TIP3    H1 4686   4.189   2.282   2.625
 1560TIP3    H2 4687   4.110   2.201   2.523
 1561TIP3   OH2 4688   0.291   4.752   1.404
 1561TIP3    H1 4689   0.377   4.712   1.387
 1561TIP3    H2 4690   0.306   4.846   1.388
 1562TIP3   OH2 4691   3.034   3.495   1.143
 1562TIP3    H1 4692   3.050   3.426   1.208
 1562TIP3    H2 4693   3.082   3.466   1.066
 1563TIP3   OH2 4694   4.354   1.446   3.254
 1563TIP3    H1 4695   4.440   1.473   3.288
 1563TIP3    H2 4696   4.340   1.503   3.179
 1564TIP3   OH2 4697   3.210   4.826   4.909
 1564TIP3    H1 4698   3.238   4.754   4.964
 1564TIP3    H2 4699   3.286   4.844   4.852
 1565TIP3   OH2 4700   4.680   4.936   5.083
 1565TIP3    H1 4701   4.764   4.939   5.038
 1565TIP3    H2 4702   4.676   4.848   5.122
 1566TIP3   OH2 4703   5.020   5.055   0.791
 1566TIP3    H1 4704   5.056   5.140   0.764
 1566TIP3    H2 4705   5.090   5.016   0.844
 1567TIP3   OH2 4706   4.294   4.770   2.498
 1567TIP3    H1 4707   4.335   4.685   2.482
 1567TIP3    H2 4708   4.302   4.817   2.415
 1568TIP3   OH2 4709   2.207   1.207   1.623
 1568TIP3    H1 4710   2.176   1.294   1.649
 1568TIP3    H2 4711   2.241   1.219   1.534
 1569TIP3   OH2 4712   2.555   2.465   0.559
 1569TIP3    H1 4713   2.486   2.424   0.611
 1569TIP3    H2 4714   2.511   2.497   0.480
 1570TIP3   OH2 4715   5.406   4.734   0.435
 1570TIP3    H1 4716   5.439   4.664   0.490
 1570TIP3    H2 4717   5.370   4.690   0.358
 1571TIP3   OH2 4718   5.879   1.270   4.293
 1571TIP3    H1 4719   5.890   1.286   4.199
 1571TIP3    H2 4720   5.839   1.183   4.298
 1572TIP3   OH2 4721   3.092   5.543   3.971
 1572TIP3    H1 4722   3.121   5.574   3.885
 1572TIP3    H2 4723   3.002   5.575   3.978
 1573TIP3   OH2 4724   4.727   5.955   3.341
 1573TIP3    H1 4725   4.704   6.045   3.365
 1573TIP3    H2 4726   4.692   5.944   3.253
 1574TIP3   OH2 4727   0.696   1.589   3.539
 1574TIP3    H1 4728   0.698   1.527   3.613
 1574TIP3    H2 4729   0.719   1.536   3.463
 1575TIP3   OH2 4730   4.140   2.326   1.491
 1575TIP3    H1 4731   4.077   2.392   1.461
 1575TIP3    H2 4732   4.152   2.268   1.415
 1576TIP3   OH2 4733   5.480   2.085   4.288
 1576TIP3    H1 4734   5.487   2.170   4.331
 1576TIP3    H2 4735   5.404   2.043   4.330
 1577TIP3   OH2 4736   3.028   4.284   2.519
 1577TIP3    H1 4737   3.022   4.211   2.457
 1577TIP3    H2 4738   2.937   4.301   2.544
 1578TIP3   OH2 4739   4.752   2.476   2.612
 1578TIP3    H1 4740   4.762   2.558   2.660
 1578TIP3    H2 4741   4.691   2.424   2.665
 1579TIP3   OH2 4742   1.214   2.658   2.461
 1579TIP3    H1 4743   1.134   2.626   2.418
 1579TIP3    H2 4744   1.254   2.717   2.397
 1580TIP3   OH2 4745   3.154   1.437   0.707
 1580TIP3    H1 4746   3.107   1.404   0.630
 1580TIP3    H2 4747   3.158   1.531   0.693
 1581TIP3   OH2 4748   0.645   2.260   2.585
 1581TIP3    H1 4749   0.714   2.324   2.600
 1581TIP3    H2 4750   0.609   2.243   2.672
 1582TIP3   OH2 4751   2.456   5.308   3.339
 1582TIP3    H1 4752   2.430   5.288   3.249
 1582TIP3    H2 4753   2.374   5.329   3.384
 1583TIP3   OH2 4754   2.100   0.897   4.294
 1583TIP3    H1 4755   2.193   0.876   4.305
 1583TIP3    H2 4756   2.075   0.855   4.211
 1584TIP3   OH2 4757   0.227   1.361   4.058
 1584TIP3    H1 4758   0.219   1.404   4.143
 1584TIP3    H2 4759   0.153   1.394   4.007
 1585TIP3   OH2 4760   3.608   1.367   3.955
 1585TIP3    H1 4761   3.573   1.326   4.035
 1585TIP3    H2 4762   3.597   1.300   3.887
 1586TIP3   OH2 4763   5.554   1.006   3.558
 1586TIP3    H1 4764   5.471   0.964   3.537
 1586TIP3    H2 4765   5.596   1.020   3.473
 1587TIP3   OH2 4766   3.013   1.349   5.142
 1587TIP3    H1 4767   2.923   1.317   5.131
 1587TIP3    H2 4768   3.004   1.444   5.145
 1588TIP3   OH2 4769   2.065   2.510   0.732
 1588TIP3    H1 4770   1.979   2.518   0.691
 1588TIP3    H2 4771   2.076   2.593   0.780
 1589TIP3   OH2 4772   4.492   1.992   3.760
 1589TIP3    H1 4773   4.460   1.967   3.673
 1589TIP3    H2 4774   4.497   1.910   3.808
 1590TIP3   OH2 4775   5.489   2.426   0.512
 1590TIP3    H1 4776   5.490   2.468   0.426
 1590TIP3    H2 4777   5.545   2.348   0.501
 1591TIP3   OH2 4778   3.752   1.894   1.202
 1591TIP3    H1 4779   3.793   1.905   1.116
 1591TIP3    H2 4780   3.658   1.895   1.184
 1592TIP3   OH2 4781   2.939   4.134   2.013
 1592TIP3    H1 4782   2.844   4.140   2.025
 1592TIP3    H2 4783   2.950   4.066   1.946
 1593TIP3   OH2 4784   5.792   1.957   0.257
 1593TIP3    H1 4785   5.807   1.894   0.328
 1593TIP3    H2 4786   5.870   2.012   0.257
 1594TIP3   OH2 4787   2.166   3.924   2.060
 1594TIP3    H1 4788   2.146   3.932   2.154
 1594TIP3    H2 4789   2.133   3.837   2.036
 1595TIP3   OH2 4790   1.915   2.846   2.819
 1595TIP3    H1 4791   1.861   2.772   2.792
 1595TIP3    H2 4792   1.907   2.849   2.914
 1596TIP3   OH2 4793   0.075   0.815   1.920
 1596TIP3    H1 4794   0.149   0.869   1.891
 1596TIP3    H2 4795  -0.003   0.863   1.891
 1597TIP3   OH2 4796   3.800   4.561   4.998
 1597TIP3    H1 4797   3.855   4.488   4.969
 1597TIP3    H2 4798   3.804   4.624   4.927
 1598TIP3   OH2 4799   0.789   3.652   0.449
 1598TIP3    H1 4800   0.745   3.589   0.393
 1598TIP3    H2 4801   0.793   3.610   0.535
 1599TIP3   OH2 4802   1.472   4.223   4.501
 1599TIP3    H1 4803   1.520   4.298   4.536
 1599TIP3    H2 4804   1.389   4.260   4.469
 1600TIP3   OH2 4805   4.625   5.202   3.381
 1600TIP3    H1 4806   4.565   5.189   3.455
 1600TIP3    H2 4807   4.588   5.276   3.333
 1601TIP3   OH2 4808   3.552   1.306   3.663
 1601TIP3    H1 4809   3.470   1.258   3.654
 1601TIP3    H2 4810   3.598   1.292   3.581
 1602TIP3   OH2 4811   4.846   4.033   4.804
 1602TIP3    H1 4812   4.810   3.946   4.787
 1602TIP3    H2 4813   4.802   4.062   4.884
 1603TIP3   OH2 4814   1.360   3.540   3.512
 1603TIP3    H1 4815   1.269   3.547   3.481
 1603TIP3    H2 4816   1.360   3.464   3.570
 1604TIP3   OH2 4817   3.960   0.235   0.885
 1604TIP3    H1 4818   3.998   0.176   0.820
 1604TIP3    H2 4819   3.867   0.215   0.884
 1605TIP3   OH2 4820   3.157   5.726   0.179
 1605TIP3    H1 4821   3.093   5.682   0.124
 1605TIP3    H2 4822   3.234   5.669   0.178
 1606TIP3   OH2 4823   3.562   5.484   3.031
 1606TIP3    H1 4824   3.635   5.529   3.076
 1606TIP3    H2 4825   3.516   5.554   2.985
 1607TIP3   OH2 4826   2.908   1.728   4.201
 1607TIP3    H1 4827   2.846   1.789   4.241
 1607TIP3    H2 4828   2.975   1.713   4.268
 1608TIP3   OH2 4829   4.736   3.064   3.037
 1608TIP3    H1 4830   4.823   3.098   3.058
 1608TIP3    H2 4831   4.690   3.138   2.998
 1609TIP3   OH2 4832   4.458   0.486   4.966
 1609TIP3    H1 4833   4.403   0.456   4.895
 1609TIP3    H2 4834   4.415   0.455   5.045
 1610TIP3   OH2 4835   5.930   4.467   1.196
 1610TIP3    H1 4836   5.950   4.534   1.130
 1610TIP3    H2 4837   6.014   4.423   1.211
 1611TIP3   OH2 4838   0.716   5.601   0.415
 1611TIP3    H1 4839   0.683   5.520   0.455
 1611TIP3    H2 4840   0.647   5.628   0.355
 1612TIP3   OH2 4841   2.627   5.124   3.034
 1612TIP3    H1 4842   2.631   5.094   3.125
 1612TIP3    H2 4843   2.541   5.097   3.003
 1613TIP3   OH2 4844   3.109   3.715   3.916
 1613TIP3    H1 4845   3.090   3.786   3.855
 1613TIP3    H2 4846   3.197   3.734   3.948
 1614TIP3   OH2 4847   2.325   0.275   2.258
 1614TIP3    H1 4848   2.273   0.292   2.179
 1614TIP3    H2 4849   2.414   0.303   2.234
 1615TIP3   OH2 4850   3.414   3.477   4.134
 1615TIP3    H1 4851   3.452   3.469   4.221
 1615TIP3    H2 4852   3.394   3.387   4.108
 1616TIP3   OH2 4853   4.059   0.731   0.857
 1616TIP3    H1 4854   4.096   0.738   0.945
 1616TIP3    H2 4855   4.058   0.821   0.824
 1617TIP3   OH2 4856   0.740   2.273   4.441
 1617TIP3    H1 4857   0.835   2.282   4.436
 1617TIP3    H2 4858   0.726   2.183   4.473
 1618TIP3   OH2 4859   3.407   2.467   4.434
 1618TIP3    H1 4860   3.395   2.413   4.512
 1618TIP3    H2 4861   3.349   2.428   4.368
 1619TIP3   OH2 4862   4.419   4.471   2.821
 1619TIP3    H1 4863   4.497   4.477   2.876
 1619TIP3    H2 4864   4.393   4.379   2.827
 1620TIP3   OH2 4865   1.818   4.787   4.164
 1620TIP3    H1 4866   1.855   4.719   4.218
 1620TIP3    H2 4867   1.823   4.866   4.218
 1621TIP3   OH2 4868   0.110   5.719   1.185
 1621TIP3    H1 4869   0.146   5.650   1.130
 1621TIP3    H2 4870   0.161   5.797   1.165
 1622TIP3   OH2 4871   5.198   1.860   4.373
 1622TIP3    H1 4872   5.109   1.896   4.377
 1622TIP3    H2 4873   5.186   1.766   4.379
 1623TIP3   OH2 4874   3.420   2.608   3.658
 1623TIP3    H1 4875   3.424   2.533   3.717
 1623TIP3    H2 4876   3.393   2.681   3.714
 1624TIP3   OH2 4877   2.064   2.060   0.984
 1624TIP3    H1 4878   2.009   2.136   0.964
 1624TIP3    H2 4879   2.005   1.996   1.024
 1625TIP3   OH2 4880   6.175   1.360   2.215
 1625TIP3    H1 4881   6.147   1.269   2.230
 1625TIP3    H2 4882   6.130   1.386   2.134
 1626TIP3   OH2 4883   5.063   5.676   1.121
 1626TIP3    H1 4884   5.151   5.696   1.153
 1626TIP3    H2 4885   5.074   5.661   1.027
 1627TIP3   OH2 4886   6.004   3.944   3.662
 1627TIP3    H1 4887   6.082   3.983   3.702
 1627TIP3    H2 4888   5.980   4.005   3.592
 1628TIP3   OH2 4889   5.160   2.667   2.695
 1628TIP3    H1 4890   5.126   2.605   2.630
 1628TIP3    H2 4891   5.246   2.691   2.661
 1629TIP3   OH2 4892   1.196   0.715   1.757
 1629TIP3    H1 4893   1.146   0.701   1.838
 1629TIP3    H2 4894   1.195   0.809   1.744
 1630TIP3   OH2 4895   3.957   1.248   0.163
 1630TIP3    H1 4896   3.979   1.222   0.074
 1630TIP3    H2 4897   3.886   1.312   0.153
 1631TIP3   OH2 4898   6.157   0.807   2.573
 1631TIP3    H1 4899   6.134   0.895   2.604
 1631TIP3    H2 4900   6.219   0.774   2.638
 1632TIP3   OH2 4901   5.991   2.826   0.213
 1632TIP3    H1 4902   5.943   2.902   0.182
 1632TIP3    H2 4903   5.961   2.813   0.303
 1633TIP3   OH2 4904   5.647   3.008   4.893
 1633TIP3    H1 4905   5.607   3.086   4.930
 1633TIP3    H2 4906   5.740   3.028   4.887
 1634TIP3   OH2 4907   3.261   6.003   2.951
 1634TIP3    H1 4908   3.320   5.941   2.994
 1634TIP3    H2 4909   3.195   6.023   3.018
 1635TIP3   OH2 4910   0.469   5.440   1.398
 1635TIP3    H1 4911   0.391   5.493   1.386
 1635TIP3    H2 4912   0.523   5.489   1.459
 1636TIP3   OH2 4913   2.180   4.447   2.593
 1636TIP3    H1 4914   2.144   4.512   2.653
 1636TIP3    H2 4915   2.128   4.457   2.513
 1637TIP3   OH2 4916   2.024   0.525   4.603
 1637TIP3    H1 4917   2.080   0.448   4.616
 1637TIP3    H2 4918   2.086   0.599   4.601
 1638TIP3   OH2 4919   2.498  -0.005   0.212
 1638TIP3    H1 4920   2.453   0.022   0.131
 1638TIP3    H2 4921   2.427  -0.021   0.274
 1639TIP3   OH2 4922   2.892   5.217   3.415
 1639TIP3    H1 4923   2.939   5.148   3.368
 1639TIP3    H2 4924   2.844   5.264   3.347
 1640TIP3   OH2 4925   1.119   1.145   2.364
 1640TIP3    H1 4926   1.189   1.190   2.411
 1640TIP3    H2 4927   1.094   1.072   2.421
 1641TIP3   OH2 4928   2.768   3.280   1.660
 1641TIP3    H1 4929   2.847   3.325   1.630
 1641TIP3    H2 4930   2.697   3.339   1.638
 1642TIP3   OH2 4931   0.503   1.226   0.497
 1642TIP3    H1 4932   0.437   1.198   0.433
 1642TIP3    H2 4933   0.551   1.146   0.517
 1643TIP3   OH2 4934   3.989   0.344   0.599
 1643TIP3    H1 4935   3.953   0.264   0.562
 1643TIP3    H2 4936   3.969   0.338   0.692
 1644TIP3   OH2 4937   4.444   4.314   0.465
 1644TIP3    H1 4938   4.351   4.316   0.442
 1644TIP3    H2 4939   4.458   4.397   0.511
 1645TIP3   OH2 4940   0.293   4.964   3.065
 1645TIP3    H1 4941   0.337   4.911   2.999
 1645TIP3    H2 4942   0.205   4.976   3.030
 1646TIP3   OH2 4943   1.817   4.355   4.862
 1646TIP3    H1 4944   1.752   4.424   4.854
 1646TIP3    H2 4945   1.787   4.301   4.936
 1647TIP3   OH2 4946   2.997   3.279   2.683
 1647TIP3    H1 4947   2.935   3.301   2.613
 1647TIP3    H2 4948   3.032   3.193   2.658
 1648TIP3   OH2 4949   5.863   4.829   3.833
 1648TIP3    H1 4950   5.915   4.765   3.785
 1648TIP3    H2 4951   5.813   4.777   3.896
 1649TIP3   OH2 4952   2.280   0.890   0.610
 1649TIP3    H1 4953   2.327   0.890   0.693
 1649TIP3    H2 4954   2.349   0.882   0.543
 1650TIP3   OH2 4955   5.067   5.734   4.978
 1650TIP3    H1 4956   5.114   5.701   4.901
 1650TIP3    H2 4957   5.110   5.692   5.052
 1651TIP3   OH2 4958   1.435   1.540   1.691
 1651TIP3    H1 4959   1.437   1.575   1.780
 1651TIP3    H2 4960   1.443   1.445   1.702
 1652TIP3   OH2 4961   5.764   1.782   1.694
 1652TIP3    H1 4962   5.700   1.728   1.740
 1652TIP3    H2 4963   5.846   1.768   1.741
 1653TIP3   OH2 4964   0.114   1.333   1.396
 1653TIP3    H1 4965   0.163   1.415   1.400
 1653TIP3    H2 4966   0.160   1.280   1.330
 1654TIP3   OH2 4967   4.723   4.171   2.918
 1654TIP3    H1 4968   4.671   4.162   2.838
 1654TIP3    H2 4969   4.689   4.250   2.960
 1655TIP3   OH2 4970   4.188   2.313   4.193
 1655TIP3    H1 4971   4.104   2.273   4.170
 1655TIP3    H2 4972   4.194   2.392   4.139
 1656TIP3   OH2 4973   5.855   3.973   4.110
 1656TIP3    H1 4974   5.913   3.899   4.130
 1656TIP3    H2 4975   5.826   3.957   4.020
 1657TIP3   OH2 4976   4.661   1.042   1.145
 1657TIP3    H1 4977   4.660   1.078   1.056
 1657TIP3    H2 4978   4.577   1.068   1.183
 1658TIP3   OH2 4979   4.610   3.432   3.139
 1658TIP3    H1 4980   4.563   3.492   3.082
 1658TIP3    H2 4981   4.541   3.381   3.182
 1659TIP3   OH2 4982   5.034   5.789   1.962
 1659TIP3    H1 4983   5.040   5.732   2.039
 1659TIP3    H2 4984   4.953   5.838   1.976
 1660TIP3   OH2 4985   6.188   3.739   5.115
 1660TIP3    H1 4986   6.114   3.731   5.056
 1660TIP3    H2 4987   6.159   3.698   5.196
 1661TIP3   OH2 4988   0.419   0.128   1.684
 1661TIP3    H1 4989   0.490   0.179   1.722
 1661TIP3    H2 4990   0.342   0.152   1.736
 1662TIP3   OH2 4991   0.667   1.732   4.649
 1662TIP3    H1 4992   0.648   1.642   4.621
 1662TIP3    H2 4993   0.582   1.767   4.675
 1663TIP3   OH2 4994   1.597   5.522   1.035
 1663TIP3    H1 4995   1.550   5.602   1.009
 1663TIP3    H2 4996   1.622   5.482   0.952
 1664TIP3   OH2 4997   1.646   4.476   3.273
 1664TIP3    H1 4998   1.641   4.486   3.369
 1664TIP3    H2 4999   1.724   4.422   3.259
 1665TIP3   OH2 5000   2.275   4.468   1.065
 1665TIP3    H1 5001   2.261   4.378   1.037
 1665TIP3    H2 5002   2.370   4.482   1.057
 1666TIP3   OH2 5003   6.056   3.379   3.064
 1666TIP3    H1 5004   6.016   3.301   3.104
 1666TIP3    H2 5005   6.005   3.394   2.985
 1667TIP3   OH2 5006   5.226   3.836   4.389
 1667TIP3    H1 5007   5.306   3.855   4.438
 1667TIP3    H2 5008   5.253   3.774   4.322
 1668TIP3   OH2 5009   2.839   1.717   2.546
 1668TIP3    H1 5010   2.810   1.634   2.583
 1668TIP3    H2 5011   2.841   1.702   2.451
 1669TIP3   OH2 5012   2.570   5.538   5.021
 1669TIP3    H1 5013   2.633   5.492   4.967
 1669TIP3    H2 5014   2.507   5.470   5.047
 1670TIP3   OH2 5015   2.687   0.372   4.552
 1670TIP3    H1 5016   2.644   0.286   4.547
 1670TIP3    H2 5017   2.659   0.417   4.472
 1671TIP3   OH2 5018   4.154   4.944   0.294
 1671TIP3    H1 5019   4.068   4.933   0.335
 1671TIP3    H2 5020   4.139   5.004   0.221
 1672TIP3   OH2 5021   1.209   3.459   4.609
 1672TIP3    H1 5022   1.295   3.467   4.568
 1672TIP3    H2 5023   1.190   3.365   4.608
 1673TIP3   OH2 5024   1.483   3.358   5.133
 1673TIP3    H1 5025   1.548   3.357   5.062
 1673TIP3    H2 5026   1.435   3.276   5.123
 1674TIP3   OH2 5027   3.777   1.209   3.453
 1674TIP3    H1 5028   3.796   1.205   3.547
 1674TIP3    H2 5029   3.796   1.121   3.420
 1675TIP3   OH2 5030   3.462   3.117   0.252
 1675TIP3    H1 5031   3.525   3.048   0.272
 1675TIP3    H2 5032   3.513   3.197   0.253
 1676TIP3   OH2 5033   4.694   5.851   5.208
 1676TIP3    H1 5034   4.778   5.808   5.224
 1676TIP3    H2 5035   4.649   5.794   5.145
 1677TIP3   OH2 5036   0.275   0.096   2.166
 1677TIP3    H1 5037   0.367   0.113   2.185
 1677TIP3    H2 5038   0.227   0.155   2.225
 1678TIP3   OH2 5039   2.536   3.848   2.470
 1678TIP3    H1 5040   2.514   3.924   2.523
 1678TIP3    H2 5041   2.607   3.805   2.518
 1679TIP3   OH2 5042   5.870   2.640   1.763
 1679TIP3    H1 5043   5.965   2.653   1.756
 1679TIP3    H2 5044   5.847   2.676   1.848
 1680TIP3   OH2 5045   2.874   2.900   0.651
 1680TIP3    H1 5046   2.905   2.818   0.691
 1680TIP3    H2 5047   2.778   2.893   0.654
 1681TIP3   OH2 5048   3.744   3.466   2.364
 1681TIP3    H1 5049   3.838   3.448   2.376
 1681TIP3    H2 5050   3.738   3.506   2.277
 1682TIP3   OH2 5051   4.883   3.189   0.993
 1682TIP3    H1 5052   4.914   3.252   1.058
 1682TIP3    H2 5053   4.923   3.217   0.911
 1683TIP3   OH2 5054   2.885   2.086   1.101
 1683TIP3    H1 5055   2.791   2.072   1.101
 1683TIP3    H2 5056   2.918   2.031   1.172
 1684TIP3   OH2 5057   1.902   1.179   4.833
 1684TIP3    H1 5058   1.987   1.222   4.841
 1684TIP3    H2 5059   1.882   1.148   4.921
 1685TIP3   OH2 5060   5.349   5.727   1.524
 1685TIP3    H1 5061   5.298   5.708   1.603
 1685TIP3    H2 5062   5.391   5.811   1.542
 1686TIP3   OH2 5063   6.097   0.265   1.663
 1686TIP3    H1 5064   6.068   0.334   1.604
 1686TIP3    H2 5065   6.172   0.302   1.710
 1687TIP3   OH2 5066   3.311   1.493   0.372
 1687TIP3    H1 5067   3.338   1.481   0.463
 1687TIP3    H2 5068   3.248   1.565   0.375
 1688TIP3   OH2 5069   1.137   4.692   2.270
 1688TIP3    H1 5070   1.087   4.648   2.201
 1688TIP3    H2 5071   1.080   4.763   2.300
 1689TIP3   OH2 5072   0.199   0.441   2.761
 1689TIP3    H1 5073   0.235   0.455   2.674
 1689TIP3    H2 5074   0.243   0.362   2.793
 1690TIP3   OH2 5075   1.290   5.183   4.892
 1690TIP3    H1 5076   1.208   5.154   4.852
 1690TIP3    H2 5077   1.267   5.204   4.982
 1691TIP3   OH2 5078   4.199   5.686   0.099
 1691TIP3    H1 5079   4.274   5.707   0.043
 1691TIP3    H2 5080   4.123   5.699   0.042
 1692TIP3   OH2 5081   4.506   0.459   0.815
 1692TIP3    H1 5082   4.444   0.461   0.742
 1692TIP3    H2 5083   4.569   0.391   0.792
 1693TIP3   OH2 5084   2.423   4.239   1.734
 1693TIP3    H1 5085   2.361   4.260   1.664
 1693TIP3    H2 5086   2.491   4.306   1.728
 1694TIP3   OH2 5087   4.807   3.754   2.993
 1694TIP3    H1 5088   4.856   3.788   3.067
 1694TIP3    H2 5089   4.778   3.832   2.945
 1695TIP3   OH2 5090   4.846   1.202   2.768
 1695TIP3    H1 5091   4.864   1.125   2.822
 1695TIP3    H2 5092   4.806   1.264   2.829
 1696TIP3   OH2 5093   3.877   2.965   2.619
 1696TIP3    H1 5094   3.871   3.060   2.628
 1696TIP3    H2 5095   3.932   2.953   2.542
 1697TIP3   OH2 5096   0.863   5.689   2.349
 1697TIP3    H1 5097   0.889   5.696   2.441
 1697TIP3    H2 5098   0.772   5.718   2.349
 1698TIP3   OH2 5099   3.826   0.642   4.404
 1698TIP3    H1 5100   3.770   0.703   4.452
 1698TIP3    H2 5101   3.903   0.693   4.379
 1699TIP3   OH2 5102   2.680   0.312   2.773
 1699TIP3    H1 5103   2.678   0.324   2.678
 1699TIP3    H2 5104   2.730   0.387   2.805
 1700TIP3   OH2 5105   5.381   1.773   0.131
 1700TIP3    H1 5106   5.429   1.837   0.184
 1700TIP3    H2 5107   5.428   1.691   0.144
 1701TIP3   OH2 5108   1.686   4.002   2.493
 1701TIP3    H1 5109   1.722   4.078   2.539
 1701TIP3    H2 5110   1.684   3.933   2.560
 1702TIP3   OH2 5111   4.290   5.529   2.647
 1702TIP3    H1 5112   4.245   5.567   2.722
 1702TIP3    H2 5113   4.274   5.435   2.653
 1703TIP3   OH2 5114   4.418   2.053   4.531
 1703TIP3    H1 5115   4.472   2.088   4.460
 1703TIP3    H2 5116   4.329   2.056   4.497
 1704TIP3   OH2 5117   1.247   5.759   4.522
 1704TIP3    H1 5118   1.315   5.703   4.560
 1704TIP3    H2 5119   1.246   5.737   4.429
 1705TIP3   OH2 5120   0.958   4.253   0.007
 1705TIP3    H1 5121   0.891   4.187  -0.013
 1705TIP3    H2 5122   0.940   4.279   0.097
 1706TIP3   OH2 5123   4.573   4.694   2.995
 1706TIP3    H1 5124   4.585   4.743   3.075
 1706TIP3    H2 5125   4.593   4.755   2.925
 1707TIP3   OH2 5126   0.519   4.584   1.396
 1707TIP3    H1 5127   0.560   4.518   1.341
 1707TIP3    H2 5128   0.592   4.632   1.436
 1708TIP3   OH2 5129   0.070   1.851   1.873
 1708TIP3    H1 5130   0.165   1.840   1.882
 1708TIP3    H2 5131   0.052   1.935   1.916
 1709TIP3   OH2 5132   1.054   4.330   0.733
 1709TIP3    H1 5133   1.021   4.246   0.702
 1709TIP3    H2 5134   1.128   4.350   0.676
 1710TIP3   OH2 5135   0.732   1.611   2.396
 1710TIP3    H1 5136   0.792   1.574   2.461
 1710TIP3    H2 5137   0.759   1.570   2.314
 1711TIP3   OH2 5138   4.009   4.157   1.798
 1711TIP3    H1 5139   4.050   4.236   1.834
 1711TIP3    H2 5140   3.945   4.131   1.864
 1712TIP3   OH2 5141   5.242   0.377   0.007
 1712TIP3    H1 5142   5.210   0.364   0.096
 1712TIP3    H2 5143   5.166   0.360  -0.049
 1713TIP3   OH2 5144   3.219   4.968   4.176
 1713TIP3    H1 5145   3.149   4.903   4.177
 1713TIP3    H2 5146   3.298   4.919   4.200
 1714TIP3   OH2 5147   6.249   0.817   2.321
 1714TIP3    H1 5148   6.159   0.817   2.287
 1714TIP3    H2 5149   6.238   0.808   2.416
 1715TIP3   OH2 5150   1.178   4.056   3.625
 1715TIP3    H1 5151   1.173   4.129   3.687
 1715TIP3    H2 5152   1.246   4.082   3.563
 1716TIP3   OH2 5153   3.245   3.534   4.872
 1716TIP3    H1 5154   3.173   3.510   4.813
 1716TIP3    H2 5155   3.202   3.559   4.954
 1717TIP3   OH2 5156   2.092   0.071   1.358
 1717TIP3    H1 5157   2.114   0.017   1.434
 1717TIP3    H2 5158   2.135   0.155   1.374
 1718TIP3   OH2 5159   2.973   0.188   1.339
 1718TIP3    H1 5160   3.026   0.268   1.335
 1718TIP3    H2 5161   2.936   0.180   1.252
 1719TIP3   OH2 5162   4.876   2.284   2.214
 1719TIP3    H1 5163   4.925   2.242   2.144
 1719TIP3    H2 5164   4.802   2.226   2.230
 1720TIP3   OH2 5165   5.810   0.012   1.979
 1720TIP3    H1 5166   5.733   0.010   1.923
 1720TIP3    H2 5167   5.782   0.060   2.057
 1721TIP3   OH2 5168   2.138   0.663   1.129
 1721TIP3    H1 5169   2.215   0.625   1.087
 1721TIP3    H2 5170   2.173   0.709   1.206
 1722TIP3   OH2 5171   0.871   4.126   3.734
 1722TIP3    H1 5172   0.911   4.202   3.692
 1722TIP3    H2 5173   0.810   4.092   3.669
 1723TIP3   OH2 5174   5.936   5.089   3.607
 1723TIP3    H1 5175   5.861   5.031   3.614
 1723TIP3    H2 5176   6.012   5.032   3.616
 1724TIP3   OH2 5177   4.783   4.567   4.867
 1724TIP3    H1 5178   4.828   4.642   4.827
 1724TIP3    H2 5179   4.738   4.524   4.795
 1725TIP3   OH2 5180   1.726   1.730   3.582
 1725TIP3    H1 5181   1.683   1.649   3.552
 1725TIP3    H2 5182   1.670   1.800   3.549
 1726TIP3   OH2 5183   3.939   0.618   1.521
 1726TIP3    H1 5184   4.000   0.651   1.455
 1726TIP3    H2 5185   3.855   0.657   1.499
 1727TIP3   OH2 5186   2.713   1.433   0.734
 1727TIP3    H1 5187   2.788   1.481   0.769
 1727TIP3    H2 5188   2.686   1.482   0.657
 1728TIP3   OH2 5189   3.112   0.389   0.446
 1728TIP3    H1 5190   3.028   0.357   0.479
 1728TIP3    H2 5191   3.090   0.472   0.403
 1729TIP3   OH2 5192   5.364   1.064   2.865
 1729TIP3    H1 5193   5.298   1.029   2.806
 1729TIP3    H2 5194   5.420   1.118   2.809
 1730TIP3   OH2 5195   1.230   1.389   4.988
 1730TIP3    H1 5196   1.293   1.453   4.955
 1730TIP3    H2 5197   1.159   1.390   4.923
 1731TIP3   OH2 5198   0.809   0.707   4.324
 1731TIP3    H1 5199   0.734   0.655   4.353
 1731TIP3    H2 5200   0.778   0.751   4.244
 1732TIP3   OH2 5201   4.863   0.433   5.107
 1732TIP3    H1 5202   4.945   0.392   5.135
 1732TIP3    H2 5203   4.796   0.368   5.126
 1733TIP3   OH2 5204   0.302   4.413   2.265
 1733TIP3    H1 5205   0.338   4.502   2.273
 1733TIP3    H2 5206   0.209   4.426   2.248
 1734TIP3   OH2 5207   1.077   2.717   1.151
 1734TIP3    H1 5208   1.091   2.643   1.091
 1734TIP3    H2 5209   1.027   2.780   1.099
 1735TIP3   OH2 5210   0.291   4.392   4.056
 1735TIP3    H1 5211   0.241   4.322   4.099
 1735TIP3    H2 5212   0.251   4.473   4.088
 1736TIP3   OH2 5213   6.182   2.484   1.733
 1736TIP3    H1 5214   6.234   2.564   1.723
 1736TIP3    H2 5215   6.130   2.479   1.653
 1737TIP3   OH2 5216   3.431   0.372   3.268
 1737TIP3    H1 5217   3.502   0.411   3.217
 1737TIP3    H2 5218   3.476   0.316   3.332
 1738TIP3   OH2 5219   0.908   4.800   2.679
 1738TIP3    H1 5220   0.854   4.723   2.698
 1738TIP3    H2 5221   0.850   4.860   2.633
 1739TIP3   OH2 5222   0.561   2.617   4.863
 1739TIP3    H1 5223   0.498   2.560   4.819
 1739TIP3    H2 5224   0.645   2.598   4.821
 1740TIP3   OH2 5225   4.031   2.854   1.698
 1740TIP3    H1 5226   3.967   2.889   1.636
 1740TIP3    H2 5227   4.081   2.790   1.647
 1741TIP3   OH2 5228   4.323   0.070   4.507
 1741TIP3    H1 5229   4.265   0.145   4.522
 1741TIP3    H2 5230   4.281  -0.003   4.553
 1742TIP3   OH2 5231   3.357   3.753   0.504
 1742TIP3    H1 5232   3.294   3.689   0.538
 1742TIP3    H2 5233   3.442   3.721   0.534
 1743TIP3   OH2 5234   1.208   4.808   5.009
 1743TIP3    H1 5235   1.204   4.815   5.104
 1743TIP3    H2 5236   1.292   4.848   4.985
 1744TIP3   OH2 5237   3.899   5.731   2.590
 1744TIP3    H1 5238   3.895   5.753   2.683
 1744TIP3    H2 5239   3.819   5.769   2.554
 1745TIP3   OH2 5240   1.175   0.167   4.287
 1745TIP3    H1 5241   1.239   0.203   4.347
 1745TIP3    H2 5242   1.090   0.188   4.326
 1746TIP3   OH2 5243   1.025   0.642   3.935
 1746TIP3    H1 5244   1.016   0.645   4.031
 1746TIP3    H2 5245   1.052   0.730   3.911
 1747TIP3   OH2 5246   0.484   4.648   3.247
 1747TIP3    H1 5247   0.478   4.654   3.342
 1747TIP3    H2 5248   0.547   4.715   3.222
 1748TIP3   OH2 5249   1.769   0.384   4.027
 1748TIP3    H1 5250   1.712   0.414   3.957
 1748TIP3    H2 5251   1.771   0.289   4.017
 1749TIP3   OH2 5252   2.860   4.714   3.455
 1749TIP3    H1 5253   2.941   4.699   3.406
 1749TIP3    H2 5254   2.791   4.684   3.397
 1750TIP3   OH2 5255   0.652   1.882   0.490
 1750TIP3    H1 5256   0.740   1.912   0.511
 1750TIP3    H2 5257   0.607   1.961   0.460
 1751TIP3   OH2 5258   5.050   0.961   1.500
 1751TIP3    H1 5259   4.981   0.913   1.546
 1751TIP3    H2 5260   5.010   0.986   1.417
 1752TIP3   OH2 5261   5.083   5.816   3.274
 1752TIP3    H1 5262   5.015   5.851   3.216
 1752TIP3    H2 5263   5.070   5.864   3.356
 1753TIP3   OH2 5264   3.248   4.163   2.255
 1753TIP3    H1 5265   3.168   4.213   2.243
 1753TIP3    H2 5266   3.292   4.203   2.330
 1754TIP3   OH2 5267   2.147  -0.017   3.648
 1754TIP3    H1 5268   2.130   0.055   3.709
 1754TIP3    H2 5269   2.182   0.025   3.570
 1755TIP3   OH2 5270   6.380   4.348   4.774
 1755TIP3    H1 5271   6.287   4.346   4.798
 1755TIP3    H2 5272   6.381   4.387   4.686
 1756TIP3   OH2 5273   3.915   0.047   3.238
 1756TIP3    H1 5274   3.851   0.021   3.304
 1756TIP3    H2 5275   3.867   0.046   3.155
 1757TIP3   OH2 5276   4.187   1.989   2.152
 1757TIP3    H1 5277   4.250   1.948   2.092
 1757TIP3    H2 5278   4.119   2.023   2.095
 1758TIP3   OH2 5279   5.838   4.398   3.128
 1758TIP3    H1 5280   5.852   4.320   3.074
 1758TIP3    H2 5281   5.744   4.417   3.119
 1759TIP3   OH2 5282   4.374   4.566   4.636
 1759TIP3    H1 5283   4.348   4.657   4.618
 1759TIP3    H2 5284   4.376   4.524   4.550
 1760TIP3   OH2 5285   1.280   5.400   4.411
 1760TIP3    H1 5286   1.214   5.430   4.474
 1760TIP3    H2 5287   1.259   5.308   4.396
 1761TIP3   OH2 5288   4.344   0.477   1.827
 1761TIP3    H1 5289   4.265   0.424   1.822
 1761TIP3    H2 5290   4.397   0.435   1.896
 1762TIP3   OH2 5291   1.775   5.198   2.565
 1762TIP3    H1 5292   1.730   5.195   2.650
 1762TIP3    H2 5293   1.711   5.163   2.503
 1763TIP3   OH2 5294   5.676   2.281   0.350
 1763TIP3    H1 5295   5.662   2.331   0.269
 1763TIP3    H2 5296   5.624   2.202   0.338
 1764TIP3   OH2 5297   6.192   3.150   2.198
 1764TIP3    H1 5298   6.132   3.100   2.143
 1764TIP3    H2 5299   6.233   3.085   2.254
 1765TIP3   OH2 5300   5.180   3.867   1.605
 1765TIP3    H1 5301   5.209   3.833   1.521
 1765TIP3    H2 5302   5.254   3.917   1.638
 1766TIP3   OH2 5303   5.387   5.876   5.059
 1766TIP3    H1 5304   5.370   5.957   5.108
 1766TIP3    H2 5305   5.482   5.867   5.060
 1767TIP3   OH2 5306   1.507   2.582   3.203
 1767TIP3    H1 5307   1.521   2.488   3.219
 1767TIP3    H2 5308   1.576   2.606   3.141
 1768TIP3   OH2 5309   4.471   4.651   4.902
 1768TIP3    H1 5310   4.489   4.729   4.850
 1768TIP3    H2 5311   4.442   4.586   4.838
 1769TIP3   OH2 5312   1.770   3.272   2.709
 1769TIP3    H1 5313   1.834   3.336   2.739
 1769TIP3    H2 5314   1.700   3.276   2.774
 1770TIP3   OH2 5315   1.870   1.405   3.238
 1770TIP3    H1 5316   1.798   1.346   3.257
 1770TIP3    H2 5317   1.928   1.397   3.313
 1771TIP3   OH2 5318   6.318   2.447   1.020
 1771TIP3    H1 5319   6.299   2.370   0.967
 1771TIP3    H2 5320   6.338   2.516   0.957
 1772TIP3   OH2 5321   5.689   1.915   3.954
 1772TIP3    H1 5322   5.707   1.897   3.862
 1772TIP3    H2 5323   5.596   1.940   3.956
 1773TIP3   OH2 5324   2.879   4.463   3.234
 1773TIP3    H1 5325   2.924   4.548   3.234
 1773TIP3    H2 5326   2.795   4.481   3.192
 1774TIP3   OH2 5327   5.257   2.407   2.680
 1774TIP3    H1 5328   5.311   2.345   2.632
 1774TIP3    H2 5329   5.173   2.408   2.634
 1775TIP3   OH2 5330   3.321   0.251   3.924
 1775TIP3    H1 5331   3.410   0.221   3.906
 1775TIP3    H2 5332   3.311   0.242   4.019
 1776TIP3   OH2 5333   2.549   0.461   5.152
 1776TIP3    H1 5334   2.639   0.488   5.169
 1776TIP3    H2 5335   2.496   0.512   5.214
 1777TIP3   OH2 5336   4.742   2.929   4.739
 1777TIP3    H1 5337   4.830   2.930   4.702
 1777TIP3    H2 5338   4.688   2.974   4.674
 1778TIP3   OH2 5339   4.949   0.244   1.326
 1778TIP3    H1 5340   4.982   0.308   1.263
 1778TIP3    H2 5341   4.913   0.298   1.397
 1779TIP3   OH2 5342   2.882   2.387   0.497
 1779TIP3    H1 5343   2.894   2.328   0.423
 1779TIP3    H2 5344   2.788   2.381   0.517
 1780TIP3   OH2 5345   3.008   0.706   0.884
 1780TIP3    H1 5346   3.077   0.769   0.863
 1780TIP3    H2 5347   3.051   0.621   0.876
 1781TIP3   OH2 5348   2.974   2.985   1.351
 1781TIP3    H1 5349   2.940   2.937   1.426
 1781TIP3    H2 5350   3.041   2.928   1.314
 1782TIP3   OH2 5351   4.176   3.182   2.806
 1782TIP3    H1 5352   4.083   3.197   2.820
 1782TIP3    H2 5353   4.207   3.261   2.763
 1783TIP3   OH2 5354   4.630   3.563   5.122
 1783TIP3    H1 5355   4.549   3.528   5.159
 1783TIP3    H2 5356   4.682   3.486   5.101
 1784TIP3   OH2 5357   0.314   4.110   1.852
 1784TIP3    H1 5358   0.340   4.024   1.885
 1784TIP3    H2 5359   0.249   4.142   1.915
 1785TIP3   OH2 5360   4.588   0.579   1.714
 1785TIP3    H1 5361   4.507   0.554   1.760
 1785TIP3    H2 5362   4.574   0.550   1.624
 1786TIP3   OH2 5363   3.699   3.134   0.823
 1786TIP3    H1 5364   3.776   3.187   0.802
 1786TIP3    H2 5365   3.625   3.194   0.812
 1787TIP3   OH2 5366   3.634   4.728   2.072
 1787TIP3    H1 5367   3.621   4.680   1.991
 1787TIP3    H2 5368   3.687   4.803   2.047
 1788TIP3   OH2 5369   5.361   4.556   3.128
 1788TIP3    H1 5370   5.327   4.646   3.128
 1788TIP3    H2 5371   5.326   4.518   3.048
 1789TIP3   OH2 5372   5.904   0.838   2.984
 1789TIP3    H1 5373   5.810   0.855   2.980
 1789TIP3    H2 5374   5.945   0.921   2.959
 1790TIP3   OH2 5375   1.459   4.303   1.520
 1790TIP3    H1 5376   1.477   4.241   1.450
 1790TIP3    H2 5377   1.461   4.251   1.600
 1791TIP3   OH2 5378   4.073   0.188   1.177
 1791TIP3    H1 5379   4.147   0.248   1.165
 1791TIP3    H2 5380   4.024   0.193   1.094
 1792TIP3   OH2 5381   3.546   0.219   4.317
 1792TIP3    H1 5382   3.456   0.189   4.335
 1792TIP3    H2 5383   3.576   0.254   4.401
 1793TIP3   OH2 5384   4.766   0.235   3.590
 1793TIP3    H1 5385   4.691   0.290   3.568
 1793TIP3    H2 5386   4.787   0.190   3.508
 1794TIP3   OH2 5387   3.652   4.354   1.362
 1794TIP3    H1 5388   3.634   4.415   1.291
 1794TIP3    H2 5389   3.570   4.305   1.373
 1795TIP3   OH2 5390   2.613   0.127   1.075
 1795TIP3    H1 5391   2.562   0.053   1.043
 1795TIP3    H2 5392   2.582   0.201   1.022
 1796TIP3   OH2 5393   2.893   4.320   3.614
 1796TIP3    H1 5394   2.918   4.353   3.700
 1796TIP3    H2 5395   2.975   4.313   3.565
 1797TIP3   OH2 5396   0.946   1.856   1.840
 1797TIP3    H1 5397   0.858   1.819   1.846
 1797TIP3    H2 5398   0.986   1.838   1.924
 1798TIP3   OH2 5399   4.791   3.800   0.595
 1798TIP3    H1 5400   4.852   3.777   0.666
 1798TIP3    H2 5401   4.762   3.715   0.561
 1799TIP3   OH2 5402   5.175   1.812   1.471
 1799TIP3    H1 5403   5.210   1.729   1.505
 1799TIP3    H2 5404   5.241   1.877   1.496
 1800TIP3   OH2 5405   3.154   2.132   0.391
 1800TIP3    H1 5406   3.089   2.157   0.326
 1800TIP3    H2 5407   3.108   2.070   0.448
 1801TIP3   OH2 5408   2.350   3.807   3.933
 1801TIP3    H1 5409   2.354   3.879   3.996
 1801TIP3    H2 5410   2.291   3.744   3.974
 1802TIP3   OH2 5411   1.709   0.556   1.884
 1802TIP3    H1 5412   1.723   0.491   1.952
 1802TIP3    H2 5413   1.620   0.587   1.897
 1803TIP3   OH2 5414   2.674   2.845   3.538
 1803TIP3    H1 5415   2.760   2.885   3.525
 1803TIP3    H2 5416   2.612   2.915   3.517
 1804TIP3   OH2 5417   3.193   1.340   4.497
 1804TIP3    H1 5418   3.160   1.278   4.562
 1804TIP3    H2 5419   3.116   1.360   4.443
 1805TIP3   OH2 5420   5.267   3.825   3.816
 1805TIP3    H1 5421   5.188   3.788   3.855
 1805TIP3    H2 5422   5.286   3.902   3.869
 1806TIP3   OH2 5423   4.950   2.499   4.143
 1806TIP3    H1 5424   4.946   2.531   4.052
 1806TIP3    H2 5425   4.901   2.417   4.141
 1807TIP3   OH2 5426   0.806   5.371   0.957
 1807TIP3    H1 5427   0.763   5.381   0.872
 1807TIP3    H2 5428   0.818   5.276   0.967
 1808TIP3   OH2 5429   3.728   0.631   0.182
 1808TIP3    H1 5430   3.795   0.672   0.237
 1808TIP3    H2 5431   3.668   0.703   0.160
 1809TIP3   OH2 5432   2.792   2.668   3.900
 1809TIP3    H1 5433   2.859   2.693   3.963
 1809TIP3    H2 5434   2.727   2.620   3.952
 1810TIP3   OH2 5435   2.920   3.812   4.410
 1810TIP3    H1 5436   2.892   3.817   4.501
 1810TIP3    H2 5437   2.955   3.899   4.390
 1811TIP3   OH2 5438   5.749   1.128   2.557
 1811TIP3    H1 5439   5.796   1.064   2.504
 1811TIP3    H2 5440   5.724   1.197   2.496
 1812TIP3   OH2 5441   4.827   3.780   2.605
 1812TIP3    H1 5442   4.865   3.713   2.548
 1812TIP3    H2 5443   4.831   3.860   2.554
 1813TIP3   OH2 5444   1.373   3.791   2.042
 1813TIP3    H1 5445   1.308   3.832   1.985
 1813TIP3    H2 5446   1.326   3.774   2.124
 1814TIP3   OH2 5447   3.064   3.855   0.791
 1814TIP3    H1 5448   3.001   3.809   0.734
 1814TIP3    H2 5449   3.134   3.883   0.732
 1815TIP3   OH2 5450   0.146   1.067   0.616
 1815TIP3    H1 5451   0.111   1.133   0.676
 1815TIP3    H2 5452   0.192   1.117   0.549
 1816TIP3   OH2 5453   0.354   1.872   1.883
 1816TIP3    H1 5454   0.375   1.925   1.960
 1816TIP3    H2 5455   0.391   1.786   1.902
 1817TIP3   OH2 5456   2.970   2.706   5.055
 1817TIP3    H1 5457   2.895   2.677   5.003
 1817TIP3    H2 5458   2.976   2.643   5.126
 1818TIP3   OH2 5459   5.564   0.394   3.693
 1818TIP3    H1 5460   5.638   0.449   3.667
 1818TIP3    H2 5461   5.493   0.456   3.711
 1819TIP3   OH2 5462   0.919   1.859   2.365
 1819TIP3    H1 5463   1.010   1.834   2.352
 1819TIP3    H2 5464   0.876   1.779   2.397
 1820TIP3   OH2 5465   4.516   2.473   1.886
 1820TIP3    H1 5466   4.486   2.420   1.959
 1820TIP3    H2 5467   4.552   2.410   1.823
 1821TIP3   OH2 5468   0.465   4.629   4.870
 1821TIP3    H1 5469   0.423   4.668   4.794
 1821TIP3    H2 5470   0.393   4.594   4.922
 1822TIP3   OH2 5471   0.460   4.225   2.724
 1822TIP3    H1 5472   0.447   4.197   2.633
 1822TIP3    H2 5473   0.516   4.157   2.761
 1823TIP3   OH2 5474   3.660   1.914   3.980
 1823TIP3    H1 5475   3.708   1.983   3.935
 1823TIP3    H2 5476   3.589   1.891   3.920
 1824TIP3   OH2 5477   0.277   2.199   0.264
 1824TIP3    H1 5478   0.302   2.139   0.194
 1824TIP3    H2 5479   0.181   2.196   0.265
 1825TIP3   OH2 5480   5.456   1.043   0.838
 1825TIP3    H1 5481   5.546   1.050   0.809
 1825TIP3    H2 5482   5.461   1.004   0.925
 1826TIP3   OH2 5483   1.167   0.839   3.801
 1826TIP3    H1 5484   1.202   0.809   3.718
 1826TIP3    H2 5485   1.095   0.899   3.777
 1827TIP3   OH2 5486   5.521   2.700   0.603
 1827TIP3    H1 5487   5.600   2.665   0.562
 1827TIP3    H2 5488   5.481   2.756   0.536
 1828TIP3   OH2 5489   5.047   2.257   3.922
 1828TIP3    H1 5490   5.012   2.321   3.859
 1828TIP3    H2 5491   5.092   2.192   3.868
 1829TIP3   OH2 5492   4.586   0.649   3.020
 1829TIP3    H1 5493   4.535   0.712   2.969
 1829TIP3    H2 5494   4.671   0.691   3.033
 1830TIP3   OH2 5495   2.984   5.737   4.294
 1830TIP3    H1 5496   3.050   5.678   4.331
 1830TIP3    H2 5497   3.034   5.804   4.249
 1831TIP3   OH2 5498   3.491   5.563   4.463
 1831TIP3    H1 5499   3.512   5.526   4.378
 1831TIP3    H2 5500   3.438   5.496   4.506
 1832TIP3   OH2 5501   1.944   1.878   4.535
 1832TIP3    H1 5502   1.873   1.884   4.599
 1832TIP3    H2 5503   1.901   1.853   4.454
 1833TIP3   OH2 5504   2.295   0.001   2.185
 1833TIP3    H1 5505   2.246  -0.027   2.107
 1833TIP3    H2 5506   2.260   0.088   2.205
 1834TIP3   OH2 5507   0.483   5.564   4.649
 1834TIP3    H1 5508   0.508   5.518   4.569
 1834TIP3    H2 5509   0.388   5.575   4.642
 1835TIP3   OH2 5510   2.191   5.737   0.149
 1835TIP3    H1 5511   2.183   5.698   0.061
 1835TIP3    H2 5512   2.146   5.675   0.207
 1836TIP3   OH2 5513   0.091   3.728   3.766
 1836TIP3    H1 5514   0.014   3.699   3.816
 1836TIP3    H2 5515   0.155   3.657   3.777
 1837TIP3   OH2 5516   3.489   1.920   3.147
 1837TIP3    H1 5517   3.457   1.834   3.172
 1837TIP3    H2 5518   3.452   1.980   3.212
 1838TIP3   OH2 5519   4.019   3.736   1.628
 1838TIP3    H1 5520   4.067   3.724   1.710
 1838TIP3    H2 5521   4.081   3.709   1.560
 1839TIP3   OH2 5522   0.770   5.662   0.078
 1839TIP3    H1 5523   0.850   5.609   0.070
 1839TIP3    H2 5524   0.707   5.604   0.119
 1840TIP3   OH2 5525   4.531   0.777   1.125
 1840TIP3    H1 5526   4.596   0.708   1.139
 1840TIP3    H2 5527   4.583   0.853   1.101
 1841TIP3   OH2 5528   0.135   1.946   2.674
 1841TIP3    H1 5529   0.138   2.011   2.744
 1841TIP3    H2 5530   0.052   1.900   2.687
 1842TIP3   OH2 5531   2.028   5.690   0.627
 1842TIP3    H1 5532   1.977   5.765   0.595
 1842TIP3    H2 5533   2.077   5.660   0.550
 1843TIP3   OH2 5534  -0.011   4.208   2.752
 1843TIP3    H1 5535   0.038   4.290   2.741
 1843TIP3    H2 5536  -0.064   4.223   2.831
 1844TIP3   OH2 5537   1.931   2.090   1.770
 1844TIP3    H1 5538   1.909   2.103   1.862
 1844TIP3    H2 5539   1.984   2.166   1.747
 1845TIP3   OH2 5540   5.581   4.930   2.588
 1845TIP3    H1 5541   5.536   4.963   2.666
 1845TIP3    H2 5542   5.517   4.940   2.517
 1846TIP3   OH2 5543   4.696   0.216   5.161
 1846TIP3    H1 5544   4.646   0.153   5.212
 1846TIP3    H2 5545   4.638   0.240   5.089
 1847TIP3   OH2 5546   6.232   5.025   0.809
 1847TIP3    H1 5547   6.320   5.019   0.847
 1847TIP3    H2 5548   6.174   4.992   0.877
 1848TIP3   OH2 5549   5.301   5.833   3.067
 1848TIP3    H1 5550   5.223   5.836   3.122
 1848TIP3    H2 5551   5.275   5.777   2.993
 1849TIP3   OH2 5552   2.542   0.257   4.942
 1849TIP3    H1 5553   2.471   0.236   5.004
 1849TIP3    H2 5554   2.576   0.341   4.974
 1850TIP3   OH2 5555   0.893   3.745   1.784
 1850TIP3    H1 5556   0.838   3.688   1.838
 1850TIP3    H2 5557   0.958   3.780   1.844
 1851TIP3   OH2 5558   3.120   5.713   0.606
 1851TIP3    H1 5559   3.065   5.667   0.669
 1851TIP3    H2 5560   3.155   5.643   0.550
 1852TIP3   OH2 5561   2.244   4.782   4.616
 1852TIP3    H1 5562   2.321   4.838   4.606
 1852TIP3    H2 5563   2.185   4.833   4.671
 1853TIP3   OH2 5564   0.381   0.923   2.107
 1853TIP3    H1 5565   0.344   0.952   2.190
 1853TIP3    H2 5566   0.476   0.925   2.121
 1854TIP3   OH2 5567   5.524   3.933   4.973
 1854TIP3    H1 5568   5.581   4.009   4.985
 1854TIP3    H2 5569   5.517   3.894   5.060
 1855TIP3   OH2 5570   2.768   0.084   3.947
 1855TIP3    H1 5571   2.802  -0.001   3.918
 1855TIP3    H2 5572   2.828   0.148   3.908
 1856TIP3   OH2 5573   5.435   0.338   0.687
 1856TIP3    H1 5574   5.354   0.300   0.652
 1856TIP3    H2 5575   5.406   0.415   0.736
 1857TIP3   OH2 5576   1.906   5.286   0.532
 1857TIP3    H1 5577   1.890   5.267   0.440
 1857TIP3    H2 5578   1.977   5.228   0.557
 1858TIP3   OH2 5579   4.381   4.592   2.313
 1858TIP3    H1 5580   4.314   4.533   2.346
 1858TIP3    H2 5581   4.408   4.553   2.230
 1859TIP3   OH2 5582   5.004   4.921   3.347
 1859TIP3    H1 5583   5.030   4.829   3.345
 1859TIP3    H2 5584   5.076   4.967   3.304
 1860TIP3   OH2 5585   5.650   1.397   4.381
 1860TIP3    H1 5586   5.615   1.311   4.360
 1860TIP3    H2 5587   5.744   1.390   4.361
 1861TIP3   OH2 5588   2.894   2.455   2.177
 1861TIP3    H1 5589   2.897   2.489   2.266
 1861TIP3    H2 5590   2.927   2.527   2.123
 1862TIP3   OH2 5591   2.385   1.040   4.030
 1862TIP3    H1 5592   2.462   0.984   4.033
 1862TIP3    H2 5593   2.377   1.075   4.119
 1863TIP3   OH2 5594   1.594   0.674   0.392
 1863TIP3    H1 5595   1.605   0.753   0.340
 1863TIP3    H2 5596   1.624   0.700   0.480
 1864TIP3   OH2 5597   0.791   3.195   2.724
 1864TIP3    H1 5598   0.723   3.135   2.694
 1864TIP3    H2 5599   0.855   3.140   2.768
 1865TIP3   OH2 5600   4.342   1.077   4.774
 1865TIP3    H1 5601   4.274   1.132   4.737
 1865TIP3    H2 5602   4.351   1.004   4.713
 1866TIP3   OH2 5603   2.064   5.300   0.931
 1866TIP3    H1 5604   1.994   5.308   0.996
 1866TIP3    H2 5605   2.080   5.390   0.901
 1867TIP3   OH2 5606   2.168   3.004   2.788
 1867TIP3    H1 5607   2.096   2.965   2.739
 1867TIP3    H2 5608   2.247   2.968   2.747
 1868TIP3   OH2 5609   5.970   2.827   0.500
 1868TIP3    H1 5610   5.922   2.747   0.523
 1868TIP3    H2 5611   5.923   2.897   0.546
 1869TIP3   OH2 5612   1.105   1.159   0.854
 1869TIP3    H1 5613   1.100   1.240   0.802
 1869TIP3    H2 5614   1.186   1.117   0.824
 1870TIP3   OH2 5615   5.631   1.491   4.631
 1870TIP3    H1 5616   5.617   1.433   4.556
 1870TIP3    H2 5617   5.549   1.540   4.639
 1871TIP3   OH2 5618   1.245   0.924   1.441
 1871TIP3    H1 5619   1.210   0.942   1.353
 1871TIP3    H2 5620   1.226   0.832   1.456
 1872TIP3   OH2 5621   3.837   4.777   0.024
 1872TIP3    H1 5622   3.872   4.864   0.006
 1872TIP3    H2 5623   3.800   4.784   0.112
 1873TIP3   OH2 5624   2.193   5.537   1.081
 1873TIP3    H1 5625   2.269   5.488   1.112
 1873TIP3    H2 5626   2.159   5.581   1.158
 1874TIP3   OH2 5627   2.600   2.097   1.181
 1874TIP3    H1 5628   2.590   2.022   1.239
 1874TIP3    H2 5629   2.516   2.143   1.186
 1875TIP3   OH2 5630   2.470   0.250   3.564
 1875TIP3    H1 5631   2.554   0.268   3.607
 1875TIP3    H2 5632   2.408   0.238   3.636
 1876TIP3   OH2 5633   5.004   0.795   0.934
 1876TIP3    H1 5634   4.923   0.825   0.894
 1876TIP3    H2 5635   5.064   0.869   0.927
 1877TIP3   OH2 5636   6.129   0.839   3.126
 1877TIP3    H1 5637   6.063   0.842   3.057
 1877TIP3    H2 5638   6.199   0.897   3.094
 1878TIP3   OH2 5639   2.355   2.979   0.181
 1878TIP3    H1 5640   2.425   2.964   0.117
 1878TIP3    H2 5641   2.304   2.899   0.180
 1879TIP3   OH2 5642   2.705   5.810   3.708
 1879TIP3    H1 5643   2.756   5.890   3.698
 1879TIP3    H2 5644   2.753   5.745   3.656
 1880TIP3   OH2 5645   5.672   2.975   2.856
 1880TIP3    H1 5646   5.593   2.940   2.897
 1880TIP3    H2 5647   5.710   2.901   2.809
 1881TIP3   OH2 5648   0.572   5.682   3.313
 1881TIP3    H1 5649   0.532   5.627   3.380
 1881TIP3    H2 5650   0.504   5.690   3.245
 1882TIP3   OH2 5651   6.308   0.647   2.738
 1882TIP3    H1 5652   6.231   0.598   2.769
 1882TIP3    H2 5653   6.359   0.583   2.689
 1883TIP3   OH2 5654   3.941   0.396   4.315
 1883TIP3    H1 5655   4.015   0.418   4.371
 1883TIP3    H2 5656   3.877   0.466   4.331
 1884TIP3   OH2 5657   1.664   2.511   1.393
 1884TIP3    H1 5658   1.636   2.592   1.436
 1884TIP3    H2 5659   1.687   2.537   1.304
 1885TIP3   OH2 5660   3.431   2.909   0.827
 1885TIP3    H1 5661   3.394   2.838   0.775
 1885TIP3    H2 5662   3.388   2.988   0.796
 1886TIP3   OH2 5663   6.187   5.138   4.169
 1886TIP3    H1 5664   6.253   5.114   4.104
 1886TIP3    H2 5665   6.193   5.070   4.236
 1887TIP3   OH2 5666   6.259   1.749   2.896
 1887TIP3    H1 5667   6.190   1.791   2.948
 1887TIP3    H2 5668   6.341   1.773   2.940
 1888TIP3   OH2 5669   0.955   5.419   3.826
 1888TIP3    H1 5670   0.972   5.330   3.857
 1888TIP3    H2 5671   0.904   5.459   3.896
 1889TIP3   OH2 5672   1.996   1.430   1.823
 1889TIP3    H1 5673   2.063   1.475   1.772
 1889TIP3    H2 5674   1.946   1.379   1.758
 1890TIP3   OH2 5675   4.406   0.314   4.700
 1890TIP3    H1 5676   4.332   0.256   4.715
 1890TIP3    H2 5677   4.479   0.255   4.681
 1891TIP3   OH2 5678   2.499   2.155   5.160
 1891TIP3    H1 5679   2.533   2.066   5.161
 1891TIP3    H2 5680   2.405   2.145   5.174
 1892TIP3   OH2 5681   0.835   2.087   5.062
 1892TIP3    H1 5682   0.741   2.101   5.069
 1892TIP3    H2 5683   0.857   2.036   5.140
 1893TIP3   OH2 5684   5.931   2.592   0.714
 1893TIP3    H1 5685   6.024   2.582   0.693
 1893TIP3    H2 5686   5.887   2.526   0.660
 1894TIP3   OH2 5687   5.168   0.342   4.271
 1894TIP3    H1 5688   5.133   0.328   4.183
 1894TIP3    H2 5689   5.243   0.283   4.277
 1895TIP3   OH2 5690   3.650   5.885   2.742
 1895TIP3    H1 5691   3.707   5.962   2.743
 1895TIP3    H2 5692   3.651   5.853   2.833
 1896TIP3   OH2 5693   4.991   4.554   2.641
 1896TIP3    H1 5694   4.944   4.618   2.588
 1896TIP3    H2 5695   4.932   4.479   2.646
 1897TIP3   OH2 5696   2.465   1.801   3.983
 1897TIP3    H1 5697   2.394   1.834   3.928
 1897TIP3    H2 5698   2.541   1.854   3.959
 1898TIP3   OH2 5699   4.124   5.165   1.635
 1898TIP3    H1 5700   4.043   5.175   1.585
 1898TIP3    H2 5701   4.132   5.246   1.684
 1899TIP3   OH2 5702   5.789   1.683   0.804
 1899TIP3    H1 5703   5.866   1.649   0.760
 1899TIP3    H2 5704   5.810   1.681   0.897
 1900TIP3   OH2 5705   2.799   1.101   3.728
 1900TIP3    H1 5706   2.828   1.172   3.670
 1900TIP3    H2 5707   2.744   1.046   3.671
 1901TIP3   OH2 5708   4.681   2.363   4.140
 1901TIP3    H1 5709   4.628   2.390   4.066
 1901TIP3    H2 5710   4.619   2.321   4.200
 1902TIP3   OH2 5711   0.083   5.987   2.601
 1902TIP3    H1 5712  -0.004   5.958   2.574
 1902TIP3    H2 5713   0.143   5.945   2.539
 1903TIP3   OH2 5714   0.089   3.158   0.406
 1903TIP3    H1 5715   0.158   3.204   0.454
 1903TIP3    H2 5716   0.101   3.066   0.430
 1904TIP3   OH2 5717   6.088   4.685   4.688
 1904TIP3    H1 5718   6.153   4.618   4.667
 1904TIP3    H2 5719   6.045   4.704   4.604
 1905TIP3   OH2 5720   3.269   2.354   3.290
 1905TIP3    H1 5721   3.282   2.436   3.243
 1905TIP3    H2 5722   3.223   2.380   3.371
 1906TIP3   OH2 5723   2.844   2.962   4.867
 1906TIP3    H1 5724   2.819   2.993   4.954
 1906TIP3    H2 5725   2.780   2.894   4.846
 1907TIP3   OH2 5726   1.947   1.387   2.807
 1907TIP3    H1 5727   2.005   1.434   2.747
 1907TIP3    H2 5728   1.866   1.375   2.757
 1908TIP3   OH2 5729   3.661   4.462   4.633
 1908TIP3    H1 5730   3.698   4.377   4.654
 1908TIP3    H2 5731   3.572   4.459   4.670
 1909TIP3   OH2 5732   5.779   5.078   4.027
 1909TIP3    H1 5733   5.789   5.084   4.122
 1909TIP3    H2 5734   5.770   4.984   4.010
 1910TIP3   OH2 5735   0.343   3.562   3.500
 1910TIP3    H1 5736   0.323   3.648   3.464
 1910TIP3    H2 5737   0.366   3.578   3.591
 1911TIP3   OH2 5738   6.177   0.846   4.900
 1911TIP3    H1 5739   6.114   0.775   4.914
 1911TIP3    H2 5740   6.206   0.870   4.988
 1912TIP3   OH2 5741   0.406   2.298   2.001
 1912TIP3    H1 5742   0.407   2.260   1.914
 1912TIP3    H2 5743   0.459   2.238   2.054
 1913TIP3   OH2 5744   5.331   4.851   3.085
 1913TIP3    H1 5745   5.323   4.892   3.172
 1913TIP3    H2 5746   5.422   4.867   3.059
 1914TIP3   OH2 5747   2.797   5.127   3.640
 1914TIP3    H1 5748   2.826   5.164   3.556
 1914TIP3    H2 5749   2.708   5.097   3.623
 1915TIP3   OH2 5750   0.319   3.001   0.063
 1915TIP3    H1 5751   0.226   3.001   0.038
 1915TIP3    H2 5752   0.352   2.915   0.037
 1916TIP3   OH2 5753   2.420   1.464   0.943
 1916TIP3    H1 5754   2.482   1.392   0.956
 1916TIP3    H2 5755   2.461   1.540   0.984
 1917TIP3   OH2 5756   4.967   0.504   4.860
 1917TIP3    H1 5757   4.895   0.478   4.919
 1917TIP3    H2 5758   4.937   0.478   4.773
 1918TIP3   OH2 5759   2.918   5.186   4.935
 1918TIP3    H1 5760   2.901   5.096   4.963
 1918TIP3    H2 5761   2.996   5.180   4.879
 1919TIP3   OH2 5762   3.585   1.358   1.635
 1919TIP3    H1 5763   3.610   1.376   1.726
 1919TIP3    H2 5764   3.490   1.367   1.635
 1920TIP3   OH2 5765   4.922   1.241   4.021
 1920TIP3    H1 5766   4.922   1.214   3.929
 1920TIP3    H2 5767   5.000   1.199   4.058
 1921TIP3   OH2 5768   6.167   2.302   1.500
 1921TIP3    H1 5769   6.161   2.338   1.412
 1921TIP3    H2 5770   6.256   2.269   1.506
 1922TIP3   OH2 5771   2.519   3.913   1.383
 1922TIP3    H1 5772   2.469   3.847   1.431
 1922TIP3    H2 5773   2.600   3.868   1.358
 1923TIP3   OH2 5774   1.352   2.972   1.325
 1923TIP3    H1 5775   1.368   3.064   1.302
 1923TIP3    H2 5776   1.259   2.968   1.344
 1924TIP3   OH2 5777   4.637   2.735   1.902
 1924TIP3    H1 5778   4.612   2.642   1.903
 1924TIP3    H2 5779   4.593   2.771   1.826
 1925TIP3   OH2 5780   3.168   2.192   1.040
 1925TIP3    H1 5781   3.257   2.204   1.006
 1925TIP3    H2 5782   3.117   2.164   0.964
 1926TIP3   OH2 5783   3.689   2.438   1.877
 1926TIP3    H1 5784   3.684   2.437   1.782
 1926TIP3    H2 5785   3.599   2.431   1.907
 1927TIP3   OH2 5786   1.583   0.922   4.442
 1927TIP3    H1 5787   1.652   0.942   4.506
 1927TIP3    H2 5788   1.563   1.005   4.400
 1928TIP3   OH2 5789   0.598   5.369   3.292
 1928TIP3    H1 5790   0.589   5.329   3.206
 1928TIP3    H2 5791   0.692   5.379   3.305
 1929TIP3   OH2 5792   3.127   2.668   2.485
 1929TIP3    H1 5793   3.167   2.732   2.427
 1929TIP3    H2 5794   3.198   2.610   2.510
 1930TIP3   OH2 5795   5.809   5.789   0.504
 1930TIP3    H1 5796   5.804   5.698   0.475
 1930TIP3    H2 5797   5.835   5.784   0.595
 1931TIP3   OH2 5798   1.482   4.418   4.091
 1931TIP3    H1 5799   1.557   4.358   4.085
 1931TIP3    H2 5800   1.517   4.498   4.129
 1932TIP3   OH2 5801   5.717   0.415   1.018
 1932TIP3    H1 5802   5.688   0.471   1.090
 1932TIP3    H2 5803   5.637   0.376   0.983
 1933TIP3   OH2 5804   5.364   5.147   4.192
 1933TIP3    H1 5805   5.354   5.053   4.208
 1933TIP3    H2 5806   5.430   5.176   4.255
 1934TIP3   OH2 5807   0.417   5.743   3.902
 1934TIP3    H1 5808   0.357   5.757   3.829
 1934TIP3    H2 5809   0.493   5.699   3.863
 1935TIP3   OH2 5810   6.104   2.651   4.520
 1935TIP3    H1 5811   6.186   2.654   4.570
 1935TIP3    H2 5812   6.132   2.663   4.429
 1936TIP3   OH2 5813   4.945   3.028   2.267
 1936TIP3    H1 5814   4.991   3.101   2.226
 1936TIP3    H2 5815   4.852   3.046   2.251
 1937TIP3   OH2 5816   1.890   3.191   4.772
 1937TIP3    H1 5817   1.981   3.221   4.761
 1937TIP3    H2 5818   1.868   3.153   4.687
 1938TIP3   OH2 5819   2.182   4.503   3.461
 1938TIP3    H1 5820   2.273   4.483   3.441
 1938TIP3    H2 5821   2.187   4.561   3.537
 1939TIP3   OH2 5822   2.791   2.252   3.000
 1939TIP3    H1 5823   2.812   2.221   3.088
 1939TIP3    H2 5824   2.698   2.234   2.990
 1940TIP3   OH2 5825   0.340   2.881   3.319
 1940TIP3    H1 5826   0.297   2.930   3.249
 1940TIP3    H2 5827   0.432   2.906   3.313
 1941TIP3   OH2 5828   3.762   4.075   0.717
 1941TIP3    H1 5829   3.668   4.093   0.721
 1941TIP3    H2 5830   3.772   4.016   0.642
 1942TIP3   OH2 5831   0.124   3.694   4.553
 1942TIP3    H1 5832   0.144   3.781   4.518
 1942TIP3    H2 5833   0.169   3.690   4.637
 1943TIP3   OH2 5834   0.512   2.388   1.352
 1943TIP3    H1 5835   0.596   2.387   1.398
 1943TIP3    H2 5836   0.479   2.298   1.359
 1944TIP3   OH2 5837   3.933   1.749   4.581
 1944TIP3    H1 5838   4.000   1.779   4.520
 1944TIP3    H2 5839   3.962   1.662   4.609
 1945TIP3   OH2 5840   3.064   4.864   1.806
 1945TIP3    H1 5841   3.044   4.815   1.886
 1945TIP3    H2 5842   2.982   4.907   1.784
 1946TIP3   OH2 5843   5.756   3.304   0.302
 1946TIP3    H1 5844   5.759   3.373   0.235
 1946TIP3    H2 5845   5.686   3.330   0.361
 1947TIP3   OH2 5846   5.994   1.125   0.914
 1947TIP3    H1 5847   6.053   1.161   0.848
 1947TIP3    H2 5848   6.007   1.030   0.909
 1948TIP3   OH2 5849   6.095   1.921   1.350
 1948TIP3    H1 5850   6.081   1.956   1.262
 1948TIP3    H2 5851   6.180   1.878   1.346
 1949TIP3   OH2 5852   4.163   4.015   2.746
 1949TIP3    H1 5853   4.069   4.033   2.738
 1949TIP3    H2 5854   4.198   4.035   2.660
 1950TIP3   OH2 5855   5.339   1.871   2.732
 1950TIP3    H1 5856   5.312   1.829   2.814
 1950TIP3    H2 5857   5.290   1.953   2.729
 1951TIP3   OH2 5858   2.890   3.012   0.074
 1951TIP3    H1 5859   2.855   2.924   0.086
 1951TIP3    H2 5860   2.879   3.029  -0.020
 1952TIP3   OH2 5861   4.507   2.411   1.385
 1952TIP3    H1 5862   4.534   2.348   1.451
 1952TIP3    H2 5863   4.583   2.467   1.372
 1953TIP3   OH2 5864   3.077   2.563   1.824
 1953TIP3    H1 5865   3.002   2.548   1.768
 1953TIP3    H2 5866   3.071   2.656   1.848
 1954TIP3   OH2 5867   5.043   4.784   1.271
 1954TIP3    H1 5868   4.971   4.738   1.228
 1954TIP3    H2 5869   5.104   4.805   1.201
 1955TIP3   OH2 5870   2.042   3.694   5.147
 1955TIP3    H1 5871   2.063   3.681   5.240
 1955TIP3    H2 5872   1.953   3.660   5.138
 1956TIP3   OH2 5873   1.220   1.942   1.371
 1956TIP3    H1 5874   1.255   2.031   1.369
 1956TIP3    H2 5875   1.244   1.909   1.458
 1957TIP3   OH2 5876   5.602   3.585   0.248
 1957TIP3    H1 5877   5.551   3.666   0.239
 1957TIP3    H2 5878   5.688   3.607   0.212
 1958TIP3   OH2 5879   6.202   0.681   1.034
 1958TIP3    H1 5880   6.127   0.623   1.022
 1958TIP3    H2 5881   6.275   0.622   1.049
 1959TIP3   OH2 5882   1.340   1.798   3.210
 1959TIP3    H1 5883   1.268   1.788   3.149
 1959TIP3    H2 5884   1.407   1.846   3.161
 1960TIP3   OH2 5885   1.390   2.819   5.117
 1960TIP3    H1 5886   1.404   2.728   5.090
 1960TIP3    H2 5887   1.306   2.842   5.077
 1961TIP3   OH2 5888   2.730   5.609   2.342
 1961TIP3    H1 5889   2.669   5.567   2.402
 1961TIP3    H2 5890   2.811   5.558   2.349
 1962TIP3   OH2 5891   0.194   3.252   4.844
 1962TIP3    H1 5892   0.257   3.286   4.781
 1962TIP3    H2 5893   0.123   3.316   4.843
 1963TIP3   OH2 5894   2.524   3.880   0.828
 1963TIP3    H1 5895   2.519   3.823   0.751
 1963TIP3    H2 5896   2.442   3.930   0.826
 1964TIP3   OH2 5897   5.593   2.635   0.242
 1964TIP3    H1 5898   5.590   2.692   0.165
 1964TIP3    H2 5899   5.523   2.572   0.227
 1965TIP3   OH2 5900   5.457   5.197   0.835
 1965TIP3    H1 5901   5.475   5.155   0.750
 1965TIP3    H2 5902   5.544   5.211   0.873
 1966TIP3   OH2 5903   6.171   3.714   2.816
 1966TIP3    H1 5904   6.178   3.656   2.740
 1966TIP3    H2 5905   6.229   3.787   2.795
 1967TIP3   OH2 5906   4.625   0.898   3.298
 1967TIP3    H1 5907   4.629   0.876   3.391
 1967TIP3    H2 5908   4.532   0.898   3.277
 1968TIP3   OH2 5909   4.182   2.170   0.055
 1968TIP3    H1 5910   4.163   2.077   0.068
 1968TIP3    H2 5911   4.111   2.215   0.103
 1969TIP3   OH2 5912   6.172   2.684   2.941
 1969TIP3    H1 5913   6.164   2.687   3.037
 1969TIP3    H2 5914   6.115   2.612   2.915
 1970TIP3   OH2 5915   1.169   3.371   4.069
 1970TIP3    H1 5916   1.159   3.334   4.157
 1970TIP3    H2 5917   1.217   3.305   4.021
 1971TIP3   OH2 5918   5.941   2.132   3.025
 1971TIP3    H1 5919   5.848   2.144   3.004
 1971TIP3    H2 5920   5.951   2.165   3.114
 1972TIP3   OH2 5921   2.554   2.339   2.001
 1972TIP3    H1 5922   2.493   2.351   2.073
 1972TIP3    H2 5923   2.518   2.265   1.952
 1973TIP3   OH2 5924   4.494   4.988   1.299
 1973TIP3    H1 5925   4.567   4.931   1.322
 1973TIP3    H2 5926   4.512   5.014   1.208
 1974TIP3   OH2 5927   4.788   2.109   3.912
 1974TIP3    H1 5928   4.748   2.169   3.975
 1974TIP3    H2 5929   4.798   2.026   3.959
 1975TIP3   OH2 5930   5.915   3.960   1.927
 1975TIP3    H1 5931   5.886   4.009   1.850
 1975TIP3    H2 5932   5.971   4.020   1.975
 1976TIP3   OH2 5933   1.923   1.752   3.215
 1976TIP3    H1 5934   1.961   1.743   3.127
 1976TIP3    H2 5935   1.970   1.688   3.268
 1977TIP3   OH2 5936   5.884   1.544   4.292
 1977TIP3    H1 5937   5.911   1.561   4.382
 1977TIP3    H2 5938   5.893   1.449   4.282
 1978TIP3   OH2 5939   4.446   4.924   4.321
 1978TIP3    H1 5940   4.461   4.990   4.254
 1978TIP3    H2 5941   4.487   4.844   4.287
 1979TIP3   OH2 5942   0.965   5.971   0.349
 1979TIP3    H1 5943   0.871   5.964   0.329
 1979TIP3    H2 5944   0.977   5.919   0.428
 1980TIP3   OH2 5945   2.529   4.832   4.695
 1980TIP3    H1 5946   2.511   4.902   4.632
 1980TIP3    H2 5947   2.606   4.861   4.743
 1981TIP3   OH2 5948   4.647   3.696   2.043
 1981TIP3    H1 5949   4.651   3.655   2.130
 1981TIP3    H2 5950   4.732   3.738   2.032
 1982TIP3   OH2 5951   3.193   5.426   0.935
 1982TIP3    H1 5952   3.120   5.485   0.954
 1982TIP3    H2 5953   3.153   5.352   0.889
 1983TIP3   OH2 5954   5.376   5.579   3.915
 1983TIP3    H1 5955   5.367   5.615   3.826
 1983TIP3    H2 5956   5.302   5.520   3.925
 1984TIP3   OH2 5957   1.249   5.290   1.676
 1984TIP3    H1 5958   1.300   5.215   1.708
 1984TIP3    H2 5959   1.278   5.363   1.731
 1985TIP3   OH2 5960   4.444   2.177  -0.004
 1985TIP3    H1 5961   4.360   2.188   0.040
 1985TIP3    H2 5962   4.428   2.115  -0.074
 1986TIP3   OH2 5963   2.494   4.580   0.916
 1986TIP3    H1 5964   2.504   4.659   0.969
 1986TIP3    H2 5965   2.584   4.549   0.903
 1987TIP3   OH2 5966   0.305   1.261   3.185
 1987TIP3    H1 5967   0.369   1.196   3.216
 1987TIP3    H2 5968   0.233   1.208   3.151
 1988TIP3   OH2 5969   0.261   0.532   3.023
 1988TIP3    H1 5970   0.246   0.517   2.930
 1988TIP3    H2 5971   0.345   0.491   3.042
 1989TIP3   OH2 5972   4.175   1.118   0.335
 1989TIP3    H1 5973   4.237   1.063   0.286
 1989TIP3    H2 5974   4.108   1.141   0.271
 1990TIP3   OH2 5975   3.985   1.687   0.265
 1990TIP3    H1 5976   4.040   1.609   0.255
 1990TIP3    H2 5977   4.047   1.757   0.288
 1991TIP3   OH2 5978   2.534   1.111   4.259
 1991TIP3    H1 5979   2.584   1.123   4.341
 1991TIP3    H2 5980   2.601   1.105   4.192
 1992TIP3   OH2 5981   5.821   3.571   3.101
 1992TIP3    H1 5982   5.769   3.628   3.157
 1992TIP3    H2 5983   5.788   3.482   3.119
 1993TIP3   OH2 5984   0.681   0.561   1.206
 1993TIP3    H1 5985   0.752   0.623   1.227
 1993TIP3    H2 5986   0.615   0.577   1.273
 1994TIP3   OH2 5987   0.135   2.205   0.529
 1994TIP3    H1 5988   0.132   2.277   0.466
 1994TIP3    H2 5989   0.216   2.219   0.578
 1995TIP3   OH2 5990   2.255   2.676   2.475
 1995TIP3    H1 5991   2.226   2.756   2.518
 1995TIP3    H2 5992   2.348   2.691   2.456
 1996TIP3   OH2 5993   3.546   2.111   4.343
 1996TIP3    H1 5994   3.634   2.074   4.345
 1996TIP3    H2 5995   3.495   2.047   4.293
 1997TIP3   OH2 5996   5.291   2.088   1.198
 1997TIP3    H1 5997   5.366   2.078   1.257
 1997TIP3    H2 5998   5.246   2.166   1.230
 1998TIP3   OH2 5999   0.958   1.013   3.997
 1998TIP3    H1 6000   0.971   0.982   3.907
 1998TIP3    H2 6001   0.918   1.100   3.988
 1999TIP3   OH2 6002   0.447   2.906   1.984
 1999TIP3    H1 6003   0.425   2.850   2.059
 1999TIP3    H2 6004   0.494   2.980   2.022
 2000TIP3   OH2 6005   4.835   3.441   3.489
 2000TIP3    H1 6006   4.872   3.460   3.403
 2000TIP3    H2 6007   4.910   3.427   3.546
 2001TIP3   OH2 6008   4.801   5.197   4.777
 2001TIP3    H1 6009   4.891   5.219   4.802
 2001TIP3    H2 6010   4.809   5.112   4.733
 2002TIP3   OH2 6011   2.139   5.293   4.963
 2002TIP3    H1 6012   2.066   5.252   5.010
 2002TIP3    H2 6013   2.148   5.242   4.883
 2003TIP3   OH2 6014   4.392   1.666   4.373
 2003TIP3    H1 6015   4.453   1.702   4.308
 2003TIP3    H2 6016   4.448   1.628   4.440
 2004TIP3   OH2 6017   5.033   5.621   2.194
 2004TIP3    H1 6018   5.037   5.641   2.287
 2004TIP3    H2 6019   5.108   5.563   2.178
 2005TIP3   OH2 6020   4.574   2.020   4.773
 2005TIP3    H1 6021   4.667   2.004   4.755
 2005TIP3    H2 6022   4.533   2.022   4.687
 2006TIP3   OH2 6023   1.551   4.185   1.765
 2006TIP3    H1 6024   1.616   4.139   1.818
 2006TIP3    H2 6025   1.477   4.124   1.759
 2007TIP3   OH2 6026   5.049   1.627   2.129
 2007TIP3    H1 6027   5.001   1.709   2.114
 2007TIP3    H2 6028   5.126   1.654   2.179
 2008TIP3   OH2 6029   1.029   0.095   0.342
 2008TIP3    H1 6030   1.122   0.113   0.331
 2008TIP3    H2 6031   1.025   0.018   0.399
 2009TIP3   OH2 6032   2.762   4.015   0.628
 2009TIP3    H1 6033   2.764   3.920   0.618
 2009TIP3    H2 6034   2.851   4.038   0.655
 2010TIP3   OH2 6035   0.375   1.836   4.691
 2010TIP3    H1 6036   0.290   1.871   4.718
 2010TIP3    H2 6037   0.370   1.743   4.713
 2011TIP3   OH2 6038   2.840   4.351   4.812
 2011TIP3    H1 6039   2.889   4.394   4.882
 2011TIP3    H2 6040   2.766   4.309   4.857
 2012TIP3   OH2 6041   2.921   2.005   2.899
 2012TIP3    H1 6042   2.893   2.093   2.924
 2012TIP3    H2 6043   2.984   2.019   2.828
 2013TIP3   OH2 6044   1.594   4.610   2.823
 2013TIP3    H1 6045   1.538   4.643   2.753
 2013TIP3    H2 6046   1.547   4.534   2.859
 2014TIP3   OH2 6047   3.178   5.341   3.321
 2014TIP3    H1 6048   3.270   5.341   3.293
 2014TIP3    H2 6049   3.152   5.433   3.319
 2015TIP3   OH2 6050   2.701   3.692   2.612
 2015TIP3    H1 6051   2.708   3.674   2.706
 2015TIP3    H2 6052   2.735   3.613   2.570
 2016TIP3   OH2 6053   5.274   2.780   3.343
 2016TIP3    H1 6054   5.362   2.751   3.320
 2016TIP3    H2 6055   5.217   2.737   3.279
 2017TIP3   OH2 6056   4.196   3.940   4.513
 2017TIP3    H1 6057   4.167   3.892   4.435
 2017TIP3    H2 6058   4.115   3.957   4.561
 2018TIP3   OH2 6059   2.821   2.192   4.425
 2018TIP3    H1 6060   2.838   2.190   4.519
 2018TIP3    H2 6061   2.740   2.241   4.416
 2019TIP3   OH2 6062   3.653   0.081   0.268
 2019TIP3    H1 6063   3.614   0.001   0.301
 2019TIP3    H2 6064   3.579   0.136   0.242
 2020TIP3   OH2 6065   4.277   4.984   1.457
 2020TIP3    H1 6066   4.277   5.056   1.520
 2020TIP3    H2 6067   4.366   4.982   1.423
 2021TIP3   OH2 6068   1.887   4.864   2.514
 2021TIP3    H1 6069   1.901   4.913   2.433
 2021TIP3    H2 6070   1.866   4.775   2.485
 2022TIP3   OH2 6071   5.984   4.743  -0.008
 2022TIP3    H1 6072   6.052   4.810  -0.011
 2022TIP3    H2 6073   5.921   4.774   0.057
 2023TIP3   OH2 6074   5.200   0.087   4.616
 2023TIP3    H1 6075   5.228   0.082   4.524
 2023TIP3    H2 6076   5.268   0.139   4.659
 2024TIP3   OH2 6077   5.896   3.118   0.167
 2024TIP3    H1 6078   5.899   3.182   0.095
 2024TIP3    H2 6079   5.835   3.156   0.230
 2025TIP3   OH2 6080   0.484   1.491   2.467
 2025TIP3    H1 6081   0.488   1.397   2.446
 2025TIP3    H2 6082   0.575   1.515   2.484
 2026TIP3   OH2 6083   0.652   2.372   5.023
 2026TIP3    H1 6084   0.733   2.376   5.074
 2026TIP3    H2 6085   0.600   2.446   5.054
 2027TIP3   OH2 6086   3.198   4.503   4.364
 2027TIP3    H1 6087   3.191   4.412   4.335
 2027TIP3    H2 6088   3.166   4.502   4.454
 2028TIP3   OH2 6089   2.083   1.150   0.103
 2028TIP3    H1 6090   2.128   1.103   0.173
 2028TIP3    H2 6091   2.023   1.086   0.066
 2029TIP3   OH2 6092   5.403   4.329   0.825
 2029TIP3    H1 6093   5.471   4.297   0.766
 2029TIP3    H2 6094   5.395   4.422   0.805
 2030TIP3   OH2 6095   6.261   1.290   0.443
 2030TIP3    H1 6096   6.340   1.331   0.479
 2030TIP3    H2 6097   6.244   1.339   0.362
 2031TIP3   OH2 6098   0.409   2.844   0.783
 2031TIP3    H1 6099   0.428   2.874   0.872
 2031TIP3    H2 6100   0.495   2.827   0.744
 2032TIP3   OH2 6101   3.490   1.332   1.305
 2032TIP3    H1 6102   3.562   1.339   1.367
 2032TIP3    H2 6103   3.411   1.344   1.358
 2033TIP3   OH2 6104   2.711   2.139   3.507
 2033TIP3    H1 6105   2.780   2.201   3.483
 2033TIP3    H2 6106   2.675   2.175   3.589
 2034TIP3   OH2 6107   5.908   3.355   2.651
 2034TIP3    H1 6108   5.928   3.367   2.558
 2034TIP3    H2 6109   5.882   3.264   2.659
 2035TIP3   OH2 6110   3.375   4.261   5.125
 2035TIP3    H1 6111   3.424   4.297   5.198
 2035TIP3    H2 6112   3.287   4.245   5.160
 2036TIP3   OH2 6113   1.977   3.420   0.232
 2036TIP3    H1 6114   2.061   3.460   0.253
 2036TIP3    H2 6115   1.963   3.355   0.301
 2037TIP3   OH2 6116   1.947   2.472   1.498
 2037TIP3    H1 6117   1.900   2.540   1.451
 2037TIP3    H2 6118   1.887   2.443   1.566
 2038TIP3   OH2 6119   5.335   2.573   1.719
 2038TIP3    H1 6120   5.378   2.560   1.804
 2038TIP3    H2 6121   5.315   2.666   1.717
 2039TIP3   OH2 6122   0.346   5.605   1.672
 2039TIP3    H1 6123   0.370   5.672   1.736
 2039TIP3    H2 6124   0.327   5.654   1.592
 2040TIP3   OH2 6125   2.004   3.145   0.773
 2040TIP3    H1 6126   1.927   3.201   0.766
 2040TIP3    H2 6127   2.078   3.204   0.756
 2041TIP3   OH2 6128   6.084   3.631   3.269
 2041TIP3    H1 6129   6.013   3.587   3.221
 2041TIP3    H2 6130   6.039   3.690   3.329
 2042TIP3   OH2 6131   4.244   2.993   4.595
 2042TIP3    H1 6132   4.150   2.990   4.609
 2042TIP3    H2 6133   4.255   3.015   4.503
 2043TIP3   OH2 6134   4.724   5.077   0.706
 2043TIP3    H1 6135   4.812   5.078   0.744
 2043TIP3    H2 6136   4.699   4.985   0.707
 2044TIP3   OH2 6137   2.673   1.556   1.020
 2044TIP3    H1 6138   2.720   1.538   0.939
 2044TIP3    H2 6139   2.715   1.499   1.085
 2045TIP3   OH2 6140   4.374   4.573   1.898
 2045TIP3    H1 6141   4.425   4.510   1.847
 2045TIP3    H2 6142   4.354   4.643   1.835
 2046TIP3   OH2 6143   1.696   4.917   0.077
 2046TIP3    H1 6144   1.696   5.007   0.112
 2046TIP3    H2 6145   1.754   4.869   0.136
 2047TIP3   OH2 6146   4.031   3.065   1.873
 2047TIP3    H1 6147   4.122   3.057   1.900
 2047TIP3    H2 6148   4.005   2.977   1.846
 2048TIP3   OH2 6149   5.773   0.011   4.985
 2048TIP3    H1 6150   5.764   0.069   5.061
 2048TIP3    H2 6151   5.866   0.013   4.963
 2049TIP3   OH2 6152   0.802   5.768   1.406
 2049TIP3    H1 6153   0.782   5.809   1.322
 2049TIP3    H2 6154   0.881   5.717   1.390
 2050TIP3   OH2 6155   4.255   1.246   1.015
 2050TIP3    H1 6156   4.277   1.161   1.053
 2050TIP3    H2 6157   4.337   1.295   1.015
 2051TIP3   OH2 6158   6.013   4.700   3.648
 2051TIP3    H1 6159   6.070   4.774   3.626
 2051TIP3    H2 6160   6.068   4.644   3.702
 2052TIP3   OH2 6161   0.612   4.364   3.236
 2052TIP3    H1 6162   0.558   4.424   3.185
 2052TIP3    H2 6163   0.552   4.326   3.300
 2053TIP3   OH2 6164   4.477   5.015   2.366
 2053TIP3    H1 6165   4.475   5.034   2.460
 2053TIP3    H2 6166   4.564   4.978   2.351
 2054TIP3   OH2 6167   6.190   1.805   2.386
 2054TIP3    H1 6168   6.098   1.782   2.397
 2054TIP3    H2 6169   6.220   1.825   2.475
 2055TIP3   OH2 6170   1.239   5.132   1.430
 2055TIP3    H1 6171   1.235   5.211   1.484
 2055TIP3    H2 6172   1.214   5.161   1.343
 2056TIP3   OH2 6173   3.373   3.077   2.526
 2056TIP3    H1 6174   3.426   3.109   2.453
 2056TIP3    H2 6175   3.437   3.061   2.596
 2057TIP3   OH2 6176   3.802   2.679   2.913
 2057TIP3    H1 6177   3.771   2.633   2.992
 2057TIP3    H2 6178   3.865   2.619   2.874
 2058TIP3   OH2 6179   5.575   5.995   3.017
 2058TIP3    H1 6180   5.504   5.935   3.039
 2058TIP3    H2 6181   5.606   5.967   2.931
 2059TIP3   OH2 6182   1.161   3.746   0.538
 2059TIP3    H1 6183   1.166   3.770   0.445
 2059TIP3    H2 6184   1.238   3.691   0.553
 2060TIP3   OH2 6185   4.463   0.641   0.447
 2060TIP3    H1 6186   4.488   0.569   0.389
 2060TIP3    H2 6187   4.381   0.612   0.487
 2061TIP3   OH2 6188   5.335   1.827   4.902
 2061TIP3    H1 6189   5.369   1.826   4.812
 2061TIP3    H2 6190   5.248   1.864   4.895
 2062TIP3   OH2 6191   4.366   5.848   1.744
 2062TIP3    H1 6192   4.296   5.805   1.794
 2062TIP3    H2 6193   4.398   5.916   1.803
 2063TIP3   OH2 6194   5.113   4.478   1.492
 2063TIP3    H1 6195   5.030   4.451   1.530
 2063TIP3    H2 6196   5.179   4.431   1.543
 2064TIP3   OH2 6197   5.169   1.965   0.069
 2064TIP3    H1 6198   5.235   1.896   0.074
 2064TIP3    H2 6199   5.174   2.009   0.154
 2065TIP3   OH2 6200   0.306   4.303   4.736
 2065TIP3    H1 6201   0.354   4.377   4.772
 2065TIP3    H2 6202   0.285   4.248   4.812
 2066TIP3   OH2 6203   3.204   1.024   0.410
 2066TIP3    H1 6204   3.112   0.999   0.417
 2066TIP3    H2 6205   3.217   1.086   0.482
 2067TIP3   OH2 6206   1.617   1.538   4.383
 2067TIP3    H1 6207   1.688   1.533   4.447
 2067TIP3    H2 6208   1.649   1.488   4.308
 2068TIP3   OH2 6209   5.694   2.517   2.774
 2068TIP3    H1 6210   5.668   2.513   2.682
 2068TIP3    H2 6211   5.751   2.441   2.785
 2069TIP3   OH2 6212   1.189   4.137   1.137
 2069TIP3    H1 6213   1.252   4.067   1.155
 2069TIP3    H2 6214   1.218   4.175   1.054
 2070TIP3   OH2 6215   4.125   4.575   0.319
 2070TIP3    H1 6216   4.181   4.595   0.393
 2070TIP3    H2 6217   4.100   4.661   0.284
 2071TIP3   OH2 6218   1.067   2.678   3.292
 2071TIP3    H1 6219   0.991   2.677   3.350
 2071TIP3    H2 6220   1.040   2.624   3.217
 2072TIP3   OH2 6221   2.964   5.407   4.460
 2072TIP3    H1 6222   3.048   5.438   4.427
 2072TIP3    H2 6223   2.905   5.414   4.385
 2073TIP3   OH2 6224   1.374   5.528   1.746
 2073TIP3    H1 6225   1.324   5.546   1.826
 2073TIP3    H2 6226   1.462   5.561   1.765
 2074TIP3   OH2 6227   2.141   4.293   3.755
 2074TIP3    H1 6228   2.104   4.373   3.793
 2074TIP3    H2 6229   2.152   4.314   3.662
 2075TIP3   OH2 6230   0.119   5.925   3.109
 2075TIP3    H1 6231   0.132   5.998   3.170
 2075TIP3    H2 6232   0.122   5.847   3.164
 2076TIP3   OH2 6233   0.945   1.046   0.271
 2076TIP3    H1 6234   1.006   0.973   0.258
 2076TIP3    H2 6235   0.858   1.005   0.266
 2077TIP3   OH2 6236   2.772   0.872   1.130
 2077TIP3    H1 6237   2.831   0.801   1.155
 2077TIP3    H2 6238   2.686   0.844   1.161
 2078TIP3   OH2 6239   3.899   2.770   1.943
 2078TIP3    H1 6240   3.912   2.723   1.861
 2078TIP3    H2 6241   3.987   2.802   1.966
 2079TIP3   OH2 6242   0.384   4.691   1.804
 2079TIP3    H1 6243   0.366   4.598   1.790
 2079TIP3    H2 6244   0.429   4.720   1.725
 2080TIP3   OH2 6245   1.675   1.362   0.863
 2080TIP3    H1 6246   1.602   1.424   0.857
 2080TIP3    H2 6247   1.747   1.404   0.817
 2081TIP3   OH2 6248   1.842   3.014   4.551
 2081TIP3    H1 6249   1.842   2.933   4.603
 2081TIP3    H2 6250   1.770   3.002   4.489
 2082TIP3   OH2 6251   2.195   2.354   1.126
 2082TIP3    H1 6252   2.130   2.349   1.055
 2082TIP3    H2 6253   2.148   2.321   1.203
 2083TIP3   OH2 6254   3.754   1.242   2.547
 2083TIP3    H1 6255   3.775   1.248   2.454
 2083TIP3    H2 6256   3.660   1.261   2.552
 2084TIP3   OH2 6257   0.710   0.922   1.019
 2084TIP3    H1 6258   0.691   0.905   1.111
 2084TIP3    H2 6259   0.805   0.911   1.011
 2085TIP3   OH2 6260   5.200   2.598   1.082
 2085TIP3    H1 6261   5.244   2.530   1.031
 2085TIP3    H2 6262   5.241   2.593   1.168
 2086TIP3   OH2 6263   5.953   5.731   4.813
 2086TIP3    H1 6264   5.907   5.667   4.868
 2086TIP3    H2 6265   5.999   5.787   4.876
 2087TIP3   OH2 6266   4.849   3.578   1.775
 2087TIP3    H1 6267   4.774   3.636   1.764
 2087TIP3    H2 6268   4.879   3.560   1.686
 2088TIP3   OH2 6269   1.492   5.191   1.767
 2088TIP3    H1 6270   1.490   5.213   1.860
 2088TIP3    H2 6271   1.582   5.211   1.740
 2089TIP3   OH2 6272   4.358   2.952   0.188
 2089TIP3    H1 6273   4.446   2.917   0.175
 2089TIP3    H2 6274   4.370   3.047   0.192
 2090TIP3   OH2 6275   1.633   2.776   1.187
 2090TIP3    H1 6276   1.666   2.760   1.098
 2090TIP3    H2 6277   1.538   2.776   1.179
 2091TIP3   OH2 6278   0.100   4.165   3.902
 2091TIP3    H1 6279   0.141   4.132   3.982
 2091TIP3    H2 6280   0.125   4.257   3.898
 2092TIP3   OH2 6281   1.709   0.981   2.233
 2092TIP3    H1 6282   1.789   1.029   2.254
 2092TIP3    H2 6283   1.740   0.897   2.199
 2093TIP3   OH2 6284   2.095   0.625   2.004
 2093TIP3    H1 6285   2.053   0.545   2.038
 2093TIP3    H2 6286   2.176   0.633   2.054
 2094TIP3   OH2 6287   2.701   4.233   2.169
 2094TIP3    H1 6288   2.627   4.242   2.109
 2094TIP3    H2 6289   2.710   4.319   2.209
 2095TIP3   OH2 6290   1.462   1.137   4.713
 2095TIP3    H1 6291   1.534   1.200   4.706
 2095TIP3    H2 6292   1.488   1.064   4.657
 2096TIP3   OH2 6293   3.852   1.755   4.167
 2096TIP3    H1 6294   3.814   1.671   4.144
 2096TIP3    H2 6295   3.817   1.816   4.101
 2097TIP3   OH2 6296   2.332   5.914   4.008
 2097TIP3    H1 6297   2.285   5.959   4.078
 2097TIP3    H2 6298   2.420   5.900   4.043
 2098TIP3   OH2 6299   3.209   3.984   4.377
 2098TIP3    H1 6300   3.293   4.029   4.368
 2098TIP3    H2 6301   3.228   3.893   4.353
 2099TIP3   OH2 6302   3.206   2.872   5.030
 2099TIP3    H1 6303   3.198   2.927   5.108
 2099TIP3    H2 6304   3.125   2.820   5.029
 2100TIP3   OH2 6305   0.524   0.190   2.188
 2100TIP3    H1 6306   0.495   0.236   2.267
 2100TIP3    H2 6307   0.577   0.117   2.221
 2101TIP3   OH2 6308   1.292   4.950   4.614
 2101TIP3    H1 6309   1.345   4.954   4.693
 2101TIP3    H2 6310   1.209   4.913   4.642
 2102TIP3   OH2 6311   1.554   0.297   1.118
 2102TIP3    H1 6312   1.589   0.226   1.172
 2102TIP3    H2 6313   1.580   0.377   1.164
 2103TIP3   OH2 6314   2.105   2.553   3.436
 2103TIP3    H1 6315   2.199   2.536   3.430
 2103TIP3    H2 6316   2.091   2.628   3.378
 2104TIP3   OH2 6317   1.624   5.620   1.864
 2104TIP3    H1 6318   1.687   5.615   1.937
 2104TIP3    H2 6319   1.625   5.711   1.837
 2105TIP3   OH2 6320   5.838   5.156   1.694
 2105TIP3    H1 6321   5.791   5.229   1.734
 2105TIP3    H2 6322   5.774   5.084   1.694
 2106TIP3   OH2 6323   4.228   2.301   1.763
 2106TIP3    H1 6324   4.179   2.315   1.682
 2106TIP3    H2 6325   4.291   2.232   1.741
 2107TIP3   OH2 6326   5.268   5.490   1.369
 2107TIP3    H1 6327   5.294   5.554   1.435
 2107TIP3    H2 6328   5.331   5.419   1.376
 2108TIP3   OH2 6329   4.966   3.209   3.082
 2108TIP3    H1 6330   5.054   3.238   3.056
 2108TIP3    H2 6331   4.926   3.287   3.121
 2109TIP3   OH2 6332   1.514   1.425   2.877
 2109TIP3    H1 6333   1.498   1.514   2.907
 2109TIP3    H2 6334   1.508   1.430   2.782
 2110TIP3   OH2 6335   0.162   1.919   0.761
 2110TIP3    H1 6336   0.250   1.936   0.793
 2110TIP3    H2 6337   0.170   1.921   0.666
 2111TIP3   OH2 6338   0.354   0.220   1.400
 2111TIP3    H1 6339   0.289   0.284   1.429
 2111TIP3    H2 6340   0.400   0.263   1.328
 2112TIP3   OH2 6341   0.757   3.425   3.547
 2112TIP3    H1 6342   0.761   3.514   3.511
 2112TIP3    H2 6343   0.680   3.386   3.505
 2113TIP3   OH2 6344   2.582   4.021   4.030
 2113TIP3    H1 6345   2.491   4.018   4.059
 2113TIP3    H2 6346   2.633   4.028   4.111
 2114TIP3   OH2 6347   2.352   0.037   4.818
 2114TIP3    H1 6348   2.404   0.098   4.766
 2114TIP3    H2 6349   2.415  -0.004   4.877
 2115TIP3   OH2 6350   4.096   2.993   0.704
 2115TIP3    H1 6351   4.133   3.082   0.707
 2115TIP3    H2 6352   4.004   3.005   0.725
 2116TIP3   OH2 6353   4.707   0.495   3.209
 2116TIP3    H1 6354   4.727   0.567   3.270
 2116TIP3    H2 6355   4.666   0.539   3.134
 2117TIP3   OH2 6356   2.375   2.380   4.991
 2117TIP3    H1 6357   2.285   2.365   5.018
 2117TIP3    H2 6358   2.424   2.306   5.028
 2118TIP3   OH2 6359   5.864   4.928   1.160
 2118TIP3    H1 6360   5.869   4.880   1.243
 2118TIP3    H2 6361   5.771   4.952   1.152
 2119TIP3   OH2 6362   0.628   1.050  -0.039
 2119TIP3    H1 6363   0.617   1.112   0.033
 2119TIP3    H2 6364   0.559   0.985  -0.026
 2120TIP3   OH2 6365   5.249   5.171   4.624
 2120TIP3    H1 6366   5.195   5.227   4.679
 2120TIP3    H2 6367   5.315   5.230   4.587
 2121TIP3   OH2 6368   1.795   3.130   5.039
 2121TIP3    H1 6369   1.770   3.038   5.028
 2121TIP3    H2 6370   1.806   3.163   4.950
 2122TIP3   OH2 6371   0.401   1.482   3.340
 2122TIP3    H1 6372   0.388   1.468   3.434
 2122TIP3    H2 6373   0.365   1.403   3.299
 2123TIP3   OH2 6374   3.203   3.815   1.903
 2123TIP3    H1 6375   3.242   3.895   1.870
 2123TIP3    H2 6376   3.207   3.823   1.999
 2124TIP3   OH2 6377   4.968   3.563   4.489
 2124TIP3    H1 6378   4.964   3.654   4.519
 2124TIP3    H2 6379   4.986   3.513   4.568
 2125TIP3   OH2 6380   3.620   2.931   3.625
 2125TIP3    H1 6381   3.591   2.965   3.541
 2125TIP3    H2 6382   3.670   3.002   3.665
 2126TIP3   OH2 6383   5.001   1.004   4.599
 2126TIP3    H1 6384   4.982   0.918   4.636
 2126TIP3    H2 6385   5.017   0.986   4.506
 2127TIP3   OH2 6386   1.998   1.463   4.282
 2127TIP3    H1 6387   1.953   1.484   4.200
 2127TIP3    H2 6388   2.068   1.529   4.288
 2128TIP3   OH2 6389   3.557   4.693   3.882
 2128TIP3    H1 6390   3.481   4.648   3.920
 2128TIP3    H2 6391   3.566   4.655   3.795
 2129TIP3   OH2 6392   6.329   0.366   1.890
 2129TIP3    H1 6393   6.281   0.413   1.959
 2129TIP3    H2 6394   6.366   0.436   1.836
 2130TIP3   OH2 6395   5.974   1.401   3.498
 2130TIP3    H1 6396   5.905   1.380   3.560
 2130TIP3    H2 6397   6.042   1.335   3.514
 2131TIP3   OH2 6398   1.859   0.812   0.254
 2131TIP3    H1 6399   1.902   0.878   0.200
 2131TIP3    H2 6400   1.786   0.859   0.296
 2132TIP3   OH2 6401   1.543   2.523   4.222
 2132TIP3    H1 6402   1.451   2.501   4.203
 2132TIP3    H2 6403   1.575   2.560   4.140
 2133TIP3   OH2 6404   6.037   1.130   2.342
 2133TIP3    H1 6405   6.064   1.122   2.434
 2133TIP3    H2 6406   5.985   1.051   2.326
 2134TIP3   OH2 6407   4.966   5.652   3.899
 2134TIP3    H1 6408   4.946   5.628   3.809
 2134TIP3    H2 6409   5.016   5.577   3.933
 2135TIP3   OH2 6410   2.380   2.041   0.572
 2135TIP3    H1 6411   2.464   2.046   0.617
 2135TIP3    H2 6412   2.356   1.948   0.577
 2136TIP3   OH2 6413   3.243   5.150   3.999
 2136TIP3    H1 6414   3.277   5.101   4.074
 2136TIP3    H2 6415   3.169   5.098   3.969
 2137TIP3   OH2 6416   3.603   0.055   2.748
 2137TIP3    H1 6417   3.515   0.018   2.742
 2137TIP3    H2 6418   3.599   0.137   2.698
 2138TIP3   OH2 6419   1.220   0.260   3.045
 2138TIP3    H1 6420   1.256   0.174   3.024
 2138TIP3    H2 6421   1.201   0.299   2.960
 2139TIP3   OH2 6422   1.580   5.122   4.241
 2139TIP3    H1 6423   1.530   5.057   4.290
 2139TIP3    H2 6424   1.523   5.148   4.169
 2140TIP3   OH2 6425   1.019   5.189   4.811
 2140TIP3    H1 6426   0.960   5.148   4.874
 2140TIP3    H2 6427   0.980   5.170   4.726
 2141TIP3   OH2 6428   1.893   5.956   4.422
 2141TIP3    H1 6429   1.919   5.864   4.412
 2141TIP3    H2 6430   1.797   5.953   4.422
 2142TIP3   OH2 6431   3.772   0.542   2.383
 2142TIP3    H1 6432   3.830   0.476   2.421
 2142TIP3    H2 6433   3.830   0.617   2.365
 2143TIP3   OH2 6434   0.816   2.284   4.797
 2143TIP3    H1 6435   0.725   2.282   4.828
 2143TIP3    H2 6436   0.860   2.218   4.851
 2144TIP3   OH2 6437   3.955   0.955   2.498
 2144TIP3    H1 6438   3.902   0.949   2.577
 2144TIP3    H2 6439   3.968   0.864   2.471
 2145TIP3   OH2 6440   0.273   5.459   4.460
 2145TIP3    H1 6441   0.288   5.411   4.379
 2145TIP3    H2 6442   0.194   5.510   4.443
 2146TIP3   OH2 6443   1.500   1.921   4.415
 2146TIP3    H1 6444   1.462   1.836   4.435
 2146TIP3    H2 6445   1.503   1.924   4.319
 2147TIP3   OH2 6446   3.038   1.656   1.934
 2147TIP3    H1 6447   3.016   1.618   1.849
 2147TIP3    H2 6448   2.974   1.618   1.994
 2148TIP3   OH2 6449   1.019   1.498   4.208
 2148TIP3    H1 6450   1.070   1.465   4.134
 2148TIP3    H2 6451   1.001   1.420   4.261
 2149TIP3   OH2 6452   2.655   1.137   3.985
 2149TIP3    H1 6453   2.570   1.177   3.971
 2149TIP3    H2 6454   2.697   1.137   3.899
 2150TIP3   OH2 6455   2.220   3.310   3.101
 2150TIP3    H1 6456   2.156   3.245   3.132
 2150TIP3    H2 6457   2.170   3.369   3.045
 2151TIP3   OH2 6458   4.162   0.531   4.389
 2151TIP3    H1 6459   4.162   0.622   4.361
 2151TIP3    H2 6460   4.249   0.498   4.365
 2152TIP3   OH2 6461   4.251   5.836   4.315
 2152TIP3    H1 6462   4.206   5.864   4.236
 2152TIP3    H2 6463   4.181   5.816   4.377
 2153TIP3   OH2 6464   4.681   1.449   3.272
 2153TIP3    H1 6465   4.679   1.370   3.326
 2153TIP3    H2 6466   4.771   1.482   3.281
 2154TIP3   OH2 6467   4.159   1.627   2.478
 2154TIP3    H1 6468   4.167   1.693   2.547
 2154TIP3    H2 6469   4.066   1.605   2.476
 2155TIP3   OH2 6470   3.689   3.108   2.974
 2155TIP3    H1 6471   3.715   3.019   2.999
 2155TIP3    H2 6472   3.681   3.155   3.057
 2156TIP3   OH2 6473   5.167   0.738   0.521
 2156TIP3    H1 6474   5.175   0.697   0.435
 2156TIP3    H2 6475   5.082   0.781   0.520
 2157TIP3   OH2 6476   5.593   4.225   2.045
 2157TIP3    H1 6477   5.588   4.308   1.998
 2157TIP3    H2 6478   5.554   4.244   2.131
 2158TIP3   OH2 6479   3.324   4.952   1.836
 2158TIP3    H1 6480   3.259   4.882   1.825
 2158TIP3    H2 6481   3.359   4.938   1.924
 2159TIP3   OH2 6482   1.865   4.546   2.047
 2159TIP3    H1 6483   1.821   4.587   1.973
 2159TIP3    H2 6484   1.795   4.533   2.112
 2160TIP3   OH2 6485   5.442   2.416   2.884
 2160TIP3    H1 6486   5.517   2.472   2.865
 2160TIP3    H2 6487   5.379   2.436   2.815
 2161TIP3   OH2 6488   5.212   4.407   2.890
 2161TIP3    H1 6489   5.236   4.443   2.805
 2161TIP3    H2 6490   5.171   4.323   2.870
 2162TIP3   OH2 6491   3.433   5.087   0.904
 2162TIP3    H1 6492   3.505   5.030   0.930
 2162TIP3    H2 6493   3.447   5.168   0.953
 2163TIP3   OH2 6494   2.728   3.320   2.989
 2163TIP3    H1 6495   2.648   3.337   3.039
 2163TIP3    H2 6496   2.704   3.251   2.927
 2164TIP3   OH2 6497   4.129   2.811   0.998
 2164TIP3    H1 6498   4.218   2.789   0.969
 2164TIP3    H2 6499   4.075   2.804   0.920
 2165TIP3   OH2 6500   2.708   2.909   2.628
 2165TIP3    H1 6501   2.793   2.880   2.661
 2165TIP3    H2 6502   2.724   2.998   2.597
 2166TIP3   OH2 6503   1.036   5.866   3.437
 2166TIP3    H1 6504   1.002   5.785   3.474
 2166TIP3    H2 6505   1.071   5.841   3.351
 2167TIP3   OH2 6506   0.200   4.765   3.580
 2167TIP3    H1 6507   0.282   4.721   3.558
 2167TIP3    H2 6508   0.173   4.807   3.498
 2168TIP3   OH2 6509   4.615   1.585   0.163
 2168TIP3    H1 6510   4.614   1.576   0.258
 2168TIP3    H2 6511   4.703   1.559   0.138
 2169TIP3   OH2 6512   4.856   5.611   0.038
 2169TIP3    H1 6513   4.878   5.525   0.004
 2169TIP3    H2 6514   4.887   5.611   0.128
 2170TIP3   OH2 6515   4.750   3.964   0.803
 2170TIP3    H1 6516   4.845   3.977   0.793
 2170TIP3    H2 6517   4.726   3.910   0.727
 2171TIP3   OH2 6518   6.090   5.288   1.672
 2171TIP3    H1 6519   6.030   5.216   1.654
 2171TIP3    H2 6520   6.173   5.245   1.692
 2172TIP3   OH2 6521   0.450   0.846   0.285
 2172TIP3    H1 6522   0.449   0.861   0.191
 2172TIP3    H2 6523   0.392   0.771   0.298
 2173TIP3   OH2 6524   2.115   1.389   4.935
 2173TIP3    H1 6525   2.087   1.424   5.020
 2173TIP3    H2 6526   2.138   1.466   4.883
 2174TIP3   OH2 6527   3.057   4.443   3.783
 2174TIP3    H1 6528   3.111   4.489   3.847
 2174TIP3    H2 6529   3.117   4.383   3.739
 2175TIP3   OH2 6530   2.972   5.472   0.571
 2175TIP3    H1 6531   3.036   5.461   0.500
 2175TIP3    H2 6532   2.992   5.402   0.633
 2176TIP3   OH2 6533   2.479   0.834   0.419
 2176TIP3    H1 6534   2.546   0.899   0.443
 2176TIP3    H2 6535   2.519   0.785   0.347
 2177TIP3   OH2 6536   4.824   1.818   4.602
 2177TIP3    H1 6537   4.859   1.860   4.681
 2177TIP3    H2 6538   4.820   1.725   4.624
 2178TIP3   OH2 6539   6.031   3.758   4.148
 2178TIP3    H1 6540   6.064   3.726   4.064
 2178TIP3    H2 6541   6.105   3.806   4.187
 2179TIP3   OH2 6542   5.528   3.633   5.169
 2179TIP3    H1 6543   5.608   3.593   5.137
 2179TIP3    H2 6544   5.555   3.683   5.247
 2180TIP3   OH2 6545   5.080   2.798   2.064
 2180TIP3    H1 6546   5.116   2.851   2.134
 2180TIP3    H2 6547   4.989   2.782   2.090
 2181TIP3   OH2 6548   3.182   3.858   0.033
 2181TIP3    H1 6549   3.117   3.789   0.020
 2181TIP3    H2 6550   3.259   3.827  -0.014
 2182TIP3   OH2 6551   4.891   1.615   1.214
 2182TIP3    H1 6552   4.930   1.572   1.290
 2182TIP3    H2 6553   4.966   1.650   1.166
 2183TIP3   OH2 6554   5.547   0.618   2.389
 2183TIP3    H1 6555   5.547   0.670   2.469
 2183TIP3    H2 6556   5.500   0.538   2.413
 2184TIP3   OH2 6557   1.182   1.066   2.810
 2184TIP3    H1 6558   1.193   1.145   2.863
 2184TIP3    H2 6559   1.187   0.994   2.873
 2185TIP3   OH2 6560   5.197   0.807   5.085
 2185TIP3    H1 6561   5.125   0.868   5.068
 2185TIP3    H2 6562   5.200   0.798   5.180
 2186TIP3   OH2 6563   4.426   3.521   1.614
 2186TIP3    H1 6564   4.489   3.488   1.679
 2186TIP3    H2 6565   4.349   3.465   1.625
 2187TIP3   OH2 6566   5.284   5.872   2.380
 2187TIP3    H1 6567   5.360   5.930   2.385
 2187TIP3    H2 6568   5.296   5.823   2.299
 2188TIP3   OH2 6569   2.824   3.542   0.106
 2188TIP3    H1 6570   2.860   3.530   0.194
 2188TIP3    H2 6571   2.746   3.596   0.119
 2189TIP3   OH2 6572   3.464   4.270   4.482
 2189TIP3    H1 6573   3.533   4.232   4.536
 2189TIP3    H2 6574   3.420   4.332   4.539
 2190TIP3   OH2 6575   3.309   1.149   4.344
 2190TIP3    H1 6576   3.296   1.226   4.400
 2190TIP3    H2 6577   3.336   1.080   4.405
 2191TIP3   OH2 6578   6.248   4.972   4.367
 2191TIP3    H1 6579   6.242   4.936   4.455
 2191TIP3    H2 6580   6.340   4.998   4.358
 2192TIP3   OH2 6581   0.505   3.855   2.733
 2192TIP3    H1 6582   0.564   3.798   2.782
 2192TIP3    H2 6583   0.514   3.941   2.775
 2193TIP3   OH2 6584   0.153   5.489   3.632
 2193TIP3    H1 6585   0.164   5.575   3.671
 2193TIP3    H2 6586   0.093   5.503   3.558
 2194TIP3   OH2 6587   6.051   0.267   3.505
 2194TIP3    H1 6588   5.964   0.279   3.466
 2194TIP3    H2 6589   6.033   0.222   3.588
 2195TIP3   OH2 6590   0.849   2.166   3.945
 2195TIP3    H1 6591   0.922   2.156   4.006
 2195TIP3    H2 6592   0.890   2.181   3.860
 2196TIP3   OH2 6593   0.976   3.331   0.341
 2196TIP3    H1 6594   1.024   3.287   0.271
 2196TIP3    H2 6595   1.031   3.320   0.418
 2197TIP3   OH2 6596   1.964   3.593   4.717
 2197TIP3    H1 6597   1.991   3.526   4.654
 2197TIP3    H2 6598   1.873   3.612   4.693
 2198TIP3   OH2 6599   5.655   1.207   2.295
 2198TIP3    H1 6600   5.719   1.171   2.233
 2198TIP3    H2 6601   5.627   1.289   2.255
 2199TIP3   OH2 6602   1.343   5.099   0.144
 2199TIP3    H1 6603   1.342   5.026   0.205
 2199TIP3    H2 6604   1.371   5.174   0.197
 2200TIP3   OH2 6605   6.206   4.536   2.093
 2200TIP3    H1 6606   6.120   4.571   2.113
 2200TIP3    H2 6607   6.225   4.566   2.004
 2201TIP3   OH2 6608   5.700   2.382   0.082
 2201TIP3    H1 6609   5.682   2.406  -0.009
 2201TIP3    H2 6610   5.776   2.433   0.107
 2202TIP3   OH2 6611   1.574   2.280   1.265
 2202TIP3    H1 6612   1.576   2.298   1.171
 2202TIP3    H2 6613   1.626   2.351   1.304
 2203TIP3   OH2 6614   6.299   2.403   0.090
 2203TIP3    H1 6615   6.263   2.442   0.169
 2203TIP3    H2 6616   6.238   2.429   0.020
 2204TIP3   OH2 6617   3.532   5.840   2.505
 2204TIP3    H1 6618   3.460   5.778   2.512
 2204TIP3    H2 6619   3.551   5.864   2.596
 2205TIP3   OH2 6620   2.775   5.649   0.646
 2205TIP3    H1 6621   2.795   5.712   0.716
 2205TIP3    H2 6622   2.850   5.589   0.646
 2206TIP3   OH2 6623   6.273   5.477   4.532
 2206TIP3    H1 6624   6.280   5.572   4.527
 2206TIP3    H2 6625   6.324   5.452   4.609
 2207TIP3   OH2 6626   5.213   2.325   0.134
 2207TIP3    H1 6627   5.295   2.336   0.087
 2207TIP3    H2 6628   5.147   2.316   0.066
 2208TIP3   OH2 6629   4.743   1.490   1.027
 2208TIP3    H1 6630   4.785   1.532   1.102
 2208TIP3    H2 6631   4.816   1.459   0.973
 2209TIP3   OH2 6632   2.577   1.005   3.591
 2209TIP3    H1 6633   2.602   0.984   3.501
 2209TIP3    H2 6634   2.488   1.041   3.583
 2210TIP3   OH2 6635   1.130   0.017   1.277
 2210TIP3    H1 6636   1.059   0.058   1.325
 2210TIP3    H2 6637   1.199   0.003   1.342
 2211TIP3   OH2 6638   2.697   1.833   1.001
 2211TIP3    H1 6639   2.619   1.882   0.977
 2211TIP3    H2 6640   2.664   1.763   1.058
 2212TIP3   OH2 6641   5.083   3.312   0.849
 2212TIP3    H1 6642   5.046   3.310   0.760
 2212TIP3    H2 6643   5.099   3.404   0.866
 2213TIP3   OH2 6644   2.113   3.618   3.234
 2213TIP3    H1 6645   2.204   3.616   3.203
 2213TIP3    H2 6646   2.120   3.595   3.327
 2214TIP3   OH2 6647   2.710   2.618   2.776
 2214TIP3    H1 6648   2.644   2.550   2.793
 2214TIP3    H2 6649   2.674   2.696   2.817
 2215TIP3   OH2 6650   3.806   1.651   0.862
 2215TIP3    H1 6651   3.724   1.699   0.880
 2215TIP3    H2 6652   3.829   1.676   0.773
 2216TIP3   OH2 6653   1.403   1.675   1.935
 2216TIP3    H1 6654   1.417   1.721   2.018
 2216TIP3    H2 6655   1.309   1.659   1.932
 2217TIP3   OH2 6656   0.146   1.792   3.002
 2217TIP3    H1 6657   0.237   1.822   3.009
 2217TIP3    H2 6658   0.149   1.700   3.026
 2218TIP3   OH2 6659   5.049   4.852   3.926
 2218TIP3    H1 6660   5.053   4.758   3.946
 2218TIP3    H2 6661   5.080   4.859   3.836
 2219TIP3   OH2 6662   5.888   3.696   0.262
 2219TIP3    H1 6663   5.929   3.634   0.202
 2219TIP3    H2 6664   5.943   3.774   0.257
 2220TIP3   OH2 6665   3.622   5.425   0.374
 2220TIP3    H1 6666   3.628   5.520   0.385
 2220TIP3    H2 6667   3.708   5.392   0.401
 2221TIP3   OH2 6668   3.377   0.090   2.539
 2221TIP3    H1 6669   3.325   0.015   2.568
 2221TIP3    H2 6670   3.313   0.160   2.528
 2222TIP3   OH2 6671   6.342   2.715   1.346
 2222TIP3    H1 6672   6.260   2.690   1.387
 2222TIP3    H2 6673   6.320   2.792   1.292
 2223TIP3   OH2 6674   3.921   4.349   2.377
 2223TIP3    H1 6675   3.865   4.316   2.447
 2223TIP3    H2 6676   3.887   4.436   2.358
 2224TIP3   OH2 6677   4.150   1.814   4.396
 2224TIP3    H1 6678   4.238   1.777   4.381
 2224TIP3    H2 6679   4.162   1.908   4.386
 2225TIP3   OH2 6680   5.780   1.740   2.626
 2225TIP3    H1 6681   5.847   1.794   2.668
 2225TIP3    H2 6682   5.814   1.650   2.631
 2226TIP3   OH2 6683   6.002   1.697   1.805
 2226TIP3    H1 6684   6.081   1.724   1.758
 2226TIP3    H2 6685   6.027   1.698   1.898
 2227TIP3   OH2 6686   1.807   3.065   0.413
 2227TIP3    H1 6687   1.815   3.122   0.336
 2227TIP3    H2 6688   1.748   3.112   0.472
 2228TIP3   OH2 6689   3.871   1.646   1.993
 2228TIP3    H1 6690   3.814   1.598   2.054
 2228TIP3    H2 6691   3.959   1.635   2.028
 2229TIP3   OH2 6692   1.206   3.489   2.193
 2229TIP3    H1 6693   1.131   3.549   2.185
 2229TIP3    H2 6694   1.250   3.517   2.273
 2230TIP3   OH2 6695   3.167   4.125   1.369
 2230TIP3    H1 6696   3.232   4.152   1.434
 2230TIP3    H2 6697   3.218   4.112   1.289
 2231TIP3   OH2 6698   2.155   4.233   3.351
 2231TIP3    H1 6699   2.177   4.321   3.382
 2231TIP3    H2 6700   2.059   4.232   3.347
 2232TIP3   OH2 6701   1.791   2.205   1.975
 2232TIP3    H1 6702   1.701   2.204   1.941
 2232TIP3    H2 6703   1.798   2.289   2.020
 2233TIP3   OH2 6704   0.481   2.396   4.597
 2233TIP3    H1 6705   0.423   2.328   4.630
 2233TIP3    H2 6706   0.437   2.430   4.519
 2234TIP3   OH2 6707   1.063   2.773   1.629
 2234TIP3    H1 6708   1.010   2.707   1.673
 2234TIP3    H2 6709   1.096   2.728   1.551
 2235TIP3   OH2 6710   4.083   0.708   2.066
 2235TIP3    H1 6711   4.132   0.705   1.983
 2235TIP3    H2 6712   4.011   0.646   2.052
 2236TIP3   OH2 6713   4.199   1.879   0.359
 2236TIP3    H1 6714   4.254   1.825   0.417
 2236TIP3    H2 6715   4.232   1.968   0.372
 2237TIP3   OH2 6716   3.856   4.598   3.605
 2237TIP3    H1 6717   3.938   4.642   3.585
 2237TIP3    H2 6718   3.867   4.564   3.694
 2238TIP3   OH2 6719   5.544   1.231   0.213
 2238TIP3    H1 6720   5.548   1.139   0.187
 2238TIP3    H2 6721   5.621   1.270   0.171
 2239TIP3   OH2 6722   3.905   5.746   0.368
 2239TIP3    H1 6723   3.865   5.821   0.412
 2239TIP3    H2 6724   3.858   5.670   0.403
 2240TIP3   OH2 6725   2.668   2.553   3.570
 2240TIP3    H1 6726   2.752   2.533   3.609
 2240TIP3    H2 6727   2.658   2.647   3.580
 2241TIP3   OH2 6728   4.960   4.685   5.211
 2241TIP3    H1 6729   5.021   4.754   5.186
 2241TIP3    H2 6730   4.873   4.724   5.200
 2242TIP3   OH2 6731   4.759   2.537   1.248
 2242TIP3    H1 6732   4.794   2.618   1.286
 2242TIP3    H2 6733   4.747   2.558   1.155
 2243TIP3   OH2 6734   5.721   1.092   1.056
 2243TIP3    H1 6735   5.646   1.148   1.037
 2243TIP3    H2 6736   5.739   1.047   0.973
 2244TIP3   OH2 6737   5.402   5.234   0.347
 2244TIP3    H1 6738   5.440   5.146   0.344
 2244TIP3    H2 6739   5.461   5.282   0.405
 2245TIP3   OH2 6740   3.313   2.355   0.674
 2245TIP3    H1 6741   3.311   2.317   0.587
 2245TIP3    H2 6742   3.228   2.333   0.712
 2246TIP3   OH2 6743   0.900   2.715   1.919
 2246TIP3    H1 6744   0.943   2.658   1.856
 2246TIP3    H2 6745   0.813   2.730   1.883
 2247TIP3   OH2 6746   6.238   5.813   3.009
 2247TIP3    H1 6747   6.160   5.869   3.012
 2247TIP3    H2 6748   6.307   5.867   3.047
 2248TIP3   OH2 6749   3.370   4.524   0.680
 2248TIP3    H1 6750   3.380   4.539   0.773
 2248TIP3    H2 6751   3.336   4.435   0.674
 2249TIP3   OH2 6752   5.260   1.559   4.406
 2249TIP3    H1 6753   5.325   1.593   4.345
 2249TIP3    H2 6754   5.298   1.573   4.493
 2250TIP3   OH2 6755   3.875   0.970   2.021
 2250TIP3    H1 6756   3.937   0.905   1.988
 2250TIP3    H2 6757   3.824   0.924   2.087
 2251TIP3   OH2 6758   5.538   2.993   3.772
 2251TIP3    H1 6759   5.553   2.946   3.690
 2251TIP3    H2 6760   5.592   2.946   3.836
 2252TIP3   OH2 6761   1.742   1.437   1.144
 2252TIP3    H1 6762   1.734   1.416   1.051
 2252TIP3    H2 6763   1.797   1.366   1.179
 2253TIP3   OH2 6764   4.662   4.773   1.244
 2253TIP3    H1 6765   4.623   4.713   1.308
 2253TIP3    H2 6766   4.708   4.716   1.183
 2254TIP3   OH2 6767   1.975   4.029   1.664
 2254TIP3    H1 6768   1.916   3.955   1.669
 2254TIP3    H2 6769   2.042   4.012   1.731
 2255TIP3   OH2 6770   2.303   5.693   2.764
 2255TIP3    H1 6771   2.257   5.770   2.729
 2255TIP3    H2 6772   2.247   5.619   2.742
 2256TIP3   OH2 6773   0.506   1.167   4.077
 2256TIP3    H1 6774   0.423   1.211   4.058
 2256TIP3    H2 6775   0.570   1.238   4.085
 2257TIP3   OH2 6776   0.504   1.758   1.377
 2257TIP3    H1 6777   0.584   1.721   1.337
 2257TIP3    H2 6778   0.470   1.818   1.310
 2258TIP3   OH2 6779   4.172   4.529   3.766
 2258TIP3    H1 6780   4.153   4.608   3.716
 2258TIP3    H2 6781   4.265   4.513   3.752
 2259TIP3   OH2 6782   0.948   4.011   5.063
 2259TIP3    H1 6783   1.008   4.008   4.988
 2259TIP3    H2 6784   0.998   4.054   5.132
 2260TIP3   OH2 6785   5.662   4.617   3.187
 2260TIP3    H1 6786   5.731   4.568   3.233
 2260TIP3    H2 6787   5.597   4.634   3.255
 2261TIP3   OH2 6788   4.185   1.649   3.577
 2261TIP3    H1 6789   4.195   1.734   3.618
 2261TIP3    H2 6790   4.151   1.668   3.490
 2262TIP3   OH2 6791   5.416   2.418   4.799
 2262TIP3    H1 6792   5.329   2.425   4.760
 2262TIP3    H2 6793   5.449   2.507   4.800
 2263TIP3   OH2 6794   2.601   3.898   0.379
 2263TIP3    H1 6795   2.561   3.925   0.462
 2263TIP3    H2 6796   2.681   3.950   0.373
 2264TIP3   OH2 6797   2.358   3.435   4.726
 2264TIP3    H1 6798   2.319   3.475   4.804
 2264TIP3    H2 6799   2.369   3.507   4.665
 2265TIP3   OH2 6800   3.426   2.199   1.687
 2265TIP3    H1 6801   3.425   2.148   1.606
 2265TIP3    H2 6802   3.413   2.134   1.756
 2266TIP3   OH2 6803   3.479   0.330   1.170
 2266TIP3    H1 6804   3.480   0.390   1.244
 2266TIP3    H2 6805   3.395   0.284   1.178
 2267TIP3   OH2 6806   3.661   2.185   0.866
 2267TIP3    H1 6807   3.740   2.145   0.904
 2267TIP3    H2 6808   3.695   2.252   0.807
 2268TIP3   OH2 6809   3.432   0.551   4.085
 2268TIP3    H1 6810   3.481   0.470   4.074
 2268TIP3    H2 6811   3.488   0.606   4.140
 2269TIP3   OH2 6812   4.854   2.282   1.290
 2269TIP3    H1 6813   4.844   2.373   1.263
 2269TIP3    H2 6814   4.778   2.267   1.347
 2270TIP3   OH2 6815   6.224   0.494   3.847
 2270TIP3    H1 6816   6.206   0.400   3.852
 2270TIP3    H2 6817   6.247   0.509   3.755
 2271TIP3   OH2 6818   4.755   0.455   4.470
 2271TIP3    H1 6819   4.785   0.367   4.447
 2271TIP3    H2 6820   4.750   0.454   4.566
 2272TIP3   OH2 6821   3.175   3.873   4.887
 2272TIP3    H1 6822   3.113   3.940   4.917
 2272TIP3    H2 6823   3.139   3.791   4.921
 2273TIP3   OH2 6824   4.690   3.236   2.004
 2273TIP3    H1 6825   4.725   3.162   1.955
 2273TIP3    H2 6826   4.656   3.198   2.085
 2274TIP3   OH2 6827   3.678   3.965   2.980
 2274TIP3    H1 6828   3.604   4.021   2.960
 2274TIP3    H2 6829   3.724   4.010   3.051
 2275TIP3   OH2 6830   5.753   1.875   1.065
 2275TIP3    H1 6831   5.743   1.780   1.071
 2275TIP3    H2 6832   5.846   1.888   1.047
 2276TIP3   OH2 6833   1.019   5.225   1.246
 2276TIP3    H1 6834   1.020   5.181   1.161
 2276TIP3    H2 6835   0.945   5.185   1.292
 2277TIP3   OH2 6836   3.759   0.936   0.844
 2277TIP3    H1 6837   3.740   0.864   0.784
 2277TIP3    H2 6838   3.725   1.014   0.799
 2278TIP3   OH2 6839   1.621   5.906   0.985
 2278TIP3    H1 6840   1.564   5.853   0.930
 2278TIP3    H2 6841   1.580   5.993   0.985
 2279TIP3   OH2 6842   0.625   2.196   1.060
 2279TIP3    H1 6843   0.713   2.233   1.066
 2279TIP3    H2 6844   0.575   2.261   1.010
 2280TIP3   OH2 6845   1.503   2.996   0.249
 2280TIP3    H1 6846   1.563   2.945   0.195
 2280TIP3    H2 6847   1.513   3.086   0.218
 2281TIP3   OH2 6848   6.003   3.996   4.890
 2281TIP3    H1 6849   5.925   4.052   4.900
 2281TIP3    H2 6850   5.985   3.942   4.813
 2282TIP3   OH2 6851   1.684   0.681   0.921
 2282TIP3    H1 6852   1.660   0.729   1.000
 2282TIP3    H2 6853   1.614   0.617   0.910
 2283TIP3   OH2 6854   1.531   3.529   3.299
 2283TIP3    H1 6855   1.516   3.618   3.267
 2283TIP3    H2 6856   1.492   3.529   3.387
 2284TIP3   OH2 6857   1.247   1.516   2.566
 2284TIP3    H1 6858   1.214   1.588   2.620
 2284TIP3    H2 6859   1.214   1.437   2.608
 2285TIP3   OH2 6860   3.095   2.860   3.937
 2285TIP3    H1 6861   3.127   2.950   3.926
 2285TIP3    H2 6862   3.174   2.808   3.951
 2286TIP3   OH2 6863   1.129   3.824   4.061
 2286TIP3    H1 6864   1.186   3.750   4.082
 2286TIP3    H2 6865   1.180   3.877   4.000
 2287TIP3   OH2 6866   1.649   4.907   2.723
 2287TIP3    H1 6867   1.681   4.925   2.812
 2287TIP3    H2 6868   1.726   4.879   2.674
 2288TIP3   OH2 6869   0.062   0.993   4.450
 2288TIP3    H1 6870  -0.005   0.961   4.511
 2288TIP3    H2 6871   0.048   0.942   4.371
 2289TIP3   OH2 6872   3.504   2.979   4.813
 2289TIP3    H1 6873   3.598   2.975   4.795
 2289TIP3    H2 6874   3.494   2.948   4.903
 2290TIP3   OH2 6875   4.729   4.648   4.466
 2290TIP3    H1 6876   4.646   4.648   4.419
 2290TIP3    H2 6877   4.728   4.567   4.517
 2291TIP3   OH2 6878   2.138   2.074   3.082
 2291TIP3    H1 6879   2.054   2.101   3.117
 2291TIP3    H2 6880   2.186   2.038   3.157
 2292TIP3   OH2 6881   4.200   3.972   1.831
 2292TIP3    H1 6882   4.184   3.888   1.789
 2292TIP3    H2 6883   4.118   4.021   1.819
 2293TIP3   OH2 6884   1.631   2.641   3.972
 2293TIP3    H1 6885   1.589   2.585   3.907
 2293TIP3    H2 6886   1.723   2.642   3.946
 2294TIP3   OH2 6887   1.690   4.009   2.857
 2294TIP3    H1 6888   1.761   3.986   2.917
 2294TIP3    H2 6889   1.716   4.093   2.820
 2295TIP3   OH2 6890   0.105   3.598   0.062
 2295TIP3    H1 6891   0.053   3.520   0.043
 2295TIP3    H2 6892   0.053   3.670   0.026
 2296TIP3   OH2 6893   4.344   3.125   2.223
 2296TIP3    H1 6894   4.386   3.151   2.306
 2296TIP3    H2 6895   4.276   3.191   2.209
 2297TIP3   OH2 6896   3.605   5.034   0.640
 2297TIP3    H1 6897   3.604   5.049   0.546
 2297TIP3    H2 6898   3.565   5.112   0.678
 2298TIP3   OH2 6899   6.290   3.360   2.877
 2298TIP3    H1 6900   6.353   3.431   2.871
 2298TIP3    H2 6901   6.246   3.374   2.961
 2299TIP3   OH2 6902   3.669   4.114   2.231
 2299TIP3    H1 6903   3.741   4.103   2.169
 2299TIP3    H2 6904   3.610   4.041   2.212
 2300TIP3   OH2 6905   6.326   3.009   0.727
 2300TIP3    H1 6906   6.273   3.086   0.745
 2300TIP3    H2 6907   6.353   3.020   0.636
 2301TIP3   OH2 6908   5.751   5.288   3.424
 2301TIP3    H1 6909   5.748   5.194   3.406
 2301TIP3    H2 6910   5.660   5.315   3.426
 2302TIP3   OH2 6911   0.684   5.372   0.057
 2302TIP3    H1 6912   0.652   5.306  -0.004
 2302TIP3    H2 6913   0.728   5.321   0.125
 2303TIP3   OH2 6914   1.360   4.159   2.684
 2303TIP3    H1 6915   1.430   4.103   2.651
 2303TIP3    H2 6916   1.318   4.194   2.606
 2304TIP3   OH2 6917   1.950   1.065   3.472
 2304TIP3    H1 6918   1.969   1.024   3.387
 2304TIP3    H2 6919   1.855   1.059   3.481
 2305TIP3   OH2 6920   2.622   2.035   0.667
 2305TIP3    H1 6921   2.652   2.063   0.580
 2305TIP3    H2 6922   2.644   2.108   0.724
 2306TIP3   OH2 6923   5.075   4.966   4.648
 2306TIP3    H1 6924   5.130   5.037   4.617
 2306TIP3    H2 6925   5.039   4.927   4.569
 2307TIP3   OH2 6926   3.305   3.037   3.217
 2307TIP3    H1 6927   3.276   3.098   3.149
 2307TIP3    H2 6928   3.292   3.084   3.299
 2308TIP3   OH2 6929   5.499   5.322   2.035
 2308TIP3    H1 6930   5.424   5.283   2.079
 2308TIP3    H2 6931   5.463   5.359   1.955
 2309TIP3   OH2 6932   2.673   4.831   1.561
 2309TIP3    H1 6933   2.582   4.860   1.554
 2309TIP3    H2 6934   2.703   4.865   1.645
 2310TIP3   OH2 6935   2.520   1.672   4.742
 2310TIP3    H1 6936   2.463   1.610   4.697
 2310TIP3    H2 6937   2.464   1.715   4.806
 2311TIP3   OH2 6938   5.854   0.946   1.572
 2311TIP3    H1 6939   5.818   0.922   1.487
 2311TIP3    H2 6940   5.864   1.041   1.568
 2312TIP3   OH2 6941   5.345   3.179   4.742
 2312TIP3    H1 6942   5.384   3.093   4.728
 2312TIP3    H2 6943   5.254   3.161   4.764
 2313TIP3   OH2 6944   5.256   3.568   0.876
 2313TIP3    H1 6945   5.178   3.593   0.925
 2313TIP3    H2 6946   5.276   3.645   0.822
 2314TIP3   OH2 6947   0.082   4.789   0.153
 2314TIP3    H1 6948   0.088   4.746   0.238
 2314TIP3    H2 6949   0.139   4.866   0.161
 2315TIP3   OH2 6950   0.421   3.372   4.703
 2315TIP3    H1 6951   0.449   3.464   4.706
 2315TIP3    H2 6952   0.446   3.342   4.616
 2316TIP3   OH2 6953   2.323   2.671   0.203
 2316TIP3    H1 6954   2.268   2.654   0.280
 2316TIP3    H2 6955   2.385   2.598   0.201
 2317TIP3   OH2 6956   5.923   5.723   3.289
 2317TIP3    H1 6957   5.913   5.685   3.376
 2317TIP3    H2 6958   5.841   5.769   3.273
 2318TIP3   OH2 6959   0.446   1.615   2.114
 2318TIP3    H1 6960   0.442   1.679   2.185
 2318TIP3    H2 6961   0.524   1.563   2.133
 2319TIP3   OH2 6962   3.619   0.354   3.057
 2319TIP3    H1 6963   3.672   0.372   3.135
 2319TIP3    H2 6964   3.683   0.341   2.987
 2320TIP3   OH2 6965   3.866   2.005   1.409
 2320TIP3    H1 6966   3.821   1.962   1.337
 2320TIP3    H2 6967   3.813   2.083   1.427
 2321TIP3   OH2 6968   5.381   0.361   3.188
 2321TIP3    H1 6969   5.328   0.371   3.108
 2321TIP3    H2 6970   5.318   0.374   3.259
 2322TIP3   OH2 6971   5.738   3.571   2.699
 2322TIP3    H1 6972   5.783   3.488   2.712
 2322TIP3    H2 6973   5.804   3.628   2.660
 2323TIP3   OH2 6974   4.338   0.511   2.283
 2323TIP3    H1 6975   4.416   0.564   2.300
 2323TIP3    H2 6976   4.350   0.480   2.193
 2324TIP3   OH2 6977   6.341   4.186   1.078
 2324TIP3    H1 6978   6.315   4.204   1.168
 2324TIP3    H2 6979   6.303   4.258   1.027
 2325TIP3   OH2 6980   4.807   2.115   1.856
 2325TIP3    H1 6981   4.833   2.076   1.772
 2325TIP3    H2 6982   4.881   2.097   1.915
 2326TIP3   OH2 6983   6.288   3.925   3.110
 2326TIP3    H1 6984   6.291   3.925   3.205
 2326TIP3    H2 6985   6.284   3.832   3.086
 2327TIP3   OH2 6986   4.858   0.678   3.387
 2327TIP3    H1 6987   4.898   0.593   3.407
 2327TIP3    H2 6988   4.772   0.674   3.429
 2328TIP3   OH2 6989   0.238   4.479   4.989
 2328TIP3    H1 6990   0.229   4.422   5.065
 2328TIP3    H2 6991   0.165   4.456   4.932
 2329TIP3   OH2 6992   3.879   1.293   3.698
 2329TIP3    H1 6993   3.943   1.241   3.746
 2329TIP3    H2 6994   3.901   1.384   3.719
 2330TIP3   OH2 6995   4.497   0.051   3.053
 2330TIP3    H1 6996   4.524   0.032   2.963
 2330TIP3    H2 6997   4.408   0.015   3.059
 2331TIP3   OH2 6998   0.003   5.874   1.607
 2331TIP3    H1 6999  -0.025   5.789   1.641
 2331TIP3    H2 7000   0.095   5.861   1.583
 2332TIP3   OH2 7001   5.681   3.254   1.407
 2332TIP3    H1 7002   5.662   3.250   1.501
 2332TIP3    H2 7003   5.631   3.329   1.375
 2333TIP3   OH2 7004   5.988   1.861   3.360
 2333TIP3    H1 7005   6.051   1.907   3.416
 2333TIP3    H2 7006   5.982   1.915   3.281
 2334TIP3   OH2 7007   2.327   0.419   0.085
 2334TIP3    H1 7008   2.278   0.448   0.161
 2334TIP3    H2 7009   2.265   0.367   0.035
 2335TIP3   OH2 7010   0.940   0.629   5.132
 2335TIP3    H1 7011   0.863   0.597   5.178
 2335TIP3    H2 7012   0.905   0.667   5.051
 2336TIP3   OH2 7013   2.441   5.216   0.830
 2336TIP3    H1 7014   2.460   5.204   0.737
 2336TIP3    H2 7015   2.498   5.287   0.857
 2337TIP3   OH2 7016   1.994   0.443   1.349
 2337TIP3    H1 7017   1.949   0.523   1.320
 2337TIP3    H2 7018   2.060   0.473   1.412
 2338TIP3   OH2 7019   0.155   0.985   2.644
 2338TIP3    H1 7020   0.232   1.016   2.692
 2338TIP3    H2 7021   0.191   0.949   2.564
 2339TIP3   OH2 7022   3.671   3.779   1.233
 2339TIP3    H1 7023   3.762   3.758   1.210
 2339TIP3    H2 7024   3.648   3.852   1.176
 2340TIP3   OH2 7025   5.285   5.930   4.103
 2340TIP3    H1 7026   5.301   6.005   4.160
 2340TIP3    H2 7027   5.259   5.969   4.019
 2341TIP3   OH2 7028   1.835   4.548   4.570
 2341TIP3    H1 7029   1.879   4.578   4.650
 2341TIP3    H2 7030   1.886   4.473   4.541
 2342TIP3   OH2 7031   2.942   3.802   0.538
 2342TIP3    H1 7032   3.010   3.760   0.484
 2342TIP3    H2 7033   2.900   3.730   0.584
 2343TIP3   OH2 7034   4.474   3.668   3.000
 2343TIP3    H1 7035   4.405   3.733   3.018
 2343TIP3    H2 7036   4.516   3.700   2.920
 2344TIP3   OH2 7037   2.995   5.500   1.259
 2344TIP3    H1 7038   2.909   5.477   1.225
 2344TIP3    H2 7039   2.997   5.463   1.347
 2345TIP3   OH2 7040   2.222   4.198   2.515
 2345TIP3    H1 7041   2.210   4.292   2.521
 2345TIP3    H2 7042   2.234   4.170   2.606
 2346TIP3   OH2 7043   2.775   1.053   4.416
 2346TIP3    H1 7044   2.868   1.055   4.393
 2346TIP3    H2 7045   2.758   1.137   4.457
 2347TIP3   OH2 7046   4.319   0.876   3.258
 2347TIP3    H1 7047   4.352   0.950   3.207
 2347TIP3    H2 7048   4.250   0.914   3.313
 2348TIP3   OH2 7049   5.900   5.415   2.164
 2348TIP3    H1 7050   5.905   5.499   2.119
 2348TIP3    H2 7051   5.915   5.350   2.095
 2349TIP3   OH2 7052   1.728   5.421   3.420
 2349TIP3    H1 7053   1.798   5.416   3.355
 2349TIP3    H2 7054   1.740   5.343   3.474
 2350TIP3   OH2 7055   2.648   1.530   1.646
 2350TIP3    H1 7056   2.684   1.491   1.726
 2350TIP3    H2 7057   2.553   1.517   1.654
 2351TIP3   OH2 7058   1.674   1.192   2.039
 2351TIP3    H1 7059   1.675   1.153   2.126
 2351TIP3    H2 7060   1.698   1.121   1.980
 2352TIP3   OH2 7061   0.644   2.833   5.014
 2352TIP3    H1 7062   0.584   2.770   4.974
 2352TIP3    H2 7063   0.685   2.785   5.086
 2353TIP3   OH2 7064   2.675   0.095   4.741
 2353TIP3    H1 7065   2.761   0.071   4.775
 2353TIP3    H2 7066   2.636   0.150   4.809
 2354TIP3   OH2 7067   1.423   0.994   2.213
 2354TIP3    H1 7068   1.516   0.984   2.231
 2354TIP3    H2 7069   1.379   0.935   2.275
 2355TIP3   OH2 7070   3.778   3.054   4.854
 2355TIP3    H1 7071   3.859   3.058   4.905
 2355TIP3    H2 7072   3.755   3.146   4.839
 2356TIP3   OH2 7073   2.666   4.274   0.606
 2356TIP3    H1 7074   2.670   4.285   0.511
 2356TIP3    H2 7075   2.702   4.187   0.621
 2357TIP3   OH2 7076   6.189   4.937   0.064
 2357TIP3    H1 7077   6.279   4.904   0.063
 2357TIP3    H2 7078   6.165   4.939   0.157
 2358TIP3   OH2 7079   0.954   3.238   3.166
 2358TIP3    H1 7080   0.934   3.235   3.259
 2358TIP3    H2 7081   0.946   3.147   3.137
 2359TIP3   OH2 7082   3.852   2.847   0.384
 2359TIP3    H1 7083   3.925   2.847   0.323
 2359TIP3    H2 7084   3.775   2.828   0.330
 2360TIP3   OH2 7085   3.371   0.918   4.127
 2360TIP3    H1 7086   3.462   0.926   4.099
 2360TIP3    H2 7087   3.374   0.861   4.204
 2361TIP3   OH2 7088   1.132   3.608   0.867
 2361TIP3    H1 7089   1.067   3.676   0.855
 2361TIP3    H2 7090   1.215   3.650   0.846
 2362TIP3   OH2 7091   1.356   2.217   4.033
 2362TIP3    H1 7092   1.379   2.162   3.958
 2362TIP3    H2 7093   1.267   2.190   4.056
 2363TIP3   OH2 7094   0.053   1.731   3.560
 2363TIP3    H1 7095   0.002   1.662   3.602
 2363TIP3    H2 7096   0.074   1.697   3.474
 2364TIP3   OH2 7097   2.571   0.942   1.778
 2364TIP3    H1 7098   2.551   0.992   1.699
 2364TIP3    H2 7099   2.629   1.000   1.828
 2365TIP3   OH2 7100   0.406   4.776   1.082
 2365TIP3    H1 7101   0.484   4.786   1.137
 2365TIP3    H2 7102   0.441   4.759   0.994
 2366TIP3   OH2 7103   2.959   2.013   4.091
 2366TIP3    H1 7104   2.898   1.973   4.153
 2366TIP3    H2 7105   2.962   2.106   4.116
 2367TIP3   OH2 7106   4.918   1.986   3.713
 2367TIP3    H1 7107   4.993   2.045   3.703
 2367TIP3    H2 7108   4.861   2.031   3.776
 2368TIP3   OH2 7109   2.977   4.391   0.800
 2368TIP3    H1 7110   3.045   4.398   0.867
 2368TIP3    H2 7111   2.966   4.297   0.787
 2369TIP3   OH2 7112   0.935   3.334   1.627
 2369TIP3    H1 7113   0.994   3.279   1.576
 2369TIP3    H2 7114   0.961   3.424   1.606
 2370TIP3   OH2 7115   0.883   5.029   4.992
 2370TIP3    H1 7116   0.857   4.947   4.950
 2370TIP3    H2 7117   0.900   5.005   5.083
 2371TIP3   OH2 7118   4.237   1.215   3.588
 2371TIP3    H1 7119   4.186   1.280   3.540
 2371TIP3    H2 7120   4.305   1.266   3.632
 2372TIP3   OH2 7121   0.318   2.542   4.115
 2372TIP3    H1 7122   0.375   2.598   4.062
 2372TIP3    H2 7123   0.229   2.566   4.087
 2373TIP3   OH2 7124   1.614   1.607   2.126
 2373TIP3    H1 7125   1.674   1.534   2.111
 2373TIP3    H2 7126   1.585   1.632   2.038
 2374TIP3   OH2 7127   4.179   5.258   3.532
 2374TIP3    H1 7128   4.110   5.210   3.486
 2374TIP3    H2 7129   4.133   5.332   3.572
 2375TIP3   OH2 7130   4.260   1.507   1.255
 2375TIP3    H1 7131   4.269   1.412   1.252
 2375TIP3    H2 7132   4.167   1.522   1.273
 2376TIP3   OH2 7133   1.544   2.446   0.435
 2376TIP3    H1 7134   1.634   2.468   0.412
 2376TIP3    H2 7135   1.519   2.511   0.500
 2377TIP3   OH2 7136   4.927   5.688   2.962
 2377TIP3    H1 7137   4.936   5.779   2.990
 2377TIP3    H2 7138   4.986   5.639   3.019
 2378TIP3   OH2 7139   3.939   1.717   2.753
 2378TIP3    H1 7140   3.978   1.722   2.840
 2378TIP3    H2 7141   3.992   1.776   2.699
 2379TIP3   OH2 7142   2.730   5.028   0.266
 2379TIP3    H1 7143   2.792   4.977   0.214
 2379TIP3    H2 7144   2.657   5.044   0.207
 2380TIP3   OH2 7145   4.185   0.070   3.553
 2380TIP3    H1 7146   4.273   0.057   3.520
 2380TIP3    H2 7147   4.197   0.112   3.638
 2381TIP3   OH2 7148   6.119   2.602   1.488
 2381TIP3    H1 7149   6.124   2.689   1.527
 2381TIP3    H2 7150   6.046   2.606   1.428
 2382TIP3   OH2 7151   0.637   4.903   1.395
 2382TIP3    H1 7152   0.585   4.981   1.413
 2382TIP3    H2 7153   0.724   4.923   1.427
 2383TIP3   OH2 7154   6.175   4.366   1.266
 2383TIP3    H1 7155   6.186   4.435   1.332
 2383TIP3    H2 7156   6.230   4.294   1.298
 2384TIP3   OH2 7157   0.646   5.745   2.171
 2384TIP3    H1 7158   0.717   5.739   2.107
 2384TIP3    H2 7159   0.589   5.814   2.137
 2385TIP3   OH2 7160   3.548   0.130   0.691
 2385TIP3    H1 7161   3.639   0.112   0.665
 2385TIP3    H2 7162   3.552   0.144   0.785
 2386TIP3   OH2 7163   1.286   0.327   2.753
 2386TIP3    H1 7164   1.303   0.318   2.659
 2386TIP3    H2 7165   1.342   0.262   2.794
 2387TIP3   OH2 7166   2.249   3.993   1.344
 2387TIP3    H1 7167   2.344   3.985   1.333
 2387TIP3    H2 7168   2.216   4.001   1.254
 2388TIP3   OH2 7169   0.731   1.272   5.034
 2388TIP3    H1 7170   0.777   1.188   5.034
 2388TIP3    H2 7171   0.697   1.281   5.123
 2389TIP3   OH2 7172   4.871   4.475   1.638
 2389TIP3    H1 7173   4.873   4.439   1.727
 2389TIP3    H2 7174   4.795   4.534   1.638
 2390TIP3   OH2 7175   0.303   5.918   3.452
 2390TIP3    H1 7176   0.266   6.002   3.424
 2390TIP3    H2 7177   0.397   5.934   3.457
 2391TIP3   OH2 7178   5.570   0.332   4.409
 2391TIP3    H1 7179   5.640   0.338   4.344
 2391TIP3    H2 7180   5.609   0.285   4.482
 2392TIP3   OH2 7181   4.498   0.251   2.383
 2392TIP3    H1 7182   4.430   0.251   2.451
 2392TIP3    H2 7183   4.558   0.320   2.409
 2393TIP3   OH2 7184   0.053   3.844   0.375
 2393TIP3    H1 7185   0.123   3.780   0.385
 2393TIP3    H2 7186  -0.013   3.817   0.440
 2394TIP3   OH2 7187   1.883   5.824   0.972
 2394TIP3    H1 7188   1.895   5.822   1.067
 2394TIP3    H2 7189   1.789   5.838   0.960
 2395TIP3   OH2 7190   1.818   1.996   0.273
 2395TIP3    H1 7191   1.862   2.064   0.222
 2395TIP3    H2 7192   1.879   1.977   0.345
 2396TIP3   OH2 7193   2.157   2.821   3.329
 2396TIP3    H1 7194   2.240   2.777   3.345
 2396TIP3    H2 7195   2.173   2.877   3.253
 2397TIP3   OH2 7196   1.647   0.691   2.503
 2397TIP3    H1 7197   1.603   0.629   2.562
 2397TIP3    H2 7198   1.602   0.774   2.517
 2398TIP3   OH2 7199   6.120   2.010   3.560
 2398TIP3    H1 7200   6.109   1.989   3.652
 2398TIP3    H2 7201   6.087   2.100   3.552
 2399TIP3   OH2 7202   2.584   2.523   4.038
 2399TIP3    H1 7203   2.566   2.444   3.988
 2399TIP3    H2 7204   2.530   2.516   4.116
 2400TIP3   OH2 7205   3.830   1.518   3.990
 2400TIP3    H1 7206   3.855   1.572   3.915
 2400TIP3    H2 7207   3.770   1.452   3.954
 2401TIP3   OH2 7208   1.074   2.401   4.954
 2401TIP3    H1 7209   1.029   2.348   4.889
 2401TIP3    H2 7210   1.111   2.474   4.904
 2402TIP3   OH2 7211   1.627   3.388   1.134
 2402TIP3    H1 7212   1.594   3.357   1.050
 2402TIP3    H2 7213   1.651   3.479   1.118
 2403TIP3   OH2 7214   4.950   1.327   0.939
 2403TIP3    H1 7215   4.922   1.337   0.848
 2403TIP3    H2 7216   5.045   1.321   0.934
 2404TIP3   OH2 7217   1.752   3.862   3.908
 2404TIP3    H1 7218   1.739   3.948   3.869
 2404TIP3    H2 7219   1.755   3.802   3.834
 2405TIP3   OH2 7220   5.550   0.967   3.833
 2405TIP3    H1 7221   5.457   0.945   3.833
 2405TIP3    H2 7222   5.572   0.983   3.742
 2406TIP3   OH2 7223   2.019   5.296   1.895
 2406TIP3    H1 7224   1.941   5.302   1.950
 2406TIP3    H2 7225   2.046   5.386   1.881
 2407TIP3   OH2 7226   3.698   0.679   3.204
 2407TIP3    H1 7227   3.650   0.667   3.286
 2407TIP3    H2 7228   3.682   0.770   3.179
 2408TIP3   OH2 7229   6.254   4.186   3.035
 2408TIP3    H1 7230   6.304   4.235   3.101
 2408TIP3    H2 7231   6.285   4.096   3.045
 2409TIP3   OH2 7232   5.659   0.200   0.638
 2409TIP3    H1 7233   5.578   0.242   0.666
 2409TIP3    H2 7234   5.634   0.111   0.614
 2410TIP3   OH2 7235   0.299   5.103   4.045
 2410TIP3    H1 7236   0.217   5.095   3.996
 2410TIP3    H2 7237   0.360   5.144   3.983
 2411TIP3   OH2 7238   5.155   0.218   3.622
 2411TIP3    H1 7239   5.221   0.202   3.554
 2411TIP3    H2 7240   5.205   0.251   3.697
 2412TIP3   OH2 7241   1.782   0.755   3.356
 2412TIP3    H1 7242   1.737   0.829   3.396
 2412TIP3    H2 7243   1.865   0.791   3.324
 2413TIP3   OH2 7244   0.883   4.861   3.264
 2413TIP3    H1 7245   0.919   4.773   3.273
 2413TIP3    H2 7246   0.913   4.890   3.177
 2414TIP3   OH2 7247   2.962   4.129   0.787
 2414TIP3    H1 7248   3.041   4.078   0.767
 2414TIP3    H2 7249   2.907   4.069   0.838
 2415TIP3   OH2 7250   2.992   4.419   4.137
 2415TIP3    H1 7251   3.074   4.376   4.159
 2415TIP3    H2 7252   3.006   4.511   4.157
 2416TIP3   OH2 7253   0.501   2.157   1.778
 2416TIP3    H1 7254   0.485   2.077   1.728
 2416TIP3    H2 7255   0.474   2.227   1.720
 2417TIP3   OH2 7256   0.133   2.578   5.103
 2417TIP3    H1 7257   0.151   2.505   5.044
 2417TIP3    H2 7258   0.061   2.625   5.061
 2418TIP3   OH2 7259   5.132   4.916   5.149
 2418TIP3    H1 7260   5.205   4.948   5.097
 2418TIP3    H2 7261   5.056   4.927   5.092
 2419TIP3   OH2 7262   2.414   4.778   3.870
 2419TIP3    H1 7263   2.507   4.800   3.863
 2419TIP3    H2 7264   2.376   4.847   3.925
 2420TIP3   OH2 7265   1.124   2.455   0.141
 2420TIP3    H1 7266   1.115   2.407   0.224
 2420TIP3    H2 7267   1.219   2.469   0.132
 2421TIP3   OH2 7268   1.317   5.546   3.655
 2421TIP3    H1 7269   1.361   5.604   3.717
 2421TIP3    H2 7270   1.387   5.496   3.615
 2422TIP3   OH2 7271   0.891   3.800   0.235
 2422TIP3    H1 7272   0.859   3.762   0.317
 2422TIP3    H2 7273   0.821   3.858   0.207
 2423TIP3   OH2 7274   5.926   2.292   2.554
 2423TIP3    H1 7275   5.979   2.275   2.633
 2423TIP3    H2 7276   5.990   2.322   2.489
 2424TIP3   OH2 7277   0.817   3.463   0.664
 2424TIP3    H1 7278   0.773   3.381   0.642
 2424TIP3    H2 7279   0.911   3.444   0.652
 2425TIP3   OH2 7280   4.852   2.018   1.589
 2425TIP3    H1 7281   4.836   1.928   1.615
 2425TIP3    H2 7282   4.924   2.012   1.526
 2426TIP3   OH2 7283   1.600   0.809   1.311
 2426TIP3    H1 7284   1.536   0.790   1.380
 2426TIP3    H2 7285   1.553   0.789   1.230
 2427TIP3   OH2 7286   1.280   0.699   0.911
 2427TIP3    H1 7287   1.261   0.619   0.862
 2427TIP3    H2 7288   1.198   0.749   0.908
 2428TIP3   OH2 7289   2.691   1.772   0.620
 2428TIP3    H1 7290   2.746   1.759   0.697
 2428TIP3    H2 7291   2.660   1.862   0.626
 2429TIP3   OH2 7292   6.198   5.736   3.582
 2429TIP3    H1 7293   6.202   5.715   3.489
 2429TIP3    H2 7294   6.279   5.784   3.600
 2430TIP3   OH2 7295   1.033   2.537   2.697
 2430TIP3    H1 7296   1.113   2.493   2.670
 2430TIP3    H2 7297   0.963   2.487   2.657
 2431TIP3   OH2 7298   0.468   1.838   3.894
 2431TIP3    H1 7299   0.469   1.923   3.938
 2431TIP3    H2 7300   0.383   1.835   3.850
 2432TIP3   OH2 7301   0.505   0.442   3.084
 2432TIP3    H1 7302   0.557   0.428   3.163
 2432TIP3    H2 7303   0.530   0.371   3.026
 2433TIP3   OH2 7304   5.543   4.362   0.020
 2433TIP3    H1 7305   5.630   4.374   0.058
 2433TIP3    H2 7306   5.488   4.334   0.093
 2434TIP3   OH2 7307   6.067   1.984   1.656
 2434TIP3    H1 7308   6.161   1.974   1.642
 2434TIP3    H2 7309   6.031   2.003   1.569
 2435TIP3   OH2 7310   0.539   5.434   2.478
 2435TIP3    H1 7311   0.627   5.407   2.452
 2435TIP3    H2 7312   0.486   5.355   2.466
 2436TIP3   OH2 7313   5.154   3.433   4.860
 2436TIP3    H1 7314   5.073   3.468   4.822
 2436TIP3    H2 7315   5.127   3.391   4.941
 2437TIP3   OH2 7316   2.676   5.167   5.048
 2437TIP3    H1 7317   2.682   5.215   5.130
 2437TIP3    H2 7318   2.753   5.196   4.998
 2438TIP3   OH2 7319   5.301   1.202   2.532
 2438TIP3    H1 7320   5.246   1.281   2.534
 2438TIP3    H2 7321   5.359   1.212   2.607
 2439TIP3   OH2 7322   1.652   1.998   2.124
 2439TIP3    H1 7323   1.686   1.990   2.214
 2439TIP3    H2 7324   1.698   2.074   2.089
 2440TIP3   OH2 7325   0.118   4.433   2.961
 2440TIP3    H1 7326   0.114   4.512   3.014
 2440TIP3    H2 7327   0.169   4.371   3.012
 2441TIP3   OH2 7328   0.849   2.811   2.880
 2441TIP3    H1 7329   0.921   2.750   2.895
 2441TIP3    H2 7330   0.891   2.894   2.861
 2442TIP3   OH2 7331   2.562   2.747   1.682
 2442TIP3    H1 7332   2.609   2.678   1.635
 2442TIP3    H2 7333   2.606   2.828   1.655
 2443TIP3   OH2 7334   2.619   2.931   1.436
 2443TIP3    H1 7335   2.560   2.974   1.498
 2443TIP3    H2 7336   2.699   2.915   1.485
 2444TIP3   OH2 7337   0.470   2.099   2.429
 2444TIP3    H1 7338   0.544   2.152   2.461
 2444TIP3    H2 7339   0.511   2.020   2.393
 2445TIP3   OH2 7340   0.710   2.830   1.284
 2445TIP3    H1 7341   0.714   2.740   1.250
 2445TIP3    H2 7342   0.709   2.885   1.206
 2446TIP3   OH2 7343   6.258   1.395   1.648
 2446TIP3    H1 7344   6.236   1.473   1.597
 2446TIP3    H2 7345   6.334   1.420   1.700
 2447TIP3   OH2 7346   2.562   2.082   2.427
 2447TIP3    H1 7347   2.506   2.035   2.365
 2447TIP3    H2 7348   2.633   2.116   2.373
 2448TIP3   OH2 7349   5.556   4.074   1.188
 2448TIP3    H1 7350   5.602   4.147   1.147
 2448TIP3    H2 7351   5.575   3.999   1.132
 2449TIP3   OH2 7352   5.959   5.898   3.561
 2449TIP3    H1 7353   6.018   5.918   3.488
 2449TIP3    H2 7354   6.017   5.879   3.634
 2450TIP3   OH2 7355   4.208   1.149   0.638
 2450TIP3    H1 7356   4.175   1.179   0.554
 2450TIP3    H2 7357   4.143   1.179   0.702
 2451TIP3   OH2 7358   4.506   3.577   0.172
 2451TIP3    H1 7359   4.435   3.640   0.187
 2451TIP3    H2 7360   4.473   3.495   0.209
 2452TIP3   OH2 7361   3.126   3.230   4.308
 2452TIP3    H1 7362   3.147   3.309   4.357
 2452TIP3    H2 7363   3.089   3.170   4.373
 2453TIP3   OH2 7364   5.473   5.250   1.185
 2453TIP3    H1 7365   5.400   5.188   1.190
 2453TIP3    H2 7366   5.544   5.200   1.145
 2454TIP3   OH2 7367   0.576   4.939   0.536
 2454TIP3    H1 7368   0.653   4.994   0.542
 2454TIP3    H2 7369   0.517   4.986   0.477
 2455TIP3   OH2 7370   4.206   2.941   4.938
 2455TIP3    H1 7371   4.163   2.910   4.858
 2455TIP3    H2 7372   4.299   2.944   4.915
 2456TIP3   OH2 7373   5.836   4.221   4.579
 2456TIP3    H1 7374   5.792   4.215   4.664
 2456TIP3    H2 7375   5.929   4.219   4.600
 2457TIP3   OH2 7376   2.565   4.998   0.045
 2457TIP3    H1 7377   2.572   5.025  -0.046
 2457TIP3    H2 7378   2.557   4.903   0.042
 2458TIP3   OH2 7379   6.187   5.642   1.181
 2458TIP3    H1 7380   6.268   5.691   1.194
 2458TIP3    H2 7381   6.160   5.618   1.269
 2459TIP3   OH2 7382   5.555   4.181   1.748
 2459TIP3    H1 7383   5.551   4.235   1.827
 2459TIP3    H2 7384   5.532   4.240   1.676
 2460TIP3   OH2 7385   1.278   0.587   4.565
 2460TIP3    H1 7386   1.275   0.682   4.569
 2460TIP3    H2 7387   1.366   0.563   4.593
 2461TIP3   OH2 7388   5.832   3.412   4.515
 2461TIP3    H1 7389   5.743   3.391   4.486
 2461TIP3    H2 7390   5.864   3.476   4.451
 2462TIP3   OH2 7391   5.434   1.243   4.537
 2462TIP3    H1 7392   5.349   1.248   4.493
 2462TIP3    H2 7393   5.416   1.269   4.628
 2463TIP3   OH2 7394   1.971   0.311   3.615
 2463TIP3    H1 7395   1.878   0.335   3.606
 2463TIP3    H2 7396   1.999   0.288   3.527
 2464TIP3   OH2 7397   4.289   4.382   2.111
 2464TIP3    H1 7398   4.291   4.441   2.035
 2464TIP3    H2 7399   4.337   4.305   2.083
 2465TIP3   OH2 7400   3.791   2.479   0.440
 2465TIP3    H1 7401   3.733   2.544   0.480
 2465TIP3    H2 7402   3.879   2.514   0.453
 2466TIP3   OH2 7403   5.096   1.489   0.230
 2466TIP3    H1 7404   5.167   1.474   0.291
 2466TIP3    H2 7405   5.137   1.530   0.154
 2467TIP3   OH2 7406   3.023   4.865   2.708
 2467TIP3    H1 7407   3.014   4.926   2.781
 2467TIP3    H2 7408   3.113   4.832   2.715
 2468TIP3   OH2 7409   6.115   1.172   1.666
 2468TIP3    H1 7410   6.176   1.245   1.660
 2468TIP3    H2 7411   6.048   1.192   1.600
 2469TIP3   OH2 7412   4.337   1.967   0.963
 2469TIP3    H1 7413   4.366   1.949   0.874
 2469TIP3    H2 7414   4.340   1.883   1.007
 2470TIP3   OH2 7415   2.143   0.241   2.878
 2470TIP3    H1 7416   2.238   0.236   2.881
 2470TIP3    H2 7417   2.117   0.181   2.808
 2471TIP3   OH2 7418   4.420   5.827   2.131
 2471TIP3    H1 7419   4.431   5.921   2.143
 2471TIP3    H2 7420   4.346   5.819   2.070
 2472TIP3   OH2 7421   1.235  -0.017   0.603
 2472TIP3    H1 7422   1.265   0.069   0.634
 2472TIP3    H2 7423   1.142  -0.019   0.626
 2473TIP3   OH2 7424   2.870   1.332   4.073
 2473TIP3    H1 7425   2.782   1.296   4.083
 2473TIP3    H2 7426   2.858   1.414   4.026
 2474TIP3   OH2 7427   2.246   5.383   4.001
 2474TIP3    H1 7428   2.172   5.326   4.023
 2474TIP3    H2 7429   2.255   5.375   3.906
 2475TIP3   OH2 7430   3.737   0.370   0.075
 2475TIP3    H1 7431   3.669   0.335   0.133
 2475TIP3    H2 7432   3.737   0.464   0.093
 2476TIP3   OH2 7433   6.159   4.817   3.112
 2476TIP3    H1 7434   6.103   4.878   3.063
 2476TIP3    H2 7435   6.107   4.738   3.120
 2477TIP3   OH2 7436   0.555   4.246   5.152
 2477TIP3    H1 7437   0.567   4.326   5.202
 2477TIP3    H2 7438   0.628   4.245   5.089
 2478TIP3   OH2 7439   1.385   1.350   3.544
 2478TIP3    H1 7440   1.443   1.426   3.535
 2478TIP3    H2 7441   1.311   1.383   3.595
 2479TIP3   OH2 7442   1.510   5.542   5.041
 2479TIP3    H1 7443   1.470   5.556   4.955
 2479TIP3    H2 7444   1.506   5.629   5.083
 2480TIP3   OH2 7445   1.573   0.838   1.634
 2480TIP3    H1 7446   1.622   0.822   1.714
 2480TIP3    H2 7447   1.510   0.906   1.656
 2481TIP3   OH2 7448   0.458   5.921   5.006
 2481TIP3    H1 7449   0.384   5.874   5.045
 2481TIP3    H2 7450   0.507   5.853   4.960
 2482TIP3   OH2 7451   3.512   2.073   2.864
 2482TIP3    H1 7452   3.559   1.992   2.843
 2482TIP3    H2 7453   3.467   2.053   2.946
 2483TIP3   OH2 7454   2.603   2.731   1.245
 2483TIP3    H1 7455   2.614   2.807   1.302
 2483TIP3    H2 7456   2.687   2.724   1.199
 2484TIP3   OH2 7457   3.117   4.339   3.074
 2484TIP3    H1 7458   3.147   4.381   2.993
 2484TIP3    H2 7459   3.026   4.316   3.057
 2485TIP3   OH2 7460   1.541   0.768   2.846
 2485TIP3    H1 7461   1.524   0.861   2.855
 2485TIP3    H2 7462   1.637   0.762   2.841
 2486TIP3   OH2 7463   3.497   4.873   0.104
 2486TIP3    H1 7464   3.570   4.930   0.079
 2486TIP3    H2 7465   3.507   4.861   0.198
 2487TIP3   OH2 7466   6.059   4.180   2.661
 2487TIP3    H1 7467   6.014   4.253   2.618
 2487TIP3    H2 7468   6.147   4.213   2.679
 2488TIP3   OH2 7469   4.830   5.826   3.595
 2488TIP3    H1 7470   4.913   5.781   3.583
 2488TIP3    H2 7471   4.848   5.917   3.568
 2489TIP3   OH2 7472   1.123   1.209   4.610
 2489TIP3    H1 7473   1.144   1.166   4.693
 2489TIP3    H2 7474   1.159   1.297   4.619
 2490TIP3   OH2 7475   2.750   2.527   3.298
 2490TIP3    H1 7476   2.712   2.511   3.384
 2490TIP3    H2 7477   2.677   2.513   3.236
 2491TIP3   OH2 7478   4.748   1.107   1.415
 2491TIP3    H1 7479   4.784   1.192   1.391
 2491TIP3    H2 7480   4.698   1.079   1.339
 2492TIP3   OH2 7481   6.297   0.915   2.824
 2492TIP3    H1 7482   6.381   0.958   2.807
 2492TIP3    H2 7483   6.313   0.823   2.803
 2493TIP3   OH2 7484   1.106   4.098   2.324
 2493TIP3    H1 7485   1.168   4.046   2.273
 2493TIP3    H2 7486   1.036   4.119   2.263
 2494TIP3   OH2 7487   2.207   0.851   1.330
 2494TIP3    H1 7488   2.159   0.849   1.413
 2494TIP3    H2 7489   2.294   0.885   1.354
 2495TIP3   OH2 7490   4.318   1.891   1.935
 2495TIP3    H1 7491   4.320   1.801   1.905
 2495TIP3    H2 7492   4.307   1.943   1.855
 2496TIP3   OH2 7493   0.882   3.478   4.300
 2496TIP3    H1 7494   0.804   3.490   4.245
 2496TIP3    H2 7495   0.952   3.522   4.252
 2497TIP3   OH2 7496   6.229   3.528   0.289
 2497TIP3    H1 7497   6.322   3.537   0.310
 2497TIP3    H2 7498   6.191   3.488   0.367
 2498TIP3   OH2 7499   3.398   4.642   0.933
 2498TIP3    H1 7500   3.490   4.617   0.923
 2498TIP3    H2 7501   3.395   4.689   1.016
 2499TIP3   OH2 7502   3.994   2.110   4.147
 2499TIP3    H1 7503   3.926   2.167   4.110
 2499TIP3    H2 7504   4.006   2.041   4.082
 2500TIP3   OH2 7505   3.132   3.688   1.674
 2500TIP3    H1 7506   3.119   3.770   1.627
 2500TIP3    H2 7507   3.146   3.716   1.765
 2501TIP3   OH2 7508   3.570   0.238   4.590
 2501TIP3    H1 7509   3.573   0.142   4.588
 2501TIP3    H2 7510   3.490   0.259   4.639
 2502TIP3   OH2 7511   5.037   2.939   3.106
 2502TIP3    H1 7512   5.003   3.023   3.075
 2502TIP3    H2 7513   5.131   2.944   3.091
 2503TIP3   OH2 7514   0.272   1.346   2.539
 2503TIP3    H1 7515   0.322   1.428   2.533
 2503TIP3    H2 7516   0.219   1.344   2.460
 2504TIP3   OH2 7517   0.190   1.383   0.065
 2504TIP3    H1 7518   0.114   1.413   0.113
 2504TIP3    H2 7519   0.198   1.442  -0.009
 2505TIP3   OH2 7520   4.272   0.236   0.226
 2505TIP3    H1 7521   4.178   0.223   0.226
 2505TIP3    H2 7522   4.307   0.163   0.175
 2506TIP3   OH2 7523   1.971   4.919   3.369
 2506TIP3    H1 7524   1.990   4.976   3.444
 2506TIP3    H2 7525   1.990   4.831   3.401
 2507TIP3   OH2 7526   1.307   3.779   2.946
 2507TIP3    H1 7527   1.355   3.833   3.009
 2507TIP3    H2 7528   1.223   3.763   2.988
 2508TIP3   OH2 7529   0.902   1.951   0.588
 2508TIP3    H1 7530   0.941   2.037   0.607
 2508TIP3    H2 7531   0.906   1.905   0.672
 2509TIP3   OH2 7532   0.503   5.920   1.328
 2509TIP3    H1 7533   0.570   5.957   1.270
 2509TIP3    H2 7534   0.553   5.876   1.397
 2510TIP3   OH2 7535   5.666   5.148   0.997
 2510TIP3    H1 7536   5.698   5.080   0.938
 2510TIP3    H2 7537   5.728   5.220   0.987
 2511TIP3   OH2 7538   3.026   1.743   1.266
 2511TIP3    H1 7539   3.096   1.678   1.269
 2511TIP3    H2 7540   3.068   1.822   1.231
 2512TIP3   OH2 7541   1.493   4.729   0.303
 2512TIP3    H1 7542   1.451   4.740   0.218
 2512TIP3    H2 7543   1.557   4.660   0.290
 2513TIP3   OH2 7544   2.230   3.566   0.293
 2513TIP3    H1 7545   2.215   3.660   0.284
 2513TIP3    H2 7546   2.298   3.547   0.227
 2514TIP3   OH2 7547   6.256   3.390   2.076
 2514TIP3    H1 7548   6.171   3.432   2.087
 2514TIP3    H2 7549   6.247   3.305   2.119
 2515TIP3   OH2 7550   0.434   2.135   1.415
 2515TIP3    H1 7551   0.455   2.059   1.469
 2515TIP3    H2 7552   0.338   2.133   1.409
 2516TIP3   OH2 7553   0.789   0.258   0.400
 2516TIP3    H1 7554   0.755   0.212   0.477
 2516TIP3    H2 7555   0.881   0.233   0.396
 2517TIP3   OH2 7556   3.549   4.011   4.230
 2517TIP3    H1 7557   3.630   3.995   4.279
 2517TIP3    H2 7558   3.492   3.938   4.254
 2518TIP3   OH2 7559   5.859   3.825   0.869
 2518TIP3    H1 7560   5.905   3.903   0.837
 2518TIP3    H2 7561   5.916   3.790   0.936
 2519TIP3   OH2 7562   1.541   1.198   4.397
 2519TIP3    H1 7563   1.459   1.240   4.373
 2519TIP3    H2 7564   1.566   1.239   4.481
 2520TIP3   OH2 7565   2.210  -0.042   4.611
 2520TIP3    H1 7566   2.277  -0.045   4.543
 2520TIP3    H2 7567   2.259  -0.032   4.693
 2521TIP3   OH2 7568   0.255   3.330   0.576
 2521TIP3    H1 7569   0.213   3.374   0.649
 2521TIP3    H2 7570   0.290   3.249   0.613
 2522TIP3   OH2 7571   1.326   0.391   1.906
 2522TIP3    H1 7572   1.235   0.413   1.923
 2522TIP3    H2 7573   1.375   0.470   1.927
 2523TIP3   OH2 7574   6.006   1.013   4.545
 2523TIP3    H1 7575   5.941   0.958   4.502
 2523TIP3    H2 7576   6.082   0.957   4.556
 2524TIP3   OH2 7577   1.586   0.954   5.070
 2524TIP3    H1 7578   1.504   0.972   5.024
 2524TIP3    H2 7579   1.618   0.873   5.030
 2525TIP3   OH2 7580   0.699   0.660   0.887
 2525TIP3    H1 7581   0.690   0.566   0.902
 2525TIP3    H2 7582   0.718   0.696   0.974
 2526TIP3   OH2 7583   6.324   0.285   3.409
 2526TIP3    H1 7584   6.228   0.280   3.407
 2526TIP3    H2 7585   6.351   0.256   3.322
 2527TIP3   OH2 7586   5.329   5.719   1.219
 2527TIP3    H1 7587   5.296   5.662   1.289
 2527TIP3    H2 7588   5.328   5.807   1.257
 2528TIP3   OH2 7589   0.292   2.656   4.579
 2528TIP3    H1 7590   0.242   2.601   4.518
 2528TIP3    H2 7591   0.244   2.649   4.661
 2529TIP3   OH2 7592   6.284   2.269   3.390
 2529TIP3    H1 7593   6.363   2.311   3.358
 2529TIP3    H2 7594   6.292   2.270   3.485
 2530TIP3   OH2 7595   5.225   0.611   0.288
 2530TIP3    H1 7596   5.215   0.658   0.206
 2530TIP3    H2 7597   5.188   0.524   0.271
 2531TIP3   OH2 7598   4.430   2.202   3.924
 2531TIP3    H1 7599   4.480   2.284   3.917
 2531TIP3    H2 7600   4.481   2.139   3.874
 2532TIP3   OH2 7601   4.725   1.974   2.902
 2532TIP3    H1 7602   4.810   2.006   2.934
 2532TIP3    H2 7603   4.712   1.891   2.947
 2533TIP3   OH2 7604   4.146   5.623   3.302
 2533TIP3    H1 7605   4.187   5.557   3.247
 2533TIP3    H2 7606   4.093   5.573   3.364
 2534TIP3   OH2 7607   6.029   4.533   3.967
 2534TIP3    H1 7608   6.014   4.473   4.041
 2534TIP3    H2 7609   6.113   4.575   3.987
 2535TIP3   OH2 7610   1.889   2.662   4.471
 2535TIP3    H1 7611   1.869   2.690   4.382
 2535TIP3    H2 7612   1.983   2.649   4.472
 2536TIP3   OH2 7613   4.941   3.290   2.438
 2536TIP3    H1 7614   4.988   3.268   2.357
 2536TIP3    H2 7615   5.006   3.337   2.490
 2537TIP3   OH2 7616   2.530   3.453   5.086
 2537TIP3    H1 7617   2.572   3.467   5.001
 2537TIP3    H2 7618   2.526   3.358   5.096
 2538TIP3   OH2 7619   3.629   0.801   1.071
 2538TIP3    H1 7620   3.706   0.755   1.038
 2538TIP3    H2 7621   3.620   0.878   1.014
 2539TIP3   OH2 7622   3.993   1.949   3.926
 2539TIP3    H1 7623   4.013   2.028   3.875
 2539TIP3    H2 7624   4.046   1.880   3.887
 2540TIP3   OH2 7625   0.888   4.789   3.944
 2540TIP3    H1 7626   0.975   4.828   3.953
 2540TIP3    H2 7627   0.904   4.694   3.950
 2541TIP3   OH2 7628   2.117   4.093   0.417
 2541TIP3    H1 7629   2.128   4.115   0.510
 2541TIP3    H2 7630   2.180   4.023   0.401
 2542TIP3   OH2 7631   4.070   5.978   1.112
 2542TIP3    H1 7632   4.154   5.952   1.150
 2542TIP3    H2 7633   4.027   5.896   1.088
 2543TIP3   OH2 7634   5.860   1.612   1.072
 2543TIP3    H1 7635   5.836   1.632   1.162
 2543TIP3    H2 7636   5.839   1.519   1.062
 2544TIP3   OH2 7637   4.457   0.495   1.490
 2544TIP3    H1 7638   4.374   0.475   1.532
 2544TIP3    H2 7639   4.439   0.572   1.436
 2545TIP3   OH2 7640   5.426   2.233   4.975
 2545TIP3    H1 7641   5.505   2.194   4.937
 2545TIP3    H2 7642   5.420   2.319   4.934
 2546TIP3   OH2 7643   1.251   2.382   0.413
 2546TIP3    H1 7644   1.274   2.429   0.332
 2546TIP3    H2 7645   1.335   2.371   0.458
 2547TIP3   OH2 7646   4.290   5.062   3.986
 2547TIP3    H1 7647   4.385   5.069   3.995
 2547TIP3    H2 7648   4.270   4.971   4.009
 2548TIP3   OH2 7649   2.867   4.241   2.948
 2548TIP3    H1 7650   2.855   4.223   2.854
 2548TIP3    H2 7651   2.903   4.159   2.983
 2549TIP3   OH2 7652   1.875   2.175   3.756
 2549TIP3    H1 7653   1.914   2.255   3.791
 2549TIP3    H2 7654   1.912   2.167   3.668
 2550TIP3   OH2 7655   4.300   5.171   2.661
 2550TIP3    H1 7656   4.294   5.124   2.744
 2550TIP3    H2 7657   4.385   5.214   2.665
 2551TIP3   OH2 7658   5.573   4.413   2.849
 2551TIP3    H1 7659   5.546   4.397   2.939
 2551TIP3    H2 7660   5.606   4.503   2.849
 2552TIP3   OH2 7661   6.328   2.298   2.648
 2552TIP3    H1 7662   6.400   2.259   2.699
 2552TIP3    H2 7663   6.310   2.381   2.692
 2553TIP3   OH2 7664   4.379   1.473   3.651
 2553TIP3    H1 7665   4.463   1.516   3.637
 2553TIP3    H2 7666   4.316   1.526   3.602
 2554TIP3   OH2 7667   3.417   0.414   2.412
 2554TIP3    H1 7668   3.470   0.355   2.360
 2554TIP3    H2 7669   3.332   0.370   2.418
 2555TIP3   OH2 7670   5.614   3.040   0.434
 2555TIP3    H1 7671   5.633   3.066   0.344
 2555TIP3    H2 7672   5.581   2.950   0.427
 2556TIP3   OH2 7673   4.655   6.030   1.043
 2556TIP3    H1 7674   4.599   5.984   1.106
 2556TIP3    H2 7675   4.726   5.969   1.024
 2557TIP3   OH2 7676   2.793   1.325   4.511
 2557TIP3    H1 7677   2.771   1.418   4.515
 2557TIP3    H2 7678   2.807   1.299   4.602
 2558TIP3   OH2 7679   5.419   1.917   2.142
 2558TIP3    H1 7680   5.411   1.925   2.047
 2558TIP3    H2 7681   5.514   1.915   2.157
 2559TIP3   OH2 7682   4.639   5.723   4.904
 2559TIP3    H1 7683   4.550   5.691   4.890
 2559TIP3    H2 7684   4.641   5.806   4.858
 2560TIP3   OH2 7685   5.512   1.253   0.567
 2560TIP3    H1 7686   5.495   1.158   0.567
 2560TIP3    H2 7687   5.488   1.281   0.479
 2561TIP3   OH2 7688   0.016   5.044   2.198
 2561TIP3    H1 7689   0.109   5.037   2.220
 2561TIP3    H2 7690  -0.026   5.069   2.280
 2562TIP3   OH2 7691   2.240   3.152   3.518
 2562TIP3    H1 7692   2.205   3.195   3.440
 2562TIP3    H2 7693   2.167   3.154   3.581
 2563TIP3   OH2 7694   5.383   2.033   0.941
 2563TIP3    H1 7695   5.374   2.052   1.034
 2563TIP3    H2 7696   5.306   2.072   0.900
 2564TIP3   OH2 7697   0.422   1.639   1.690
 2564TIP3    H1 7698   0.463   1.554   1.705
 2564TIP3    H2 7699   0.381   1.631   1.604
 2565TIP3   OH2 7700   6.335   2.163   0.219
 2565TIP3    H1 7701   6.338   2.256   0.196
 2565TIP3    H2 7702   6.249   2.151   0.258
 2566TIP3   OH2 7703   6.026   1.462   0.037
 2566TIP3    H1 7704   5.980   1.395  -0.014
 2566TIP3    H2 7705   5.972   1.475   0.115
 2567TIP3   OH2 7706   4.051   1.505   2.954
 2567TIP3    H1 7707   4.124   1.565   2.968
 2567TIP3    H2 7708   4.058   1.479   2.862
 2568TIP3   OH2 7709   3.748   1.480   2.817
 2568TIP3    H1 7710   3.817   1.546   2.823
 2568TIP3    H2 7711   3.682   1.520   2.761
 2569TIP3   OH2 7712   5.353   5.291   2.346
 2569TIP3    H1 7713   5.321   5.325   2.429
 2569TIP3    H2 7714   5.416   5.223   2.371
 2570TIP3   OH2 7715   4.503   4.906   4.757
 2570TIP3    H1 7716   4.450   4.913   4.836
 2570TIP3    H2 7717   4.499   4.994   4.718
 2571TIP3   OH2 7718   5.378   3.731   3.129
 2571TIP3    H1 7719   5.405   3.647   3.093
 2571TIP3    H2 7720   5.371   3.789   3.053
 2572TIP3   OH2 7721   6.142   1.226   0.685
 2572TIP3    H1 7722   6.172   1.247   0.597
 2572TIP3    H2 7723   6.223   1.210   0.734
 2573TIP3   OH2 7724   0.081   2.199   3.948
 2573TIP3    H1 7725   0.006   2.215   4.004
 2573TIP3    H2 7726   0.157   2.223   4.001
 2574TIP3   OH2 7727   0.846   3.526   1.985
 2574TIP3    H1 7728   0.844   3.461   1.914
 2574TIP3    H2 7729   0.833   3.475   2.064
 2575TIP3   OH2 7730   5.465   0.814   0.975
 2575TIP3    H1 7731   5.386   0.763   0.993
 2575TIP3    H2 7732   5.511   0.764   0.907
 2576TIP3   OH2 7733   1.115   5.598   3.346
 2576TIP3    H1 7734   1.100   5.529   3.411
 2576TIP3    H2 7735   1.172   5.661   3.390
 2577TIP3   OH2 7736   2.827   3.579   1.918
 2577TIP3    H1 7737   2.842   3.662   1.963
 2577TIP3    H2 7738   2.743   3.591   1.874
 2578TIP3   OH2 7739   5.180   4.651   0.669
 2578TIP3    H1 7740   5.191   4.587   0.598
 2578TIP3    H2 7741   5.201   4.602   0.748
 2579TIP3   OH2 7742   3.110   0.637   2.335
 2579TIP3    H1 7743   3.021   0.656   2.306
 2579TIP3    H2 7744   3.099   0.594   2.420
 2580TIP3   OH2 7745   5.810   3.266   5.002
 2580TIP3    H1 7746   5.845   3.311   5.078
 2580TIP3    H2 7747   5.717   3.253   5.022
 2581TIP3   OH2 7748   3.463   0.723   1.871
 2581TIP3    H1 7749   3.483   0.817   1.873
 2581TIP3    H2 7750   3.515   0.687   1.942
 2582TIP3   OH2 7751   1.914   0.028   0.906
 2582TIP3    H1 7752   1.837   0.046   0.852
 2582TIP3    H2 7753   1.955   0.114   0.919
 2583TIP3   OH2 7754   1.001   4.542   3.988
 2583TIP3    H1 7755   0.986   4.465   4.042
 2583TIP3    H2 7756   1.089   4.571   4.012
 2584TIP3   OH2 7757   4.585   1.576   0.435
 2584TIP3    H1 7758   4.673   1.542   0.451
 2584TIP3    H2 7759   4.594   1.671   0.443
 2585TIP3   OH2 7760   2.107   2.408   4.199
 2585TIP3    H1 7761   2.170   2.336   4.193
 2585TIP3    H2 7762   2.029   2.375   4.154
 2586TIP3   OH2 7763   0.575   3.444   1.604
 2586TIP3    H1 7764   0.505   3.418   1.664
 2586TIP3    H2 7765   0.622   3.363   1.584
 2587TIP3   OH2 7766   4.910   0.461   2.493
 2587TIP3    H1 7767   4.863   0.417   2.423
 2587TIP3    H2 7768   4.974   0.516   2.448
 2588TIP3   OH2 7769   2.298   2.195   4.245
 2588TIP3    H1 7770   2.274   2.202   4.337
 2588TIP3    H2 7771   2.238   2.131   4.209
 2589TIP3   OH2 7772   6.318   1.538   3.331
 2589TIP3    H1 7773   6.312   1.443   3.323
 2589TIP3    H2 7774   6.247   1.562   3.390
 2590TIP3   OH2 7775   5.456   1.064   3.140
 2590TIP3    H1 7776   5.375   1.025   3.174
 2590TIP3    H2 7777   5.433   1.093   3.052
 2591TIP3   OH2 7778   2.100   1.923   1.882
 2591TIP3    H1 7779   2.025   1.870   1.855
 2591TIP3    H2 7780   2.101   1.997   1.822
 2592TIP3   OH2 7781   0.851   0.154   2.973
 2592TIP3    H1 7782   0.772   0.207   2.960
 2592TIP3    H2 7783   0.905   0.174   2.897
 2593TIP3   OH2 7784   5.470   1.916   4.621
 2593TIP3    H1 7785   5.448   1.877   4.537
 2593TIP3    H2 7786   5.407   1.987   4.633
 2594TIP3   OH2 7787   1.526   4.059   4.714
 2594TIP3    H1 7788   1.444   4.016   4.689
 2594TIP3    H2 7789   1.545   4.118   4.642
 2595TIP3   OH2 7790   0.717   0.446   0.195
 2595TIP3    H1 7791   0.744   0.377   0.255
 2595TIP3    H2 7792   0.624   0.457   0.212
 2596TIP3   OH2 7793   5.949   2.401   3.543
 2596TIP3    H1 7794   6.024   2.384   3.599
 2596TIP3    H2 7795   5.920   2.489   3.567
 2597TIP3   OH2 7796   0.038   3.011   0.025
 2597TIP3    H1 7797  -0.007   2.986  -0.055
 2597TIP3    H2 7798  -0.029   3.053   0.078
 2598TIP3   OH2 7799   1.789   0.170   1.866
 2598TIP3    H1 7800   1.713   0.174   1.925
 2598TIP3    H2 7801   1.779   0.246   1.809
 2599TIP3   OH2 7802   2.891   4.482   0.551
 2599TIP3    H1 7803   2.920   4.453   0.638
 2599TIP3    H2 7804   2.871   4.400   0.505
 2600TIP3   OH2 7805   1.478   1.138   3.685
 2600TIP3    H1 7806   1.526   1.198   3.742
 2600TIP3    H2 7807   1.431   1.195   3.625
 2601TIP3   OH2 7808   4.736   5.875   1.899
 2601TIP3    H1 7809   4.655   5.913   1.864
 2601TIP3    H2 7810   4.786   5.850   1.821
 2602TIP3   OH2 7811   0.465   2.822   4.443
 2602TIP3    H1 7812   0.499   2.766   4.374
 2602TIP3    H2 7813   0.413   2.764   4.498
 2603TIP3   OH2 7814   1.064   2.499   0.618
 2603TIP3    H1 7815   1.007   2.555   0.566
 2603TIP3    H2 7816   1.119   2.454   0.554
 2604TIP3   OH2 7817   2.093   2.321   3.307
 2604TIP3    H1 7818   2.131   2.344   3.223
 2604TIP3    H2 7819   2.065   2.405   3.344
 2605TIP3   OH2 7820   0.721   4.968   2.582
 2605TIP3    H1 7821   0.626   4.958   2.578
 2605TIP3    H2 7822   0.747   4.985   2.491
 2606TIP3   OH2 7823   1.702   4.136   3.200
 2606TIP3    H1 7824   1.683   4.207   3.140
 2606TIP3    H2 7825   1.676   4.056   3.153
 2607TIP3   OH2 7826   3.258   3.774   2.756
 2607TIP3    H1 7827   3.347   3.758   2.786
 2607TIP3    H2 7828   3.238   3.699   2.699
 2608TIP3   OH2 7829   4.701   4.757   3.674
 2608TIP3    H1 7830   4.628   4.701   3.699
 2608TIP3    H2 7831   4.677   4.790   3.588
 2609TIP3   OH2 7832   5.074   4.149   1.740
 2609TIP3    H1 7833   5.044   4.058   1.741
 2609TIP3    H2 7834   5.084   4.170   1.647
 2610TIP3   OH2 7835   1.967   1.130   1.550
 2610TIP3    H1 7836   2.059   1.147   1.569
 2610TIP3    H2 7837   1.962   1.036   1.537
 2611TIP3   OH2 7838   0.864   2.134   3.360
 2611TIP3    H1 7839   0.817   2.184   3.294
 2611TIP3    H2 7840   0.949   2.177   3.367
 2612TIP3   OH2 7841   2.920   0.932   2.878
 2612TIP3    H1 7842   2.967   0.849   2.882
 2612TIP3    H2 7843   2.976   0.994   2.924
 2613TIP3   OH2 7844   2.486   2.775   4.262
 2613TIP3    H1 7845   2.438   2.829   4.199
 2613TIP3    H2 7846   2.524   2.705   4.209
 2614TIP3   OH2 7847   4.667   2.190   1.465
 2614TIP3    H1 7848   4.743   2.157   1.514
 2614TIP3    H2 7849   4.605   2.118   1.466
 2615TIP3   OH2 7850   3.111   1.941   3.207
 2615TIP3    H1 7851   3.152   1.864   3.247
 2615TIP3    H2 7852   3.041   1.906   3.153
 2616TIP3   OH2 7853   1.455   1.483   0.964
 2616TIP3    H1 7854   1.363   1.468   0.987
 2616TIP3    H2 7855   1.480   1.559   1.016
 2617TIP3   OH2 7856   5.085   1.854   0.977
 2617TIP3    H1 7857   5.112   1.764   0.994
 2617TIP3    H2 7858   5.086   1.896   1.063
 2618TIP3   OH2 7859   4.094   4.482   2.994
 2618TIP3    H1 7860   4.120   4.399   2.954
 2618TIP3    H2 7861   4.167   4.541   2.977
 2619TIP3   OH2 7862   2.962   0.033   2.010
 2619TIP3    H1 7863   3.041   0.083   2.031
 2619TIP3    H2 7864   2.903   0.049   2.084
 2620TIP3   OH2 7865   4.471   4.079   4.838
 2620TIP3    H1 7866   4.439   4.133   4.766
 2620TIP3    H2 7867   4.542   4.131   4.877
 2621TIP3   OH2 7868   2.215   0.316   4.624
 2621TIP3    H1 7869   2.296   0.273   4.599
 2621TIP3    H2 7870   2.228   0.342   4.715
 2622TIP3   OH2 7871   0.641   2.208   2.859
 2622TIP3    H1 7872   0.698   2.132   2.845
 2622TIP3    H2 7873   0.683   2.257   2.931
 2623TIP3   OH2 7874   4.761   1.382   3.623
 2623TIP3    H1 7875   4.701   1.310   3.609
 2623TIP3    H2 7876   4.709   1.461   3.605
 2624TIP3   OH2 7877   5.742   4.620   3.951
 2624TIP3    H1 7878   5.818   4.564   3.932
 2624TIP3    H2 7879   5.707   4.585   4.033
 2625TIP3   OH2 7880   0.220   4.381   3.730
 2625TIP3    H1 7881   0.250   4.375   3.639
 2625TIP3    H2 7882   0.285   4.437   3.772
 2626TIP3   OH2 7883   0.901   0.142   2.333
 2626TIP3    H1 7884   0.993   0.141   2.360
 2626TIP3    H2 7885   0.856   0.188   2.404
 2627TIP3   OH2 7886   0.874   0.059   1.345
 2627TIP3    H1 7887   0.816   0.135   1.333
 2627TIP3    H2 7888   0.843  -0.004   1.280
 2628TIP3   OH2 7889   2.094   1.598   3.346
 2628TIP3    H1 7890   2.051   1.610   3.431
 2628TIP3    H2 7891   2.155   1.526   3.361
 2629TIP3   OH2 7892   3.733   2.570   1.595
 2629TIP3    H1 7893   3.703   2.646   1.645
 2629TIP3    H2 7894   3.693   2.579   1.509
 2630TIP3   OH2 7895   0.597   1.313   1.406
 2630TIP3    H1 7896   0.672   1.361   1.443
 2630TIP3    H2 7897   0.615   1.310   1.312
 2631TIP3   OH2 7898   3.768   3.361   4.149
 2631TIP3    H1 7899   3.713   3.434   4.178
 2631TIP3    H2 7900   3.855   3.382   4.185
 2632TIP3   OH2 7901   0.846   0.686   4.882
 2632TIP3    H1 7902   0.829   0.637   4.801
 2632TIP3    H2 7903   0.784   0.759   4.879
 2633TIP3   OH2 7904   1.930   5.596   0.844
 2633TIP3    H1 7905   1.964   5.612   0.756
 2633TIP3    H2 7906   1.896   5.681   0.872
 2634TIP3   OH2 7907   5.331   2.014   1.896
 2634TIP3    H1 7908   5.256   2.012   1.837
 2634TIP3    H2 7909   5.406   1.993   1.841
 2635TIP3   OH2 7910   1.211   0.063   3.305
 2635TIP3    H1 7911   1.141   0.089   3.244
 2635TIP3    H2 7912   1.170   0.068   3.391
 2636TIP3   OH2 7913   6.334   4.167   1.344
 2636TIP3    H1 7914   6.305   4.081   1.375
 2636TIP3    H2 7915   6.416   4.183   1.391
 2637TIP3   OH2 7916   4.921   5.155   3.915
 2637TIP3    H1 7917   4.913   5.201   3.831
 2637TIP3    H2 7918   4.945   5.066   3.891
 2638TIP3   OH2 7919   4.971   0.969   1.226
 2638TIP3    H1 7920   4.889   0.920   1.227
 2638TIP3    H2 7921   5.005   0.959   1.137
 2639TIP3   OH2 7922   3.987   5.587   3.974
 2639TIP3    H1 7923   3.967   5.677   3.948
 2639TIP3    H2 7924   3.921   5.534   3.928
 2640TIP3   OH2 7925   1.410   0.518   0.605
 2640TIP3    H1 7926   1.421   0.423   0.605
 2640TIP3    H2 7927   1.460   0.548   0.680
 2641TIP3   OH2 7928   0.694   3.620   3.867
 2641TIP3    H1 7929   0.734   3.602   3.952
 2641TIP3    H2 7930   0.722   3.709   3.846
 2642TIP3   OH2 7931   4.155   5.346   0.361
 2642TIP3    H1 7932   4.171   5.315   0.450
 2642TIP3    H2 7933   4.222   5.412   0.346
 2643TIP3   OH2 7934   4.938   0.880   2.693
 2643TIP3    H1 7935   5.031   0.860   2.691
 2643TIP3    H2 7936   4.916   0.890   2.785
 2644TIP3   OH2 7937   3.923   0.258   3.523
 2644TIP3    H1 7938   3.972   0.175   3.530
 2644TIP3    H2 7939   3.988   0.322   3.495
 2645TIP3   OH2 7940   6.131   1.489   2.907
 2645TIP3    H1 7941   6.071   1.487   2.982
 2645TIP3    H2 7942   6.157   1.581   2.900
 2646TIP3   OH2 7943   1.737   3.685   3.672
 2646TIP3    H1 7944   1.770   3.598   3.649
 2646TIP3    H2 7945   1.657   3.668   3.723
 2647TIP3   OH2 7946   3.936   4.691   1.011
 2647TIP3    H1 7947   4.031   4.680   1.017
 2647TIP3    H2 7948   3.902   4.602   1.006
 2648TIP3   OH2 7949   5.433   2.675   2.445
 2648TIP3    H1 7950   5.395   2.605   2.392
 2648TIP3    H2 7951   5.526   2.654   2.449
 2649TIP3   OH2 7952   4.946   3.630   4.195
 2649TIP3    H1 7953   4.943   3.603   4.287
 2649TIP3    H2 7954   5.039   3.636   4.175
 2650TIP3   OH2 7955   2.904   0.184   1.061
 2650TIP3    H1 7956   2.944   0.173   0.975
 2650TIP3    H2 7957   2.810   0.182   1.044
 2651TIP3   OH2 7958   5.319   5.721   3.680
 2651TIP3    H1 7959   5.362   5.802   3.708
 2651TIP3    H2 7960   5.383   5.677   3.625
 2652TIP3   OH2 7961   5.301   3.192   5.125
 2652TIP3    H1 7962   5.206   3.201   5.131
 2652TIP3    H2 7963   5.335   3.280   5.143
 2653TIP3   OH2 7964   5.959   1.916   2.138
 2653TIP3    H1 7965   5.963   1.820   2.142
 2653TIP3    H2 7966   6.048   1.945   2.155
 2654TIP3   OH2 7967   4.431   3.992   2.856
 2654TIP3    H1 7968   4.444   4.038   2.939
 2654TIP3    H2 7969   4.337   3.988   2.845
 2655TIP3   OH2 7970   5.244   3.809   0.745
 2655TIP3    H1 7971   5.171   3.870   0.733
 2655TIP3    H2 7972   5.322   3.862   0.728
 2656TIP3   OH2 7973   5.622   5.277   4.262
 2656TIP3    H1 7974   5.717   5.285   4.259
 2656TIP3    H2 7975   5.593   5.302   4.174
 2657TIP3   OH2 7976   2.310   3.903   0.065
 2657TIP3    H1 7977   2.233   3.918   0.011
 2657TIP3    H2 7978   2.384   3.924   0.008
 2658TIP3   OH2 7979   4.033   4.957   4.769
 2658TIP3    H1 7980   4.092   4.950   4.844
 2658TIP3    H2 7981   4.045   4.874   4.722
 2659TIP3   OH2 7982   5.992   5.195   3.881
 2659TIP3    H1 7983   5.962   5.182   3.791
 2659TIP3    H2 7984   5.915   5.174   3.934
 2660TIP3   OH2 7985   2.573   3.977   3.379
 2660TIP3    H1 7986   2.603   4.063   3.410
 2660TIP3    H2 7987   2.617   3.915   3.437
 2661TIP3   OH2 7988   0.857   4.891   1.728
 2661TIP3    H1 7989   0.879   4.979   1.696
 2661TIP3    H2 7990   0.767   4.900   1.761
 2662TIP3   OH2 7991   3.125   3.416   3.986
 2662TIP3    H1 7992   3.122   3.511   3.986
 2662TIP3    H2 7993   3.163   3.393   4.071
 2663TIP3   OH2 7994   6.229   3.967   4.624
 2663TIP3    H1 7995   6.196   3.906   4.558
 2663TIP3    H2 7996   6.254   3.911   4.698
 2664TIP3   OH2 7997   2.159   3.858   4.923
 2664TIP3    H1 7998   2.129   3.946   4.946
 2664TIP3    H2 7999   2.109   3.800   4.981
 2665TIP3   OH2 8000   3.076   3.377   0.897
 2665TIP3    H1 8001   3.144   3.324   0.939
 2665TIP3    H2 8002   3.036   3.320   0.833
 2666TIP3   OH2 8003   5.012   5.850   0.463
 2666TIP3    H1 8004   4.996   5.862   0.369
 2666TIP3    H2 8005   5.061   5.769   0.469
 2667TIP3   OH2 8006   4.689   5.660   2.838
 2667TIP3    H1 8007   4.767   5.674   2.893
 2667TIP3    H2 8008   4.696   5.726   2.769
 2668TIP3   OH2 8009   1.960   1.473  -0.013
 2668TIP3    H1 8010   2.017   1.405  -0.048
 2668TIP3    H2 8011   1.885   1.425   0.024
 2669TIP3   OH2 8012   3.186   0.264   4.493
 2669TIP3    H1 8013   3.109   0.250   4.548
 2669TIP3    H2 8014   3.176   0.201   4.421
 2670TIP3   OH2 8015   2.580   3.159   3.745
 2670TIP3    H1 8016   2.640   3.187   3.814
 2670TIP3    H2 8017   2.579   3.063   3.751
 2671TIP3   OH2 8018   2.069   1.382   3.052
 2671TIP3    H1 8019   2.020   1.400   3.133
 2671TIP3    H2 8020   2.005   1.397   2.982
 2672TIP3   OH2 8021   0.687   1.365   4.099
 2672TIP3    H1 8022   0.779   1.371   4.126
 2672TIP3    H2 8023   0.664   1.454   4.072
 2673TIP3   OH2 8024   4.750   5.198   1.261
 2673TIP3    H1 8025   4.785   5.219   1.175
 2673TIP3    H2 8026   4.817   5.142   1.301
 2674TIP3   OH2 8027   2.185   2.849   4.886
 2674TIP3    H1 8028   2.204   2.939   4.911
 2674TIP3    H2 8029   2.201   2.847   4.791
 2675TIP3   OH2 8030   5.440   2.221   2.077
 2675TIP3    H1 8031   5.533   2.211   2.055
 2675TIP3    H2 8032   5.396   2.155   2.024
 2676TIP3   OH2 8033   2.739   3.200   4.429
 2676TIP3    H1 8034   2.682   3.253   4.485
 2676TIP3    H2 8035   2.714   3.223   4.340
 2677TIP3   OH2 8036   1.384   3.140   2.114
 2677TIP3    H1 8037   1.301   3.133   2.160
 2677TIP3    H2 8038   1.369   3.211   2.050
 2678TIP3   OH2 8039   4.061   0.414   3.040
 2678TIP3    H1 8040   4.113   0.343   3.078
 2678TIP3    H2 8041   4.022   0.458   3.116
 2679TIP3   OH2 8042   1.750   3.751   4.557
 2679TIP3    H1 8043   1.689   3.804   4.505
 2679TIP3    H2 8044   1.775   3.808   4.630
 2680TIP3   OH2 8045   1.299   3.418   0.970
 2680TIP3    H1 8046   1.303   3.329   0.934
 2680TIP3    H2 8047   1.212   3.449   0.946
 2681TIP3   OH2 8048   2.335   3.664   4.563
 2681TIP3    H1 8049   2.246   3.696   4.547
 2681TIP3    H2 8050   2.385   3.692   4.486
 2682TIP3   OH2 8051   3.122   5.507   4.684
 2682TIP3    H1 8052   3.081   5.571   4.742
 2682TIP3    H2 8053   3.053   5.444   4.665
 2683TIP3   OH2 8054   5.339   3.437   4.627
 2683TIP3    H1 8055   5.283   3.462   4.701
 2683TIP3    H2 8056   5.356   3.344   4.640
 2684TIP3   OH2 8057   2.483   1.301   3.511
 2684TIP3    H1 8058   2.411   1.245   3.542
 2684TIP3    H2 8059   2.551   1.240   3.484
 2685TIP3   OH2 8060   2.276   4.425   0.724
 2685TIP3    H1 8061   2.336   4.483   0.770
 2685TIP3    H2 8062   2.314   4.414   0.637
 2686TIP3   OH2 8063   4.374   2.672   0.978
 2686TIP3    H1 8064   4.466   2.657   1.000
 2686TIP3    H2 8065   4.326   2.607   1.030
 2687TIP3   OH2 8066   0.788   5.874   0.580
 2687TIP3    H1 8067   0.760   5.789   0.614
 2687TIP3    H2 8068   0.706   5.920   0.560
 2688TIP3   OH2 8069   2.680   1.905   0.235
 2688TIP3    H1 8070   2.650   1.963   0.165
 2688TIP3    H2 8071   2.600   1.877   0.279
 2689TIP3   OH2 8072   1.901   5.830   3.626
 2689TIP3    H1 8073   1.976   5.775   3.603
 2689TIP3    H2 8074   1.926   5.918   3.600
 2690TIP3   OH2 8075   0.792   0.058   1.636
 2690TIP3    H1 8076   0.809   0.058   1.542
 2690TIP3    H2 8077   0.875   0.028   1.675
 2691TIP3   OH2 8078   0.827   4.554   4.693
 2691TIP3    H1 8079   0.890   4.604   4.641
 2691TIP3    H2 8080   0.788   4.492   4.631
 2692TIP3   OH2 8081   1.001   1.236   4.346
 2692TIP3    H1 8082   1.026   1.201   4.431
 2692TIP3    H2 8083   1.035   1.172   4.283
 2693TIP3   OH2 8084   1.778   0.297   0.698
 2693TIP3    H1 8085   1.787   0.391   0.679
 2693TIP3    H2 8086   1.862   0.272   0.735
 2694TIP3   OH2 8087   3.897   1.615   0.520
 2694TIP3    H1 8088   3.935   1.681   0.462
 2694TIP3    H2 8089   3.972   1.571   0.559
 2695TIP3   OH2 8090   4.490   3.408   4.577
 2695TIP3    H1 8091   4.403   3.392   4.613
 2695TIP3    H2 8092   4.544   3.428   4.654
 2696TIP3   OH2 8093   4.364   0.605   3.295
 2696TIP3    H1 8094   4.330   0.694   3.297
 2696TIP3    H2 8095   4.355   0.578   3.203
 2697TIP3   OH2 8096   0.280   4.283   3.121
 2697TIP3    H1 8097   0.314   4.368   3.092
 2697TIP3    H2 8098   0.358   4.230   3.138
 2698TIP3   OH2 8099   3.582   0.195   1.430
 2698TIP3    H1 8100   3.499   0.149   1.437
 2698TIP3    H2 8101   3.576   0.243   1.347
 2699TIP3   OH2 8102   0.886   4.664   5.162
 2699TIP3    H1 8103   0.804   4.700   5.127
 2699TIP3    H2 8104   0.951   4.682   5.094
 2700TIP3   OH2 8105   2.648   3.814   3.818
 2700TIP3    H1 8106   2.672   3.907   3.816
 2700TIP3    H2 8107   2.576   3.809   3.881
 2701TIP3   OH2 8108   5.664   2.407   3.896
 2701TIP3    H1 8109   5.625   2.373   3.977
 2701TIP3    H2 8110   5.618   2.360   3.826
 2702TIP3   OH2 8111   5.100   4.170   3.177
 2702TIP3    H1 8112   5.115   4.260   3.148
 2702TIP3    H2 8113   5.185   4.141   3.211
 2703TIP3   OH2 8114   0.133   0.859   3.860
 2703TIP3    H1 8115   0.058   0.855   3.919
 2703TIP3    H2 8116   0.096   0.873   3.773
 2704TIP3   OH2 8117   3.570   1.823   5.130
 2704TIP3    H1 8118   3.585   1.756   5.064
 2704TIP3    H2 8119   3.572   1.776   5.214
 2705TIP3   OH2 8120   1.570   3.113   2.442
 2705TIP3    H1 8121   1.618   3.098   2.524
 2705TIP3    H2 8122   1.502   3.046   2.442
 2706TIP3   OH2 8123   5.020   3.758   4.746
 2706TIP3    H1 8124   5.114   3.758   4.730
 2706TIP3    H2 8125   4.983   3.806   4.672
 2707TIP3   OH2 8126   5.366   0.146   4.350
 2707TIP3    H1 8127   5.412   0.076   4.397
 2707TIP3    H2 8128   5.429   0.218   4.347
 2708TIP3   OH2 8129   5.867   3.163   4.670
 2708TIP3    H1 8130   5.843   3.090   4.614
 2708TIP3    H2 8131   5.844   3.241   4.620
 2709TIP3   OH2 8132   1.126   2.893   4.951
 2709TIP3    H1 8133   1.085   2.891   5.038
 2709TIP3    H2 8134   1.078   2.961   4.904
 2710TIP3   OH2 8135   5.167   4.078   3.504
 2710TIP3    H1 8136   5.237   4.143   3.499
 2710TIP3    H2 8137   5.179   4.023   3.427
 2711TIP3   OH2 8138   3.869   5.396   2.227
 2711TIP3    H1 8139   3.890   5.456   2.298
 2711TIP3    H2 8140   3.946   5.399   2.169
 2712TIP3   OH2 8141   2.703   1.545   3.596
 2712TIP3    H1 8142   2.636   1.562   3.530
 2712TIP3    H2 8143   2.692   1.614   3.661
 2713TIP3   OH2 8144   0.203   4.950   5.009
 2713TIP3    H1 8145   0.137   4.886   4.983
 2713TIP3    H2 8146   0.243   4.913   5.087
 2714TIP3   OH2 8147   2.857   3.797   3.127
 2714TIP3    H1 8148   2.916   3.723   3.141
 2714TIP3    H2 8149   2.796   3.767   3.060
 2715TIP3   OH2 8150   5.730   4.709   2.457
 2715TIP3    H1 8151   5.677   4.782   2.491
 2715TIP3    H2 8152   5.688   4.685   2.374
 2716TIP3   OH2 8153   3.764   0.606   4.147
 2716TIP3    H1 8154   3.811   0.676   4.101
 2716TIP3    H2 8155   3.769   0.631   4.239
 2717TIP3   OH2 8156   4.739   4.869   0.022
 2717TIP3    H1 8157   4.751   4.811  -0.053
 2717TIP3    H2 8158   4.670   4.827   0.074
 2718TIP3   OH2 8159   1.080   2.379   1.974
 2718TIP3    H1 8160   1.013   2.431   2.019
 2718TIP3    H2 8161   1.052   2.288   1.988
 2719TIP3   OH2 8162   1.047   4.474   2.509
 2719TIP3    H1 8163   1.038   4.570   2.509
 2719TIP3    H2 8164   0.969   4.443   2.463
 2720TIP3   OH2 8165   4.403   5.299   2.418
 2720TIP3    H1 8166   4.459   5.296   2.496
 2720TIP3    H2 8167   4.348   5.222   2.425
 2721TIP3   OH2 8168   3.137   3.121   3.899
 2721TIP3    H1 8169   3.070   3.189   3.900
 2721TIP3    H2 8170   3.185   3.137   3.817
 2722TIP3   OH2 8171   1.617   0.263   2.586
 2722TIP3    H1 8172   1.602   0.357   2.599
 2722TIP3    H2 8173   1.533   0.229   2.554
 2723TIP3   OH2 8174   4.359   2.114   0.412
 2723TIP3    H1 8175   4.327   2.183   0.352
 2723TIP3    H2 8176   4.339   2.148   0.499
 2724TIP3   OH2 8177   2.377   2.265   1.678
 2724TIP3    H1 8178   2.302   2.265   1.737
 2724TIP3    H2 8179   2.346   2.310   1.599
 2725TIP3   OH2 8180   6.008   4.279   3.756
 2725TIP3    H1 8181   6.091   4.258   3.713
 2725TIP3    H2 8182   6.029   4.287   3.849
 2726TIP3   OH2 8183   5.233   5.815   0.120
 2726TIP3    H1 8184   5.208   5.794   0.210
 2726TIP3    H2 8185   5.288   5.741   0.093
 2727TIP3   OH2 8186   2.815   2.178   4.830
 2727TIP3    H1 8187   2.768   2.220   4.903
 2727TIP3    H2 8188   2.886   2.239   4.810
 2728TIP3   OH2 8189   0.184   3.597   0.398
 2728TIP3    H1 8190   0.234   3.590   0.317
 2728TIP3    H2 8191   0.181   3.507   0.432
 2729TIP3   OH2 8192   1.562   5.291   4.490
 2729TIP3    H1 8193   1.486   5.331   4.448
 2729TIP3    H2 8194   1.582   5.215   4.435
 2730TIP3   OH2 8195   0.803   4.792   4.856
 2730TIP3    H1 8196   0.752   4.843   4.793
 2730TIP3    H2 8197   0.818   4.708   4.811
 2731TIP3   OH2 8198   1.469   3.213   4.840
 2731TIP3    H1 8199   1.399   3.190   4.902
 2731TIP3    H2 8200   1.483   3.133   4.789
 2732TIP3   OH2 8201   1.886   5.794   1.542
 2732TIP3    H1 8202   1.946   5.857   1.581
 2732TIP3    H2 8203   1.900   5.801   1.448
 2733TIP3   OH2 8204   0.704   4.368   1.333
 2733TIP3    H1 8205   0.792   4.334   1.314
 2733TIP3    H2 8206   0.689   4.346   1.425
 2734TIP3   OH2 8207   1.945   3.570   3.981
 2734TIP3    H1 8208   2.025   3.525   4.008
 2734TIP3    H2 8209   1.956   3.660   4.013
 2735TIP3   OH2 8210   3.289   3.431   0.544
 2735TIP3    H1 8211   3.362   3.396   0.593
 2735TIP3    H2 8212   3.242   3.354   0.511
 2736TIP3   OH2 8213   3.097   2.943   0.876
 2736TIP3    H1 8214   3.167   2.987   0.828
 2736TIP3    H2 8215   3.040   3.013   0.907
 2737TIP3   OH2 8216   0.210   2.945   4.529
 2737TIP3    H1 8217   0.222   2.859   4.570
 2737TIP3    H2 8218   0.299   2.973   4.506
 2738TIP3   OH2 8219   1.025   5.844   4.928
 2738TIP3    H1 8220   1.042   5.755   4.960
 2738TIP3    H2 8221   0.981   5.830   4.844
 2739TIP3   OH2 8222   4.734   4.579   1.920
 2739TIP3    H1 8223   4.809   4.533   1.960
 2739TIP3    H2 8224   4.676   4.508   1.893
 2740TIP3   OH2 8225   1.143   3.998   0.572
 2740TIP3    H1 8226   1.099   4.030   0.493
 2740TIP3    H2 8227   1.133   3.903   0.568
 2741TIP3   OH2 8228   0.390   0.152   0.458
 2741TIP3    H1 8229   0.375   0.173   0.551
 2741TIP3    H2 8230   0.409   0.059   0.457
 2742TIP3   OH2 8231   4.578   3.439   3.594
 2742TIP3    H1 8232   4.668   3.447   3.563
 2742TIP3    H2 8233   4.532   3.513   3.555
 2743TIP3   OH2 8234   3.830   1.996   4.342
 2743TIP3    H1 8235   3.818   1.910   4.303
 2743TIP3    H2 8236   3.890   2.041   4.283
 2744TIP3   OH2 8237   5.908   1.603   5.101
 2744TIP3    H1 8238   5.830   1.619   5.048
 2744TIP3    H2 8239   5.887   1.524   5.150
 2745TIP3   OH2 8240   1.946   1.515   1.320
 2745TIP3    H1 8241   1.862   1.550   1.289
 2745TIP3    H2 8242   1.926   1.425   1.346
 2746TIP3   OH2 8243   5.165   4.795   4.375
 2746TIP3    H1 8244   5.100   4.764   4.312
 2746TIP3    H2 8245   5.221   4.854   4.325
 2747TIP3   OH2 8246   0.567   0.603   4.417
 2747TIP3    H1 8247   0.544   0.645   4.500
 2747TIP3    H2 8248   0.487   0.607   4.364
 2748TIP3   OH2 8249   5.394   1.221   3.634
 2748TIP3    H1 8250   5.439   1.146   3.594
 2748TIP3    H2 8251   5.302   1.195   3.636
 2749TIP3   OH2 8252   2.870   1.317   2.591
 2749TIP3    H1 8253   2.814   1.348   2.520
 2749TIP3    H2 8254   2.861   1.222   2.589
 2750TIP3   OH2 8255   4.390   1.792   0.537
 2750TIP3    H1 8256   4.398   1.729   0.609
 2750TIP3    H2 8257   4.421   1.875   0.574
 2751TIP3   OH2 8258   5.831   0.223   1.370
 2751TIP3    H1 8259   5.741   0.237   1.341
 2751TIP3    H2 8260   5.873   0.175   1.299
 2752TIP3   OH2 8261   1.787   0.036   3.007
 2752TIP3    H1 8262   1.712   0.086   3.040
 2752TIP3    H2 8263   1.800   0.067   2.918
 2753TIP3   OH2 8264   0.126   0.863   0.412
 2753TIP3    H1 8265   0.193   0.796   0.398
 2753TIP3    H2 8266   0.124   0.876   0.507
 2754TIP3   OH2 8267   0.250   2.360   4.967
 2754TIP3    H1 8268   0.259   2.353   4.872
 2754TIP3    H2 8269   0.231   2.271   4.996
 2755TIP3   OH2 8270   1.253   0.548   3.079
 2755TIP3    H1 8271   1.171   0.580   3.040
 2755TIP3    H2 8272   1.239   0.453   3.087
 2756TIP3   OH2 8273   1.261   1.793   4.622
 2756TIP3    H1 8274   1.204   1.732   4.669
 2756TIP3    H2 8275   1.300   1.741   4.552
 2757TIP3   OH2 8276   0.030   5.359   1.110
 2757TIP3    H1 8277   0.025   5.426   1.178
 2757TIP3    H2 8278   0.121   5.362   1.079
 2758TIP3   OH2 8279   3.296   3.146   0.739
 2758TIP3    H1 8280   3.374   3.201   0.730
 2758TIP3    H2 8281   3.248   3.159   0.657
 2759TIP3   OH2 8282   0.860   5.464   2.989
 2759TIP3    H1 8283   0.774   5.444   2.952
 2759TIP3    H2 8284   0.865   5.559   2.990
 2760TIP3   OH2 8285   0.612   2.481   1.935
 2760TIP3    H1 8286   0.579   2.549   1.876
 2760TIP3    H2 8287   0.538   2.421   1.945
 2761TIP3   OH2 8288   3.926   2.545   4.413
 2761TIP3    H1 8289   3.894   2.594   4.338
 2761TIP3    H2 8290   3.855   2.482   4.433
 2762TIP3   OH2 8291   6.134   3.676   0.054
 2762TIP3    H1 8292   6.204   3.720   0.006
 2762TIP3    H2 8293   6.177   3.636   0.129
 2763TIP3   OH2 8294   1.950   0.680   0.891
 2763TIP3    H1 8295   1.855   0.687   0.891
 2763TIP3    H2 8296   1.972   0.644   0.976
 2764TIP3   OH2 8297   5.152   5.466   3.761
 2764TIP3    H1 8298   5.157   5.380   3.718
 2764TIP3    H2 8299   5.187   5.527   3.696
 2765TIP3   OH2 8300   1.680   4.663   1.874
 2765TIP3    H1 8301   1.620   4.590   1.891
 2765TIP3    H2 8302   1.625   4.741   1.877
 2766TIP3   OH2 8303   5.715   5.413   1.791
 2766TIP3    H1 8304   5.651   5.459   1.738
 2766TIP3    H2 8305   5.665   5.380   1.866
 2767TIP3   OH2 8306   5.479   3.528   2.962
 2767TIP3    H1 8307   5.555   3.482   2.926
 2767TIP3    H2 8308   5.432   3.561   2.885
 2768TIP3   OH2 8309   3.816   0.111   0.628
 2768TIP3    H1 8310   3.821   0.121   0.533
 2768TIP3    H2 8311   3.873   0.036   0.647
 2769TIP3   OH2 8312   2.085   4.926   4.773
 2769TIP3    H1 8313   2.061   4.956   4.861
 2769TIP3    H2 8314   2.084   5.006   4.720
 2770TIP3   OH2 8315   4.731   2.506   4.902
 2770TIP3    H1 8316   4.696   2.537   4.818
 2770TIP3    H2 8317   4.691   2.420   4.914
 2771TIP3   OH2 8318   0.636   5.814   2.532
 2771TIP3    H1 8319   0.573   5.772   2.473
 2771TIP3    H2 8320   0.583   5.847   2.605
 2772TIP3   OH2 8321   1.593   1.542   1.399
 2772TIP3    H1 8322   1.560   1.515   1.314
 2772TIP3    H2 8323   1.531   1.506   1.462
 2773TIP3   OH2 8324   1.147   4.182   1.405
 2773TIP3    H1 8325   1.146   4.213   1.314
 2773TIP3    H2 8326   1.055   4.164   1.424
 2774TIP3   OH2 8327   4.225   1.020   2.383
 2774TIP3    H1 8328   4.142   0.998   2.426
 2774TIP3    H2 8329   4.205   1.098   2.332
 2775TIP3   OH2 8330   5.739   3.090   1.719
 2775TIP3    H1 8331   5.674   3.039   1.767
 2775TIP3    H2 8332   5.759   3.164   1.777
 2776TIP3   OH2 8333   2.149   5.664   3.613
 2776TIP3    H1 8334   2.225   5.640   3.560
 2776TIP3    H2 8335   2.183   5.670   3.702
 2777TIP3   OH2 8336   2.818   4.365   4.367
 2777TIP3    H1 8337   2.867   4.301   4.418
 2777TIP3    H2 8338   2.876   4.389   4.294
 2778TIP3   OH2 8339   1.056   4.030   4.250
 2778TIP3    H1 8340   1.105   4.019   4.169
 2778TIP3    H2 8341   0.968   3.997   4.229
 2779TIP3   OH2 8342   2.204   0.959   2.807
 2779TIP3    H1 8343   2.196   0.916   2.892
 2779TIP3    H2 8344   2.294   0.992   2.804
 2780TIP3   OH2 8345   3.223   4.288   4.194
 2780TIP3    H1 8346   3.318   4.294   4.196
 2780TIP3    H2 8347   3.205   4.201   4.158
 2781TIP3   OH2 8348   3.329   4.748   0.529
 2781TIP3    H1 8349   3.350   4.673   0.585
 2781TIP3    H2 8350   3.295   4.814   0.589
 2782TIP3   OH2 8351   4.561   5.617   0.858
 2782TIP3    H1 8352   4.508   5.604   0.936
 2782TIP3    H2 8353   4.498   5.628   0.787
 2783TIP3   OH2 8354   0.845   1.153   0.741
 2783TIP3    H1 8355   0.937   1.140   0.765
 2783TIP3    H2 8356   0.846   1.161   0.645
 2784TIP3   OH2 8357   1.486   5.009   3.208
 2784TIP3    H1 8358   1.483   4.939   3.142
 2784TIP3    H2 8359   1.478   5.090   3.157
 2785TIP3   OH2 8360   0.079   1.141   3.333
 2785TIP3    H1 8361   0.075   1.050   3.306
 2785TIP3    H2 8362   0.012   1.185   3.280
 2786TIP3   OH2 8363   0.111   0.493   0.178
 2786TIP3    H1 8364   0.128   0.403   0.207
 2786TIP3    H2 8365   0.180   0.545   0.219
 2787TIP3   OH2 8366   2.212   2.694   2.205
 2787TIP3    H1 8367   2.141   2.749   2.171
 2787TIP3    H2 8368   2.199   2.695   2.300
 2788TIP3   OH2 8369   0.617   2.285   2.243
 2788TIP3    H1 8370   0.626   2.209   2.301
 2788TIP3    H2 8371   0.701   2.290   2.197
 2789TIP3   OH2 8372   5.900   3.660   4.396
 2789TIP3    H1 8373   5.947   3.660   4.312
 2789TIP3    H2 8374   5.812   3.691   4.374
 2790TIP3   OH2 8375   4.124   5.614   2.860
 2790TIP3    H1 8376   4.031   5.637   2.854
 2790TIP3    H2 8377   4.126   5.533   2.911
 2791TIP3   OH2 8378   5.074   5.417   0.060
 2791TIP3    H1 8379   5.087   5.322   0.055
 2791TIP3    H2 8380   5.143   5.448   0.119
 2792TIP3   OH2 8381   6.070   5.086   2.595
 2792TIP3    H1 8382   5.993   5.143   2.596
 2792TIP3    H2 8383   6.043   5.009   2.646
 2793TIP3   OH2 8384   1.294   0.210   0.351
 2793TIP3    H1 8385   1.229   0.248   0.411
 2793TIP3    H2 8386   1.353   0.282   0.331
 2794TIP3   OH2 8387   2.580   0.528   2.024
 2794TIP3    H1 8388   2.543   0.615   2.037
 2794TIP3    H2 8389   2.613   0.529   1.934
 2795TIP3   OH2 8390   3.942   2.548   1.053
 2795TIP3    H1 8391   3.847   2.553   1.062
 2795TIP3    H2 8392   3.962   2.599   0.974
 2796TIP3   OH2 8393   0.524   4.536   0.719
 2796TIP3    H1 8394   0.538   4.631   0.727
 2796TIP3    H2 8395   0.490   4.509   0.804
 2797TIP3   OH2 8396   4.014   0.488   0.051
 2797TIP3    H1 8397   3.932   0.440   0.045
 2797TIP3    H2 8398   4.068   0.452  -0.020
 2798TIP3   OH2 8399   5.980   0.741   4.233
 2798TIP3    H1 8400   6.015   0.699   4.155
 2798TIP3    H2 8401   5.923   0.676   4.273
 2799TIP3   OH2 8402   6.302   3.535   4.123
 2799TIP3    H1 8403   6.359   3.605   4.091
 2799TIP3    H2 8404   6.274   3.564   4.209
 2800TIP3   OH2 8405   3.597   5.684   0.430
 2800TIP3    H1 8406   3.593   5.732   0.347
 2800TIP3    H2 8407   3.523   5.717   0.480
 2801TIP3   OH2 8408   5.154   5.210   3.358
 2801TIP3    H1 8409   5.064   5.196   3.387
 2801TIP3    H2 8410   5.206   5.152   3.413
 2802TIP3   OH2 8411   2.753   1.764   3.790
 2802TIP3    H1 8412   2.844   1.792   3.777
 2802TIP3    H2 8413   2.708   1.843   3.821
 2803TIP3   OH2 8414   2.777   3.231   5.065
 2803TIP3    H1 8415   2.692   3.192   5.044
 2803TIP3    H2 8416   2.786   3.305   5.005
 2804TIP3   OH2 8417   3.364   4.590   5.028
 2804TIP3    H1 8418   3.326   4.560   5.110
 2804TIP3    H2 8419   3.453   4.554   5.028
 2805TIP3   OH2 8420   5.364   4.000   1.759
 2805TIP3    H1 8421   5.429   4.066   1.734
 2805TIP3    H2 8422   5.355   4.011   1.854
 2806TIP3   OH2 8423   4.866   3.601   0.395
 2806TIP3    H1 8424   4.922   3.524   0.390
 2806TIP3    H2 8425   4.926   3.672   0.419
 2807TIP3   OH2 8426   0.771   3.890   2.440
 2807TIP3    H1 8427   0.866   3.878   2.440
 2807TIP3    H2 8428   0.743   3.856   2.355
 2808TIP3   OH2 8429   1.129   3.097   2.208
 2808TIP3    H1 8430   1.085   3.025   2.165
 2808TIP3    H2 8431   1.153   3.062   2.294
 2809TIP3   OH2 8432   3.679   0.298   2.657
 2809TIP3    H1 8433   3.749   0.271   2.717
 2809TIP3    H2 8434   3.724   0.320   2.576
 2810TIP3   OH2 8435   5.789   4.215   3.537
 2810TIP3    H1 8436   5.732   4.290   3.551
 2810TIP3    H2 8437   5.862   4.230   3.598
 2811TIP3   OH2 8438   3.281   0.200   0.380
 2811TIP3    H1 8439   3.218   0.272   0.387
 2811TIP3    H2 8440   3.229   0.123   0.362
 2812TIP3   OH2 8441   5.132   3.594   0.589
 2812TIP3    H1 8442   5.122   3.689   0.586
 2812TIP3    H2 8443   5.208   3.576   0.534
 2813TIP3   OH2 8444   0.608   0.945   4.214
 2813TIP3    H1 8445   0.594   1.016   4.151
 2813TIP3    H2 8446   0.606   0.987   4.299
 2814TIP3   OH2 8447   4.297   0.952   1.040
 2814TIP3    H1 8448   4.375   0.932   1.092
 2814TIP3    H2 8449   4.313   0.910   0.956
 2815TIP3   OH2 8450   4.621   0.835   4.988
 2815TIP3    H1 8451   4.630   0.743   5.012
 2815TIP3    H2 8452   4.538   0.862   5.025
 2816TIP3   OH2 8453   3.247   2.043   2.989
 2816TIP3    H1 8454   3.224   2.136   2.994
 2816TIP3    H2 8455   3.236   2.010   3.078
 2817TIP3   OH2 8456   1.323   3.736   1.603
 2817TIP3    H1 8457   1.304   3.677   1.530
 2817TIP3    H2 8458   1.303   3.823   1.570
 2818TIP3   OH2 8459   3.367   2.189   2.192
 2818TIP3    H1 8460   3.278   2.203   2.225
 2818TIP3    H2 8461   3.416   2.157   2.268
 2819TIP3   OH2 8462   6.139   0.664   0.510
 2819TIP3    H1 8463   6.072   0.686   0.576
 2819TIP3    H2 8464   6.209   0.727   0.525
 2820TIP3   OH2 8465   2.016   3.536   3.701
 2820TIP3    H1 8466   1.976   3.580   3.776
 2820TIP3    H2 8467   1.995   3.443   3.714
 2821TIP3   OH2 8468   4.334   3.864   3.583
 2821TIP3    H1 8469   4.407   3.903   3.632
 2821TIP3    H2 8470   4.258   3.874   3.641
 2822TIP3   OH2 8471   1.518   4.849   0.740
 2822TIP3    H1 8472   1.472   4.932   0.737
 2822TIP3    H2 8473   1.601   4.865   0.695
 2823TIP3   OH2 8474   4.321   4.351   4.414
 2823TIP3    H1 8475   4.230   4.340   4.440
 2823TIP3    H2 8476   4.338   4.279   4.353
 2824TIP3   OH2 8477   5.658   3.660   4.046
 2824TIP3    H1 8478   5.603   3.703   3.980
 2824TIP3    H2 8479   5.621   3.689   4.130
 2825TIP3   OH2 8480   3.779   1.030   2.729
 2825TIP3    H1 8481   3.772   1.114   2.684
 2825TIP3    H2 8482   3.696   0.987   2.713
 2826TIP3   OH2 8483   5.192   5.703   1.753
 2826TIP3    H1 8484   5.146   5.768   1.807
 2826TIP3    H2 8485   5.171   5.619   1.793
 2827TIP3   OH2 8486   0.161   5.193   1.452
 2827TIP3    H1 8487   0.184   5.247   1.528
 2827TIP3    H2 8488   0.128   5.256   1.388
 2828TIP3   OH2 8489   0.832   3.864   3.862
 2828TIP3    H1 8490   0.920   3.836   3.838
 2828TIP3    H2 8491   0.828   3.956   3.837
 2829TIP3   OH2 8492   6.284   3.988   0.712
 2829TIP3    H1 8493   6.331   3.984   0.795
 2829TIP3    H2 8494   6.306   3.906   0.668
 2830TIP3   OH2 8495   3.490   3.405   4.877
 2830TIP3    H1 8496   3.459   3.360   4.956
 2830TIP3    H2 8497   3.412   3.445   4.839
 2831TIP3   OH2 8498   3.509   4.035   5.075
 2831TIP3    H1 8499   3.505   3.987   4.992
 2831TIP3    H2 8500   3.448   4.108   5.063
 2832TIP3   OH2 8501   4.519   1.864   3.132
 2832TIP3    H1 8502   4.584   1.907   3.188
 2832TIP3    H2 8503   4.456   1.826   3.194
 2833TIP3   OH2 8504   1.543   1.930   3.540
 2833TIP3    H1 8505   1.491   1.993   3.490
 2833TIP3    H2 8506   1.525   1.952   3.632
 2834TIP3   OH2 8507   4.806   5.511   4.868
 2834TIP3    H1 8508   4.767   5.451   4.932
 2834TIP3    H2 8509   4.787   5.598   4.903
 2835TIP3   OH2 8510   5.505   1.281   2.738
 2835TIP3    H1 8511   5.479   1.371   2.756
 2835TIP3    H2 8512   5.586   1.289   2.687
 2836TIP3   OH2 8513   5.823   0.550   0.444
 2836TIP3    H1 8514   5.801   0.498   0.522
 2836TIP3    H2 8515   5.907   0.516   0.416
 2837TIP3   OH2 8516   2.782   1.925   4.324
 2837TIP3    H1 8517   2.832   1.989   4.374
 2837TIP3    H2 8518   2.712   1.898   4.383
 2838TIP3   OH2 8519   3.628   2.928   1.021
 2838TIP3    H1 8520   3.697   2.993   1.004
 2838TIP3    H2 8521   3.583   2.918   0.937
 2839TIP3   OH2 8522   5.729   5.289   3.745
 2839TIP3    H1 8523   5.762   5.371   3.782
 2839TIP3    H2 8524   5.778   5.277   3.664
 2840TIP3   OH2 8525   4.491   3.886   1.134
 2840TIP3    H1 8526   4.570   3.875   1.081
 2840TIP3    H2 8527   4.422   3.907   1.071
 2841TIP3   OH2 8528   4.042   0.624   0.617
 2841TIP3    H1 8529   4.067   0.710   0.584
 2841TIP3    H2 8530   4.015   0.641   0.708
 2842TIP3   OH2 8531   0.209   5.190   0.422
 2842TIP3    H1 8532   0.117   5.212   0.438
 2842TIP3    H2 8533   0.258   5.262   0.460
 2843TIP3   OH2 8534   6.189   3.171   4.771
 2843TIP3    H1 8535   6.109   3.219   4.748
 2843TIP3    H2 8536   6.198   3.107   4.700
 2844TIP3   OH2 8537   0.949   2.246   2.862
 2844TIP3    H1 8538   1.042   2.241   2.887
 2844TIP3    H2 8539   0.904   2.194   2.929
 2845TIP3   OH2 8540   2.187   4.336   0.293
 2845TIP3    H1 8541   2.101   4.367   0.265
 2845TIP3    H2 8542   2.168   4.262   0.351
 2846TIP3   OH2 8543   6.054   3.727   1.896
 2846TIP3    H1 8544   6.024   3.818   1.895
 2846TIP3    H2 8545   6.128   3.725   1.836
 2847TIP3   OH2 8546   2.983   2.051   0.855
 2847TIP3    H1 8547   2.943   2.067   0.940
 2847TIP3    H2 8548   2.964   1.960   0.836
 2848TIP3   OH2 8549   4.301   5.709   5.075
 2848TIP3    H1 8550   4.268   5.693   4.986
 2848TIP3    H2 8551   4.360   5.783   5.065
 2849TIP3   OH2 8552   4.918   0.256   4.354
 2849TIP3    H1 8553   4.999   0.300   4.327
 2849TIP3    H2 8554   4.868   0.244   4.274
 2850TIP3   OH2 8555   1.027   1.515   1.244
 2850TIP3    H1 8556   0.984   1.601   1.246
 2850TIP3    H2 8557   1.111   1.530   1.287
 2851TIP3   OH2 8558   2.981   5.130   2.595
 2851TIP3    H1 8559   2.980   5.043   2.555
 2851TIP3    H2 8560   2.962   5.114   2.687
 2852TIP3   OH2 8561   0.467   1.930   1.612
 2852TIP3    H1 8562   0.453   1.859   1.549
 2852TIP3    H2 8563   0.415   1.905   1.688
 2853TIP3   OH2 8564   2.021   2.011   2.690
 2853TIP3    H1 8565   2.114   2.021   2.673
 2853TIP3    H2 8566   1.985   2.100   2.679
 2854TIP3   OH2 8567   3.302   4.218   0.779
 2854TIP3    H1 8568   3.252   4.177   0.709
 2854TIP3    H2 8569   3.378   4.161   0.790
 2855TIP3   OH2 8570   4.094   2.258   3.165
 2855TIP3    H1 8571   4.006   2.252   3.203
 2855TIP3    H2 8572   4.079   2.248   3.071
 2856TIP3   OH2 8573   3.763   4.402   1.916
 2856TIP3    H1 8574   3.837   4.386   1.975
 2856TIP3    H2 8575   3.686   4.378   1.967
 2857TIP3   OH2 8576   1.573   0.229   5.033
 2857TIP3    H1 8577   1.616   0.310   5.062
 2857TIP3    H2 8578   1.546   0.186   5.114
 2858TIP3   OH2 8579   0.822   1.459   1.482
 2858TIP3    H1 8580   0.808   1.402   1.558
 2858TIP3    H2 8581   0.906   1.502   1.500
 2859TIP3   OH2 8582   5.033   1.467   1.405
 2859TIP3    H1 8583   5.041   1.382   1.363
 2859TIP3    H2 8584   5.120   1.485   1.441
 2860TIP3   OH2 8585   5.798   2.436   4.747
 2860TIP3    H1 8586   5.814   2.348   4.712
 2860TIP3    H2 8587   5.752   2.420   4.829
 2861TIP3   OH2 8588   0.109   0.639   3.600
 2861TIP3    H1 8589   0.061   0.722   3.594
 2861TIP3    H2 8590   0.041   0.572   3.588
 2862TIP3   OH2 8591   3.815   2.970   2.192
 2862TIP3    H1 8592   3.846   2.933   2.109
 2862TIP3    H2 8593   3.843   2.907   2.259
 2863TIP3   OH2 8594   5.627   4.176   5.111
 2863TIP3    H1 8595   5.674   4.256   5.090
 2863TIP3    H2 8596   5.549   4.205   5.159
 2864TIP3   OH2 8597   1.336   3.779   2.340
 2864TIP3    H1 8598   1.373   3.705   2.389
 2864TIP3    H2 8599   1.394   3.852   2.359
 2865TIP3   OH2 8600   5.989   4.219   4.014
 2865TIP3    H1 8601   5.996   4.284   4.084
 2865TIP3    H2 8602   5.918   4.162   4.041
 2866TIP3   OH2 8603   5.653   2.809   2.257
 2866TIP3    H1 8604   5.722   2.779   2.315
 2866TIP3    H2 8605   5.634   2.898   2.286
 2867TIP3   OH2 8606   0.607   0.420   0.638
 2867TIP3    H1 8607   0.681   0.481   0.634
 2867TIP3    H2 8608   0.643   0.335   0.614
 2868TIP3   OH2 8609   6.148   3.279   0.830
 2868TIP3    H1 8610   6.080   3.290   0.897
 2868TIP3    H2 8611   6.108   3.313   0.750
 2869TIP3   OH2 8612   2.753   0.072   0.265
 2869TIP3    H1 8613   2.751   0.077   0.361
 2869TIP3    H2 8614   2.661   0.071   0.239
 2870TIP3   OH2 8615   6.219   1.170   4.741
 2870TIP3    H1 8616   6.247   1.119   4.817
 2870TIP3    H2 8617   6.219   1.107   4.668
 2871TIP3   OH2 8618   2.439   4.987   4.466
 2871TIP3    H1 8619   2.449   5.063   4.410
 2871TIP3    H2 8620   2.409   4.917   4.408
 2872TIP3   OH2 8621   4.645   1.399   1.629
 2872TIP3    H1 8622   4.558   1.430   1.605
 2872TIP3    H2 8623   4.648   1.309   1.598
 2873TIP3   OH2 8624   0.523   3.625   4.674
 2873TIP3    H1 8625   0.569   3.700   4.637
 2873TIP3    H2 8626   0.530   3.637   4.769
 2874TIP3   OH2 8627   1.729   3.063   3.089
 2874TIP3    H1 8628   1.730   3.142   3.143
 2874TIP3    H2 8629   1.639   3.031   3.094
 2875TIP3   OH2 8630   0.031   2.458   3.146
 2875TIP3    H1 8631   0.076   2.524   3.093
 2875TIP3    H2 8632  -0.030   2.508   3.200
 2876TIP3   OH2 8633   1.299   0.585   3.882
 2876TIP3    H1 8634   1.226   0.538   3.841
 2876TIP3    H2 8635   1.289   0.675   3.851
 2877TIP3   OH2 8636   3.324   5.618   4.843
 2877TIP3    H1 8637   3.257   5.671   4.886
 2877TIP3    H2 8638   3.279   5.580   4.768
 2878TIP3   OH2 8639   3.126   2.146   4.617
 2878TIP3    H1 8640   3.065   2.075   4.601
 2878TIP3    H2 8641   3.148   2.139   4.710
 2879TIP3   OH2 8642   3.475   0.450   2.763
 2879TIP3    H1 8643   3.546   0.393   2.734
 2879TIP3    H2 8644   3.476   0.523   2.701
 2880TIP3   OH2 8645   2.792   1.997   2.591
 2880TIP3    H1 8646   2.831   1.913   2.568
 2880TIP3    H2 8647   2.700   1.988   2.570
 2881TIP3   OH2 8648   3.515   0.987   3.436
 2881TIP3    H1 8649   3.437   0.952   3.392
 2881TIP3    H2 8650   3.583   0.922   3.420
 2882TIP3   OH2 8651   4.658   0.159   4.743
 2882TIP3    H1 8652   4.752   0.156   4.757
 2882TIP3    H2 8653   4.642   0.097   4.671
 2883TIP3   OH2 8654   1.129   3.506   2.597
 2883TIP3    H1 8655   1.127   3.600   2.612
 2883TIP3    H2 8656   1.077   3.469   2.670
 2884TIP3   OH2 8657   2.310   3.213   0.014
 2884TIP3    H1 8658   2.216   3.221   0.032
 2884TIP3    H2 8659   2.348   3.184   0.097
 2885TIP3   OH2 8660   3.045   2.883   4.593
 2885TIP3    H1 8661   3.016   2.974   4.587
 2885TIP3    H2 8662   3.018   2.855   4.680
 2886TIP3   OH2 8663   2.260   4.496   1.852
 2886TIP3    H1 8664   2.200   4.428   1.822
 2886TIP3    H2 8665   2.323   4.507   1.780
 2887TIP3   OH2 8666   1.783   4.711   1.625
 2887TIP3    H1 8667   1.753   4.628   1.587
 2887TIP3    H2 8668   1.762   4.704   1.718
 2888TIP3   OH2 8669   1.999   4.578   4.312
 2888TIP3    H1 8670   2.015   4.497   4.360
 2888TIP3    H2 8671   2.054   4.643   4.356
 2889TIP3   OH2 8672   1.243   5.676   4.274
 2889TIP3    H1 8673   1.235   5.675   4.179
 2889TIP3    H2 8674   1.331   5.642   4.291
 2890TIP3   OH2 8675   3.114   3.278   1.332
 2890TIP3    H1 8676   3.173   3.320   1.395
 2890TIP3    H2 8677   3.070   3.210   1.382
 2891TIP3   OH2 8678   4.637   2.572   0.454
 2891TIP3    H1 8679   4.616   2.529   0.371
 2891TIP3    H2 8680   4.615   2.664   0.441
 2892TIP3   OH2 8681   5.998   4.048   0.783
 2892TIP3    H1 8682   5.963   4.118   0.726
 2892TIP3    H2 8683   6.090   4.040   0.756
 2893TIP3   OH2 8684   1.521   2.230   1.966
 2893TIP3    H1 8685   1.479   2.315   1.971
 2893TIP3    H2 8686   1.464   2.178   1.909
 2894TIP3   OH2 8687   0.514   1.316   1.917
 2894TIP3    H1 8688   0.419   1.316   1.930
 2894TIP3    H2 8689   0.526   1.329   1.823
 2895TIP3   OH2 8690   5.147   1.133   3.604
 2895TIP3    H1 8691   5.069   1.175   3.641
 2895TIP3    H2 8692   5.122   1.112   3.514
 2896TIP3   OH2 8693   0.040   3.060   4.945
 2896TIP3    H1 8694   0.104   3.123   4.913
 2896TIP3    H2 8695  -0.034   3.066   4.884
 2897TIP3   OH2 8696   5.780   3.724   2.050
 2897TIP3    H1 8697   5.829   3.803   2.029
 2897TIP3    H2 8698   5.762   3.731   2.144
 2898TIP3   OH2 8699   5.764   0.920   1.297
 2898TIP3    H1 8700   5.670   0.900   1.294
 2898TIP3    H2 8701   5.781   0.966   1.215
 2899TIP3   OH2 8702   3.198   5.107   0.474
 2899TIP3    H1 8703   3.103   5.093   0.477
 2899TIP3    H2 8704   3.227   5.090   0.563
 2900TIP3   OH2 8705   6.067   2.057   0.105
 2900TIP3    H1 8706   6.145   2.105   0.076
 2900TIP3    H2 8707   6.081   2.043   0.199
 2901TIP3   OH2 8708   0.997   4.540   3.266
 2901TIP3    H1 8709   1.056   4.465   3.260
 2901TIP3    H2 8710   0.964   4.551   3.176
 2902TIP3   OH2 8711   0.307   0.843   4.531
 2902TIP3    H1 8712   0.252   0.870   4.458
 2902TIP3    H2 8713   0.374   0.911   4.538
 2903TIP3   OH2 8714   3.666   4.491   1.604
 2903TIP3    H1 8715   3.609   4.449   1.539
 2903TIP3    H2 8716   3.755   4.464   1.579
 2904TIP3   OH2 8717   5.938   0.204   4.478
 2904TIP3    H1 8718   5.851   0.196   4.516
 2904TIP3    H2 8719   5.961   0.114   4.452
 2905TIP3   OH2 8720   0.463   3.828   2.310
 2905TIP3    H1 8721   0.418   3.912   2.323
 2905TIP3    H2 8722   0.454   3.783   2.394
 2906TIP3   OH2 8723   1.379   1.615   4.912
 2906TIP3    H1 8724   1.411   1.705   4.910
 2906TIP3    H2 8725   1.458   1.562   4.922
 2907TIP3   OH2 8726   3.343   1.943   0.397
 2907TIP3    H1 8727   3.422   1.993   0.417
 2907TIP3    H2 8728   3.276   2.009   0.382
 2908TIP3   OH2 8729   2.366   4.584   0.172
 2908TIP3    H1 8730   2.315   4.522   0.225
 2908TIP3    H2 8731   2.316   4.665   0.177
 2909TIP3   OH2 8732   0.733   0.667   0.471
 2909TIP3    H1 8733   0.664   0.713   0.519
 2909TIP3    H2 8734   0.744   0.718   0.391
 2910TIP3   OH2 8735   2.573   3.618   1.809
 2910TIP3    H1 8736   2.566   3.713   1.823
 2910TIP3    H2 8737   2.518   3.579   1.876
 2911TIP3   OH2 8738   4.690   1.731   0.688
 2911TIP3    H1 8739   4.614   1.676   0.706
 2911TIP3    H2 8740   4.731   1.744   0.773
 2912TIP3   OH2 8741   5.973   3.108   1.592
 2912TIP3    H1 8742   5.910   3.109   1.663
 2912TIP3    H2 8743   5.925   3.074   1.517
 2913TIP3   OH2 8744   3.384   4.567   4.146
 2913TIP3    H1 8745   3.418   4.485   4.182
 2913TIP3    H2 8746   3.295   4.574   4.181
 2914TIP3   OH2 8747   4.038   4.986   3.770
 2914TIP3    H1 8748   4.009   4.985   3.861
 2914TIP3    H2 8749   3.962   5.015   3.720
 2915TIP3   OH2 8750   2.443   3.276   0.522
 2915TIP3    H1 8751   2.406   3.201   0.569
 2915TIP3    H2 8752   2.538   3.264   0.530
 2916TIP3   OH2 8753   0.865   1.701   3.821
 2916TIP3    H1 8754   0.812   1.744   3.754
 2916TIP3    H2 8755   0.873   1.611   3.790
 2917TIP3   OH2 8756   3.136   3.619   0.687
 2917TIP3    H1 8757   3.184   3.560   0.629
 2917TIP3    H2 8758   3.074   3.563   0.734
 2918TIP3   OH2 8759   3.943   0.057   4.792
 2918TIP3    H1 8760   3.891   0.133   4.765
 2918TIP3    H2 8761   3.881  -0.016   4.791
 2919TIP3   OH2 8762   3.538   0.853   0.217
 2919TIP3    H1 8763   3.561   0.943   0.238
 2919TIP3    H2 8764   3.480   0.825   0.287
 2920TIP3   OH2 8765   1.825   3.387   1.671
 2920TIP3    H1 8766   1.898   3.444   1.697
 2920TIP3    H2 8767   1.855   3.344   1.591
 2921TIP3   OH2 8768   3.492   0.226   2.259
 2921TIP3    H1 8769   3.500   0.141   2.303
 2921TIP3    H2 8770   3.571   0.234   2.206
 2922TIP3   OH2 8771   1.602   3.347   1.387
 2922TIP3    H1 8772   1.671   3.295   1.429
 2922TIP3    H2 8773   1.622   3.343   1.294
 2923TIP3   OH2 8774   0.173   3.269   0.172
 2923TIP3    H1 8775   0.145   3.232   0.256
 2923TIP3    H2 8776   0.184   3.194   0.115
 2924TIP3   OH2 8777   0.589   1.237   1.150
 2924TIP3    H1 8778   0.505   1.279   1.129
 2924TIP3    H2 8779   0.624   1.212   1.065
 2925TIP3   OH2 8780   5.659   3.501   2.438
 2925TIP3    H1 8781   5.687   3.506   2.529
 2925TIP3    H2 8782   5.675   3.589   2.403
 2926TIP3   OH2 8783   5.551   4.328   3.117
 2926TIP3    H1 8784   5.465   4.370   3.123
 2926TIP3    H2 8785   5.533   4.239   3.088
 2927TIP3   OH2 8786   2.795   1.177   4.765
 2927TIP3    H1 8787   2.787   1.147   4.855
 2927TIP3    H2 8788   2.711   1.218   4.746
 2928TIP3   OH2 8789   2.759   1.545   0.470
 2928TIP3    H1 8790   2.793   1.541   0.380
 2928TIP3    H2 8791   2.801   1.622   0.508
 2929TIP3   OH2 8792   1.683   1.954   4.613
 2929TIP3    H1 8793   1.724   2.039   4.598
 2929TIP3    H2 8794   1.616   1.948   4.545
 2930TIP3   OH2 8795   5.542   4.984   2.940
 2930TIP3    H1 8796   5.512   5.046   3.007
 2930TIP3    H2 8797   5.503   5.017   2.859
 2931TIP3   OH2 8798   4.309   1.410   2.385
 2931TIP3    H1 8799   4.332   1.369   2.468
 2931TIP3    H2 8800   4.260   1.489   2.410
 2932TIP3   OH2 8801   1.238   5.967   0.005
 2932TIP3    H1 8802   1.170   5.943   0.068
 2932TIP3    H2 8803   1.209   6.051  -0.030
 2933TIP3   OH2 8804   0.863   1.845   3.186
 2933TIP3    H1 8805   0.845   1.875   3.276
 2933TIP3    H2 8806   0.815   1.763   3.179
 2934TIP3   OH2 8807   2.652   5.662   2.079
 2934TIP3    H1 8808   2.706   5.646   2.157
 2934TIP3    H2 8809   2.608   5.579   2.063
 2935TIP3   OH2 8810   2.544   1.233   0.705
 2935TIP3    H1 8811   2.529   1.199   0.793
 2935TIP3    H2 8812   2.596   1.312   0.718
 2936TIP3   OH2 8813   4.706   3.183   0.225
 2936TIP3    H1 8814   4.714   3.234   0.144
 2936TIP3    H2 8815   4.761   3.105   0.210
 2937TIP3   OH2 8816   5.164   2.800   4.371
 2937TIP3    H1 8817   5.225   2.758   4.432
 2937TIP3    H2 8818   5.083   2.749   4.378
 2938TIP3   OH2 8819   0.182   0.127   2.896
 2938TIP3    H1 8820   0.211   0.040   2.871
 2938TIP3    H2 8821   0.261   0.180   2.898
 2939TIP3   OH2 8822   2.266   4.204   0.024
 2939TIP3    H1 8823   2.327   4.154   0.078
 2939TIP3    H2 8824   2.185   4.207   0.076
 2940TIP3   OH2 8825   2.172   5.439   1.701
 2940TIP3    H1 8826   2.240   5.464   1.764
 2940TIP3    H2 8827   2.182   5.344   1.691
 2941TIP3   OH2 8828   5.188   0.503   5.019
 2941TIP3    H1 8829   5.175   0.585   5.068
 2941TIP3    H2 8830   5.116   0.502   4.956
 2942TIP3   OH2 8831   2.066   1.921   3.396
 2942TIP3    H1 8832   2.043   1.862   3.324
 2942TIP3    H2 8833   2.160   1.909   3.407
 2943TIP3   OH2 8834   1.554   1.206   2.589
 2943TIP3    H1 8835   1.639   1.215   2.632
 2943TIP3    H2 8836   1.536   1.292   2.553
 2944TIP3   OH2 8837   5.425   0.529   5.159
 2944TIP3    H1 8838   5.358   0.505   5.094
 2944TIP3    H2 8839   5.374   0.558   5.235
 2945TIP3   OH2 8840   6.124   2.372   2.401
 2945TIP3    H1 8841   6.154   2.282   2.385
 2945TIP3    H2 8842   6.188   2.426   2.354
 2946TIP3   OH2 8843   5.858   5.282   2.744
 2946TIP3    H1 8844   5.899   5.262   2.828
 2946TIP3    H2 8845   5.794   5.351   2.765
 2947TIP3   OH2 8846   1.887   5.225   5.030
 2947TIP3    H1 8847   1.822   5.182   4.974
 2947TIP3    H2 8848   1.838   5.294   5.074
 2948TIP3   OH2 8849   4.664   4.042   4.506
 2948TIP3    H1 8850   4.650   4.000   4.591
 2948TIP3    H2 8851   4.579   4.035   4.463
 2949TIP3   OH2 8852   4.942   0.883   0.595
 2949TIP3    H1 8853   4.882   0.942   0.641
 2949TIP3    H2 8854   4.886   0.831   0.538
 2950TIP3   OH2 8855   3.288   2.031   5.122
 2950TIP3    H1 8856   3.375   2.025   5.081
 2950TIP3    H2 8857   3.253   1.942   5.114
 2951TIP3   OH2 8858   1.568   0.955   2.480
 2951TIP3    H1 8859   1.621   0.985   2.406
 2951TIP3    H2 8860   1.547   1.035   2.528
 2952TIP3   OH2 8861   5.661   2.115   3.008
 2952TIP3    H1 8862   5.620   2.029   2.997
 2952TIP3    H2 8863   5.589   2.173   3.031
 2953TIP3   OH2 8864   2.908   5.037   4.114
 2953TIP3    H1 8865   2.817   5.041   4.142
 2953TIP3    H2 8866   2.954   4.999   4.189
 2954TIP3   OH2 8867   5.152   2.132   3.692
 2954TIP3    H1 8868   5.196   2.061   3.645
 2954TIP3    H2 8869   5.199   2.211   3.664
 2955TIP3   OH2 8870   2.006   5.685   5.091
 2955TIP3    H1 8871   1.973   5.761   5.043
 2955TIP3    H2 8872   2.085   5.659   5.044
 2956TIP3   OH2 8873   2.027   5.910   4.955
 2956TIP3    H1 8874   1.965   5.926   4.884
 2956TIP3    H2 8875   2.112   5.902   4.912
 2957TIP3   OH2 8876   0.129   0.602   1.747
 2957TIP3    H1 8877   0.116   0.684   1.796
 2957TIP3    H2 8878   0.211   0.616   1.699
 2958TIP3   OH2 8879   3.026   0.790   1.561
 2958TIP3    H1 8880   3.089   0.857   1.534
 2958TIP3    H2 8881   2.950   0.806   1.505
 2959TIP3   OH2 8882   5.404   0.095   0.105
 2959TIP3    H1 8883   5.375   0.013   0.143
 2959TIP3    H2 8884   5.373   0.162   0.166
 2960TIP3   OH2 8885   2.581   2.261   2.725
 2960TIP3    H1 8886   2.635   2.189   2.691
 2960TIP3    H2 8887   2.550   2.230   2.810
 2961TIP3   OH2 8888   1.331   1.728   3.477
 2961TIP3    H1 8889   1.336   1.746   3.383
 2961TIP3    H2 8890   1.421   1.737   3.507
 2962TIP3   OH2 8891   1.793   4.680   3.122
 2962TIP3    H1 8892   1.828   4.621   3.188
 2962TIP3    H2 8893   1.698   4.669   3.128
 2963TIP3   OH2 8894   5.767   0.141   2.211
 2963TIP3    H1 8895   5.825   0.216   2.198
 2963TIP3    H2 8896   5.805   0.093   2.284
 2964TIP3   OH2 8897   5.477   5.501   1.095
 2964TIP3    H1 8898   5.465   5.410   1.122
 2964TIP3    H2 8899   5.397   5.546   1.124
 2965TIP3   OH2 8900   5.480   5.350   4.961
 2965TIP3    H1 8901   5.398   5.347   5.010
 2965TIP3    H2 8902   5.457   5.390   4.878
 2966TIP3   OH2 8903   2.556   4.715   2.483
 2966TIP3    H1 8904   2.640   4.720   2.528
 2966TIP3    H2 8905   2.498   4.668   2.543
 2967TIP3   OH2 8906   4.025   2.102   0.819
 2967TIP3    H1 8907   4.117   2.093   0.795
 2967TIP3    H2 8908   4.023   2.177   0.879
 2968TIP3   OH2 8909   2.177   3.242   1.449
 2968TIP3    H1 8910   2.155   3.181   1.520
 2968TIP3    H2 8911   2.148   3.197   1.370
 2969TIP3   OH2 8912   4.308   6.007   3.689
 2969TIP3    H1 8913   4.255   5.968   3.620
 2969TIP3    H2 8914   4.390   5.959   3.687
 2970TIP3   OH2 8915   5.169   3.776   2.783
 2970TIP3    H1 8916   5.184   3.799   2.692
 2970TIP3    H2 8917   5.082   3.736   2.784
 2971TIP3   OH2 8918   0.599   4.757   1.630
 2971TIP3    H1 8919   0.685   4.727   1.601
 2971TIP3    H2 8920   0.567   4.811   1.557
 2972TIP3   OH2 8921   2.458   3.284   1.834
 2972TIP3    H1 8922   2.456   3.354   1.899
 2972TIP3    H2 8923   2.366   3.271   1.810
 2973TIP3   OH2 8924   5.994   0.361   2.530
 2973TIP3    H1 8925   5.959   0.442   2.568
 2973TIP3    H2 8926   5.964   0.362   2.440
 2974TIP3   OH2 8927   5.590   5.751   3.762
 2974TIP3    H1 8928   5.641   5.788   3.690
 2974TIP3    H2 8929   5.597   5.816   3.832
 2975TIP3   OH2 8930   1.169   5.152   4.137
 2975TIP3    H1 8931   1.153   5.177   4.228
 2975TIP3    H2 8932   1.248   5.098   4.140
 2976TIP3   OH2 8933   2.961   0.539   0.178
 2976TIP3    H1 8934   2.916   0.618   0.149
 2976TIP3    H2 8935   2.893   0.471   0.181
 2977TIP3   OH2 8936   3.672   3.838   0.544
 2977TIP3    H1 8937   3.740   3.834   0.476
 2977TIP3    H2 8938   3.703   3.778   0.612
 2978TIP3   OH2 8939   1.197   1.079   1.214
 2978TIP3    H1 8940   1.134   1.136   1.256
 2978TIP3    H2 8941   1.272   1.136   1.194
 2979TIP3   OH2 8942   1.362   1.956   0.589
 2979TIP3    H1 8943   1.414   2.033   0.614
 2979TIP3    H2 8944   1.345   1.911   0.672
 2980TIP3   OH2 8945   3.306   1.733   0.072
 2980TIP3    H1 8946   3.253   1.714   0.149
 2980TIP3    H2 8947   3.278   1.669   0.007
 2981TIP3   OH2 8948   2.702   3.374   3.839
 2981TIP3    H1 8949   2.778   3.335   3.882
 2981TIP3    H2 8950   2.735   3.457   3.803
 2982TIP3   OH2 8951   0.345   5.505   2.655
 2982TIP3    H1 8952   0.361   5.587   2.702
 2982TIP3    H2 8953   0.422   5.494   2.599
 2983TIP3   OH2 8954   1.790   5.336   2.325
 2983TIP3    H1 8955   1.778   5.308   2.416
 2983TIP3    H2 8956   1.875   5.301   2.300
 2984TIP3   OH2 8957   4.255   4.425   1.614
 2984TIP3    H1 8958   4.213   4.381   1.540
 2984TIP3    H2 8959   4.339   4.456   1.579
 2985TIP3   OH2 8960   5.682   3.064   2.327
 2985TIP3    H1 8961   5.702   3.151   2.294
 2985TIP3    H2 8962   5.643   3.078   2.413
 2986TIP3   OH2 8963   4.256   2.283   2.041
 2986TIP3    H1 8964   4.235   2.258   1.951
 2986TIP3    H2 8965   4.172   2.312   2.078
 2987TIP3   OH2 8966   5.970   0.902   1.893
 2987TIP3    H1 8967   6.062   0.911   1.869
 2987TIP3    H2 8968   5.921   0.938   1.819
 2988TIP3   OH2 8969   0.212   5.184   4.873
 2988TIP3    H1 8970   0.120   5.207   4.859
 2988TIP3    H2 8971   0.209   5.103   4.923
 2989TIP3   OH2 8972   5.245   4.514   2.103
 2989TIP3    H1 8973   5.257   4.587   2.043
 2989TIP3    H2 8974   5.253   4.435   2.049
 2990TIP3   OH2 8975   1.191   4.555   3.726
 2990TIP3    H1 8976   1.133   4.626   3.696
 2990TIP3    H2 8977   1.244   4.534   3.649
 2991TIP3   OH2 8978   1.647   5.508   0.136
 2991TIP3    H1 8979   1.562   5.550   0.137
 2991TIP3    H2 8980   1.658   5.474   0.225
 2992TIP3   OH2 8981   1.553   1.696   1.092
 2992TIP3    H1 8982   1.612   1.653   1.154
 2992TIP3    H2 8983   1.612   1.735   1.027
 2993TIP3   OH2 8984   3.678   1.407   3.237
 2993TIP3    H1 8985   3.696   1.317   3.210
 2993TIP3    H2 8986   3.652   1.401   3.329
 2994TIP3   OH2 8987   2.856   5.133   1.453
 2994TIP3    H1 8988   2.852   5.038   1.440
 2994TIP3    H2 8989   2.876   5.168   1.367
 2995TIP3   OH2 8990   6.098   1.067   2.620
 2995TIP3    H1 8991   6.046   1.135   2.662
 2995TIP3    H2 8992   6.188   1.098   2.623
 2996TIP3   OH2 8993   2.705   4.156   4.589
 2996TIP3    H1 8994   2.792   4.122   4.610
 2996TIP3    H2 8995   2.700   4.240   4.636
 2997TIP3   OH2 8996   1.635   0.532   3.259
 2997TIP3    H1 8997   1.687   0.604   3.293
 2997TIP3    H2 8998   1.661   0.525   3.167
 2998TIP3   OH2 8999   0.368   2.392   2.562
 2998TIP3    H1 9000   0.362   2.420   2.653
 2998TIP3    H2 9001   0.447   2.435   2.529
 2999TIP3   OH2 9002   2.561   0.671   0.198
 2999TIP3    H1 9003   2.593   0.591   0.240
 2999TIP3    H2 9004   2.537   0.643   0.110
 3000TIP3   OH2 9005   1.417   3.473   0.159
 3000TIP3    H1 9006   1.445   3.396   0.110
 3000TIP3    H2 9007   1.323   3.480   0.142
 3001TIP3   OH2 9008   1.289   5.738   1.598
 3001TIP3    H1 9009   1.310   5.707   1.510
 3001TIP3    H2 9010   1.311   5.665   1.656
 3002TIP3   OH2 9011   0.200   2.217   2.454
 3002TIP3    H1 9012   0.119   2.246   2.496
 3002TIP3    H2 9013   0.267   2.277   2.486
 3003TIP3   OH2 9014   0.180   1.720   1.556
 3003TIP3    H1 9015   0.131   1.752   1.481
 3003TIP3    H2 9016   0.209   1.633   1.531
 3004TIP3   OH2 9017   3.984   2.524   1.718
 3004TIP3    H1 9018   3.905   2.505   1.669
 3004TIP3    H2 9019   4.034   2.584   1.662
 3005TIP3   OH2 9020   1.707   1.102   0.775
 3005TIP3    H1 9021   1.658   1.067   0.701
 3005TIP3    H2 9022   1.674   1.191   0.785
 3006TIP3   OH2 9023   1.111   3.254   0.125
 3006TIP3    H1 9024   1.158   3.179   0.088
 3006TIP3    H2 9025   1.132   3.326   0.067
 3007TIP3   OH2 9026   2.483   2.431   0.168
 3007TIP3    H1 9027   2.473   2.414   0.074
 3007TIP3    H2 9028   2.453   2.350   0.210
 3008TIP3   OH2 9029   0.293   5.957   1.530
 3008TIP3    H1 9030   0.315   5.931   1.440
 3008TIP3    H2 9031   0.373   5.941   1.580
 3009TIP3   OH2 9032   5.992   4.626   0.448
 3009TIP3    H1 9033   6.065   4.631   0.387
 3009TIP3    H2 9034   6.002   4.541   0.491
 3010TIP3   OH2 9035   0.329   3.606   4.174
 3010TIP3    H1 9036   0.239   3.640   4.171
 3010TIP3    H2 9037   0.330   3.548   4.250
 3011TIP3   OH2 9038   1.812   5.347   4.292
 3011TIP3    H1 9039   1.783   5.390   4.372
 3011TIP3    H2 9040   1.782   5.404   4.221
 3012TIP3   OH2 9041   1.093   1.542   3.051
 3012TIP3    H1 9042   1.050   1.507   3.129
 3012TIP3    H2 9043   1.109   1.634   3.073
 3013TIP3   OH2 9044   4.640   1.426   0.732
 3013TIP3    H1 9045   4.597   1.351   0.691
 3013TIP3    H2 9046   4.651   1.401   0.823
 3014TIP3   OH2 9047   2.196   2.183   0.438
 3014TIP3    H1 9048   2.248   2.187   0.358
 3014TIP3    H2 9049   2.257   2.154   0.505
 3015TIP3   OH2 9050   4.936   0.545   2.751
 3015TIP3    H1 9051   4.937   0.505   2.664
 3015TIP3    H2 9052   4.859   0.602   2.751
 3016TIP3   OH2 9053   4.692   4.678   5.149
 3016TIP3    H1 9054   4.689   4.621   5.226
 3016TIP3    H2 9055   4.647   4.627   5.081
 3017TIP3   OH2 9056   4.990   4.154   1.295
 3017TIP3    H1 9057   5.046   4.133   1.369
 3017TIP3    H2 9058   4.971   4.247   1.305
 3018TIP3   OH2 9059   4.456   0.067   3.467
 3018TIP3    H1 9060   4.494   0.038   3.384
 3018TIP3    H2 9061   4.501   0.015   3.533
 3019TIP3   OH2 9062   4.492   3.978   4.123
 3019TIP3    H1 9063   4.479   4.033   4.045
 3019TIP3    H2 9064   4.577   3.936   4.109
 3020TIP3   OH2 9065   3.720   1.144   0.662
 3020TIP3    H1 9066   3.773   1.155   0.583
 3020TIP3    H2 9067   3.726   1.228   0.707
 3021TIP3   OH2 9068   2.937   2.290   3.471
 3021TIP3    H1 9069   2.919   2.366   3.415
 3021TIP3    H2 9070   3.018   2.312   3.517
 3022TIP3   OH2 9071   3.455   1.890   4.738
 3022TIP3    H1 9072   3.547   1.889   4.713
 3022TIP3    H2 9073   3.433   1.982   4.745
 3023TIP3   OH2 9074   1.410   2.892   2.459
 3023TIP3    H1 9075   1.433   2.864   2.371
 3023TIP3    H2 9076   1.421   2.814   2.513
 3024TIP3   OH2 9077   1.727   4.307   4.162
 3024TIP3    H1 9078   1.752   4.239   4.225
 3024TIP3    H2 9079   1.809   4.352   4.142
 3025TIP3   OH2 9080   1.614   5.936   3.043
 3025TIP3    H1 9081   1.530   5.976   3.069
 3025TIP3    H2 9082   1.616   5.944   2.948
 3026TIP3   OH2 9083   0.678   3.713   0.749
 3026TIP3    H1 9084   0.744   3.775   0.720
 3026TIP3    H2 9085   0.698   3.633   0.701
 3027TIP3   OH2 9086   3.572   1.100   4.830
 3027TIP3    H1 9087   3.606   1.096   4.740
 3027TIP3    H2 9088   3.643   1.138   4.881
 3028TIP3   OH2 9089   4.949   0.534  -0.021
 3028TIP3    H1 9090   4.865   0.554   0.021
 3028TIP3    H2 9091   5.015   0.571   0.038
 3029TIP3   OH2 9092   0.182   1.536   3.106
 3029TIP3    H1 9093   0.109   1.544   3.168
 3029TIP3    H2 9094   0.225   1.454   3.130
 3030TIP3   OH2 9095   0.733   1.671   1.259
 3030TIP3    H1 9096   0.765   1.593   1.305
 3030TIP3    H2 9097   0.797   1.686   1.190
 3031TIP3   OH2 9098   1.188   0.463   4.147
 3031TIP3    H1 9099   1.170   0.446   4.240
 3031TIP3    H2 9100   1.219   0.553   4.145
 3032TIP3   OH2 9101   3.003   0.734   1.194
 3032TIP3    H1 9102   3.068   0.712   1.127
 3032TIP3    H2 9103   2.977   0.650   1.231
 3033TIP3   OH2 9104   3.211   2.509   2.228
 3033TIP3    H1 9105   3.117   2.531   2.231
 3033TIP3    H2 9106   3.222   2.466   2.144
 3034TIP3   OH2 9107   3.632   2.095   0.095
 3034TIP3    H1 9108   3.634   2.150   0.017
 3034TIP3    H2 9109   3.553   2.041   0.085
 3035TIP3   OH2 9110   0.490   4.243   3.473
 3035TIP3    H1 9111   0.516   4.315   3.531
 3035TIP3    H2 9112   0.398   4.227   3.493
 3036TIP3   OH2 9113   6.126   3.425   4.558
 3036TIP3    H1 9114   6.035   3.409   4.533
 3036TIP3    H2 9115   6.177   3.362   4.507
 3037TIP3   OH2 9116   1.919   4.887   3.886
 3037TIP3    H1 9117   1.909   4.850   3.974
 3037TIP3    H2 9118   1.938   4.812   3.830
 3038TIP3   OH2 9119   2.320   2.957   4.094
 3038TIP3    H1 9120   2.358   3.027   4.041
 3038TIP3    H2 9121   2.258   3.002   4.152
 3039TIP3   OH2 9122   3.225   4.853   2.359
 3039TIP3    H1 9123   3.281   4.817   2.290
 3039TIP3    H2 9124   3.276   4.924   2.398
 3040TIP3   OH2 9125   3.286   1.500   2.600
 3040TIP3    H1 9126   3.223   1.484   2.529
 3040TIP3    H2 9127   3.231   1.513   2.677
 3041TIP3   OH2 9128   5.875   0.631   2.565
 3041TIP3    H1 9129   5.801   0.651   2.623
 3041TIP3    H2 9130   5.949   0.678   2.603
 3042TIP3   OH2 9131   0.543   5.550   3.761
 3042TIP3    H1 9132   0.549   5.457   3.739
 3042TIP3    H2 9133   0.622   5.588   3.723
 3043TIP3   OH2 9134   0.444   0.202   4.222
 3043TIP3    H1 9135   0.504   0.258   4.272
 3043TIP3    H2 9136   0.426   0.128   4.280
 3044TIP3   OH2 9137   0.925   2.929   2.134
 3044TIP3    H1 9138   0.932   2.847   2.086
 3044TIP3    H2 9139   0.942   2.905   2.225
 3045TIP3   OH2 9140   4.088   3.043   3.368
 3045TIP3    H1 9141   4.172   2.996   3.370
 3045TIP3    H2 9142   4.048   3.023   3.453
 3046TIP3   OH2 9143   6.119   1.320   3.842
 3046TIP3    H1 9144   6.191   1.339   3.903
 3046TIP3    H2 9145   6.147   1.241   3.795
 3047TIP3   OH2 9146   3.283   1.531   2.903
 3047TIP3    H1 9147   3.342   1.605   2.917
 3047TIP3    H2 9148   3.319   1.460   2.955
 3048TIP3   OH2 9149   5.776   3.950   3.817
 3048TIP3    H1 9150   5.846   3.946   3.752
 3048TIP3    H2 9151   5.718   3.878   3.793
 3049TIP3   OH2 9152   1.111   1.832   3.094
 3049TIP3    H1 9153   1.028   1.821   3.139
 3049TIP3    H2 9154   1.131   1.925   3.101
 3050TIP3   OH2 9155   5.066   1.086   3.131
 3050TIP3    H1 9156   5.030   1.049   3.050
 3050TIP3    H2 9157   4.990   1.102   3.187
 3051TIP3   OH2 9158   2.052   5.184   4.690
 3051TIP3    H1 9159   2.137   5.228   4.694
 3051TIP3    H2 9160   2.022   5.198   4.600
 3052TIP3   OH2 9161   3.759   0.514   0.436
 3052TIP3    H1 9162   3.679   0.471   0.467
 3052TIP3    H2 9163   3.731   0.563   0.359
 3053TIP3   OH2 9164   0.599   5.766   1.570
 3053TIP3    H1 9165   0.688   5.780   1.540
 3053TIP3    H2 9166   0.586   5.831   1.640
 3054TIP3   OH2 9167   0.904   0.734   3.563
 3054TIP3    H1 9168   0.874   0.699   3.647
 3054TIP3    H2 9169   0.999   0.719   3.563
 3055TIP3   OH2 9170   5.283   4.521   0.204
 3055TIP3    H1 9171   5.322   4.446   0.249
 3055TIP3    H2 9172   5.194   4.493   0.182
 3056TIP3   OH2 9173   2.955   0.337   3.301
 3056TIP3    H1 9174   2.922   0.253   3.334
 3056TIP3    H2 9175   3.039   0.316   3.260
 3057TIP3   OH2 9176   0.350   3.329   2.990
 3057TIP3    H1 9177   0.375   3.370   2.907
 3057TIP3    H2 9178   0.294   3.393   3.033
 3058TIP3   OH2 9179   5.688   5.259   5.089
 3058TIP3    H1 9180   5.754   5.316   5.048
 3058TIP3    H2 9181   5.605   5.289   5.053
 3059TIP3   OH2 9182   5.332   1.138   1.155
 3059TIP3    H1 9183   5.383   1.189   1.092
 3059TIP3    H2 9184   5.330   1.193   1.233
 3060TIP3   OH2 9185   5.805   5.470   1.427
 3060TIP3    H1 9186   5.766   5.550   1.391
 3060TIP3    H2 9187   5.807   5.484   1.521
 3061TIP3   OH2 9188   3.990   3.183   1.614
 3061TIP3    H1 9189   4.061   3.141   1.566
 3061TIP3    H2 9190   3.991   3.143   1.700
 3062TIP3   OH2 9191   2.345   2.439   2.158
 3062TIP3    H1 9192   2.316   2.528   2.178
 3062TIP3    H2 9193   2.272   2.401   2.109
 3063TIP3   OH2 9194   0.206   5.147   2.463
 3063TIP3    H1 9195   0.233   5.189   2.545
 3063TIP3    H2 9196   0.111   5.156   2.462
 3064TIP3   OH2 9197   5.023   3.252   5.104
 3064TIP3    H1 9198   4.986   3.316   5.165
 3064TIP3    H2 9199   4.947   3.214   5.060
 3065TIP3   OH2 9200   5.257   3.866   3.346
 3065TIP3    H1 9201   5.288   3.806   3.278
 3065TIP3    H2 9202   5.291   3.829   3.428
 3066TIP3   OH2 9203   2.405   5.871   0.971
 3066TIP3    H1 9204   2.337   5.819   0.929
 3066TIP3    H2 9205   2.393   5.854   1.065
 3067TIP3   OH2 9206   2.413   0.476   4.515
 3067TIP3    H1 9207   2.413   0.530   4.435
 3067TIP3    H2 9208   2.323   0.444   4.523
 3068TIP3   OH2 9209   5.542   4.653   0.122
 3068TIP3    H1 9210   5.448   4.666   0.134
 3068TIP3    H2 9211   5.548   4.575   0.067
 3069TIP3   OH2 9212   1.974   3.117   1.217
 3069TIP3    H1 9213   2.035   3.157   1.155
 3069TIP3    H2 9214   1.922   3.057   1.163
 3070TIP3   OH2 9215   2.623   2.881   4.480
 3070TIP3    H1 9216   2.699   2.879   4.421
 3070TIP3    H2 9217   2.550   2.854   4.424
 3071TIP3   OH2 9218   6.267   5.733   4.269
 3071TIP3    H1 9219   6.192   5.766   4.219
 3071TIP3    H2 9220   6.229   5.667   4.328
 3072TIP3   OH2 9221   1.054   5.657   1.368
 3072TIP3    H1 9222   1.139   5.701   1.363
 3072TIP3    H2 9223   1.049   5.603   1.290
 3073TIP3   OH2 9224   6.102   3.705   4.659
 3073TIP3    H1 9225   6.158   3.651   4.715
 3073TIP3    H2 9226   6.048   3.642   4.611
 3074TIP3   OH2 9227   5.378   5.689   2.151
 3074TIP3    H1 9228   5.390   5.733   2.067
 3074TIP3    H2 9229   5.329   5.610   2.130
 3075TIP3   OH2 9230   2.605   2.853   0.331
 3075TIP3    H1 9231   2.580   2.801   0.254
 3075TIP3    H2 9232   2.528   2.852   0.387
 3076TIP3   OH2 9233   0.824   5.507   4.048
 3076TIP3    H1 9234   0.745   5.493   4.100
 3076TIP3    H2 9235   0.896   5.483   4.106
 3077TIP3   OH2 9236   3.748   3.570   1.718
 3077TIP3    H1 9237   3.660   3.608   1.713
 3077TIP3    H2 9238   3.757   3.518   1.638
 3078TIP3   OH2 9239   1.940   5.043   0.695
 3078TIP3    H1 9240   1.922   5.063   0.787
 3078TIP3    H2 9241   2.031   5.072   0.682
 3079TIP3   OH2 9242   5.462   3.990   3.499
 3079TIP3    H1 9243   5.553   3.999   3.471
 3079TIP3    H2 9244   5.462   3.912   3.554
 3080TIP3   OH2 9245   4.272   0.429   3.931
 3080TIP3    H1 9246   4.331   0.471   3.868
 3080TIP3    H2 9247   4.326   0.417   4.010
 3081TIP3   OH2 9248   5.535   0.688   2.642
 3081TIP3    H1 9249   5.544   0.783   2.646
 3081TIP3    H2 9250   5.586   0.656   2.716
 3082TIP3   OH2 9251   3.432   2.818   0.208
 3082TIP3    H1 9252   3.397   2.809   0.296
 3082TIP3    H2 9253   3.356   2.843   0.155
 3083TIP3   OH2 9254   1.236   1.943   3.597
 3083TIP3    H1 9255   1.294   1.975   3.666
 3083TIP3    H2 9256   1.258   1.851   3.588
 3084TIP3   OH2 9257   3.714   3.659   4.252
 3084TIP3    H1 9258   3.802   3.691   4.268
 3084TIP3    H2 9259   3.689   3.697   4.168
 3085TIP3   OH2 9260   3.084   1.854   4.832
 3085TIP3    H1 9261   3.117   1.942   4.850
 3085TIP3    H2 9262   3.112   1.802   4.907
 3086TIP3   OH2 9263   0.353   4.424   1.825
 3086TIP3    H1 9264   0.406   4.382   1.893
 3086TIP3    H2 9265   0.292   4.356   1.797
 3087TIP3   OH2 9266   3.466   1.782   1.194
 3087TIP3    H1 9267   3.377   1.757   1.219
 3087TIP3    H2 9268   3.522   1.730   1.251
 3088TIP3   OH2 9269   0.608   1.850   2.362
 3088TIP3    H1 9270   0.649   1.763   2.367
 3088TIP3    H2 9271   0.681   1.910   2.345
 3089TIP3   OH2 9272   3.227   0.744   2.694
 3089TIP3    H1 9273   3.244   0.766   2.786
 3089TIP3    H2 9274   3.307   0.701   2.665
 3090TIP3   OH2 9275   5.642   0.422   3.190
 3090TIP3    H1 9276   5.659   0.511   3.221
 3090TIP3    H2 9277   5.549   0.407   3.210
 3091TIP3   OH2 9278   3.306   0.940   1.154
 3091TIP3    H1 9279   3.325   0.847   1.141
 3091TIP3    H2 9280   3.294   0.974   1.066
 3092TIP3   OH2 9281   2.176   2.961   3.075
 3092TIP3    H1 9282   2.092   3.004   3.060
 3092TIP3    H2 9283   2.219   2.962   2.990
 3093TIP3   OH2 9284   4.207   3.437   1.324
 3093TIP3    H1 9285   4.197   3.408   1.415
 3093TIP3    H2 9286   4.119   3.437   1.288
 3094TIP3   OH2 9287   2.270   4.583   4.021
 3094TIP3    H1 9288   2.186   4.604   3.978
 3094TIP3    H2 9289   2.334   4.637   3.974
 3095TIP3   OH2 9290   0.584   3.024   2.715
 3095TIP3    H1 9291   0.567   2.933   2.739
 3095TIP3    H2 9292   0.502   3.070   2.736
 3096TIP3   OH2 9293   5.826   4.057   2.245
 3096TIP3    H1 9294   5.919   4.037   2.247
 3096TIP3    H2 9295   5.785   3.987   2.296
 3097TIP3   OH2 9296   3.637   3.134   4.041
 3097TIP3    H1 9297   3.681   3.211   4.076
 3097TIP3    H2 9298   3.548   3.164   4.023
 3098TIP3   OH2 9299   4.997   4.983   4.155
 3098TIP3    H1 9300   4.975   5.064   4.109
 3098TIP3    H2 9301   5.025   4.923   4.086
 3099TIP3   OH2 9302   2.439   2.960   3.235
 3099TIP3    H1 9303   2.369   2.976   3.171
 3099TIP3    H2 9304   2.452   3.044   3.278
 3100TIP3   OH2 9305   4.847   3.215   1.405
 3100TIP3    H1 9306   4.906   3.152   1.446
 3100TIP3    H2 9307   4.780   3.232   1.471
 3101TIP3   OH2 9308   0.734   1.126   4.386
 3101TIP3    H1 9309   0.789   1.185   4.334
 3101TIP3    H2 9310   0.795   1.083   4.446
 3102TIP3   OH2 9311   3.149   4.452   2.810
 3102TIP3    H1 9312   3.159   4.394   2.736
 3102TIP3    H2 9313   3.056   4.477   2.810
 3103TIP3   OH2 9314   3.111   4.089   1.752
 3103TIP3    H1 9315   3.136   4.173   1.714
 3103TIP3    H2 9316   3.164   4.025   1.705
 3104TIP3   OH2 9317   4.630   4.877   3.163
 3104TIP3    H1 9318   4.665   4.966   3.165
 3104TIP3    H2 9319   4.611   4.857   3.255
 3105TIP3   OH2 9320   2.814   0.635   5.062
 3105TIP3    H1 9321   2.816   0.543   5.090
 3105TIP3    H2 9322   2.871   0.680   5.123
 3106TIP3   OH2 9323   1.815   0.281   0.391
 3106TIP3    H1 9324   1.784   0.275   0.482
 3106TIP3    H2 9325   1.842   0.373   0.381
 3107TIP3   OH2 9326   4.995   3.687   5.004
 3107TIP3    H1 9327   5.087   3.675   5.030
 3107TIP3    H2 9328   4.998   3.748   4.931
 3108TIP3   OH2 9329   0.582   4.046   2.898
 3108TIP3    H1 9330   0.573   4.085   2.986
 3108TIP3    H2 9331   0.656   3.986   2.907
 3109TIP3   OH2 9332   3.694   0.857   4.531
 3109TIP3    H1 9333   3.696   0.840   4.625
 3109TIP3    H2 9334   3.711   0.951   4.522
 3110TIP3   OH2 9335   5.021   5.446   1.473
 3110TIP3    H1 9336   5.099   5.475   1.427
 3110TIP3    H2 9337   5.046   5.364   1.515
 3111TIP3   OH2 9338   3.999   4.673   3.155
 3111TIP3    H1 9339   4.021   4.611   3.085
 3111TIP3    H2 9340   3.904   4.680   3.152
 3112TIP3   OH2 9341   0.133   0.410   3.999
 3112TIP3    H1 9342   0.197   0.357   3.952
 3112TIP3    H2 9343   0.078   0.448   3.930
 3113TIP3   OH2 9344   5.525   0.793   1.238
 3113TIP3    H1 9345   5.442   0.769   1.281
 3113TIP3    H2 9346   5.500   0.820   1.150
 3114TIP3   OH2 9347   0.306   0.640   3.301
 3114TIP3    H1 9348   0.300   0.617   3.208
 3114TIP3    H2 9349   0.215   0.645   3.331
 3115TIP3   OH2 9350   2.546   2.307   4.429
 3115TIP3    H1 9351   2.508   2.370   4.368
 3115TIP3    H2 9352   2.470   2.259   4.463
 3116TIP3   OH2 9353   5.001   0.571   4.297
 3116TIP3    H1 9354   5.054   0.492   4.288
 3116TIP3    H2 9355   4.952   0.558   4.378
 3117TIP3   OH2 9356   0.893   5.111   4.588
 3117TIP3    H1 9357   0.850   5.150   4.511
 3117TIP3    H2 9358   0.832   5.043   4.617
 3118TIP3   OH2 9359   2.762   3.407   1.002
 3118TIP3    H1 9360   2.853   3.419   1.031
 3118TIP3    H2 9361   2.730   3.334   1.055
 3119TIP3   OH2 9362   2.270   3.945   0.873
 3119TIP3    H1 9363   2.196   3.980   0.923
 3119TIP3    H2 9364   2.229   3.897   0.801
 3120TIP3   OH2 9365   4.424   1.754   3.900
 3120TIP3    H1 9366   4.452   1.662   3.900
 3120TIP3    H2 9367   4.420   1.778   3.992
 3121TIP3   OH2 9368   0.877   0.443   1.659
 3121TIP3    H1 9369   0.933   0.413   1.730
 3121TIP3    H2 9370   0.887   0.377   1.590
 3122TIP3   OH2 9371   0.468   1.952   3.434
 3122TIP3    H1 9372   0.451   1.917   3.522
 3122TIP3    H2 9373   0.513   2.035   3.450
 3123TIP3   OH2 9374   3.583   1.784   0.952
 3123TIP3    H1 9375   3.528   1.745   0.883
 3123TIP3    H2 9376   3.537   1.765   1.033
 3124TIP3   OH2 9377   5.280   0.233   1.245
 3124TIP3    H1 9378   5.221   0.161   1.222
 3124TIP3    H2 9379   5.232   0.312   1.223
 3125TIP3   OH2 9380   5.944   4.625   2.992
 3125TIP3    H1 9381   5.972   4.582   2.911
 3125TIP3    H2 9382   5.926   4.553   3.053
 3126TIP3   OH2 9383   1.083   3.237   3.802
 3126TIP3    H1 9384   1.038   3.283   3.873
 3126TIP3    H2 9385   1.112   3.155   3.842
 3127TIP3   OH2 9386   5.126   2.124   1.729
 3127TIP3    H1 9387   5.111   2.149   1.639
 3127TIP3    H2 9388   5.149   2.205   1.774
 3128TIP3   OH2 9389   1.330   2.842   1.652
 3128TIP3    H1 9390   1.237   2.829   1.675
 3128TIP3    H2 9391   1.348   2.932   1.676
 3129TIP3   OH2 9392   3.223   0.597   1.422
 3129TIP3    H1 9393   3.154   0.645   1.468
 3129TIP3    H2 9394   3.294   0.661   1.412
 3130TIP3   OH2 9395   4.613   1.267   4.604
 3130TIP3    H1 9396   4.701   1.269   4.567
 3130TIP3    H2 9397   4.555   1.262   4.528
 3131TIP3   OH2 9398   1.835   4.099   4.308
 3131TIP3    H1 9399   1.758   4.060   4.348
 3131TIP3    H2 9400   1.888   4.128   4.382
 3132TIP3   OH2 9401   3.200   5.596   1.488
 3132TIP3    H1 9402   3.200   5.554   1.574
 3132TIP3    H2 9403   3.293   5.599   1.463
 3133TIP3   OH2 9404   0.987   3.283   3.432
 3133TIP3    H1 9405   0.923   3.333   3.481
 3133TIP3    H2 9406   1.065   3.281   3.488
 3134TIP3   OH2 9407   3.160   5.901   2.693
 3134TIP3    H1 9408   3.069   5.896   2.723
 3134TIP3    H2 9409   3.199   5.969   2.749
 3135TIP3   OH2 9410   4.399   2.305   2.314
 3135TIP3    H1 9411   4.360   2.276   2.232
 3135TIP3    H2 9412   4.485   2.340   2.288
 3136TIP3   OH2 9413   3.901   5.885   4.488
 3136TIP3    H1 9414   3.913   5.830   4.565
 3136TIP3    H2 9415   3.814   5.863   4.456
 3137TIP3   OH2 9416   5.342   0.462   1.713
 3137TIP3    H1 9417   5.371   0.372   1.696
 3137TIP3    H2 9418   5.364   0.476   1.805
 3138TIP3   OH2 9419   1.212   2.767   3.723
 3138TIP3    H1 9420   1.144   2.763   3.656
 3138TIP3    H2 9421   1.294   2.773   3.674
 3139TIP3   OH2 9422   0.714   4.456   4.468
 3139TIP3    H1 9423   0.623   4.474   4.492
 3139TIP3    H2 9424   0.715   4.462   4.372
 3140TIP3   OH2 9425   4.681   5.312   0.177
 3140TIP3    H1 9426   4.636   5.239   0.134
 3140TIP3    H2 9427   4.611   5.367   0.212
 3141TIP3   OH2 9428   5.288   3.663   4.142
 3141TIP3    H1 9429   5.262   3.708   4.061
 3141TIP3    H2 9430   5.316   3.576   4.113
 3142TIP3   OH2 9431   5.811   0.459   2.308
 3142TIP3    H1 9432   5.810   0.554   2.304
 3142TIP3    H2 9433   5.765   0.438   2.389
 3143TIP3   OH2 9434   2.065   5.962   2.450
 3143TIP3    H1 9435   2.074   6.056   2.442
 3143TIP3    H2 9436   2.097   5.927   2.367
 3144TIP3   OH2 9437   2.913   3.114   3.110
 3144TIP3    H1 9438   2.818   3.120   3.118
 3144TIP3    H2 9439   2.927   3.064   3.029
 3145TIP3   OH2 9440   2.779   0.958   2.402
 3145TIP3    H1 9441   2.740   0.898   2.338
 3145TIP3    H2 9442   2.761   1.045   2.366
 3146TIP3   OH2 9443   3.787   5.343   0.725
 3146TIP3    H1 9444   3.849   5.271   0.730
 3146TIP3    H2 9445   3.761   5.359   0.815
 3147TIP3   OH2 9446   5.510   3.377   0.109
 3147TIP3    H1 9447   5.548   3.417   0.031
 3147TIP3    H2 9448   5.533   3.436   0.181
 3148TIP3   OH2 9449   6.376   5.837   1.982
 3148TIP3    H1 9450   6.294   5.867   1.942
 3148TIP3    H2 9451   6.356   5.748   2.012
 3149TIP3   OH2 9452   2.305   4.280   4.376
 3149TIP3    H1 9453   2.323   4.187   4.370
 3149TIP3    H2 9454   2.382   4.317   4.421
 3150TIP3   OH2 9455   6.189   0.443   3.127
 3150TIP3    H1 9456   6.161   0.510   3.065
 3150TIP3    H2 9457   6.140   0.365   3.102
 3151TIP3   OH2 9458   6.329   5.674   4.881
 3151TIP3    H1 9459   6.383   5.696   4.806
 3151TIP3    H2 9460   6.272   5.749   4.894
 3152TIP3   OH2 9461   5.082   3.800   0.389
 3152TIP3    H1 9462   5.167   3.785   0.346
 3152TIP3    H2 9463   5.067   3.894   0.379
 3153TIP3   OH2 9464   0.631   1.475   4.571
 3153TIP3    H1 9465   0.647   1.401   4.629
 3153TIP3    H2 9466   0.590   1.436   4.494
 3154TIP3   OH2 9467   0.094   0.085   3.947
 3154TIP3    H1 9468   0.063   0.014   4.004
 3154TIP3    H2 9469   0.061   0.062   3.860
 3155TIP3   OH2 9470   1.737   5.471   0.685
 3155TIP3    H1 9471   1.799   5.418   0.636
 3155TIP3    H2 9472   1.791   5.526   0.742
 3156TIP3   OH2 9473   0.967   4.137   0.916
 3156TIP3    H1 9474   0.884   4.141   0.869
 3156TIP3    H2 9475   1.000   4.227   0.913
 3157TIP3   OH2 9476   5.314   4.518   4.667
 3157TIP3    H1 9477   5.331   4.448   4.730
 3157TIP3    H2 9478   5.307   4.597   4.720
 3158TIP3   OH2 9479   4.400   5.241   4.951
 3158TIP3    H1 9480   4.363   5.261   4.864
 3158TIP3    H2 9481   4.333   5.272   5.012
 3159TIP3   OH2 9482   2.862   3.247   1.914
 3159TIP3    H1 9483   2.812   3.244   1.832
 3159TIP3    H2 9484   2.868   3.156   1.941
 3160TIP3   OH2 9485   3.244   0.444   0.092
 3160TIP3    H1 9486   3.298   0.517   0.062
 3160TIP3    H2 9487   3.160   0.484   0.115
 3161TIP3   OH2 9488   2.443   2.308   1.247
 3161TIP3    H1 9489   2.525   2.357   1.252
 3161TIP3    H2 9490   2.375   2.374   1.262
 3162TIP3   OH2 9491   6.299   0.780   0.216
 3162TIP3    H1 9492   6.347   0.787   0.299
 3162TIP3    H2 9493   6.360   0.813   0.150
 3163TIP3   OH2 9494   4.739   2.610   3.216
 3163TIP3    H1 9495   4.772   2.695   3.243
 3163TIP3    H2 9496   4.703   2.571   3.296
 3164TIP3   OH2 9497   5.866   1.005   3.735
 3164TIP3    H1 9498   5.830   0.919   3.717
 3164TIP3    H2 9499   5.938   0.989   3.796
 3165TIP3   OH2 9500   0.195   3.958   3.700
 3165TIP3    H1 9501   0.144   3.883   3.730
 3165TIP3    H2 9502   0.165   4.031   3.754
 3166TIP3   OH2 9503   0.825   4.683   4.282
 3166TIP3    H1 9504   0.888   4.752   4.264
 3166TIP3    H2 9505   0.870   4.623   4.341
 3167TIP3   OH2 9506   0.903   0.365   1.371
 3167TIP3    H1 9507   0.937   0.436   1.316
 3167TIP3    H2 9508   0.967   0.294   1.360
 3168TIP3   OH2 9509   2.435   4.374   3.357
 3168TIP3    H1 9510   2.402   4.307   3.297
 3168TIP3    H2 9511   2.516   4.337   3.393
 3169TIP3   OH2 9512   5.135   4.680   3.371
 3169TIP3    H1 9513   5.200   4.716   3.431
 3169TIP3    H2 9514   5.161   4.588   3.359
 3170TIP3   OH2 9515   4.270   5.887   1.284
 3170TIP3    H1 9516   4.341   5.839   1.242
 3170TIP3    H2 9517   4.313   5.952   1.339
 3171TIP3   OH2 9518   0.057   3.669   2.605
 3171TIP3    H1 9519   0.127   3.700   2.548
 3171TIP3    H2 9520   0.005   3.747   2.625
 3172TIP3   OH2 9521   0.125   1.470   0.499
 3172TIP3    H1 9522   0.128   1.469   0.594
 3172TIP3    H2 9523   0.208   1.511   0.472
 3173TIP3   OH2 9524   1.323   0.946   4.003
 3173TIP3    H1 9525   1.240   0.909   3.974
 3173TIP3    H2 9526   1.386   0.921   3.935
 3174TIP3   OH2 9527   3.975   3.962   3.487
 3174TIP3    H1 9528   3.998   4.047   3.449
 3174TIP3    H2 9529   3.938   3.984   3.573
 3175TIP3   OH2 9530   0.836   1.059   4.715
 3175TIP3    H1 9531   0.820   0.965   4.704
 3175TIP3    H2 9532   0.922   1.073   4.676
 3176TIP3   OH2 9533   0.409   0.709   5.066
 3176TIP3    H1 9534   0.316   0.722   5.048
 3176TIP3    H2 9535   0.415   0.709   5.162
 3177TIP3   OH2 9536   1.001   4.594   0.771
 3177TIP3    H1 9537   1.060   4.661   0.738
 3177TIP3    H2 9538   1.026   4.514   0.726
 3178TIP3   OH2 9539   0.714   0.593   3.392
 3178TIP3    H1 9540   0.755   0.527   3.336
 3178TIP3    H2 9541   0.787   0.641   3.430
 3179TIP3   OH2 9542   0.099   2.160   5.181
 3179TIP3    H1 9543   0.125   2.114   5.101
 3179TIP3    H2 9544   0.018   2.116   5.209
 3180TIP3   OH2 9545   4.261   4.681   1.185
 3180TIP3    H1 9546   4.331   4.677   1.119
 3180TIP3    H2 9547   4.218   4.765   1.169
 3181TIP3   OH2 9548   1.215   1.100   2.104
 3181TIP3    H1 9549   1.148   1.105   2.172
 3181TIP3    H2 9550   1.295   1.076   2.152
 3182TIP3   OH2 9551   0.024   4.158   4.976
 3182TIP3    H1 9552   0.111   4.146   5.014
 3182TIP3    H2 9553   0.034   4.231   4.915
 3183TIP3   OH2 9554   0.539   5.042   0.886
 3183TIP3    H1 9555   0.491   5.118   0.853
 3183TIP3    H2 9556   0.503   4.968   0.838
 3184TIP3   OH2 9557   1.594   4.435   4.631
 3184TIP3    H1 9558   1.592   4.459   4.723
 3184TIP3    H2 9559   1.668   4.484   4.595
 3185TIP3   OH2 9560   6.279   4.411   3.710
 3185TIP3    H1 9561   6.373   4.394   3.719
 3185TIP3    H2 9562   6.252   4.443   3.796
 3186TIP3   OH2 9563   1.531   1.779   0.433
 3186TIP3    H1 9564   1.612   1.778   0.485
 3186TIP3    H2 9565   1.482   1.854   0.466
 3187TIP3   OH2 9566   3.218   4.413   0.424
 3187TIP3    H1 9567   3.243   4.365   0.345
 3187TIP3    H2 9568   3.258   4.499   0.415
 3188TIP3   OH2 9569   0.108   4.207   2.027
 3188TIP3    H1 9570   0.086   4.267   2.099
 3188TIP3    H2 9571   0.085   4.121   2.061
 3189TIP3   OH2 9572   5.845   1.648   0.155
 3189TIP3    H1 9573   5.926   1.689   0.184
 3189TIP3    H2 9574   5.777   1.713   0.171
 3190TIP3   OH2 9575   0.436   0.488   4.144
 3190TIP3    H1 9576   0.397   0.516   4.061
 3190TIP3    H2 9577   0.387   0.409   4.169
 3191TIP3   OH2 9578   2.368   3.476   1.081
 3191TIP3    H1 9579   2.364   3.571   1.075
 3191TIP3    H2 9580   2.342   3.457   1.171
 3192TIP3   OH2 9581   2.918   2.265   2.520
 3192TIP3    H1 9582   2.974   2.243   2.595
 3192TIP3    H2 9583   2.856   2.192   2.515
 3193TIP3   OH2 9584   3.933   5.928   1.936
 3193TIP3    H1 9585   3.850   5.976   1.946
 3193TIP3    H2 9586   3.940   5.912   1.842
 3194TIP3   OH2 9587   4.143   5.860   4.029
 3194TIP3    H1 9588   4.069   5.864   3.968
 3194TIP3    H2 9589   4.189   5.779   4.005
 3195TIP3   OH2 9590   3.165   5.928   1.646
 3195TIP3    H1 9591   3.084   5.937   1.696
 3195TIP3    H2 9592   3.146   5.860   1.582
 3196TIP3   OH2 9593   4.149   5.232   2.304
 3196TIP3    H1 9594   4.198   5.298   2.255
 3196TIP3    H2 9595   4.124   5.277   2.385
 3197TIP3   OH2 9596   6.138   2.062   0.807
 3197TIP3    H1 9597   6.088   2.126   0.757
 3197TIP3    H2 9598   6.155   1.991   0.745
 3198TIP3   OH2 9599   2.243   1.241   0.586
 3198TIP3    H1 9600   2.289   1.159   0.604
 3198TIP3    H2 9601   2.308   1.309   0.603
 3199TIP3   OH2 9602   3.203   2.309   1.298
 3199TIP3    H1 9603   3.178   2.288   1.208
 3199TIP3    H2 9604   3.277   2.369   1.289
 3200TIP3   OH2 9605   0.999   3.560   3.945
 3200TIP3    H1 9606   1.057   3.498   3.989
 3200TIP3    H2 9607   1.018   3.644   3.987
 3201TIP3   OH2 9608   4.281   0.999   4.428
 3201TIP3    H1 9609   4.337   0.949   4.487
 3201TIP3    H2 9610   4.341   1.037   4.364
 3202TIP3   OH2 9611   4.982   1.554   4.431
 3202TIP3    H1 9612   5.075   1.557   4.455
 3202TIP3    H2 9613   4.937   1.538   4.514
 3203TIP3   OH2 9614   0.911   1.494   4.542
 3203TIP3    H1 9615   0.913   1.408   4.501
 3203TIP3    H2 9616   0.818   1.515   4.549
 3204TIP3   OH2 9617   2.494   5.262   4.462
 3204TIP3    H1 9618   2.565   5.255   4.527
 3204TIP3    H2 9619   2.537   5.298   4.385
 3205TIP3   OH2 9620   2.719   5.923   1.541
 3205TIP3    H1 9621   2.811   5.897   1.539
 3205TIP3    H2 9622   2.695   5.933   1.449
 3206TIP3   OH2 9623   3.141   0.615   5.120
 3206TIP3    H1 9624   3.156   0.676   5.048
 3206TIP3    H2 9625   3.146   0.670   5.199
 3207TIP3   OH2 9626   5.647   5.747   2.736
 3207TIP3    H1 9627   5.706   5.765   2.663
 3207TIP3    H2 9628   5.583   5.818   2.733
 3208TIP3   OH2 9629   5.630   4.739   2.914
 3208TIP3    H1 9630   5.645   4.692   2.995
 3208TIP3    H2 9631   5.612   4.829   2.941
 3209TIP3   OH2 9632   5.030   4.476   4.004
 3209TIP3    H1 9633   5.074   4.512   3.927
 3209TIP3    H2 9634   4.947   4.441   3.970
 3210TIP3   OH2 9635   0.196   4.245   1.519
 3210TIP3    H1 9636   0.241   4.327   1.497
 3210TIP3    H2 9637   0.260   4.196   1.571
 3211TIP3   OH2 9638   2.521   2.211   2.985
 3211TIP3    H1 9639   2.439   2.182   2.945
 3211TIP3    H2 9640   2.501   2.213   3.079
 3212TIP3   OH2 9641   2.925   1.620   5.165
 3212TIP3    H1 9642   2.839   1.662   5.163
 3212TIP3    H2 9643   2.985   1.686   5.130
 3213TIP3   OH2 9644   4.766   2.479   2.045
 3213TIP3    H1 9645   4.754   2.392   2.081
 3213TIP3    H2 9646   4.747   2.470   1.952
 3214TIP3   OH2 9647   4.942   1.348   3.398
 3214TIP3    H1 9648   4.884   1.362   3.473
 3214TIP3    H2 9649   4.917   1.262   3.364
 3215TIP3   OH2 9650   2.276   1.728   1.736
 3215TIP3    H1 9651   2.257   1.757   1.825
 3215TIP3    H2 9652   2.290   1.810   1.687
 3216TIP3   OH2 9653   1.468   1.647   3.832
 3216TIP3    H1 9654   1.518   1.650   3.913
 3216TIP3    H2 9655   1.443   1.738   3.816
 3217TIP3   OH2 9656   1.236   3.541   1.829
 3217TIP3    H1 9657   1.177   3.538   1.754
 3217TIP3    H2 9658   1.323   3.548   1.790
 3218TIP3   OH2 9659   0.789   4.668   0.159
 3218TIP3    H1 9660   0.711   4.633   0.203
 3218TIP3    H2 9661   0.774   4.651   0.066
 3219TIP3   OH2 9662   2.283   2.794   3.869
 3219TIP3    H1 9663   2.338   2.827   3.798
 3219TIP3    H2 9664   2.289   2.860   3.938
 3220TIP3   OH2 9665   6.340   2.084   1.967
 3220TIP3    H1 9666   6.275   2.075   2.037
 3220TIP3    H2 9667   6.293   2.126   1.895
 3221TIP3   OH2 9668   3.511   0.426   0.537
 3221TIP3    H1 9669   3.535   0.342   0.578
 3221TIP3    H2 9670   3.437   0.404   0.480
 3222TIP3   OH2 9671   5.905   0.486   3.364
 3222TIP3    H1 9672   5.992   0.483   3.324
 3222TIP3    H2 9673   5.868   0.569   3.335
 3223TIP3   OH2 9674   2.908   3.740   1.095
 3223TIP3    H1 9675   2.840   3.677   1.118
 3223TIP3    H2 9676   2.986   3.687   1.082
 3224TIP3   OH2 9677   1.874   2.928   0.652
 3224TIP3    H1 9678   1.821   2.952   0.576
 3224TIP3    H2 9679   1.898   3.012   0.692
 3225TIP3   OH2 9680   3.726   5.152   4.115
 3225TIP3    H1 9681   3.695   5.071   4.075
 3225TIP3    H2 9682   3.680   5.221   4.069
 3226TIP3   OH2 9683   4.038   0.084   0.141
 3226TIP3    H1 9684   4.107   0.033   0.099
 3226TIP3    H2 9685   3.979   0.108   0.069
 3227TIP3   OH2 9686   0.925   4.816   1.217
 3227TIP3    H1 9687   0.999   4.795   1.160
 3227TIP3    H2 9688   0.960   4.880   1.278
 3228TIP3   OH2 9689   2.149   5.334   3.198
 3228TIP3    H1 9690   2.154   5.277   3.274
 3228TIP3    H2 9691   2.056   5.355   3.189
 3229TIP3   OH2 9692   3.031   5.209   3.083
 3229TIP3    H1 9693   3.099   5.275   3.097
 3229TIP3    H2 9694   3.046   5.145   3.153
 3230TIP3   OH2 9695   5.815   0.739   3.272
 3230TIP3    H1 9696   5.849   0.798   3.205
 3230TIP3    H2 9697   5.724   0.766   3.284
 3231TIP3   OH2 9698   4.059   3.831   0.751
 3231TIP3    H1 9699   4.116   3.756   0.763
 3231TIP3    H2 9700   4.116   3.899   0.714
 3232TIP3   OH2 9701   2.337   1.285   0.037
 3232TIP3    H1 9702   2.409   1.229   0.066
 3232TIP3    H2 9703   2.259   1.243   0.073
 3233TIP3   OH2 9704   5.323   1.603   0.514
 3233TIP3    H1 9705   5.386   1.595   0.586
 3233TIP3    H2 9706   5.375   1.590   0.435
 3234TIP3   OH2 9707   1.213   3.688   4.416
 3234TIP3    H1 9708   1.305   3.673   4.437
 3234TIP3    H2 9709   1.171   3.701   4.501
 3235TIP3   OH2 9710   1.381   0.288   4.485
 3235TIP3    H1 9711   1.432   0.258   4.560
 3235TIP3    H2 9712   1.425   0.368   4.456
 3236TIP3   OH2 9713   1.381   4.509   3.495
 3236TIP3    H1 9714   1.464   4.545   3.528
 3236TIP3    H2 9715   1.367   4.554   3.412
 3237TIP3   OH2 9716   3.752   2.692   5.013
 3237TIP3    H1 9717   3.674   2.747   5.009
 3237TIP3    H2 9718   3.808   2.733   5.079
 3238TIP3   OH2 9719   3.501   3.333   1.574
 3238TIP3    H1 9720   3.564   3.403   1.562
 3238TIP3    H2 9721   3.416   3.377   1.573
 3239TIP3   OH2 9722   4.234   4.402   1.021
 3239TIP3    H1 9723   4.142   4.414   1.046
 3239TIP3    H2 9724   4.252   4.475   0.961
 3240TIP3   OH2 9725   5.283   1.567   1.555
 3240TIP3    H1 9726   5.362   1.591   1.506
 3240TIP3    H2 9727   5.307   1.486   1.600
 3241TIP3   OH2 9728   2.348   1.620   4.138
 3241TIP3    H1 9729   2.372   1.679   4.067
 3241TIP3    H2 9730   2.334   1.678   4.213
 3242TIP3   OH2 9731   1.108   2.827   0.577
 3242TIP3    H1 9732   1.153   2.831   0.662
 3242TIP3    H2 9733   1.177   2.807   0.514
 3243TIP3   OH2 9734   6.322   0.607   4.545
 3243TIP3    H1 9735   6.300   0.648   4.462
 3243TIP3    H2 9736   6.258   0.536   4.555
 3244TIP3   OH2 9737   0.573   3.384   1.995
 3244TIP3    H1 9738   0.508   3.322   1.964
 3244TIP3    H2 9739   0.653   3.362   1.947
 3245TIP3   OH2 9740   1.788   0.070   4.909
 3245TIP3    H1 9741   1.715   0.129   4.929
 3245TIP3    H2 9742   1.865   0.127   4.908
 3246TIP3   OH2 9743   0.492   4.125   4.127
 3246TIP3    H1 9744   0.571   4.143   4.075
 3246TIP3    H2 9745   0.454   4.047   4.086
 3247TIP3   OH2 9746   5.811   0.864   5.074
 3247TIP3    H1 9747   5.830   0.924   5.002
 3247TIP3    H2 9748   5.716   0.870   5.086
 3248TIP3   OH2 9749   5.567   5.858   2.475
 3248TIP3    H1 9750   5.608   5.830   2.393
 3248TIP3    H2 9751   5.550   5.951   2.461
 3249TIP3   OH2 9752   5.403   3.286   1.520
 3249TIP3    H1 9753   5.438   3.375   1.528
 3249TIP3    H2 9754   5.352   3.273   1.600
 3250TIP3   OH2 9755   3.346   1.986   3.636
 3250TIP3    H1 9756   3.379   2.074   3.653
 3250TIP3    H2 9757   3.265   2.000   3.585
 3251TIP3   OH2 9758   1.146   0.606   3.569
 3251TIP3    H1 9759   1.158   0.532   3.628
 3251TIP3    H2 9760   1.224   0.607   3.514
 3252TIP3   OH2 9761   5.701   1.528  -0.024
 3252TIP3    H1 9762   5.619   1.529   0.027
 3252TIP3    H2 9763   5.768   1.555   0.039
 3253TIP3   OH2 9764   5.649   0.853   2.895
 3253TIP3    H1 9765   5.654   0.948   2.890
 3253TIP3    H2 9766   5.561   0.834   2.926
 3254TIP3   OH2 9767   2.504   1.135   2.265
 3254TIP3    H1 9768   2.484   1.163   2.354
 3254TIP3    H2 9769   2.541   1.047   2.275
 3255TIP3   OH2 9770   4.711   0.584   0.953
 3255TIP3    H1 9771   4.749   0.669   0.929
 3255TIP3    H2 9772   4.649   0.565   0.883
 3256TIP3   OH2 9773   2.477   5.759   1.264
 3256TIP3    H1 9774   2.494   5.677   1.311
 3256TIP3    H2 9775   2.557   5.810   1.275
 3257TIP3   OH2 9776   3.168   3.749   3.194
 3257TIP3    H1 9777   3.201   3.835   3.168
 3257TIP3    H2 9778   3.178   3.695   3.115
 3258TIP3   OH2 9779   0.696   3.423   4.497
 3258TIP3    H1 9780   0.694   3.515   4.521
 3258TIP3    H2 9781   0.770   3.414   4.437
 3259TIP3   OH2 9782   5.961   3.325   0.510
 3259TIP3    H1 9783   5.923   3.318   0.423
 3259TIP3    H2 9784   6.009   3.408   0.509
 3260TIP3   OH2 9785   1.883   1.349   3.834
 3260TIP3    H1 9786   1.975   1.332   3.813
 3260TIP3    H2 9787   1.835   1.274   3.797
 3261TIP3   OH2 9788   4.310   5.987   0.100
 3261TIP3    H1 9789   4.368   6.031   0.163
 3261TIP3    H2 9790   4.370   5.936   0.044
 3262TIP3   OH2 9791   0.947   1.725   5.033
 3262TIP3    H1 9792   1.032   1.759   5.061
 3262TIP3    H2 9793   0.955   1.630   5.044
 3263TIP3   OH2 9794   0.157   4.856   2.516
 3263TIP3    H1 9795   0.087   4.883   2.575
 3263TIP3    H2 9796   0.217   4.930   2.513
 3264TIP3   OH2 9797   3.350   3.887   3.424
 3264TIP3    H1 9798   3.378   3.796   3.422
 3264TIP3    H2 9799   3.259   3.884   3.395
 3265TIP3   OH2 9800   3.511   4.349   1.990
 3265TIP3    H1 9801   3.454   4.287   1.944
 3265TIP3    H2 9802   3.506   4.429   1.938
 3266TIP3   OH2 9803   3.622   2.246   5.185
 3266TIP3    H1 9804   3.575   2.181   5.134
 3266TIP3    H2 9805   3.676   2.195   5.246
 3267TIP3   OH2 9806   3.915   4.359   1.321
 3267TIP3    H1 9807   3.933   4.428   1.386
 3267TIP3    H2 9808   3.820   4.348   1.325
 3268TIP3   OH2 9809   2.417   4.719   0.556
 3268TIP3    H1 9810   2.380   4.631   0.545
 3268TIP3    H2 9811   2.357   4.762   0.616
 3269TIP3   OH2 9812   0.050   4.394   0.718
 3269TIP3    H1 9813   0.053   4.462   0.651
 3269TIP3    H2 9814   0.142   4.381   0.742
 3270TIP3   OH2 9815   3.098   3.892   3.711
 3270TIP3    H1 9816   3.178   3.944   3.710
 3270TIP3    H2 9817   3.044   3.929   3.641
 3271TIP3   OH2 9818   4.305   5.110   0.736
 3271TIP3    H1 9819   4.334   5.170   0.667
 3271TIP3    H2 9820   4.312   5.161   0.817
 3272TIP3   OH2 9821   2.633   5.424   1.703
 3272TIP3    H1 9822   2.658   5.516   1.706
 3272TIP3    H2 9823   2.702   5.379   1.752
 3273TIP3   OH2 9824   0.276   0.879   4.230
 3273TIP3    H1 9825   0.369   0.858   4.241
 3273TIP3    H2 9826   0.275   0.958   4.177
 3274TIP3   OH2 9827   3.097  -0.008   3.113
 3274TIP3    H1 9828   3.132   0.064   3.165
 3274TIP3    H2 9829   3.051  -0.063   3.176
 3275TIP3   OH2 9830   0.136   0.189   4.823
 3275TIP3    H1 9831   0.108   0.205   4.733
 3275TIP3    H2 9832   0.165   0.274   4.855
 3276TIP3   OH2 9833   1.829   3.177   2.084
 3276TIP3    H1 9834   1.860   3.235   2.154
 3276TIP3    H2 9835   1.901   3.117   2.069
 3277TIP3   OH2 9836   2.450   2.536   4.793
 3277TIP3    H1 9837   2.432   2.491   4.875
 3277TIP3    H2 9838   2.539   2.510   4.771
 3278TIP3   OH2 9839   3.641   5.371   0.086
 3278TIP3    H1 9840   3.639   5.391   0.180
 3278TIP3    H2 9841   3.727   5.400   0.057
 3279TIP3   OH2 9842   3.085   3.256   1.625
 3279TIP3    H1 9843   3.008   3.232   1.675
 3279TIP3    H2 9844   3.158   3.220   1.675
 3280TIP3   OH2 9845   5.943   5.782   2.704
 3280TIP3    H1 9846   5.948   5.875   2.726
 3280TIP3    H2 9847   5.948   5.737   2.788
 3281TIP3   OH2 9848   0.684   4.213   0.136
 3281TIP3    H1 9849   0.734   4.273   0.191
 3281TIP3    H2 9850   0.628   4.270   0.083
 3282TIP3   OH2 9851   1.573   2.683   1.753
 3282TIP3    H1 9852   1.498   2.741   1.767
 3282TIP3    H2 9853   1.578   2.673   1.658
 3283TIP3   OH2 9854   0.718   2.506   4.676
 3283TIP3    H1 9855   0.765   2.430   4.711
 3283TIP3    H2 9856   0.638   2.470   4.639
 3284TIP3   OH2 9857   4.053   2.365   5.155
 3284TIP3    H1 9858   4.081   2.432   5.094
 3284TIP3    H2 9859   4.027   2.291   5.100
 3285TIP3   OH2 9860   5.424   3.739   1.117
 3285TIP3    H1 9861   5.469   3.785   1.047
 3285TIP3    H2 9862   5.486   3.673   1.147
 3286TIP3   OH2 9863   1.469   0.176   1.827
 3286TIP3    H1 9864   1.494   0.121   1.901
 3286TIP3    H2 9865   1.403   0.235   1.863
 3287TIP3   OH2 9866   3.502   2.854   5.056
 3287TIP3    H1 9867   3.406   2.856   5.050
 3287TIP3    H2 9868   3.520   2.814   5.141
 3288TIP3   OH2 9869   0.750   3.118   1.382
 3288TIP3    H1 9870   0.663   3.089   1.354
 3288TIP3    H2 9871   0.770   3.064   1.458
 3289TIP3   OH2 9872   0.960   4.332   2.958
 3289TIP3    H1 9873   0.892   4.274   2.991
 3289TIP3    H2 9874   1.024   4.338   3.029
 3290TIP3   OH2 9875   4.319   1.601   4.779
 3290TIP3    H1 9876   4.360   1.515   4.782
 3290TIP3    H2 9877   4.377   1.654   4.725
 3291TIP3   OH2 9878   6.242   5.007   4.890
 3291TIP3    H1 9879   6.260   4.944   4.960
 3291TIP3    H2 9880   6.240   5.092   4.933
 3292TIP3   OH2 9881   6.167   5.588   3.191
 3292TIP3    H1 9882   6.212   5.632   3.119
 3292TIP3    H2 9883   6.091   5.644   3.210
 3293TIP3   OH2 9884   3.032   4.735   2.047
 3293TIP3    H1 9885   2.999   4.766   2.131
 3293TIP3    H2 9886   3.092   4.664   2.070
 3294TIP3   OH2 9887   6.128   3.367   1.402
 3294TIP3    H1 9888   6.119   3.364   1.497
 3294TIP3    H2 9889   6.201   3.428   1.387
 3295TIP3   OH2 9890   5.456   4.613   0.779
 3295TIP3    H1 9891   5.514   4.687   0.795
 3295TIP3    H2 9892   5.376   4.635   0.828
 3296TIP3   OH2 9893   5.775   2.185   4.586
 3296TIP3    H1 9894   5.860   2.141   4.596
 3296TIP3    H2 9895   5.763   2.193   4.492
 3297TIP3   OH2 9896   3.379   1.628   4.796
 3297TIP3    H1 9897   3.286   1.621   4.775
 3297TIP3    H2 9898   3.410   1.701   4.743
 3298TIP3   OH2 9899   5.306   5.040   2.072
 3298TIP3    H1 9900   5.261   5.085   2.143
 3298TIP3    H2 9901   5.251   4.963   2.054
 3299TIP3   OH2 9902   3.377   4.797   1.181
 3299TIP3    H1 9903   3.309   4.862   1.194
 3299TIP3    H2 9904   3.338   4.715   1.211
 3300TIP3   OH2 9905   2.690   3.455   4.844
 3300TIP3    H1 9906   2.738   3.533   4.815
 3300TIP3    H2 9907   2.668   3.409   4.763
 3301TIP3   OH2 9908   4.727   4.322   0.410
 3301TIP3    H1 9909   4.636   4.309   0.438
 3301TIP3    H2 9910   4.773   4.345   0.490
 3302TIP3   OH2 9911   3.530   1.307   2.319
 3302TIP3    H1 9912   3.499   1.287   2.407
 3302TIP3    H2 9913   3.495   1.394   2.301
 3303TIP3   OH2 9914   3.071   0.984   4.378
 3303TIP3    H1 9915   3.062   1.038   4.457
 3303TIP3    H2 9916   3.149   1.018   4.334
 3304TIP3   OH2 9917   5.938   0.098   2.655
 3304TIP3    H1 9918   5.950   0.189   2.628
 3304TIP3    H2 9919   6.012   0.080   2.712
 3305TIP3   OH2 9920   1.761   1.692   2.790
 3305TIP3    H1 9921   1.666   1.689   2.775
 3305TIP3    H2 9922   1.798   1.705   2.703
 3306TIP3   OH2 9923   2.252   0.578   4.305
 3306TIP3    H1 9924   2.247   0.483   4.294
 3306TIP3    H2 9925   2.285   0.610   4.221
 3307TIP3   OH2 9926   3.009   2.776   3.506
 3307TIP3    H1 9927   2.992   2.856   3.555
 3307TIP3    H2 9928   3.057   2.805   3.429
 3308TIP3   OH2 9929   5.151   5.243   1.606
 3308TIP3    H1 9930   5.235   5.213   1.573
 3308TIP3    H2 9931   5.115   5.168   1.653
 3309TIP3   OH2 9932   5.500   3.719   1.901
 3309TIP3    H1 9933   5.483   3.813   1.910
 3309TIP3    H2 9934   5.582   3.705   1.948
 3310TIP3   OH2 9935   5.563   0.746   0.118
 3310TIP3    H1 9936   5.626   0.681   0.085
 3310TIP3    H2 9937   5.556   0.727   0.212
 3311TIP3   OH2 9938   6.174   3.899   1.096
 3311TIP3    H1 9939   6.139   3.980   1.060
 3311TIP3    H2 9940   6.266   3.899   1.069
 3312TIP3   OH2 9941   0.590   1.247   0.173
 3312TIP3    H1 9942   0.533   1.202   0.235
 3312TIP3    H2 9943   0.563   1.338   0.177
 3313TIP3   OH2 9944   5.929   0.006   0.472
 3313TIP3    H1 9945   5.860  -0.005   0.537
 3313TIP3    H2 9946   5.987   0.071   0.510
 3314TIP3   OH2 9947   6.058   1.952   3.815
 3314TIP3    H1 9948   6.031   1.930   3.904
 3314TIP3    H2 9949   6.150   1.928   3.811
 3315TIP3   OH2 9950   5.544   3.342   0.479
 3315TIP3    H1 9951   5.501   3.257   0.464
 3315TIP3    H2 9952   5.508   3.373   0.562
 3316TIP3   OH2 9953   3.012   2.872   0.406
 3316TIP3    H1 9954   3.039   2.784   0.432
 3316TIP3    H2 9955   2.978   2.912   0.486
 3317TIP3   OH2 9956   4.463   5.943   5.043
 3317TIP3    H1 9957   4.553   5.959   5.071
 3317TIP3    H2 9958   4.425   6.031   5.035
 3318TIP3   OH2 9959   1.064   4.003   2.783
 3318TIP3    H1 9960   1.005   4.077   2.770
 3318TIP3    H2 9961   1.148   4.033   2.747
 3319TIP3   OH2 9962   2.904   5.579   0.933
 3319TIP3    H1 9963   2.946   5.644   0.989
 3319TIP3    H2 9964   2.850   5.527   0.992
 3320TIP3   OH2 9965   1.181   3.196   4.572
 3320TIP3    H1 9966   1.200   3.119   4.625
 3320TIP3    H2 9967   1.265   3.219   4.533
 3321TIP3   OH2 9968   1.445   1.307   1.940
 3321TIP3    H1 9969   1.532   1.269   1.952
 3321TIP3    H2 9970   1.386   1.246   1.985
 3322TIP3   OH2 9971   5.901   4.945   4.912
 3322TIP3    H1 9972   5.890   4.889   4.835
 3322TIP3    H2 9973   5.967   4.901   4.965
 3323TIP3   OH2 9974   5.807   2.797   1.535
 3323TIP3    H1 9975   5.890   2.845   1.539
 3323TIP3    H2 9976   5.813   2.733   1.607
 3324TIP3   OH2 9977   1.618   5.126   1.437
 3324TIP3    H1 9978   1.658   5.073   1.368
 3324TIP3    H2 9979   1.635   5.217   1.410
 3325TIP3   OH2 9980   0.561   1.592   4.038
 3325TIP3    H1 9981   0.543   1.671   3.988
 3325TIP3    H2 9982   0.516   1.606   4.121
 3326TIP3   OH2 9983   4.589   1.985   0.257
 3326TIP3    H1 9984   4.514   2.003   0.315
 3326TIP3    H2 9985   4.638   1.916   0.302
 3327TIP3   OH2 9986   1.327   5.163   3.563
 3327TIP3    H1 9987   1.263   5.187   3.629
 3327TIP3    H2 9988   1.275   5.142   3.485
 3328TIP3   OH2 9989   0.768   3.913   0.521
 3328TIP3    H1 9990   0.677   3.923   0.494
 3328TIP3    H2 9991   0.788   3.821   0.506
 3329TIP3   OH2 9992   4.885   3.819   2.018
 3329TIP3    H1 9993   4.885   3.850   1.927
 3329TIP3    H2 9994   4.895   3.899   2.070
 3330TIP3   OH2 9995   6.282   3.619   1.367
 3330TIP3    H1 9996   6.352   3.595   1.428
 3330TIP3    H2 9997   6.324   3.621   1.281
 3331TIP3   OH2 9998   4.834   0.381   2.935
 3331TIP3    H1 9999   4.759   0.435   2.960
 3331TIP3    H210000   4.875   0.429   2.863
 3332TIP3   OH210001   0.926   2.839   0.954
 3332TIP3    H110002   0.868   2.784   0.901
 3332TIP3    H210003   0.870   2.908   0.988
 3333TIP3   OH210004   1.197   4.384   4.167
 3333TIP3    H110005   1.145   4.308   4.142
 3333TIP3    H210006   1.285   4.365   4.138
 3334TIP3   OH210007   5.470   5.853   1.939
 3334TIP3    H110008   5.416   5.898   1.874
 3334TIP3    H210009   5.481   5.917   2.009
 3335TIP3   OH210010   4.247   3.928   4.864
 3335TIP3    H110011   4.323   3.980   4.837
 3335TIP3    H210012   4.277   3.880   4.941
 3336TIP3   OH210013   1.771   1.735   0.912
 3336TIP3    H110014   1.794   1.798   0.844
 3336TIP3    H210015   1.855   1.710   0.951
 3337TIP3   OH210016   4.130   2.903   3.058
 3337TIP3    H110017   4.084   2.884   2.977
 3337TIP3    H210018   4.117   2.997   3.071
 3338TIP3   OH210019   4.971   1.943   2.599
 3338TIP3    H110020   4.952   1.908   2.686
 3338TIP3    H210021   4.907   1.902   2.542
 3339TIP3   OH210022   1.512   5.216   3.034
 3339TIP3    H110023   1.552   5.284   3.089
 3339TIP3    H210024   1.441   5.261   2.988
 3340TIP3   OH210025   1.685   0.837   4.741
 3340TIP3    H110026   1.695   0.756   4.691
 3340TIP3    H210027   1.729   0.904   4.688
 3341TIP3   OH210028   2.850   2.259   0.252
 3341TIP3    H110029   2.929   2.238   0.202
 3341TIP3    H210030   2.782   2.272   0.186
 3342TIP3   OH210031   3.665   5.875   3.014
 3342TIP3    H110032   3.723   5.945   3.045
 3342TIP3    H210033   3.591   5.876   3.075
 3343TIP3   OH210034   4.121   5.465   4.428
 3343TIP3    H110035   4.142   5.373   4.415
 3343TIP3    H210036   4.052   5.466   4.494
 3344TIP3   OH210037   2.319   2.608   1.078
 3344TIP3    H110038   2.277   2.674   1.132
 3344TIP3    H210039   2.266   2.529   1.091
 3345TIP3   OH210040   0.595   5.408   4.446
 3345TIP3    H110041   0.672   5.351   4.434
 3345TIP3    H210042   0.535   5.355   4.499
 3346TIP3   OH210043   4.425   4.980   5.003
 3346TIP3    H110044   4.429   5.073   4.980
 3346TIP3    H210045   4.507   4.963   5.049
 3347TIP3   OH210046   0.300   1.422   3.606
 3347TIP3    H110047   0.215   1.380   3.593
 3347TIP3    H210048   0.283   1.493   3.667
 3348TIP3   OH210049   6.295   3.931   2.672
 3348TIP3    H110050   6.333   4.003   2.722
 3348TIP3    H210051   6.218   3.968   2.629
 3349TIP3   OH210052   6.089   1.854   5.023
 3349TIP3    H110053   6.018   1.893   5.074
 3349TIP3    H210054   6.064   1.763   5.012
 3350TIP3   OH210055   3.309   5.554   2.224
 3350TIP3    H110056   3.347   5.619   2.166
 3350TIP3    H210057   3.383   5.505   2.258
 3351TIP3   OH210058   1.562   2.128   1.480
 3351TIP3    H110059   1.575   2.185   1.404
 3351TIP3    H210060   1.541   2.187   1.552
 3352TIP3   OH210061   2.007   3.223   3.338
 3352TIP3    H110062   2.004   3.206   3.244
 3352TIP3    H210063   1.979   3.140   3.378
 3353TIP3   OH210064   1.781   2.046   5.173
 3353TIP3    H110065   1.866   2.069   5.212
 3353TIP3    H210066   1.772   2.107   5.099
 3354TIP3   OH210067   5.984   1.502   2.652
 3354TIP3    H110068   6.040   1.503   2.575
 3354TIP3    H210069   6.041   1.528   2.724
 3355TIP3   OH210070   1.459   0.638   1.963
 3355TIP3    H110071   1.409   0.719   1.950
 3355TIP3    H210072   1.479   0.638   2.057
 3356TIP3   OH210073   4.876   0.360   3.896
 3356TIP3    H110074   4.868   0.356   3.801
 3356TIP3    H210075   4.800   0.411   3.925
 3357TIP3   OH210076   1.477   3.951   4.967
 3357TIP3    H110077   1.539   3.975   4.898
 3357TIP3    H210078   1.446   3.864   4.942
 3358TIP3   OH210079   5.169   5.405   0.350
 3358TIP3    H110080   5.241   5.343   0.344
 3358TIP3    H210081   5.101   5.359   0.398
 3359TIP3   OH210082   1.819   1.112   3.748
 3359TIP3    H110083   1.752   1.086   3.811
 3359TIP3    H210084   1.891   1.051   3.763
 3360TIP3   OH210085   5.381   0.534   4.545
 3360TIP3    H110086   5.384   0.459   4.487
 3360TIP3    H210087   5.425   0.505   4.625
 3361TIP3   OH210088   0.803   3.111   4.245
 3361TIP3    H110089   0.808   3.049   4.318
 3361TIP3    H210090   0.876   3.171   4.261
 3362TIP3   OH210091   2.249   5.232   1.482
 3362TIP3    H110092   2.264   5.153   1.430
 3362TIP3    H210093   2.197   5.202   1.557
 3363TIP3   OH210094   4.012   0.991   0.795
 3363TIP3    H110095   4.049   1.060   0.850
 3363TIP3    H210096   3.920   0.984   0.823
 3364TIP3   OH210097   3.482   0.635   2.548
 3364TIP3    H110098   3.435   0.563   2.506
 3364TIP3    H210099   3.564   0.642   2.498
 3365TIP3   OH210100   3.992   2.742   3.963
 3365TIP3    H110101   3.982   2.823   4.013
 3365TIP3    H210102   4.033   2.769   3.881
 3366TIP3   OH210103   2.586   3.727   0.144
 3366TIP3    H110104   2.504   3.693   0.181
 3366TIP3    H210105   2.619   3.788   0.210
 3367TIP3   OH210106   5.597   1.532   0.427
 3367TIP3    H110107   5.639   1.612   0.459
 3367TIP3    H210108   5.662   1.463   0.442
 3368TIP3   OH210109   3.334   3.235   1.756
 3368TIP3    H110110   3.416   3.271   1.720
 3368TIP3    H210111   3.363   3.168   1.818
 3369TIP3   OH210112   1.654   3.376   4.721
 3369TIP3    H110113   1.582   3.314   4.728
 3369TIP3    H210114   1.733   3.323   4.736
 3370TIP3   OH210115   2.365   3.436   3.855
 3370TIP3    H110116   2.319   3.392   3.784
 3370TIP3    H210117   2.434   3.487   3.811
 3371TIP3   OH210118   0.213   2.104   2.184
 3371TIP3    H110119   0.160   2.162   2.130
 3371TIP3    H210120   0.216   2.021   2.136
 3372TIP3   OH210121   1.497   3.938   3.048
 3372TIP3    H110122   1.559   3.932   2.976
 3372TIP3    H210123   1.431   4.000   3.017
 3373TIP3   OH210124   6.295   1.254   2.854
 3373TIP3    H110125   6.299   1.252   2.758
 3373TIP3    H210126   6.228   1.319   2.874
 3374TIP3   OH210127   1.397   2.148   0.132
 3374TIP3    H110128   1.379   2.055   0.136
 3374TIP3    H210129   1.483   2.158   0.173
 3375TIP3   OH210130   5.734   4.102   1.410
 3375TIP3    H110131   5.715   4.081   1.319
 3375TIP3    H210132   5.699   4.191   1.422
 3376TIP3   OH210133   4.746   2.353   1.778
 3376TIP3    H110134   4.770   2.360   1.685
 3376TIP3    H210135   4.775   2.266   1.804
 3377TIP3   OH210136   2.316   5.005   1.314
 3377TIP3    H110137   2.232   4.987   1.270
 3377TIP3    H210138   2.376   5.026   1.243
 3378TIP3   OH210139   4.271   2.366   0.284
 3378TIP3    H110140   4.301   2.438   0.229
 3378TIP3    H210141   4.316   2.379   0.368
 3379TIP3   OH210142   4.465   5.529   2.270
 3379TIP3    H110143   4.418   5.492   2.195
 3379TIP3    H210144   4.456   5.463   2.339
 3380TIP3   OH210145   4.939   2.527   0.470
 3380TIP3    H110146   4.955   2.462   0.538
 3380TIP3    H210147   4.844   2.538   0.470
 3381TIP3   OH210148   2.991   4.735   0.602
 3381TIP3    H110149   2.946   4.814   0.633
 3381TIP3    H210150   3.047   4.710   0.676
 3382TIP3   OH210151   1.196   0.028   0.059
 3382TIP3    H110152   1.277  -0.011   0.093
 3382TIP3    H210153   1.135   0.024   0.133
 3383TIP3   OH210154   0.215   5.762   3.677
 3383TIP3    H110155   0.151   5.832   3.692
 3383TIP3    H210156   0.263   5.791   3.599
 3384TIP3   OH210157   0.938   1.274   1.877
 3384TIP3    H110158   1.018   1.326   1.868
 3384TIP3    H210159   0.943   1.238   1.965
 3385TIP3   OH210160   5.582   2.197   1.570
 3385TIP3    H110161   5.569   2.185   1.664
 3385TIP3    H210162   5.591   2.291   1.558
 3386TIP3   OH210163   0.247   4.162   0.370
 3386TIP3    H110164   0.239   4.068   0.389
 3386TIP3    H210165   0.177   4.203   0.422
 3387TIP3   OH210166   5.996   5.213   1.971
 3387TIP3    H110167   6.026   5.128   1.938
 3387TIP3    H210168   5.906   5.221   1.940
 3388TIP3   OH210169   3.601   4.490   3.173
 3388TIP3    H110170   3.671   4.427   3.191
 3388TIP3    H210171   3.570   4.516   3.260
 3389TIP3   OH210172   0.178   0.256   0.304
 3389TIP3    H110173   0.265   0.239   0.340
 3389TIP3    H210174   0.118   0.237   0.377
 3390TIP3   OH210175   1.849   4.203   1.452
 3390TIP3    H110176   1.919   4.267   1.459
 3390TIP3    H210177   1.887   4.122   1.485
 3391TIP3   OH210178   5.012   1.489   5.124
 3391TIP3    H110179   5.105   1.468   5.129
 3391TIP3    H210180   4.968   1.405   5.111
 3392TIP3   OH210181   3.829   0.239   1.636
 3392TIP3    H110182   3.916   0.245   1.674
 3392TIP3    H210183   3.771   0.228   1.712
 3393TIP3   OH210184   0.429   5.018   4.304
 3393TIP3    H110185   0.492   4.951   4.277
 3393TIP3    H210186   0.416   5.070   4.225
 3394TIP3   OH210187   5.214   1.345   0.895
 3394TIP3    H110188   5.305   1.373   0.901
 3394TIP3    H210189   5.198   1.334   0.802
 3395TIP3   OH210190   3.976   0.732   3.919
 3395TIP3    H110191   4.006   0.752   3.831
 3395TIP3    H210192   3.993   0.638   3.930
 3396TIP3   OH210193   0.656   3.674   4.914
 3396TIP3    H110194   0.650   3.758   4.960
 3396TIP3    H210195   0.652   3.608   4.984
 3397TIP3   OH210196   1.107   3.473   3.175
 3397TIP3    H110197   1.035   3.413   3.198
 3397TIP3    H210198   1.122   3.523   3.255
 3398TIP3   OH210199   3.750   2.722   3.440
 3398TIP3    H110200   3.660   2.693   3.426
 3398TIP3    H210201   3.741   2.800   3.495
 3399TIP3   OH210202   4.789   1.128   0.356
 3399TIP3    H110203   4.788   1.034   0.334
 3399TIP3    H210204   4.864   1.163   0.309
 3400TIP3   OH210205   2.986   4.686   2.364
 3400TIP3    H110206   3.047   4.755   2.339
 3400TIP3    H210207   3.040   4.621   2.409
 3401TIP3   OH210208   2.459   2.029   4.693
 3401TIP3    H110209   2.499   2.075   4.767
 3401TIP3    H210210   2.413   1.955   4.734
 3402TIP3   OH210211   5.615   5.458   0.198
 3402TIP3    H110212   5.659   5.387   0.151
 3402TIP3    H210213   5.656   5.459   0.284
 3403TIP3   OH210214   5.377   1.940   0.661
 3403TIP3    H110215   5.373   2.000   0.735
 3403TIP3    H210216   5.285   1.918   0.643
 3404TIP3   OH210217   1.325   3.735   4.951
 3404TIP3    H110218   1.287   3.656   4.991
 3404TIP3    H210219   1.256   3.768   4.894
 3405TIP3   OH210220   3.304   2.999   3.615
 3405TIP3    H110221   3.241   3.061   3.578
 3405TIP3    H210222   3.345   2.958   3.538
 3406TIP3   OH210223   4.581   2.863   0.806
 3406TIP3    H110224   4.571   2.957   0.820
 3406TIP3    H210225   4.606   2.828   0.891
 3407TIP3   OH210226   4.902   5.274   0.969
 3407TIP3    H110227   4.963   5.268   0.896
 3407TIP3    H210228   4.868   5.364   0.965
 3408TIP3   OH210229   6.183   2.226   1.795
 3408TIP3    H110230   6.128   2.181   1.731
 3408TIP3    H210231   6.179   2.318   1.769
 3409TIP3   OH210232   1.791   3.958   0.879
 3409TIP3    H110233   1.842   3.988   0.804
 3409TIP3    H210234   1.763   3.870   0.855
 3410TIP3   OH210235   5.129   3.478   2.521
 3410TIP3    H110236   5.206   3.507   2.474
 3410TIP3    H210237   5.161   3.456   2.609
 3411TIP3   OH210238   6.206   2.254   3.043
 3411TIP3    H110239   6.241   2.175   3.084
 3411TIP3    H210240   6.270   2.322   3.064
 3412TIP3   OH210241   3.475   2.712   2.607
 3412TIP3    H110242   3.390   2.721   2.649
 3412TIP3    H210243   3.538   2.737   2.675
 3413TIP3   OH210244   5.185   2.837   0.255
 3413TIP3    H110245   5.186   2.759   0.200
 3413TIP3    H210246   5.215   2.907   0.198
 3414TIP3   OH210247   0.788   3.353   3.791
 3414TIP3    H110248   0.781   3.379   3.699
 3414TIP3    H210249   0.808   3.434   3.837
 3415TIP3   OH210250   2.794   4.909   2.375
 3415TIP3    H110251   2.732   4.911   2.448
 3415TIP3    H210252   2.840   4.826   2.385
 3416TIP3   OH210253   0.484   3.261   2.447
 3416TIP3    H110254   0.400   3.219   2.463
 3416TIP3    H210255   0.507   3.300   2.532
 3417TIP3   OH210256   4.427   0.936   1.544
 3417TIP3    H110257   4.413   0.994   1.469
 3417TIP3    H210258   4.352   0.951   1.601
 3418TIP3   OH210259   5.405   0.779   2.961
 3418TIP3    H110260   5.323   0.730   2.969
 3418TIP3    H210261   5.385   0.848   2.898
 3419TIP3   OH210262   0.020   3.965   2.073
 3419TIP3    H110263  -0.024   3.913   2.007
 3419TIP3    H210264   0.051   3.901   2.138
 3420TIP3   OH210265   2.870   1.120   1.151
 3420TIP3    H110266   2.836   1.033   1.130
 3420TIP3    H210267   2.888   1.116   1.245
 3421TIP3   OH210268   4.711   5.253   4.060
 3421TIP3    H110269   4.755   5.282   4.139
 3421TIP3    H210270   4.782   5.229   4.000
 3422TIP3   OH210271   6.099   2.837   1.652
 3422TIP3    H110272   6.136   2.828   1.740
 3422TIP3    H210273   6.152   2.906   1.611
 3423TIP3   OH210274   3.326   0.795   0.909
 3423TIP3    H110275   3.380   0.765   0.836
 3423TIP3    H210276   3.333   0.890   0.906
 3424TIP3   OH210277   2.219   1.362   2.688
 3424TIP3    H110278   2.286   1.358   2.620
 3424TIP3    H210279   2.269   1.373   2.769
 3425TIP3   OH210280   2.032   4.048   1.017
 3425TIP3    H110281   1.939   4.048   0.990
 3425TIP3    H210282   2.048   4.136   1.049
 3426TIP3   OH210283   3.119   5.168   2.125
 3426TIP3    H110284   3.132   5.075   2.146
 3426TIP3    H210285   3.035   5.190   2.164
 3427TIP3   OH210286   5.672   3.208   1.058
 3427TIP3    H110287   5.581   3.222   1.031
 3427TIP3    H210288   5.698   3.126   1.015
 3428TIP3   OH210289   5.773   5.833   4.166
 3428TIP3    H110290   5.699   5.794   4.119
 3428TIP3    H210291   5.740   5.918   4.196
 3429TIP3   OH210292   2.745   5.347   3.834
 3429TIP3    H110293   2.761   5.272   3.776
 3429TIP3    H210294   2.802   5.332   3.909
 3430TIP3   OH210295   2.375   5.352   5.102
 3430TIP3    H110296   2.403   5.294   5.031
 3430TIP3    H210297   2.279   5.350   5.097
 3431TIP3   OH210298   2.610   2.256   3.738
 3431TIP3    H110299   2.675   2.319   3.767
 3431TIP3    H210300   2.526   2.294   3.763
 3432TIP3   OH210301   3.066   4.677   3.293
 3432TIP3    H110302   3.138   4.739   3.302
 3432TIP3    H210303   3.107   4.591   3.298
 3433TIP3   OH210304   3.455   5.749   2.084
 3433TIP3    H110305   3.549   5.758   2.070
 3433TIP3    H210306   3.433   5.817   2.148
 3434TIP3   OH210307   3.972   4.050   1.552
 3434TIP3    H110308   4.021   4.096   1.484
 3434TIP3    H210309   3.987   4.101   1.632
 3435TIP3   OH210310   5.548   1.397   3.348
 3435TIP3    H110311   5.619   1.360   3.401
 3435TIP3    H210312   5.468   1.359   3.385
 3436TIP3   OH210313   2.484   4.463   4.974
 3436TIP3    H110314   2.484   4.502   4.887
 3436TIP3    H210315   2.534   4.382   4.963
 3437TIP3   OH210316   0.553   3.699   1.715
 3437TIP3    H110317   0.567   3.607   1.692
 3437TIP3    H210318   0.562   3.701   1.811
 3438TIP3   OH210319   0.337   5.031   1.320
 3438TIP3    H110320   0.283   5.097   1.364
 3438TIP3    H210321   0.358   5.071   1.236
 3439TIP3   OH210322   2.016   5.321   1.357
 3439TIP3    H110323   1.985   5.231   1.364
 3439TIP3    H210324   2.111   5.315   1.357
 3440TIP3   OH210325   6.318   2.679   4.289
 3440TIP3    H110326   6.340   2.640   4.205
 3440TIP3    H210327   6.348   2.614   4.354
 3441TIP3   OH210328   0.989   1.623   1.612
 3441TIP3    H110329   0.905   1.644   1.654
 3441TIP3    H210330   1.002   1.693   1.548
 3442TIP3   OH210331   3.967   5.785   3.153
 3442TIP3    H110332   4.037   5.735   3.195
 3442TIP3    H210333   3.952   5.859   3.212
 3443TIP3   OH210334   6.253   4.605   0.027
 3443TIP3    H110335   6.245   4.641  -0.061
 3443TIP3    H210336   6.295   4.674   0.078
 3444TIP3   OH210337   0.000   3.704   3.502
 3444TIP3    H110338  -0.060   3.630   3.503
 3444TIP3    H210339   0.050   3.697   3.583
 3445TIP3   OH210340   4.869   0.837   5.102
 3445TIP3    H110341   4.779   0.850   5.072
 3445TIP3    H210342   4.869   0.748   5.138
 3446TIP3   OH210343   2.704   2.445   1.205
 3446TIP3    H110344   2.757   2.523   1.220
 3446TIP3    H210345   2.736   2.382   1.270
 3447TIP3   OH210346   3.790   5.398   0.996
 3447TIP3    H110347   3.743   5.324   1.036
 3447TIP3    H210348   3.882   5.378   1.011
 3448TIP3   OH210349   1.193   2.758   2.141
 3448TIP3    H110350   1.255   2.685   2.148
 3448TIP3    H210351   1.249   2.835   2.125
 3449TIP3   OH210352   2.548   1.138   0.185
 3449TIP3    H110353   2.615   1.133   0.117
 3449TIP3    H210354   2.590   1.184   0.258
 3450TIP3   OH210355   3.792   4.732   1.245
 3450TIP3    H110356   3.836   4.734   1.160
 3450TIP3    H210357   3.862   4.715   1.308
 3451TIP3   OH210358   5.237   5.673   2.865
 3451TIP3    H110359   5.162   5.625   2.829
 3451TIP3    H210360   5.301   5.672   2.794
 3452TIP3   OH210361   5.967   4.091   1.265
 3452TIP3    H110362   5.966   4.158   1.333
 3452TIP3    H210363   5.988   4.139   1.185
 3453TIP3   OH210364   1.793   2.029   4.163
 3453TIP3    H110365   1.788   1.997   4.073
 3453TIP3    H210366   1.733   2.103   4.166
 3454TIP3   OH210367   2.790   1.422   1.866
 3454TIP3    H110368   2.871   1.371   1.858
 3454TIP3    H210369   2.770   1.422   1.959
 3455TIP3   OH210370   3.293   3.678   0.919
 3455TIP3    H110371   3.237   3.672   0.842
 3455TIP3    H210372   3.241   3.726   0.984
 3456TIP3   OH210373   3.621   1.992   0.431
 3456TIP3    H110374   3.577   1.996   0.516
 3456TIP3    H210375   3.681   2.067   0.431
 3457TIP3   OH210376   6.025   2.237   3.307
 3457TIP3    H110377   6.121   2.243   3.302
 3457TIP3    H210378   6.002   2.296   3.379
 3458TIP3   OH210379   3.962   2.368   1.953
 3458TIP3    H110380   3.876   2.398   1.925
 3458TIP3    H210381   4.023   2.409   1.892
 3459TIP3   OH210382   4.142   0.197   2.674
 3459TIP3    H110383   4.086   0.215   2.599
 3459TIP3    H210384   4.198   0.275   2.681
 3460TIP3   OH210385   0.588   5.768   4.107
 3460TIP3    H110386   0.520   5.776   4.040
 3460TIP3    H210387   0.670   5.772   4.058
 3461TIP3   OH210388   4.606   5.845   0.621
 3461TIP3    H110389   4.659   5.857   0.700
 3461TIP3    H210390   4.516   5.862   0.649
 3462TIP3   OH210391   4.948   2.927   3.959
 3462TIP3    H110392   4.931   2.931   3.865
 3462TIP3    H210393   4.876   2.976   3.999
 3463TIP3   OH210394   3.721   0.776   1.455
 3463TIP3    H110395   3.652   0.743   1.511
 3463TIP3    H210396   3.753   0.855   1.500
 3464TIP3   OH210397   0.640   3.243   2.946
 3464TIP3    H110398   0.556   3.276   2.915
 3464TIP3    H210399   0.690   3.225   2.866
 3465TIP3   OH210400   5.027   1.741   5.035
 3465TIP3    H110401   5.015   1.651   5.064
 3465TIP3    H210402   5.045   1.734   4.941
 3466TIP3   OH210403   0.220   2.559   0.124
 3466TIP3    H110404   0.208   2.470   0.091
 3466TIP3    H210405   0.137   2.603   0.105
 3467TIP3   OH210406   1.952   2.921   4.075
 3467TIP3    H110407   2.004   2.987   4.120
 3467TIP3    H210408   1.891   2.971   4.020
 3468TIP3   OH210409   3.678   2.675   1.141
 3468TIP3    H110410   3.659   2.618   1.067
 3468TIP3    H210411   3.677   2.763   1.105
 3469TIP3   OH210412   2.171   3.893   2.379
 3469TIP3    H110413   2.090   3.863   2.419
 3469TIP3    H210414   2.236   3.827   2.403
 3470TIP3   OH210415   4.591   2.829   0.151
 3470TIP3    H110416   4.649   2.760   0.186
 3470TIP3    H210417   4.571   2.801   0.062
 3471TIP3   OH210418   1.418   5.864   0.453
 3471TIP3    H110419   1.358   5.791   0.472
 3471TIP3    H210420   1.402   5.927   0.523
 3472TIP3   OH210421   1.072   3.868   2.422
 3472TIP3    H110422   1.086   3.963   2.419
 3472TIP3    H210423   1.156   3.831   2.393
 3473TIP3   OH210424   0.992   3.047   2.851
 3473TIP3    H110425   1.047   3.125   2.860
 3473TIP3    H210426   1.045   2.986   2.800
 3474TIP3   OH210427   1.482   1.560   3.189
 3474TIP3    H110428   1.430   1.640   3.186
 3474TIP3    H210429   1.561   1.581   3.139
 3475TIP3   OH210430   2.141   5.437   2.753
 3475TIP3    H110431   2.179   5.408   2.670
 3475TIP3    H210432   2.059   5.389   2.760
 3476TIP3   OH210433   4.598   0.607   3.449
 3476TIP3    H110434   4.573   0.547   3.519
 3476TIP3    H210435   4.526   0.601   3.386
 3477TIP3   OH210436   1.025   5.760   1.656
 3477TIP3    H110437   1.000   5.847   1.625
 3477TIP3    H210438   1.118   5.752   1.632
 3478TIP3   OH210439   2.891   0.674   1.966
 3478TIP3    H110440   2.937   0.741   1.916
 3478TIP3    H210441   2.935   0.592   1.942
 3479TIP3   OH210442   1.576   0.680   2.230
 3479TIP3    H110443   1.515   0.717   2.294
 3479TIP3    H210444   1.632   0.622   2.282
 3480TIP3   OH210445   3.109   5.584   3.225
 3480TIP3    H110446   3.042   5.652   3.218
 3480TIP3    H210447   3.139   5.570   3.135
 3481TIP3   OH210448   3.145   2.511   0.929
 3481TIP3    H110449   3.059   2.469   0.933
 3481TIP3    H210450   3.155   2.536   0.837
 3482TIP3   OH210451   3.201   0.546   1.056
 3482TIP3    H110452   3.260   0.596   1.113
 3482TIP3    H210453   3.250   0.533   0.976
 3483TIP3   OH210454   0.300   3.417   1.188
 3483TIP3    H110455   0.385   3.428   1.232
 3483TIP3    H210456   0.239   3.396   1.259
 3484TIP3   OH210457   1.920   1.807   1.486
 3484TIP3    H110458   2.011   1.775   1.488
 3484TIP3    H210459   1.869   1.735   1.523
 3485TIP3   OH210460   1.058   5.923   3.856
 3485TIP3    H110461   0.976   5.971   3.843
 3485TIP3    H210462   1.049   5.847   3.798
 3486TIP3   OH210463   0.417   0.334   5.070
 3486TIP3    H110464   0.354   0.283   5.121
 3486TIP3    H210465   0.366   0.371   4.998
 3487TIP3   OH210466   1.748   1.761   0.576
 3487TIP3    H110467   1.756   1.834   0.637
 3487TIP3    H210468   1.839   1.736   0.557
 3488TIP3   OH210469   1.771   1.956   3.906
 3488TIP3    H110470   1.818   2.021   3.854
 3488TIP3    H210471   1.680   1.965   3.879
 3489TIP3   OH210472   6.333   4.208   0.526
 3489TIP3    H110473   6.365   4.254   0.604
 3489TIP3    H210474   6.310   4.121   0.558
 3490TIP3   OH210475   5.808   4.118   1.706
 3490TIP3    H110476   5.857   4.192   1.670
 3490TIP3    H210477   5.716   4.141   1.695
 3491TIP3   OH210478   5.821   1.266   3.668
 3491TIP3    H110479   5.839   1.173   3.681
 3491TIP3    H210480   5.757   1.288   3.736
 3492TIP3   OH210481   6.041   4.191   1.017
 3492TIP3    H110482   6.122   4.228   0.980
 3492TIP3    H210483   5.994   4.156   0.941
 3493TIP3   OH210484   4.545   4.583   0.550
 3493TIP3    H110485   4.622   4.640   0.551
 3493TIP3    H210486   4.477   4.636   0.507
 3494TIP3   OH210487   2.279   2.041   2.844
 3494TIP3    H110488   2.206   2.061   2.903
 3494TIP3    H210489   2.280   1.946   2.839
 3495TIP3   OH210490   2.044   2.897   3.732
 3495TIP3    H110491   2.040   2.977   3.785
 3495TIP3    H210492   2.122   2.851   3.764
 3496TIP3   OH210493   4.397   5.951   0.735
 3496TIP3    H110494   4.315   5.908   0.759
 3496TIP3    H210495   4.370   6.023   0.677
 3497TIP3   OH210496   1.817   1.317   2.568
 3497TIP3    H110497   1.812   1.402   2.524
 3497TIP3    H210498   1.905   1.285   2.548
 3498TIP3   OH210499   5.680   2.152   2.560
 3498TIP3    H110500   5.758   2.206   2.558
 3498TIP3    H210501   5.708   2.068   2.524
 3499TIP3   OH210502   1.262   1.666   0.363
 3499TIP3    H110503   1.210   1.735   0.404
 3499TIP3    H210504   1.350   1.679   0.397
 3500TIP3   OH210505   0.460   4.043   3.132
 3500TIP3    H110506   0.435   3.978   3.066
 3500TIP3    H210507   0.444   3.999   3.216
 3501TIP3   OH210508   0.650   0.874   4.987
 3501TIP3    H110509   0.564   0.839   5.011
 3501TIP3    H210510   0.683   0.913   5.068
 3502TIP3   OH210511   4.814   1.552   1.847
 3502TIP3    H110512   4.750   1.574   1.915
 3502TIP3    H210513   4.779   1.473   1.806
 3503TIP3   OH210514   0.682   3.602   2.590
 3503TIP3    H110515   0.618   3.531   2.594
 3503TIP3    H210516   0.640   3.675   2.635
 3504TIP3   OH210517   5.555   3.067   2.586
 3504TIP3    H110518   5.528   3.149   2.627
 3504TIP3    H210519   5.628   3.036   2.640
 3505TIP3   OH210520   5.924   1.451   1.442
 3505TIP3    H110521   5.914   1.542   1.415
 3505TIP3    H210522   6.012   1.427   1.413
 3506TIP3   OH210523   2.775   5.857   1.931
 3506TIP3    H110524   2.776   5.842   2.025
 3506TIP3    H210525   2.741   5.775   1.894
 3507TIP3   OH210526   2.141   1.675   4.366
 3507TIP3    H110527   2.060   1.716   4.395
 3507TIP3    H210528   2.206   1.745   4.370
 3508TIP3   OH210529   5.270   2.262   0.558
 3508TIP3    H110530   5.190   2.288   0.605
 3508TIP3    H210531   5.316   2.344   0.542
 3509TIP3   OH210532   4.582   3.142   4.734
 3509TIP3    H110533   4.557   3.144   4.642
 3509TIP3    H210534   4.670   3.181   4.737
 3510TIP3   OH210535   2.884   2.630   1.127
 3510TIP3    H110536   2.966   2.655   1.170
 3510TIP3    H210537   2.901   2.544   1.090
 3511TIP3   OH210538   6.284   2.949   1.128
 3511TIP3    H110539   6.245   3.015   1.070
 3511TIP3    H210540   6.351   2.907   1.074
 3512TIP3   OH210541   3.663   4.461   4.044
 3512TIP3    H110542   3.572   4.436   4.029
 3512TIP3    H210543   3.679   4.529   3.978
 3513TIP3   OH210544   5.943   2.679   5.092
 3513TIP3    H110545   5.958   2.630   5.173
 3513TIP3    H210546   5.925   2.768   5.120
 3514TIP3   OH210547   1.876   3.544   3.102
 3514TIP3    H110548   1.941   3.598   3.146
 3514TIP3    H210549   1.925   3.498   3.034
 3515TIP3   OH210550   5.206   0.762   2.214
 3515TIP3    H110551   5.215   0.817   2.292
 3515TIP3    H210552   5.225   0.822   2.141
 3516TIP3   OH210553   3.580   4.864   3.659
 3516TIP3    H110554   3.572   4.846   3.753
 3516TIP3    H210555   3.490   4.865   3.627
 3517TIP3   OH210556   0.668   2.337   0.536
 3517TIP3    H110557   0.698   2.395   0.466
 3517TIP3    H210558   0.746   2.287   0.561
 3518TIP3   OH210559   3.509   4.350   4.882
 3518TIP3    H110560   3.589   4.299   4.881
 3518TIP3    H210561   3.474   4.338   4.970
 3519TIP3   OH210562   2.991   4.017   5.003
 3519TIP3    H110563   3.044   4.072   5.061
 3519TIP3    H210564   2.905   4.013   5.046
 3520TIP3   OH210565   1.195   1.348   1.807
 3520TIP3    H110566   1.273   1.317   1.854
 3520TIP3    H210567   1.186   1.439   1.833
 3521TIP3   OH210568   0.858   2.971   1.572
 3521TIP3    H110569   0.808   2.936   1.646
 3521TIP3    H210570   0.948   2.944   1.590
 3522TIP3   OH210571   5.530   0.202   0.964
 3522TIP3    H110572   5.454   0.144   0.956
 3522TIP3    H210573   5.567   0.205   0.876
 3523TIP3   OH210574   5.550   4.138   4.780
 3523TIP3    H110575   5.523   4.141   4.689
 3523TIP3    H210576   5.568   4.046   4.798
 3524TIP3   OH210577   3.772   4.382   2.594
 3524TIP3    H110578   3.798   4.472   2.575
 3524TIP3    H210579   3.755   4.381   2.688
 3525TIP3   OH210580   1.185   0.629   1.464
 3525TIP3    H110581   1.219   0.646   1.552
 3525TIP3    H210582   1.237   0.556   1.432
 3526TIP3   OH210583   2.664   3.510   1.575
 3526TIP3    H110584   2.758   3.530   1.575
 3526TIP3    H210585   2.633   3.543   1.659
 3527TIP3   OH210586   3.296   3.017   2.883
 3527TIP3    H110587   3.280   3.093   2.938
 3527TIP3    H210588   3.373   3.041   2.831
 3528TIP3   OH210589   1.988   3.479   1.201
 3528TIP3    H110590   1.996   3.413   1.132
 3528TIP3    H210591   1.938   3.550   1.161
 3529TIP3   OH210592   1.560   4.675   4.164
 3529TIP3    H110593   1.641   4.692   4.116
 3529TIP3    H210594   1.580   4.698   4.255
 3530TIP3   OH210595   5.947   3.744   5.028
 3530TIP3    H110596   5.914   3.792   5.103
 3530TIP3    H210597   5.923   3.798   4.952
 3531TIP3   OH210598   1.573   5.216   2.765
 3531TIP3    H110599   1.604   5.171   2.844
 3531TIP3    H210600   1.526   5.292   2.799
 3532TIP3   OH210601   5.626   1.285   1.366
 3532TIP3    H110602   5.672   1.232   1.300
 3532TIP3    H210603   5.674   1.268   1.447
 3533TIP3   OH210604   4.077   4.727   2.231
 3533TIP3    H110605   4.139   4.797   2.249
 3533TIP3    H210606   4.099   4.697   2.143
 3534TIP3   OH210607   4.009   4.697   2.500
 3534TIP3    H110608   4.045   4.784   2.518
 3534TIP3    H210609   4.030   4.681   2.408
 3535TIP3   OH210610   3.616   4.555   0.480
 3535TIP3    H110611   3.625   4.469   0.439
 3535TIP3    H210612   3.544   4.545   0.542
 3536TIP3   OH210613   3.951   2.665   4.664
 3536TIP3    H110614   3.863   2.692   4.687
 3536TIP3    H210615   3.946   2.644   4.570
 3537TIP3   OH210616   2.869   4.195   3.312
 3537TIP3    H110617   2.883   4.286   3.286
 3537TIP3    H210618   2.901   4.144   3.238
 3538TIP3   OH210619   5.623   2.037   4.834
 3538TIP3    H110620   5.664   2.091   4.766
 3538TIP3    H210621   5.557   1.986   4.787
 3539TIP3   OH210622   6.014   5.883   0.321
 3539TIP3    H110623   6.001   5.972   0.289
 3539TIP3    H210624   5.939   5.867   0.379
 3540TIP3   OH210625   3.488   3.730   1.640
 3540TIP3    H110626   3.558   3.795   1.628
 3540TIP3    H210627   3.496   3.672   1.564
 3541TIP3   OH210628   2.481   5.438   2.150
 3541TIP3    H110629   2.465   5.355   2.106
 3541TIP3    H210630   2.545   5.417   2.218
 3542TIP3   OH210631   4.877   5.153   3.423
 3542TIP3    H110632   4.785   5.166   3.400
 3542TIP3    H210633   4.885   5.058   3.434
 3543TIP3   OH210634   1.075   2.000   0.894
 3543TIP3    H110635   1.170   1.990   0.894
 3543TIP3    H210636   1.056   2.060   0.966
 3544TIP3   OH210637   3.821   4.992   3.604
 3544TIP3    H110638   3.793   5.028   3.520
 3544TIP3    H210639   3.770   4.911   3.613
 3545TIP3   OH210640   4.917   2.673   4.349
 3545TIP3    H110641   4.940   2.617   4.275
 3545TIP3    H210642   4.822   2.669   4.355
 3546TIP3   OH210643   6.318   0.454   0.901
 3546TIP3    H110644   6.241   0.436   0.848
 3546TIP3    H210645   6.376   0.380   0.885
 3547TIP3   OH210646   5.789   0.591   0.084
 3547TIP3    H110647   5.873   0.584   0.130
 3547TIP3    H210648   5.786   0.512   0.029
 3548TIP3   OH210649   3.225   5.221   4.824
 3548TIP3    H110650   3.288   5.266   4.881
 3548TIP3    H210651   3.262   5.133   4.812
 3549TIP3   OH210652   0.511   2.899   2.435
 3549TIP3    H110653   0.581   2.895   2.500
 3549TIP3    H210654   0.510   2.991   2.407
 3550TIP3   OH210655   2.550   2.468   0.967
 3550TIP3    H110656   2.573   2.498   1.055
 3550TIP3    H210657   2.493   2.536   0.932
 3551TIP3   OH210658   1.235   1.306   2.939
 3551TIP3    H110659   1.192   1.386   2.971
 3551TIP3    H210660   1.328   1.328   2.939
 3552TIP3   OH210661   1.139   2.006   5.191
 3552TIP3    H110662   1.156   2.096   5.163
 3552TIP3    H210663   1.226   1.972   5.215
 3553TIP3   OH210664   1.980   3.518   2.610
 3553TIP3    H110665   2.023   3.453   2.666
 3553TIP3    H210666   2.050   3.576   2.582
 3554TIP3   OH210667   3.992   4.469   3.982
 3554TIP3    H110668   3.934   4.539   3.952
 3554TIP3    H210669   4.074   4.484   3.935
 3555TIP3   OH210670   0.759   2.550   0.044
 3555TIP3    H110671   0.840   2.529  -0.001
 3555TIP3    H210672   0.734   2.636   0.011
 3556TIP3   OH210673   3.531   2.309   4.125
 3556TIP3    H110674   3.581   2.260   4.190
 3556TIP3    H210675   3.447   2.327   4.167
 3557TIP3   OH210676   3.856   0.448   1.926
 3557TIP3    H110677   3.919   0.386   1.888
 3557TIP3    H210678   3.771   0.419   1.894
 3558TIP3   OH210679   4.169   2.726   3.509
 3558TIP3    H110680   4.239   2.778   3.469
 3558TIP3    H210681   4.185   2.733   3.603
 3559TIP3   OH210682   2.622   2.808   2.950
 3559TIP3    H110683   2.556   2.863   2.909
 3559TIP3    H210684   2.699   2.865   2.956
 3560TIP3   OH210685   3.355   2.019   2.629
 3560TIP3    H110686   3.422   2.058   2.686
 3560TIP3    H210687   3.296   1.973   2.689
 3561TIP3   OH210688   5.281   1.640   4.095
 3561TIP3    H110689   5.368   1.640   4.135
 3561TIP3    H210690   5.287   1.574   4.026
 3562TIP3   OH210691   0.217   0.160   1.872
 3562TIP3    H110692   0.242   0.162   1.965
 3562TIP3    H210693   0.145   0.223   1.865
 3563TIP3   OH210694   3.161   0.330   2.434
 3563TIP3    H110695   3.110   0.285   2.366
 3563TIP3    H210696   3.115   0.413   2.447
 3564TIP3   OH210697   4.828   1.585   1.524
 3564TIP3    H110698   4.758   1.528   1.555
 3564TIP3    H210699   4.899   1.526   1.499
 3565TIP3   OH210700   5.188   4.160   1.490
 3565TIP3    H110701   5.226   4.187   1.406
 3565TIP3    H210702   5.235   4.081   1.514
 3566TIP3   OH210703   6.151   4.504   3.166
 3566TIP3    H110704   6.243   4.531   3.169
 3566TIP3    H210705   6.155   4.409   3.155
 3567TIP3   OH210706   5.176   5.288   4.327
 3567TIP3    H110707   5.240   5.272   4.257
 3567TIP3    H210708   5.122   5.209   4.329
 3568TIP3   OH210709   5.807   4.751   1.387
 3568TIP3    H110710   5.889   4.782   1.426
 3568TIP3    H210711   5.741   4.809   1.423
 3569TIP3   OH210712   2.947   1.930   0.316
 3569TIP3    H110713   2.880   1.862   0.310
 3569TIP3    H210714   2.944   1.975   0.231
 3570TIP3   OH210715   6.264   0.045   5.006
 3570TIP3    H110716   6.338   0.055   4.947
 3570TIP3    H210717   6.267   0.124   5.061
 3571TIP3   OH210718   1.402   2.379   0.751
 3571TIP3    H110719   1.353   2.436   0.809
 3571TIP3    H210720   1.415   2.431   0.672
 3572TIP3   OH210721   5.676   4.477   0.414
 3572TIP3    H110722   5.606   4.464   0.351
 3572TIP3    H210723   5.748   4.423   0.381
 3573TIP3   OH210724   6.116   5.936   1.210
 3573TIP3    H110725   6.182   6.002   1.234
 3573TIP3    H210726   6.115   5.937   1.115
 3574TIP3   OH210727   3.266   0.125   2.187
 3574TIP3    H110728   3.211   0.184   2.135
 3574TIP3    H210729   3.328   0.183   2.231
 3575TIP3   OH210730   4.051  -0.008   3.920
 3575TIP3    H110731   3.998   0.046   3.979
 3575TIP3    H210732   4.118   0.053   3.887
 3576TIP3   OH210733   0.468   1.236   2.356
 3576TIP3    H110734   0.492   1.146   2.379
 3576TIP3    H210735   0.374   1.232   2.339
 3577TIP3   OH210736   0.736   0.769   2.082
 3577TIP3    H110737   0.658   0.763   2.027
 3577TIP3    H210738   0.703   0.765   2.171
 3578TIP3   OH210739   5.172   4.522   4.432
 3578TIP3    H110740   5.159   4.616   4.415
 3578TIP3    H210741   5.198   4.517   4.524
 3579TIP3   OH210742   3.890   5.297   0.284
 3579TIP3    H110743   3.895   5.335   0.197
 3579TIP3    H210744   3.975   5.315   0.324
 3580TIP3   OH210745   3.117   5.884   1.994
 3580TIP3    H110746   3.143   5.974   2.014
 3580TIP3    H210747   3.195   5.846   1.953
 3581TIP3   OH210748   0.801   4.475   0.475
 3581TIP3    H110749   0.738   4.520   0.420
 3581TIP3    H210750   0.783   4.506   0.564
 3582TIP3   OH210751   0.421   4.808   0.759
 3582TIP3    H110752   0.423   4.856   0.676
 3582TIP3    H210753   0.329   4.784   0.770
 3583TIP3   OH210754   0.792   5.071   1.038
 3583TIP3    H110755   0.713   5.078   0.984
 3583TIP3    H210756   0.762   5.031   1.119
 3584TIP3   OH210757   5.020   1.236   0.215
 3584TIP3    H110758   5.045   1.325   0.239
 3584TIP3    H210759   5.039   1.231   0.121
 3585TIP3   OH210760   0.834   3.315   0.083
 3585TIP3    H110761   0.920   3.283   0.110
 3585TIP3    H210762   0.809   3.379   0.150
 3586TIP3   OH210763   0.953   5.189   2.436
 3586TIP3    H110764   0.922   5.266   2.389
 3586TIP3    H210765   0.911   5.115   2.392
 3587TIP3   OH210766   0.710   1.623   0.535
 3587TIP3    H110767   0.651   1.564   0.581
 3587TIP3    H210768   0.663   1.706   0.531
 3588TIP3   OH210769   3.633   3.824   3.296
 3588TIP3    H110770   3.673   3.903   3.259
 3588TIP3    H210771   3.604   3.851   3.383
 3589TIP3   OH210772   3.080   3.646   5.053
 3589TIP3    H110773   3.114   3.604   5.132
 3589TIP3    H210774   2.990   3.670   5.075
 3590TIP3   OH210775   6.165   0.177   0.867
 3590TIP3    H110776   6.211   0.100   0.903
 3590TIP3    H210777   6.083   0.142   0.834
 3591TIP3   OH210778   4.564   4.408   1.769
 3591TIP3    H110779   4.606   4.417   1.683
 3591TIP3    H210780   4.524   4.321   1.766
 3592TIP3   OH210781   1.436   1.792   2.176
 3592TIP3    H110782   1.476   1.870   2.136
 3592TIP3    H210783   1.510   1.733   2.193
 3593TIP3   OH210784   1.176   1.798   3.985
 3593TIP3    H110785   1.256   1.836   3.947
 3593TIP3    H210786   1.198   1.786   4.078
 3594TIP3   OH210787   0.759   1.235   3.259
 3594TIP3    H110788   0.823   1.195   3.199
 3594TIP3    H210789   0.708   1.294   3.204
 3595TIP3   OH210790   4.064   2.948   2.365
 3595TIP3    H110791   4.032   2.859   2.380
 3595TIP3    H210792   4.158   2.938   2.354
 3596TIP3   OH210793   3.261   2.766   2.767
 3596TIP3    H110794   3.276   2.851   2.808
 3596TIP3    H210795   3.188   2.728   2.817
 3597TIP3   OH210796   5.420   1.784   3.396
 3597TIP3    H110797   5.512   1.790   3.422
 3597TIP3    H210798   5.387   1.707   3.442
 3598TIP3   OH210799   3.692   3.687   4.525
 3598TIP3    H110800   3.605   3.658   4.554
 3598TIP3    H210801   3.693   3.669   4.431
 3599TIP3   OH210802   4.979   4.138   4.566
 3599TIP3    H110803   4.964   4.215   4.512
 3599TIP3    H210804   4.895   4.124   4.611
 3600TIP3   OH210805   5.413   5.346   1.783
 3600TIP3    H110806   5.323   5.353   1.814
 3600TIP3    H210807   5.409   5.376   1.692
 3601TIP3   OH210808   0.324   3.964   5.099
 3601TIP3    H110809   0.277   3.882   5.114
 3601TIP3    H210810   0.411   3.937   5.072
 3602TIP3   OH210811   0.324   3.346   5.084
 3602TIP3    H110812   0.338   3.320   4.993
 3602TIP3    H210813   0.374   3.282   5.135
 3603TIP3   OH210814   4.473   1.203   0.677
 3603TIP3    H110815   4.378   1.194   0.671
 3603TIP3    H210816   4.504   1.191   0.587
 3604TIP3   OH210817   5.446   3.626   2.626
 3604TIP3    H110818   5.521   3.684   2.634
 3604TIP3    H210819   5.383   3.675   2.572
 3605TIP3   OH210820   2.792   4.359   3.923
 3605TIP3    H110821   2.733   4.407   3.981
 3605TIP3    H210822   2.868   4.338   3.977
 3606TIP3   OH210823   5.949   4.187   0.072
 3606TIP3    H110824   5.987   4.101   0.054
 3606TIP3    H210825   5.888   4.202   0.000
 3607TIP3   OH210826   1.742   5.064   4.841
 3607TIP3    H110827   1.667   5.122   4.829
 3607TIP3    H210828   1.776   5.048   4.753
 3608TIP3   OH210829   2.784   4.771   3.937
 3608TIP3    H110830   2.757   4.858   3.908
 3608TIP3    H210831   2.804   4.724   3.857
 3609TIP3   OH210832   3.015   4.756   1.086
 3609TIP3    H110833   2.998   4.662   1.095
 3609TIP3    H210834   3.040   4.783   1.174
 3610TIP3   OH210835   0.092   2.885   0.453
 3610TIP3    H110836   0.155   2.825   0.492
 3610TIP3    H210837   0.024   2.829   0.416
 3611TIP3   OH210838   4.493   0.198   4.952
 3611TIP3    H110839   4.547   0.201   4.872
 3611TIP3    H210840   4.417   0.146   4.928
 3612TIP3   OH210841   1.232   1.921   4.229
 3612TIP3    H110842   1.311   1.878   4.261
 3612TIP3    H210843   1.160   1.874   4.271
 3613TIP3   OH210844   3.977   5.976   4.249
 3613TIP3    H110845   3.961   5.946   4.339
 3613TIP3    H210846   3.947   5.905   4.194
 3614TIP3   OH210847   1.382   3.255   0.624
 3614TIP3    H110848   1.386   3.347   0.598
 3614TIP3    H210849   1.317   3.216   0.565
 3615TIP3   OH210850   5.142   3.512   3.358
 3615TIP3    H110851   5.134   3.492   3.264
 3615TIP3    H210852   5.224   3.471   3.384
 3616TIP3   OH210853   2.478   5.146   4.863
 3616TIP3    H110854   2.398   5.111   4.902
 3616TIP3    H210855   2.540   5.153   4.936
 3617TIP3   OH210856   0.451   5.920   2.104
 3617TIP3    H110857   0.378   5.931   2.166
 3617TIP3    H210858   0.483   6.009   2.089
 3618TIP3   OH210859   3.326   4.313   3.487
 3618TIP3    H110860   3.300   4.254   3.558
 3618TIP3    H210861   3.375   4.257   3.427
 3619TIP3   OH210862   4.671   3.038   1.612
 3619TIP3    H110863   4.668   3.130   1.639
 3619TIP3    H210864   4.760   3.009   1.636
 3620TIP3   OH210865   2.641   1.057   0.534
 3620TIP3    H110866   2.683   1.097   0.458
 3620TIP3    H210867   2.602   1.130   0.582
 3621TIP3   OH210868   1.239   4.907   1.596
 3621TIP3    H110869   1.253   4.987   1.544
 3621TIP3    H210870   1.326   4.884   1.628
 3622TIP3   OH210871   5.309   2.870   1.530
 3622TIP3    H110872   5.294   2.948   1.583
 3622TIP3    H210873   5.404   2.866   1.520
 3623TIP3   OH210874   0.359   1.508   5.111
 3623TIP3    H110875   0.326   1.540   5.195
 3623TIP3    H210876   0.386   1.588   5.065
 3624TIP3   OH210877   3.921   2.420   2.484
 3624TIP3    H110878   3.828   2.415   2.505
 3624TIP3    H210879   3.928   2.378   2.398
 3625TIP3   OH210880   1.234   4.453   1.640
 3625TIP3    H110881   1.295   4.432   1.570
 3625TIP3    H210882   1.232   4.374   1.694
 3626TIP3   OH210883   0.810   1.528   1.023
 3626TIP3    H110884   0.886   1.550   0.969
 3626TIP3    H210885   0.842   1.462   1.084
 3627TIP3   OH210886   4.452   2.235   4.219
 3627TIP3    H110887   4.474   2.210   4.129
 3627TIP3    H210888   4.359   2.257   4.215
 3628TIP3   OH210889   4.188   1.871   3.749
 3628TIP3    H110890   4.251   1.869   3.821
 3628TIP3    H210891   4.192   1.961   3.716
 3629TIP3   OH210892   5.863   0.159   4.149
 3629TIP3    H110893   5.864   0.091   4.082
 3629TIP3    H210894   5.948   0.152   4.193
 3630TIP3   OH210895   5.089   0.721   3.199
 3630TIP3    H110896   5.080   0.626   3.202
 3630TIP3    H210897   5.077   0.743   3.107
 3631TIP3   OH210898   1.235   2.500   3.810
 3631TIP3    H110899   1.246   2.593   3.790
 3631TIP3    H210900   1.153   2.497   3.860
 3632TIP3   OH210901   1.702   4.576   0.464
 3632TIP3    H110902   1.706   4.641   0.535
 3632TIP3    H210903   1.688   4.493   0.509
 3633TIP3   OH210904   4.555   3.735   3.253
 3633TIP3    H110905   4.619   3.805   3.242
 3633TIP3    H210906   4.540   3.702   3.165
 3634TIP3   OH210907   4.473   2.354   4.717
 3634TIP3    H110908   4.431   2.289   4.660
 3634TIP3    H210909   4.567   2.345   4.699
 3635TIP3   OH210910   1.017   5.116   3.197
 3635TIP3    H110911   1.086   5.172   3.232
 3635TIP3    H210912   0.999   5.151   3.110
 3636TIP3   OH210913   2.933   0.921   1.827
 3636TIP3    H110914   2.951   0.881   1.742
 3636TIP3    H210915   2.855   0.974   1.813
 3637TIP3   OH210916   1.645   1.611   4.075
 3637TIP3    H110917   1.694   1.618   3.992
 3637TIP3    H210918   1.675   1.528   4.113
 3638TIP3   OH210919   1.760   4.203   2.689
 3638TIP3    H110920   1.675   4.240   2.665
 3638TIP3    H210921   1.822   4.274   2.673
 3639TIP3   OH210922   5.426   4.020   0.709
 3639TIP3    H110923   5.446   4.043   0.618
 3639TIP3    H210924   5.339   4.056   0.725
 3640TIP3   OH210925   5.147   0.884   3.738
 3640TIP3    H110926   5.142   0.967   3.691
 3640TIP3    H210927   5.183   0.908   3.823
 3641TIP3   OH210928   2.041   5.417   3.584
 3641TIP3    H110929   1.954   5.426   3.624
 3641TIP3    H210930   2.086   5.498   3.607
 3642TIP3   OH210931   5.011   5.547   3.232
 3642TIP3    H110932   5.069   5.498   3.291
 3642TIP3    H210933   5.034   5.639   3.247
 3643TIP3   OH210934   5.413   0.962   0.577
 3643TIP3    H110935   5.408   0.954   0.673
 3643TIP3    H210936   5.324   0.980   0.549
 3644TIP3   OH210937   2.197   4.577   2.959
 3644TIP3    H110938   2.162   4.516   3.023
 3644TIP3    H210939   2.119   4.618   2.921
 3645TIP3   OH210940   3.128   0.948   1.335
 3645TIP3    H110941   3.077   0.897   1.273
 3645TIP3    H210942   3.211   0.964   1.291
 3646TIP3   OH210943   2.208   4.250   1.522
 3646TIP3    H110944   2.223   4.318   1.456
 3646TIP3    H210945   2.219   4.168   1.476
 3647TIP3   OH210946   4.594   1.175   3.717
 3647TIP3    H110947   4.600   1.082   3.740
 3647TIP3    H210948   4.583   1.220   3.801
 3648TIP3   OH210949   2.475   0.266   4.178
 3648TIP3    H110950   2.470   0.173   4.160
 3648TIP3    H210951   2.384   0.297   4.173
 3649TIP3   OH210952   0.887   1.229   1.039
 3649TIP3    H110953   0.861   1.143   1.073
 3649TIP3    H210954   0.963   1.211   0.985
 3650TIP3   OH210955   1.725   3.637   1.109
 3650TIP3    H110956   1.659   3.697   1.144
 3650TIP3    H210957   1.795   3.694   1.078
 3651TIP3   OH210958   2.114   1.994   0.123
 3651TIP3    H110959   2.182   1.959   0.180
 3651TIP3    H210960   2.043   1.929   0.128
 3652TIP3   OH210961   5.697   1.552   3.743
 3652TIP3    H110962   5.677   1.643   3.762
 3652TIP3    H210963   5.617   1.504   3.767
 3653TIP3   OH210964   4.009   3.132   4.990
 3653TIP3    H110965   4.090   3.089   4.962
 3653TIP3    H210966   4.025   3.225   4.978
 3654TIP3   OH210967   3.888   5.247   3.712
 3654TIP3    H110968   3.863   5.155   3.703
 3654TIP3    H210969   3.837   5.292   3.645
 3655TIP3   OH210970   4.094   4.477   3.333
 3655TIP3    H110971   4.106   4.556   3.280
 3655TIP3    H210972   4.183   4.451   3.358
 3656TIP3   OH210973   4.757   4.437   3.888
 3656TIP3    H110974   4.810   4.400   3.817
 3656TIP3    H210975   4.685   4.482   3.843
 3657TIP3   OH210976   0.103   4.896   1.156
 3657TIP3    H110977   0.043   4.827   1.185
 3657TIP3    H210978   0.181   4.883   1.211
 3658TIP3   OH210979   0.793   1.265   1.651
 3658TIP3    H110980   0.839   1.276   1.734
 3658TIP3    H210981   0.816   1.176   1.623
 3659TIP3   OH210982   1.243   5.554   1.085
 3659TIP3    H110983   1.161   5.538   1.130
 3659TIP3    H210984   1.245   5.489   1.014
 3660TIP3   OH210985   1.802   1.437   2.018
 3660TIP3    H110986   1.792   1.344   2.040
 3660TIP3    H210987   1.862   1.438   1.944
 3661TIP3   OH210988   3.552   3.285   4.518
 3661TIP3    H110989   3.503   3.241   4.588
 3661TIP3    H210990   3.511   3.254   4.438
 3662TIP3   OH210991   3.821   4.589   4.256
 3662TIP3    H110992   3.761   4.548   4.195
 3662TIP3    H210993   3.776   4.668   4.287
 3663TIP3   OH210994   0.589   5.700   4.392
 3663TIP3    H110995   0.563   5.735   4.306
 3663TIP3    H210996   0.543   5.617   4.399
 3664TIP3   OH210997   5.538   1.405   5.004
 3664TIP3    H110998   5.596   1.443   4.937
 3664TIP3    H210999   5.520   1.478   5.063
 3665TIP3   OH211000   5.499   3.782   1.607
 3665TIP3    H111001   5.486   3.877   1.606
 3665TIP3    H211002   5.498   3.759   1.699
 3666TIP3   OH211003   5.859   0.645   3.946
 3666TIP3    H111004   5.901   0.665   3.862
 3666TIP3    H211005   5.822   0.729   3.974
 3667TIP3   OH211006   2.607  -0.005   1.730
 3667TIP3    H111007   2.629   0.081   1.764
 3667TIP3    H211008   2.529  -0.031   1.779
 3668TIP3   OH211009   0.868   2.360   1.107
 3668TIP3    H111010   0.917   2.428   1.060
 3668TIP3    H211011   0.930   2.288   1.116
 3669TIP3   OH211012   0.128   5.012   0.912
 3669TIP3    H111013   0.201   5.073   0.912
 3669TIP3    H211014   0.130   4.971   0.999
 3670TIP3   OH211015   4.737   3.764   4.060
 3670TIP3    H111016   4.801   3.731   4.123
 3670TIP3    H211017   4.767   3.731   3.975
 3671TIP3   OH211018   5.964   0.551   1.921
 3671TIP3    H111019   5.970   0.583   1.830
 3671TIP3    H211020   6.042   0.587   1.963
 3672TIP3   OH211021   2.656   3.921   1.984
 3672TIP3    H111022   2.581   3.917   1.924
 3672TIP3    H211023   2.624   3.883   2.066
 3673TIP3   OH211024   4.274   2.601   2.076
 3673TIP3    H111025   4.266   2.523   2.020
 3673TIP3    H211026   4.266   2.674   2.014
 3674TIP3   OH211027   4.916   0.997   1.967
 3674TIP3    H111028   5.011   0.992   1.979
 3674TIP3    H211029   4.905   1.019   1.874
 3675TIP3   OH211030   3.822   2.158   3.101
 3675TIP3    H111031   3.799   2.066   3.113
 3675TIP3    H211032   3.897   2.155   3.041
 3676TIP3   OH211033   2.169   2.622   4.471
 3676TIP3    H111034   2.182   2.622   4.376
 3676TIP3    H211035   2.254   2.644   4.507
 3677TIP3   OH211036   2.596   4.343   2.957
 3677TIP3    H111037   2.560   4.266   2.913
 3677TIP3    H211038   2.689   4.343   2.932
 3678TIP3   OH211039   0.302   5.445   1.089
 3678TIP3    H111040   0.394   5.467   1.107
 3678TIP3    H211041   0.293   5.454   0.995
 3679TIP3   OH211042   3.155   2.472   4.057
 3679TIP3    H111043   3.078   2.528   4.070
 3679TIP3    H211044   3.222   2.531   4.023
 3680TIP3   OH211045   4.074   3.876   1.330
 3680TIP3    H111046   4.130   3.954   1.326
 3680TIP3    H211047   4.057   3.864   1.424
 3681TIP3   OH211048   1.321   1.880   1.024
 3681TIP3    H111049   1.270   1.913   1.099
 3681TIP3    H211050   1.385   1.820   1.064
 3682TIP3   OH211051   5.466   2.426   1.014
 3682TIP3    H111052   5.514   2.508   1.002
 3682TIP3    H211053   5.493   2.394   1.100
 3683TIP3   OH211054   3.648   4.569   0.900
 3683TIP3    H111055   3.670   4.635   0.835
 3683TIP3    H211056   3.683   4.487   0.863
 3684TIP3   OH211057   5.801   1.879   3.033
 3684TIP3    H111058   5.770   1.970   3.036
 3684TIP3    H211059   5.751   1.835   3.102
 3685TIP3   OH211060   4.781   5.457   1.354
 3685TIP3    H111061   4.747   5.368   1.340
 3685TIP3    H211062   4.862   5.444   1.403
 3686TIP3   OH211063   2.196   5.997   0.068
 3686TIP3    H111064   2.184   6.007  -0.026
 3686TIP3    H211065   2.197   5.902   0.082
 3687TIP3   OH211066   1.497   5.470   2.860
 3687TIP3    H111067   1.535   5.472   2.948
 3687TIP3    H211068   1.407   5.501   2.872
 3688TIP3   OH211069   5.696   2.585   4.519
 3688TIP3    H111070   5.732   2.542   4.596
 3688TIP3    H211071   5.607   2.551   4.511
 3689TIP3   OH211072   0.149   2.461   1.394
 3689TIP3    H111073   0.093   2.408   1.451
 3689TIP3    H211074   0.093   2.535   1.368
 3690TIP3   OH211075   2.720   2.539   1.918
 3690TIP3    H111076   2.687   2.464   1.968
 3690TIP3    H211077   2.714   2.512   1.827
 3691TIP3   OH211078   3.627   1.686   0.509
 3691TIP3    H111079   3.625   1.731   0.425
 3691TIP3    H211080   3.719   1.669   0.526
 3692TIP3   OH211081   5.510   0.393   2.787
 3692TIP3    H111082   5.585   0.350   2.828
 3692TIP3    H211083   5.542   0.419   2.701
 3693TIP3   OH211084   4.742   0.123   1.984
 3693TIP3    H111085   4.757   0.123   1.889
 3693TIP3    H211086   4.829   0.128   2.023
 3694TIP3   OH211087   3.666   2.509   0.907
 3694TIP3    H111088   3.726   2.469   0.845
 3694TIP3    H211089   3.590   2.534   0.853
 3695TIP3   OH211090   0.433   2.736   3.756
 3695TIP3    H111091   0.501   2.790   3.717
 3695TIP3    H211092   0.439   2.753   3.850
 3696TIP3   OH211093   2.968   0.245   4.679
 3696TIP3    H111094   2.949   0.291   4.761
 3696TIP3    H211095   2.904   0.175   4.675
 3697TIP3   OH211096   5.316   2.356   3.651
 3697TIP3    H111097   5.261   2.430   3.676
 3697TIP3    H211098   5.380   2.393   3.590
 3698TIP3   OH211099   1.215   5.313   3.218
 3698TIP3    H111100   1.157   5.362   3.160
 3698TIP3    H211101   1.282   5.376   3.244
 3699TIP3   OH211102   3.192   0.743   1.865
 3699TIP3    H111103   3.286   0.727   1.862
 3699TIP3    H211104   3.172   0.787   1.782
 3700TIP3   OH211105   4.388   2.196   1.128
 3700TIP3    H111106   4.477   2.193   1.165
 3700TIP3    H211107   4.379   2.114   1.081
 3701TIP3   OH211108   1.575   0.271   4.180
 3701TIP3    H111109   1.638   0.318   4.125
 3701TIP3    H211110   1.624   0.249   4.259
 3702TIP3   OH211111   6.234   5.558   1.999
 3702TIP3    H111112   6.140   5.569   1.993
 3702TIP3    H211113   6.247   5.463   2.010
 3703TIP3   OH211114   4.170   0.022   1.624
 3703TIP3    H111115   4.137   0.111   1.641
 3703TIP3    H211116   4.263   0.035   1.605
 3704TIP3   OH211117   5.305   3.214   2.250
 3704TIP3    H111118   5.277   3.126   2.225
 3704TIP3    H211119   5.312   3.210   2.346
 3705TIP3   OH211120   3.104   3.674   0.339
 3705TIP3    H111121   3.188   3.635   0.316
 3705TIP3    H211122   3.045   3.600   0.350
 3706TIP3   OH211123   4.158   3.661   2.590
 3706TIP3    H111124   4.096   3.721   2.550
 3706TIP3    H211125   4.240   3.677   2.545
 3707TIP3   OH211126   1.642   2.867   0.059
 3707TIP3    H111127   1.715   2.929   0.066
 3707TIP3    H211128   1.614   2.873  -0.033
 3708TIP3   OH211129   5.833   5.522   0.443
 3708TIP3    H111130   5.898   5.501   0.510
 3708TIP3    H211131   5.879   5.508   0.360
 3709TIP3   OH211132   5.566   0.989   4.650
 3709TIP3    H111133   5.487   0.987   4.703
 3709TIP3    H211134   5.551   1.059   4.586
 3710TIP3   OH211135   3.004   3.752   3.408
 3710TIP3    H111136   3.045   3.731   3.324
 3710TIP3    H211137   2.912   3.730   3.396
 3711TIP3   OH211138   6.166   0.182   3.984
 3711TIP3    H111139   6.262   0.185   3.976
 3711TIP3    H211140   6.151   0.128   4.061
 3712TIP3   OH211141   4.599   3.662   2.767
 3712TIP3    H111142   4.685   3.702   2.784
 3712TIP3    H211143   4.620   3.576   2.729
 3713TIP3   OH211144   3.354   5.509   0.122
 3713TIP3    H111145   3.426   5.550   0.075
 3713TIP3    H211146   3.356   5.418   0.094
 3714TIP3   OH211147   5.265   4.075   2.585
 3714TIP3    H111148   5.298   4.157   2.621
 3714TIP3    H211149   5.331   4.050   2.519
 3715TIP3   OH211150   0.065   5.165   4.583
 3715TIP3    H111151   0.048   5.242   4.638
 3715TIP3    H211152  -0.009   5.161   4.524
 3716TIP3   OH211153   4.228   0.367   5.124
 3716TIP3    H111154   4.168   0.316   5.069
 3716TIP3    H211155   4.288   0.302   5.160
 3717TIP3   OH211156   2.830   0.533   1.223
 3717TIP3    H111157   2.794   0.548   1.136
 3717TIP3    H211158   2.770   0.472   1.265
 3718TIP3   OH211159   4.494   5.608   4.602
 3718TIP3    H111160   4.465   5.610   4.511
 3718TIP3    H211161   4.537   5.523   4.612
 3719TIP3   OH211162   1.286   4.580   0.014
 3719TIP3    H111163   1.310   4.670  -0.008
 3719TIP3    H211164   1.218   4.588   0.081
 3720TIP3   OH211165   2.314   2.186   0.199
 3720TIP3    H111166   2.250   2.191   0.127
 3720TIP3    H211167   2.338   2.093   0.202
 3721TIP3   OH211168   2.345   5.375   3.732
 3721TIP3    H111169   2.286   5.384   3.658
 3721TIP3    H211170   2.411   5.444   3.720
 3722TIP3   OH211171   3.200   4.522   2.128
 3722TIP3    H111172   3.234   4.548   2.214
 3722TIP3    H211173   3.149   4.443   2.146
 3723TIP3   OH211174   0.487   1.841   4.403
 3723TIP3    H111175   0.436   1.829   4.483
 3723TIP3    H211176   0.459   1.769   4.346
 3724TIP3   OH211177   1.419   2.510   4.996
 3724TIP3    H111178   1.370   2.472   4.924
 3724TIP3    H211179   1.449   2.435   5.048
 3725TIP3   OH211180   3.953   2.694   0.814
 3725TIP3    H111181   3.994   2.694   0.728
 3725TIP3    H211182   3.871   2.741   0.801
 3726TIP3   OH211183   2.174   0.572   1.520
 3726TIP3    H111184   2.245   0.615   1.474
 3726TIP3    H211185   2.180   0.604   1.610
 3727TIP3   OH211186   3.843   4.309   4.331
 3727TIP3    H111187   3.876   4.271   4.250
 3727TIP3    H211188   3.837   4.235   4.392
 3728TIP3   OH211189   0.919   0.688   1.566
 3728TIP3    H111190   0.881   0.603   1.588
 3728TIP3    H211191   1.011   0.670   1.546
 3729TIP3   OH211192   3.783   1.835   2.454
 3729TIP3    H111193   3.849   1.858   2.388
 3729TIP3    H211194   3.771   1.916   2.505
 3730TIP3   OH211195   1.672   4.240   3.564
 3730TIP3    H111196   1.710   4.179   3.500
 3730TIP3    H211197   1.742   4.253   3.628
 3731TIP3   OH211198   1.930   4.475   3.304
 3731TIP3    H111199   1.970   4.442   3.223
 3731TIP3    H211200   2.005   4.504   3.357
 3732TIP3   OH211201   2.053   2.604   4.986
 3732TIP3    H111202   2.105   2.680   4.962
 3732TIP3    H211203   1.975   2.610   4.929
 3733TIP3   OH211204   3.147   3.112   2.086
 3733TIP3    H111205   3.196   3.034   2.059
 3733TIP3    H211206   3.055   3.086   2.077
 3734TIP3   OH211207   4.207   5.398   1.891
 3734TIP3    H111208   4.227   5.436   1.806
 3734TIP3    H211209   4.111   5.401   1.897
 3735TIP3   OH211210   2.387   3.041   0.642
 3735TIP3    H111211   2.392   2.957   0.596
 3735TIP3    H211212   2.294   3.051   0.663
 3736TIP3   OH211213   4.540   3.978   2.060
 3736TIP3    H111214   4.576   3.889   2.054
 3736TIP3    H211215   4.587   4.017   2.134
 3737TIP3   OH211216   6.297   4.519   5.132
 3737TIP3    H111217   6.376   4.478   5.167
 3737TIP3    H211218   6.241   4.533   5.208
 3738TIP3   OH211219   5.236   5.693   0.401
 3738TIP3    H111220   5.313   5.690   0.458
 3738TIP3    H211221   5.229   5.605   0.366
 3739TIP3   OH211222   4.861   3.118   3.392
 3739TIP3    H111223   4.925   3.177   3.351
 3739TIP3    H211224   4.782   3.171   3.401
 3740TIP3   OH211225   3.124   0.980   3.660
 3740TIP3    H111226   3.124   0.999   3.754
 3740TIP3    H211227   3.033   0.990   3.633
 3741TIP3   OH211228   3.761   5.465   3.849
 3741TIP3    H111229   3.672   5.428   3.853
 3741TIP3    H211230   3.806   5.410   3.784
 3742TIP3   OH211231   2.123   2.841   1.178
 3742TIP3    H111232   2.113   2.908   1.110
 3742TIP3    H211233   2.034   2.816   1.201
 3743TIP3   OH211234   1.261   0.480   1.094
 3743TIP3    H111235   1.211   0.547   1.141
 3743TIP3    H211236   1.322   0.531   1.040
 3744TIP3   OH211237   0.265   3.462   3.938
 3744TIP3    H111238   0.306   3.523   3.999
 3744TIP3    H211239   0.337   3.426   3.887
 3745TIP3   OH211240   6.080   3.947   2.512
 3745TIP3    H111241   6.074   3.942   2.417
 3745TIP3    H211242   6.031   4.026   2.535
 3746TIP3   OH211243   5.587   4.309   0.618
 3746TIP3    H111244   5.622   4.358   0.544
 3746TIP3    H211245   5.602   4.217   0.595
 3747TIP3   OH211246   2.280   4.798   3.150
 3747TIP3    H111247   2.307   4.808   3.241
 3747TIP3    H211248   2.301   4.707   3.129
 3748TIP3   OH211249   5.778   0.904   3.995
 3748TIP3    H111250   5.855   0.961   3.994
 3748TIP3    H211251   5.711   0.954   3.948
 3749TIP3   OH211252   1.328   0.663   0.137
 3749TIP3    H111253   1.297   0.574   0.121
 3749TIP3    H211254   1.335   0.669   0.232
 3750TIP3   OH211255   1.769   1.356   0.143
 3750TIP3    H111256   1.713   1.433   0.138
 3750TIP3    H211257   1.745   1.314   0.225
 3751TIP3   OH211258   0.401   4.507   2.682
 3751TIP3    H111259   0.373   4.415   2.677
 3751TIP3    H211260   0.320   4.555   2.700
 3752TIP3   OH211261   1.472   4.799   3.027
 3752TIP3    H111262   1.505   4.729   2.971
 3752TIP3    H211263   1.445   4.867   2.965
 3753TIP3   OH211264   6.173   5.688   0.500
 3753TIP3    H111265   6.120   5.752   0.452
 3753TIP3    H211266   6.150   5.701   0.591
 3754TIP3   OH211267   3.506   3.564   2.487
 3754TIP3    H111268   3.590   3.522   2.469
 3754TIP3    H211269   3.474   3.522   2.567
 3755TIP3   OH211270   3.383   1.582   4.365
 3755TIP3    H111271   3.330   1.503   4.375
 3755TIP3    H211272   3.330   1.652   4.403
 3756TIP3   OH211273   1.065   3.878   0.981
 3756TIP3    H111274   1.156   3.889   0.954
 3756TIP3    H211275   1.025   3.964   0.971
 3757TIP3   OH211276   4.126   5.590   1.352
 3757TIP3    H111277   4.188   5.532   1.306
 3757TIP3    H211278   4.166   5.677   1.347
 3758TIP3   OH211279   4.628   3.261   1.088
 3758TIP3    H111280   4.668   3.333   1.136
 3758TIP3    H211281   4.701   3.206   1.060
 3759TIP3   OH211282   1.528   5.319   3.672
 3759TIP3    H111283   1.608   5.277   3.640
 3759TIP3    H211284   1.457   5.261   3.643
 3760TIP3   OH211285   5.101   1.348   2.833
 3760TIP3    H111286   5.171   1.374   2.774
 3760TIP3    H211287   5.062   1.270   2.792
 3761TIP3   OH211288   2.069   4.678   2.706
 3761TIP3    H111289   2.093   4.764   2.672
 3761TIP3    H211290   2.001   4.695   2.771
 3762TIP3   OH211291   4.871   4.348   0.709
 3762TIP3    H111292   4.949   4.385   0.751
 3762TIP3    H211293   4.810   4.332   0.780
 3763TIP3   OH211294   4.568   0.198   3.906
 3763TIP3    H111295   4.531   0.178   3.992
 3763TIP3    H211296   4.651   0.151   3.903
 3764TIP3   OH211297   4.605   3.435   0.420
 3764TIP3    H111298   4.578   3.482   0.498
 3764TIP3    H211299   4.681   3.484   0.388
 3765TIP3   OH211300   1.009   0.202   2.740
 3765TIP3    H111301   0.949   0.221   2.667
 3765TIP3    H211302   1.095   0.229   2.708
 3766TIP3   OH211303   1.956   0.948   0.796
 3766TIP3    H111304   1.876   0.957   0.745
 3766TIP3    H211305   1.952   0.859   0.833
 3767TIP3   OH211306   3.153   0.215   3.588
 3767TIP3    H111307   3.246   0.216   3.612
 3767TIP3    H211308   3.127   0.307   3.585
 3768TIP3   OH211309   3.296   2.397   2.591
 3768TIP3    H111310   3.379   2.362   2.559
 3768TIP3    H211311   3.318   2.443   2.672
 3769TIP3   OH211312   1.816   3.585   4.995
 3769TIP3    H111313   1.730   3.610   4.963
 3769TIP3    H211314   1.874   3.598   4.920
 3770TIP3   OH211315   1.749   1.764   1.306
 3770TIP3    H111316   1.690   1.698   1.343
 3770TIP3    H211317   1.806   1.788   1.379
 3771TIP3   OH211318   4.863   5.377   4.270
 3771TIP3    H111319   4.955   5.381   4.298
 3771TIP3    H211320   4.827   5.302   4.317
 3772TIP3   OH211321   3.177   1.247   2.042
 3772TIP3    H111322   3.157   1.154   2.041
 3772TIP3    H211323   3.268   1.253   2.012
 3773TIP3   OH211324   0.645   5.527   1.642
 3773TIP3    H111325   0.630   5.616   1.610
 3773TIP3    H211326   0.580   5.515   1.712
 3774TIP3   OH211327   1.337   2.448   1.884
 3774TIP3    H111328   1.352   2.542   1.896
 3774TIP3    H211329   1.248   2.433   1.914
 3775TIP3   OH211330   2.221   1.014   0.327
 3775TIP3    H111331   2.304   0.992   0.369
 3775TIP3    H211332   2.180   1.078   0.386
 3776TIP3   OH211333   4.439   4.369   2.529
 3776TIP3    H111334   4.456   4.410   2.613
 3776TIP3    H211335   4.359   4.411   2.498
 3777TIP3   OH211336   4.597   4.466   1.241
 3777TIP3    H111337   4.566   4.393   1.187
 3777TIP3    H211338   4.690   4.447   1.255
 3778TIP3   OH211339   3.087   1.576   1.622
 3778TIP3    H111340   3.179   1.576   1.649
 3778TIP3    H211341   3.065   1.669   1.612
 3779TIP3   OH211342   2.557   5.566   3.717
 3779TIP3    H111343   2.571   5.658   3.742
 3779TIP3    H211344   2.645   5.533   3.698
 3780TIP3   OH211345   3.869   5.132   4.492
 3780TIP3    H111346   3.928   5.173   4.556
 3780TIP3    H211347   3.915   5.052   4.467
 3781TIP3   OH211348   0.944   2.066   1.387
 3781TIP3    H111349   1.000   2.044   1.460
 3781TIP3    H211350   0.855   2.053   1.420
 3782TIP3   OH211351   3.516   1.800   3.782
 3782TIP3    H111352   3.471   1.855   3.718
 3782TIP3    H211353   3.480   1.713   3.769
 3783TIP3   OH211354   5.012   1.881   1.843
 3783TIP3    H111355   5.049   1.962   1.808
 3783TIP3    H211356   5.062   1.812   1.800
 3784TIP3   OH211357   0.545   5.013   3.544
 3784TIP3    H111358   0.627   5.034   3.589
 3784TIP3    H211359   0.573   4.982   3.458
 3785TIP3   OH211360   2.557   5.117   3.535
 3785TIP3    H111361   2.489   5.087   3.595
 3785TIP3    H211362   2.520   5.195   3.494
 3786TIP3   OH211363   4.030   0.153   4.219
 3786TIP3    H111364   4.041   0.078   4.278
 3786TIP3    H211365   4.003   0.225   4.276
 3787TIP3   OH211366   2.397   4.779   3.400
 3787TIP3    H111367   2.471   4.721   3.381
 3787TIP3    H211368   2.362   4.747   3.483
 3788TIP3   OH211369   1.751   3.490   0.485
 3788TIP3    H111370   1.784   3.400   0.482
 3788TIP3    H211371   1.656   3.480   0.496
 3789TIP3   OH211372   2.593   1.183   2.514
 3789TIP3    H111373   2.573   1.259   2.568
 3789TIP3    H211374   2.656   1.133   2.566
 3790TIP3   OH211375   2.153   2.528   3.730
 3790TIP3    H111376   2.229   2.586   3.734
 3790TIP3    H211377   2.126   2.529   3.639
 3791TIP3   OH211378   1.326   2.260   4.701
 3791TIP3    H111379   1.310   2.221   4.615
 3791TIP3    H211380   1.325   2.186   4.762
 3792TIP3   OH211381   4.221   5.204   4.452
 3792TIP3    H111382   4.203   5.110   4.455
 3792TIP3    H211383   4.285   5.215   4.382
 3793TIP3   OH211384   2.959   4.914   4.905
 3793TIP3    H111385   2.942   4.835   4.957
 3793TIP3    H211386   3.037   4.893   4.854
 3794TIP3   OH211387   0.118   0.707   0.907
 3794TIP3    H111388   0.124   0.665   0.993
 3794TIP3    H211389   0.043   0.665   0.865
 3795TIP3   OH211390   2.850   0.732   2.238
 3795TIP3    H111391   2.852   0.694   2.150
 3795TIP3    H211392   2.797   0.671   2.290
 3796TIP3   OH211393   2.907   1.927   5.181
 3796TIP3    H111394   2.815   1.954   5.178
 3796TIP3    H211395   2.954   2.007   5.206
 3797TIP3   OH211396   2.860   4.632   3.723
 3797TIP3    H111397   2.851   4.645   3.628
 3797TIP3    H211398   2.895   4.543   3.731
 3798TIP3   OH211399   2.051   3.080   1.947
 3798TIP3    H111400   2.135   3.038   1.929
 3798TIP3    H211401   2.064   3.171   1.924
 3799TIP3   OH211402   4.095   4.494   4.233
 3799TIP3    H111403   4.076   4.481   4.140
 3799TIP3    H211404   4.184   4.529   4.234
 3800TIP3   OH211405   1.409   5.111   0.743
 3800TIP3    H111406   1.446   5.184   0.694
 3800TIP3    H211407   1.375   5.151   0.823
 3801TIP3   OH211408   6.186   5.638   3.926
 3801TIP3    H111409   6.228   5.562   3.966
 3801TIP3    H211410   6.102   5.645   3.972
 3802TIP3   OH211411   1.162   3.875   0.283
 3802TIP3    H111412   1.096   3.814   0.250
 3802TIP3    H211413   1.113   3.955   0.304
 3803TIP3   OH211414   0.143   5.722   3.289
 3803TIP3    H111415   0.197   5.647   3.264
 3803TIP3    H211416   0.190   5.762   3.363
 3804TIP3   OH211417   4.379   4.956   3.038
 3804TIP3    H111418   4.415   5.019   2.976
 3804TIP3    H211419   4.456   4.924   3.086
 3805TIP3   OH211420   2.006   0.864   1.544
 3805TIP3    H111421   1.959   0.790   1.504
 3805TIP3    H211422   2.029   0.832   1.632
 3806TIP3   OH211423   1.048   0.331   3.950
 3806TIP3    H111424   0.969   0.385   3.956
 3806TIP3    H211425   1.091   0.343   4.034
 3807TIP3   OH211426   5.285   1.290   1.999
 3807TIP3    H111427   5.306   1.383   1.990
 3807TIP3    H211428   5.208   1.288   2.057
 3808TIP3   OH211429   2.314   1.078   3.740
 3808TIP3    H111430   2.255   1.010   3.709
 3808TIP3    H211431   2.345   1.046   3.825
 3809TIP3   OH211432   3.233   0.894   2.370
 3809TIP3    H111433   3.324   0.892   2.340
 3809TIP3    H211434   3.209   0.801   2.379
 3810TIP3   OH211435   4.526   1.371   4.150
 3810TIP3    H111436   4.464   1.382   4.078
 3810TIP3    H211437   4.559   1.460   4.167
 3811TIP3   OH211438   4.821   0.104   3.366
 3811TIP3    H111439   4.868   0.116   3.283
 3811TIP3    H211440   4.752   0.040   3.346
 3812TIP3   OH211441   2.108   0.199   3.869
 3812TIP3    H111442   2.165   0.267   3.906
 3812TIP3    H211443   2.032   0.248   3.835
 3813TIP3   OH211444   5.715   3.692   0.478
 3813TIP3    H111445   5.641   3.632   0.480
 3813TIP3    H211446   5.755   3.678   0.392
 3814TIP3   OH211447   0.053   2.593   4.043
 3814TIP3    H111448   0.024   2.528   3.979
 3814TIP3    H211449   0.031   2.677   4.004
 3815TIP3   OH211450   0.375   1.587   0.875
 3815TIP3    H111451   0.434   1.626   0.940
 3815TIP3    H211452   0.410   1.616   0.791
 3816TIP3   OH211453   2.678   0.542   3.163
 3816TIP3    H111454   2.695   0.545   3.068
 3816TIP3    H211455   2.729   0.614   3.198
 3817TIP3   OH211456   4.896   1.843   2.087
 3817TIP3    H111457   4.939   1.903   2.025
 3817TIP3    H211458   4.806   1.837   2.057
 3818TIP3   OH211459   0.708   0.370   0.996
 3818TIP3    H111460   0.717   0.420   1.077
 3818TIP3    H211461   0.666   0.288   1.022
 3819TIP3   OH211462   1.368   4.712   1.754
 3819TIP3    H111463   1.273   4.717   1.764
 3819TIP3    H211464   1.381   4.676   1.666
 3820TIP3   OH211465   5.944   0.333   2.084
 3820TIP3    H111466   5.910   0.398   2.145
 3820TIP3    H211467   5.968   0.384   2.006
 3821TIP3   OH211468   1.036   0.431   1.887
 3821TIP3    H111469   1.002   0.391   1.967
 3821TIP3    H211470   1.009   0.522   1.892
 3822TIP3   OH211471   3.616   2.688   0.565
 3822TIP3    H111472   3.659   2.759   0.612
 3822TIP3    H211473   3.550   2.655   0.626
 3823TIP3   OH211474   4.256   4.122   2.512
 3823TIP3    H111475   4.209   4.149   2.432
 3823TIP3    H211476   4.310   4.198   2.535
 3824TIP3   OH211477   2.923   3.186   0.746
 3824TIP3    H111478   2.894   3.170   0.836
 3824TIP3    H211479   2.940   3.099   0.710
 3825TIP3   OH211480   5.573   2.905   1.456
 3825TIP3    H111481   5.601   2.997   1.455
 3825TIP3    H211482   5.649   2.857   1.487
 3826TIP3   OH211483   4.679   3.025   4.075
 3826TIP3    H111484   4.598   2.987   4.110
 3826TIP3    H211485   4.649   3.096   4.018
 3827TIP3   OH211486   5.917   0.704   0.696
 3827TIP3    H111487   5.889   0.613   0.689
 3827TIP3    H211488   5.871   0.748   0.624
 3828TIP3   OH211489   1.139   0.983   3.359
 3828TIP3    H111490   1.056   0.935   3.355
 3828TIP3    H211491   1.131   1.051   3.293
 3829TIP3   OH211492   1.681   5.847   2.793
 3829TIP3    H111493   1.732   5.848   2.712
 3829TIP3    H211494   1.600   5.894   2.771
 3830TIP3   OH211495   3.807   3.723   1.946
 3830TIP3    H111496   3.719   3.726   1.908
 3830TIP3    H211497   3.866   3.716   1.870
 3831TIP3   OH211498   2.858   5.369   1.828
 3831TIP3    H111499   2.918   5.294   1.833
 3831TIP3    H211500   2.873   5.417   1.910
 3832TIP3   OH211501   4.955   0.062   3.756
 3832TIP3    H111502   4.893   0.135   3.749
 3832TIP3    H211503   5.036   0.096   3.718
 3833TIP3   OH211504   2.014   4.316   2.836
 3833TIP3    H111505   2.069   4.256   2.785
 3833TIP3    H211506   1.973   4.371   2.770
 3834TIP3   OH211507   2.913   4.001   4.059
 3834TIP3    H111508   2.871   4.040   3.982
 3834TIP3    H211509   2.864   4.037   4.133
 3835TIP3   OH211510   2.353   1.958   1.640
 3835TIP3    H111511   2.416   1.922   1.578
 3835TIP3    H211512   2.339   2.048   1.610
 3836TIP3   OH211513   6.247   1.384   0.188
 3836TIP3    H111514   6.241   1.289   0.173
 3836TIP3    H211515   6.188   1.422   0.124
 3837TIP3   OH211516   0.064   1.277   3.568
 3837TIP3    H111517  -0.003   1.220   3.606
 3837TIP3    H211518   0.073   1.247   3.478
 3838TIP3   OH211519   3.342   2.463   1.692
 3838TIP3    H111520   3.381   2.376   1.691
 3838TIP3    H211521   3.248   2.446   1.702
 3839TIP3   OH211522   1.382   0.790   2.378
 3839TIP3    H111523   1.437   0.846   2.432
 3839TIP3    H211524   1.320   0.751   2.440
 3840TIP3   OH211525   3.366   0.677   4.596
 3840TIP3    H111526   3.358   0.608   4.662
 3840TIP3    H211527   3.292   0.735   4.613
 3841TIP3   OH211528   5.893   0.639   1.278
 3841TIP3    H111529   5.807   0.596   1.271
 3841TIP3    H211530   5.872   0.731   1.298
 3842TIP3   OH211531   2.613   2.454   1.577
 3842TIP3    H111532   2.528   2.433   1.614
 3842TIP3    H211533   2.608   2.427   1.486
 3843TIP3   OH211534   5.325   4.491   4.094
 3843TIP3    H111535   5.238   4.465   4.065
 3843TIP3    H211536   5.367   4.409   4.121
 3844TIP3   OH211537   5.678   0.315   0.381
 3844TIP3    H111538   5.748   0.379   0.371
 3844TIP3    H211539   5.687   0.283   0.470
 3845TIP3   OH211540   0.053   1.915   0.451
 3845TIP3    H111541   0.061   2.010   0.462
 3845TIP3    H211542   0.131   1.890   0.402
 3846TIP3   OH211543   1.399   4.202   3.309
 3846TIP3    H111544   1.417   4.285   3.264
 3846TIP3    H211545   1.486   4.169   3.334
 3847TIP3   OH211546   1.036   2.348   3.261
 3847TIP3    H111547   1.109   2.362   3.201
 3847TIP3    H211548   1.068   2.380   3.345
 3848TIP3   OH211549   2.697   2.721   4.744
 3848TIP3    H111550   2.688   2.632   4.777
 3848TIP3    H211551   2.736   2.711   4.657
 3849TIP3   OH211552   2.265   5.915   4.829
 3849TIP3    H111553   2.229   5.905   4.740
 3849TIP3    H211554   2.348   5.868   4.826
 3850TIP3   OH211555   3.501   0.768   4.353
 3850TIP3    H111556   3.466   0.706   4.417
 3850TIP3    H211557   3.584   0.797   4.389
 3851TIP3   OH211558   6.123   0.429   4.590
 3851TIP3    H111559   6.079   0.419   4.675
 3851TIP3    H211560   6.084   0.362   4.535
 3852TIP3   OH211561   1.416   3.126   1.722
 3852TIP3    H111562   1.440   3.139   1.813
 3852TIP3    H211563   1.407   3.214   1.686
 3853TIP3   OH211564   1.173   5.138   4.452
 3853TIP3    H111565   1.085   5.143   4.490
 3853TIP3    H211566   1.213   5.062   4.494
 3854TIP3   OH211567   4.840   5.364   2.875
 3854TIP3    H111568   4.824   5.372   2.969
 3854TIP3    H211569   4.753   5.354   2.837
 3855TIP3   OH211570   3.124   0.967   2.001
 3855TIP3    H111571   3.038   0.961   1.959
 3855TIP3    H211572   3.158   0.878   1.999
 3856TIP3   OH211573   0.358   1.297   0.890
 3856TIP3    H111574   0.431   1.250   0.849
 3856TIP3    H211575   0.361   1.384   0.851
 3857TIP3   OH211576   5.081   0.421   3.174
 3857TIP3    H111577   5.027   0.400   3.251
 3857TIP3    H211578   5.021   0.412   3.100
 3858TIP3   OH211579   4.336   5.258   4.185
 3858TIP3    H111580   4.319   5.186   4.124
 3858TIP3    H211581   4.264   5.319   4.171
 3859TIP3   OH211582   5.063   3.152   1.903
 3859TIP3    H111583   5.000   3.100   1.953
 3859TIP3    H211584   5.038   3.243   1.921
 3860TIP3   OH211585   4.108   1.890   1.345
 3860TIP3    H111586   4.016   1.911   1.359
 3860TIP3    H211587   4.146   1.971   1.310
 3861TIP3   OH211588   1.524   3.614   3.957
 3861TIP3    H111589   1.549   3.528   3.924
 3861TIP3    H211590   1.491   3.596   4.046
 3862TIP3   OH211591   2.916   1.511   0.915
 3862TIP3    H111592   2.979   1.446   0.882
 3862TIP3    H211593   2.925   1.506   1.010
 3863TIP3   OH211594   3.565   2.474   5.026
 3863TIP3    H111595   3.647   2.521   5.010
 3863TIP3    H211596   3.591   2.397   5.077
 3864TIP3   OH211597   1.727   5.068   3.857
 3864TIP3    H111598   1.800   5.018   3.893
 3864TIP3    H211599   1.704   5.022   3.776
 3865TIP3   OH211600   1.864   5.962   2.622
 3865TIP3    H111601   1.942   5.945   2.569
 3865TIP3    H211602   1.819   6.033   2.577
 3866TIP3   OH211603   0.501   1.160   4.516
 3866TIP3    H111604   0.582   1.157   4.466
 3866TIP3    H211605   0.443   1.216   4.464
 3867TIP3   OH211606   0.853   2.686   0.572
 3867TIP3    H111607   0.772   2.728   0.544
 3867TIP3    H211608   0.917   2.757   0.575
 3868TIP3   OH211609   6.079   5.397   4.727
 3868TIP3    H111610   6.118   5.419   4.811
 3868TIP3    H211611   6.131   5.446   4.662
 3869TIP3   OH211612   5.610   5.686   1.430
 3869TIP3    H111613   5.516   5.698   1.441
 3869TIP3    H211614   5.619   5.643   1.346
 3870TIP3   OH211615   2.899   0.532   4.243
 3870TIP3    H111616   2.977   0.490   4.278
 3870TIP3    H211617   2.915   0.541   4.150
 3871TIP3   OH211618   0.630   2.695   4.242
 3871TIP3    H111619   0.713   2.717   4.285
 3871TIP3    H211620   0.622   2.600   4.250
 3872TIP3   OH211621   2.333   1.522   4.588
 3872TIP3    H111622   2.290   1.445   4.625
 3872TIP3    H211623   2.382   1.488   4.513
 3873TIP3   OH211624   5.910   5.456   0.095
 3873TIP3    H111625   5.990   5.409   0.115
 3873TIP3    H211626   5.851   5.390   0.058
 3874TIP3   OH211627   4.983   4.651   4.218
 3874TIP3    H111628   5.013   4.584   4.156
 3874TIP3    H211629   4.900   4.616   4.252
 3875TIP3   OH211630   1.396   4.688   0.561
 3875TIP3    H111631   1.410   4.762   0.620
 3875TIP3    H211632   1.448   4.710   0.483
 3876TIP3   OH211633   0.571   3.447   2.249
 3876TIP3    H111634   0.597   3.408   2.166
 3876TIP3    H211635   0.557   3.372   2.307
 3877TIP3   OH211636   5.801   0.752   3.658
 3877TIP3    H111637   5.824   0.665   3.690
 3877TIP3    H211638   5.712   0.743   3.623
 3878TIP3   OH211639   5.676   0.821   0.580
 3878TIP3    H111640   5.661   0.899   0.527
 3878TIP3    H211641   5.612   0.758   0.549
 3879TIP3   OH211642   1.060   5.077   1.001
 3879TIP3    H111643   0.969   5.049   0.994
 3879TIP3    H211644   1.109   4.996   1.015
 3880TIP3   OH211645   1.199   1.415   1.041
 3880TIP3    H111646   1.204   1.321   1.061
 3880TIP3    H211647   1.133   1.449   1.100
 3881TIP3   OH211648   5.459   0.683   0.433
 3881TIP3    H111649   5.398   0.616   0.402
 3881TIP3    H211650   5.423   0.765   0.401
 3882TIP3   OH211651   5.838   4.659   2.710
 3882TIP3    H111652   5.819   4.705   2.628
 3882TIP3    H211653   5.768   4.686   2.769
 3883TIP3   OH211654   3.301   2.554   1.171
 3883TIP3    H111655   3.291   2.646   1.146
 3883TIP3    H211656   3.307   2.506   1.089
 3884TIP3   OH211657   0.977   2.250   2.593
 3884TIP3    H111658   0.952   2.269   2.684
 3884TIP3    H211659   1.073   2.253   2.594
 3885TIP3   OH211660   6.015   4.343   1.530
 3885TIP3    H111661   5.953   4.403   1.489
 3885TIP3    H211662   6.066   4.397   1.590
 3886TIP3   OH211663   0.238   1.462   4.332
 3886TIP3    H111664   0.149   1.490   4.355
 3886TIP3    H211665   0.237   1.366   4.342
 3887TIP3   OH211666   3.908   0.681   4.976
 3887TIP3    H111667   3.934   0.654   5.064
 3887TIP3    H211668   3.987   0.717   4.937
 3888TIP3   OH211669   4.236   5.396  -0.004
 3888TIP3    H111670   4.218   5.467  -0.064
 3888TIP3    H211671   4.217   5.432   0.083
 3889TIP3   OH211672   4.968   5.934  -0.002
 3889TIP3    H111673   5.012   5.859  -0.043
 3889TIP3    H211674   5.028   5.962   0.067
 3890TIP3   OH211675   3.639   0.993   4.078
 3890TIP3    H111676   3.721   0.952   4.107
 3890TIP3    H211677   3.667   1.056   4.011
 3891TIP3   OH211678   4.799   3.068   2.519
 3891TIP3    H111679   4.858   2.993   2.515
 3891TIP3    H211680   4.853   3.142   2.491
 3892TIP3   OH211681   4.228   3.066   1.148
 3892TIP3    H111682   4.295   3.014   1.193
 3892TIP3    H211683   4.190   3.006   1.084
 3893TIP3   OH211684   0.368   2.349   3.464
 3893TIP3    H111685   0.322   2.317   3.541
 3893TIP3    H211686   0.336   2.439   3.453
 3894TIP3   OH211687   0.963   5.516   0.164
 3894TIP3    H111688   0.901   5.474   0.224
 3894TIP3    H211689   1.023   5.446   0.138
 3895TIP3   OH211690   5.912   2.997   4.445
 3895TIP3    H111691   5.991   2.978   4.395
 3895TIP3    H211692   5.902   2.922   4.503
 3896TIP3   OH211693   0.736   5.123   1.838
 3896TIP3    H111694   0.674   5.184   1.800
 3896TIP3    H211695   0.820   5.145   1.797
 3897TIP3   OH211696   1.033   2.993   4.412
 3897TIP3    H111697   1.017   3.087   4.423
 3897TIP3    H211698   1.057   2.963   4.499
 3898TIP3   OH211699   0.586   2.996   4.610
 3898TIP3    H111700   0.534   2.922   4.578
 3898TIP3    H211701   0.665   2.956   4.646
 3899TIP3   OH211702   2.617   4.058   2.830
 3899TIP3    H111703   2.703   4.035   2.795
 3899TIP3    H211704   2.620   4.028   2.921
 3900TIP3   OH211705   4.140   3.487   4.471
 3900TIP3    H111706   4.090   3.414   4.508
 3900TIP3    H211707   4.164   3.541   4.546
 3901TIP3   OH211708   3.232   1.923   1.429
 3901TIP3    H111709   3.275   1.963   1.505
 3901TIP3    H211710   3.274   1.837   1.421
 3902TIP3   OH211711   0.664   3.561   4.184
 3902TIP3    H111712   0.644   3.654   4.177
 3902TIP3    H211713   0.579   3.519   4.189
 3903TIP3   OH211714   2.066   5.337   2.231
 3903TIP3    H111715   2.095   5.400   2.165
 3903TIP3    H211716   2.072   5.252   2.187
 3904TIP3   OH211717   1.898   0.544   0.338
 3904TIP3    H111718   1.875   0.625   0.291
 3904TIP3    H211719   1.917   0.572   0.427
 3905TIP3   OH211720   3.206   5.035   2.922
 3905TIP3    H111721   3.136   5.078   2.971
 3905TIP3    H211722   3.224   4.955   2.972
 3906TIP3   OH211723   5.023   2.497   2.553
 3906TIP3    H111724   5.022   2.511   2.458
 3906TIP3    H211725   4.931   2.488   2.577
 3907TIP3   OH211726   0.585   4.154   1.824
 3907TIP3    H111727   0.492   4.133   1.812
 3907TIP3    H211728   0.631   4.078   1.789
 3908TIP3   OH211729   5.865   2.598   3.898
 3908TIP3    H111730   5.802   2.528   3.913
 3908TIP3    H211731   5.914   2.604   3.980
 3909TIP3   OH211732   0.421   2.112   4.323
 3909TIP3    H111733   0.443   2.018   4.325
 3909TIP3    H211734   0.487   2.153   4.379
 3910TIP3   OH211735   4.004   3.598   0.333
 3910TIP3    H111736   4.082   3.653   0.346
 3910TIP3    H211737   4.013   3.565   0.243
 3911TIP3   OH211738   4.774   2.186   2.491
 3911TIP3    H111739   4.710   2.132   2.538
 3911TIP3    H211740   4.739   2.275   2.497
 3912TIP3   OH211741   0.051   3.849   1.511
 3912TIP3    H111742   0.005   3.797   1.445
 3912TIP3    H211743   0.139   3.863   1.474
 3913TIP3   OH211744   2.367   1.787   2.054
 3913TIP3    H111745   2.301   1.775   2.123
 3913TIP3    H211746   2.438   1.833   2.098
 3914TIP3   OH211747   5.083   1.453   3.643
 3914TIP3    H111748   5.051   1.541   3.660
 3914TIP3    H211749   5.036   1.423   3.565
 3915TIP3   OH211750   0.515   2.516   3.198
 3915TIP3    H111751   0.463   2.464   3.258
 3915TIP3    H211752   0.453   2.576   3.157
 3916TIP3   OH211753   5.208   1.331   3.091
 3916TIP3    H111754   5.173   1.342   3.002
 3916TIP3    H211755   5.179   1.244   3.118
 3917TIP3   OH211756   4.866   1.700   3.429
 3917TIP3    H111757   4.894   1.677   3.518
 3917TIP3    H211758   4.880   1.794   3.423
 3918TIP3   OH211759   6.280   3.588   4.394
 3918TIP3    H111760   6.342   3.633   4.451
 3918TIP3    H211761   6.208   3.564   4.452
 3919TIP3   OH211762   1.310   5.227   0.960
 3919TIP3    H111763   1.370   5.231   1.035
 3919TIP3    H211764   1.239   5.171   0.990
 3920TIP3   OH211765   5.721   1.011   0.770
 3920TIP3    H111766   5.786   1.046   0.709
 3920TIP3    H211767   5.706   0.922   0.740
 3921TIP3   OH211768   4.163   2.111   4.380
 3921TIP3    H111769   4.149   2.197   4.419
 3921TIP3    H211770   4.119   2.116   4.295
 3922TIP3   OH211771   5.703   3.999   4.475
 3922TIP3    H111772   5.772   3.960   4.530
 3922TIP3    H211773   5.729   4.090   4.466
 3923TIP3   OH211774   4.314   5.694   4.799
 3923TIP3    H111775   4.267   5.764   4.755
 3923TIP3    H211776   4.376   5.661   4.734
 3924TIP3   OH211777   4.062   4.533   2.711
 3924TIP3    H111778   4.079   4.584   2.790
 3924TIP3    H211779   4.026   4.596   2.649
 3925TIP3   OH211780   5.378   2.414   3.154
 3925TIP3    H111781   5.462   2.417   3.200
 3925TIP3    H211782   5.401   2.384   3.066
 3926TIP3   OH211783   5.517   2.943   4.637
 3926TIP3    H111784   5.470   2.877   4.687
 3926TIP3    H211785   5.600   2.954   4.684
 3927TIP3   OH211786   3.769   1.886   3.096
 3927TIP3    H111787   3.772   1.790   3.099
 3927TIP3    H211788   3.676   1.907   3.107
 3928TIP3   OH211789   5.338   3.114   0.401
 3928TIP3    H111790   5.243   3.109   0.390
 3928TIP3    H211791   5.368   3.024   0.396
 3929TIP3   OH211792   1.582   4.105   1.322
 3929TIP3    H111793   1.643   4.126   1.393
 3929TIP3    H211794   1.585   4.010   1.314
 3930TIP3   OH211795   3.399   4.364   3.038
 3930TIP3    H111796   3.457   4.411   3.098
 3930TIP3    H211797   3.320   4.346   3.090
 3931TIP3   OH211798   2.709   1.603   4.460
 3931TIP3    H111799   2.684   1.588   4.369
 3931TIP3    H211800   2.661   1.682   4.485
 3932TIP3   OH211801   2.828   4.277   1.677
 3932TIP3    H111802   2.833   4.188   1.711
 3932TIP3    H211803   2.892   4.279   1.605
 3933TIP3   OH211804   3.061   5.319   1.512
 3933TIP3    H111805   3.002   5.244   1.506
 3933TIP3    H211806   3.136   5.288   1.562
 3934TIP3   OH211807   4.698   2.474   0.707
 3934TIP3    H111808   4.679   2.505   0.619
 3934TIP3    H211809   4.781   2.516   0.730
 3935TIP3   OH211810   2.847   3.805   2.371
 3935TIP3    H111811   2.931   3.763   2.354
 3935TIP3    H211812   2.819   3.771   2.456
 3936TIP3   OH211813   4.117   5.977   0.312
 3936TIP3    H111814   4.046   5.913   0.323
 3936TIP3    H211815   4.159   5.952   0.230
 3937TIP3   OH211816   2.670   2.219   0.866
 3937TIP3    H111817   2.739   2.221   0.932
 3937TIP3    H211818   2.618   2.298   0.883
 3938TIP3   OH211819   2.559   1.627   3.098
 3938TIP3    H111820   2.592   1.705   3.054
 3938TIP3    H211821   2.463   1.638   3.096
 3939TIP3   OH211822   1.499   5.254   2.054
 3939TIP3    H111823   1.453   5.179   2.092
 3939TIP3    H211824   1.450   5.331   2.085
 3940TIP3   OH211825   5.454   2.022   3.932
 3940TIP3    H111826   5.415   2.057   3.852
 3940TIP3    H211827   5.378   1.998   3.987
 3941TIP3   OH211828   4.924   2.258   0.946
 3941TIP3    H111829   4.920   2.307   1.028
 3941TIP3    H211830   4.838   2.218   0.938
 3942TIP3   OH211831   3.843   4.058   1.998
 3942TIP3    H111832   3.755   4.042   1.964
 3942TIP3    H211833   3.865   3.978   2.045
 3943TIP3   OH211834   1.934   4.172   4.672
 3943TIP3    H111835   1.956   4.250   4.622
 3943TIP3    H211836   1.909   4.205   4.758
 3944TIP3   OH211837   3.121   4.001   2.644
 3944TIP3    H111838   3.168   3.933   2.692
 3944TIP3    H211839   3.137   3.981   2.552
 3945TIP3   OH211840   4.234   0.683   2.460
 3945TIP3    H111841   4.266   0.627   2.389
 3945TIP3    H211842   4.313   0.725   2.495
 3946TIP3   OH211843   4.418   1.180   3.189
 3946TIP3    H111844   4.380   1.267   3.198
 3946TIP3    H211845   4.356   1.133   3.133
 3947TIP3   OH211846   2.162   0.989   4.841
 3947TIP3    H111847   2.134   1.056   4.779
 3947TIP3    H211848   2.216   0.929   4.790
 3948TIP3   OH211849   5.238   3.683   5.103
 3948TIP3    H111850   5.288   3.722   5.176
 3948TIP3    H211851   5.296   3.616   5.067
 3949TIP3   OH211852   0.162   0.372   2.205
 3949TIP3    H111853   0.097   0.434   2.174
 3949TIP3    H211854   0.245   0.420   2.201
 3950TIP3   OH211855   2.646   2.598   2.242
 3950TIP3    H111856   2.721   2.548   2.211
 3950TIP3    H211857   2.613   2.644   2.165
 3951TIP3   OH211858   5.250   5.173   3.681
 3951TIP3    H111859   5.324   5.232   3.669
 3951TIP3    H211860   5.263   5.136   3.768
 3952TIP3   OH211861   5.053   2.106   2.348
 3952TIP3    H111862   5.006   2.180   2.311
 3952TIP3    H211863   4.987   2.057   2.397
 3953TIP3   OH211864   3.983   1.488   0.989
 3953TIP3    H111865   3.930   1.560   0.956
 3953TIP3    H211866   4.030   1.525   1.064
 3954TIP3   OH211867   2.769   3.311   3.560
 3954TIP3    H111868   2.726   3.261   3.630
 3954TIP3    H211869   2.834   3.364   3.605
 3955TIP3   OH211870   3.485   4.320   4.215
 3955TIP3    H111871   3.578   4.298   4.217
 3955TIP3    H211872   3.457   4.316   4.307
 3956TIP3   OH211873   0.344   2.774   2.769
 3956TIP3    H111874   0.293   2.703   2.807
 3956TIP3    H211875   0.427   2.733   2.744
 3957TIP3   OH211876   3.019   0.469   1.855
 3957TIP3    H111877   2.974   0.387   1.831
 3957TIP3    H211878   3.095   0.472   1.797
 3958TIP3   OH211879   2.966   1.106   3.945
 3958TIP3    H111880   2.886   1.075   3.903
 3958TIP3    H211881   2.940   1.186   3.990
 3959TIP3   OH211882   5.771   0.724   2.258
 3959TIP3    H111883   5.700   0.698   2.316
 3959TIP3    H211884   5.728   0.771   2.187
 3960TIP3   OH211885   0.900   6.024   2.549
 3960TIP3    H111886   0.979   5.970   2.548
 3960TIP3    H211887   0.829   5.964   2.571
 3961TIP3   OH211888   0.064   2.533   4.499
 3961TIP3    H111889   0.031   2.443   4.504
 3961TIP3    H211890   0.068   2.562   4.590
 3962TIP3   OH211891   2.963   5.084   4.577
 3962TIP3    H111892   2.873   5.085   4.609
 3962TIP3    H211893   2.978   5.173   4.545
 3963TIP3   OH211894   5.169   1.425   3.905
 3963TIP3    H111895   5.150   1.422   3.812
 3963TIP3    H211896   5.112   1.493   3.940
 3964TIP3   OH211897   5.231   3.482   2.790
 3964TIP3    H111898   5.146   3.519   2.816
 3964TIP3    H211899   5.275   3.554   2.745
 3965TIP3   OH211900   2.125   2.008   4.718
 3965TIP3    H111901   2.177   1.957   4.780
 3965TIP3    H211902   2.084   1.943   4.661
 3966TIP3   OH211903   5.570   3.089   0.141
 3966TIP3    H111904   5.477   3.089   0.164
 3966TIP3    H211905   5.594   3.182   0.140
 3967TIP3   OH211906   0.925   3.019   0.596
 3967TIP3    H111907   1.006   2.968   0.591
 3967TIP3    H211908   0.923   3.053   0.685
 3968TIP3   OH211909   2.360   3.058   1.095
 3968TIP3    H111910   2.287   3.011   1.055
 3968TIP3    H211911   2.400   3.107   1.022
 3969TIP3   OH211912   4.687   0.865   1.990
 3969TIP3    H111913   4.653   0.916   2.064
 3969TIP3    H211914   4.774   0.902   1.974
 3970TIP3   OH211915   5.938   5.286   1.245
 3970TIP3    H111916   5.884   5.328   1.312
 3970TIP3    H211917   6.012   5.249   1.292
 3971TIP3   OH211918   0.241   5.742   5.099
 3971TIP3    H111919   0.156   5.787   5.104
 3971TIP3    H211920   0.219   5.650   5.106
 3972TIP3   OH211921   1.317   1.347   3.253
 3972TIP3    H111922   1.347   1.354   3.344
 3972TIP3    H211923   1.357   1.422   3.209
 3973TIP3   OH211924   5.938   5.605   4.049
 3973TIP3    H111925   5.898   5.683   4.089
 3973TIP3    H211926   5.976   5.557   4.123
 3974TIP3   OH211927   1.795   3.299   4.353
 3974TIP3    H111928   1.747   3.218   4.335
 3974TIP3    H211929   1.809   3.337   4.267
 3975TIP3   OH211930   5.277   5.206   0.087
 3975TIP3    H111931   5.330   5.211   0.166
 3975TIP3    H211932   5.320   5.138   0.034
 3976TIP3   OH211933   3.547   2.824   2.348
 3976TIP3    H111934   3.507   2.764   2.284
 3976TIP3    H211935   3.547   2.775   2.430
 3977TIP3   OH211936   5.311   0.494   2.219
 3977TIP3    H111937   5.274   0.578   2.246
 3977TIP3    H211938   5.380   0.477   2.283
 3978TIP3   OH211939   0.409   2.993   1.013
 3978TIP3    H111940   0.390   3.058   1.081
 3978TIP3    H211941   0.409   2.909   1.060
 3979TIP3   OH211942   4.401   0.731   1.375
 3979TIP3    H111943   4.430   0.782   1.450
 3979TIP3    H211944   4.461   0.755   1.304
 3980TIP3   OH211945   1.165   4.234   4.404
 3980TIP3    H111946   1.134   4.294   4.337
 3980TIP3    H211947   1.166   4.148   4.361
 3981TIP3   OH211948   0.981   5.567   0.465
 3981TIP3    H111949   0.889   5.592   0.460
 3981TIP3    H211950   1.029   5.647   0.443
 3982TIP3   OH211951   1.688   5.746   3.812
 3982TIP3    H111952   1.739   5.780   3.738
 3982TIP3    H211953   1.752   5.738   3.883
 3983TIP3   OH211954   5.290   1.155   0.107
 3983TIP3    H111955   5.380   1.130   0.087
 3983TIP3    H211956   5.280   1.242   0.067
 3984TIP3   OH211957   1.965   0.905   1.191
 3984TIP3    H111958   2.060   0.912   1.205
 3984TIP3    H211959   1.940   0.826   1.239
 3985TIP3   OH211960   3.972   3.400   1.207
 3985TIP3    H111961   3.880   3.424   1.221
 3985TIP3    H211962   3.969   3.305   1.193
 3986TIP3   OH211963   1.581   5.944   3.389
 3986TIP3    H111964   1.598   5.864   3.437
 3986TIP3    H211965   1.490   5.937   3.361
 3987TIP3   OH211966   6.269   4.875   1.765
 3987TIP3    H111967   6.268   4.863   1.860
 3987TIP3    H211968   6.182   4.849   1.736
 3988TIP3   OH211969   6.281   2.917   4.586
 3988TIP3    H111970   6.252   2.941   4.498
 3988TIP3    H211971   6.377   2.920   4.582
 3989TIP3   OH211972   0.964   4.460   1.574
 3989TIP3    H111973   1.056   4.450   1.595
 3989TIP3    H211974   0.941   4.379   1.528
 3990TIP3   OH211975   2.486   3.501   2.909
 3990TIP3    H111976   2.394   3.526   2.905
 3990TIP3    H211977   2.494   3.452   2.991
 3991TIP3   OH211978   2.941   1.629   3.453
 3991TIP3    H111979   2.870   1.586   3.499
 3991TIP3    H211980   2.989   1.677   3.521
 3992TIP3   OH211981   5.942   1.905   2.795
 3992TIP3    H111982   5.893   1.909   2.877
 3992TIP3    H211983   5.941   1.995   2.762
 3993TIP3   OH211984   6.269   4.613   2.423
 3993TIP3    H111985   6.346   4.606   2.366
 3993TIP3    H211986   6.201   4.648   2.365
 3994TIP3   OH211987   1.020   1.944   3.776
 3994TIP3    H111988   1.081   1.945   3.702
 3994TIP3    H211989   0.994   2.035   3.787
 3995TIP3   OH211990   4.968   5.652   2.688
 3995TIP3    H111991   4.904   5.585   2.665
 3995TIP3    H211992   4.953   5.669   2.781
 3996TIP3   OH211993   0.337   2.337   0.681
 3996TIP3    H111994   0.341   2.398   0.754
 3996TIP3    H211995   0.373   2.386   0.607
 3997TIP3   OH211996   0.199   5.372   1.672
 3997TIP3    H111997   0.258   5.446   1.655
 3997TIP3    H211998   0.233   5.332   1.752
 3998TIP3   OH211999   4.098   0.897   4.607
 3998TIP3    H112000   4.168   0.932   4.552
 3998TIP3    H212001   4.039   0.853   4.545
 3999TIP3   OH212002   0.716   3.967   1.709
 3999TIP3    H112003   0.768   3.893   1.738
 3999TIP3    H212004   0.671   3.937   1.630
 4000TIP3   OH212005   4.487   2.825   4.200
 4000TIP3    H112006   4.485   2.799   4.107
 4000TIP3    H212007   4.565   2.781   4.234
 4001TIP3   OH212008   2.144   0.821   5.090
 4001TIP3    H112009   2.159   0.882   5.018
 4001TIP3    H212010   2.060   0.847   5.127
 4002TIP3   OH212011   0.842   2.873   2.450
 4002TIP3    H112012   0.761   2.823   2.447
 4002TIP3    H212013   0.814   2.964   2.457
 4003TIP3   OH212014   5.302   3.443   3.672
 4003TIP3    H112015   5.310   3.351   3.700
 4003TIP3    H212016   5.299   3.439   3.577
 4004TIP3   OH212017   1.483   3.096   3.767
 4004TIP3    H112018   1.501   3.006   3.794
 4004TIP3    H212019   1.506   3.099   3.674
 4005TIP3   OH212020   0.025   5.633   1.729
 4005TIP3    H112021   0.065   5.546   1.728
 4005TIP3    H212022  -0.025   5.635   1.811
 4006TIP3   OH212023   2.664   5.754   4.302
 4006TIP3    H112024   2.641   5.702   4.379
 4006TIP3    H212025   2.735   5.810   4.330
 4007TIP3   OH212026   2.009   1.080   3.158
 4007TIP3    H112027   2.047   1.168   3.165
 4007TIP3    H212028   1.927   1.093   3.110
 4008TIP3   OH212029   4.648   0.678   4.332
 4008TIP3    H112030   4.691   0.764   4.335
 4008TIP3    H212031   4.697   0.624   4.393
 4009TIP3   OH212032   2.731   5.563   0.125
 4009TIP3    H112033   2.650   5.525   0.090
 4009TIP3    H212034   2.702   5.633   0.183
 4010TIP3   OH212035   1.028   2.529   1.756
 4010TIP3    H112036   0.998   2.438   1.758
 4010TIP3    H212037   1.123   2.524   1.757
 4011TIP3   OH212038   3.671   0.536   5.208
 4011TIP3    H112039   3.724   0.472   5.161
 4011TIP3    H212040   3.592   0.546   5.155
 4012TIP3   OH212041   0.862   0.157   4.302
 4012TIP3    H112042   0.780   0.207   4.311
 4012TIP3    H212043   0.833   0.068   4.282
 4013TIP3   OH212044   1.715   4.894   5.037
 4013TIP3    H112045   1.670   4.945   5.105
 4013TIP3    H212046   1.730   4.957   4.967
 4014TIP3   OH212047   2.507   3.287   0.248
 4014TIP3    H112048   2.552   3.204   0.266
 4014TIP3    H212049   2.478   3.318   0.334
 4015TIP3   OH212050   5.380   3.392   3.407
 4015TIP3    H112051   5.392   3.312   3.355
 4015TIP3    H212052   5.469   3.424   3.421
 4016TIP3   OH212053   6.099   2.422   4.301
 4016TIP3    H112054   6.014   2.464   4.314
 4016TIP3    H212055   6.135   2.412   4.389
 4017TIP3   OH212056   5.032   3.616   1.036
 4017TIP3    H112057   5.064   3.701   1.067
 4017TIP3    H212058   4.967   3.590   1.101
 4018TIP3   OH212059   3.438   4.551   3.384
 4018TIP3    H112060   3.385   4.477   3.412
 4018TIP3    H212061   3.377   4.607   3.334
 4019TIP3   OH212062   0.340   3.716   2.560
 4019TIP3    H112063   0.382   3.785   2.612
 4019TIP3    H212064   0.357   3.635   2.607
 4020TIP3   OH212065   0.095   2.573   4.767
 4020TIP3    H112066   0.018   2.521   4.789
 4020TIP3    H212067   0.099   2.641   4.835
 4021TIP3   OH212068   3.721   2.391   4.465
 4021TIP3    H112069   3.719   2.386   4.561
 4021TIP3    H212070   3.641   2.439   4.443
 4022TIP3   OH212071   3.849   1.886   2.203
 4022TIP3    H112072   3.827   1.973   2.168
 4022TIP3    H212073   3.842   1.828   2.127
 4023TIP3   OH212074   4.688   3.164   2.277
 4023TIP3    H112075   4.752   3.228   2.309
 4023TIP3    H212076   4.640   3.137   2.355
 4024TIP3   OH212077   2.980   4.683   0.298
 4024TIP3    H112078   3.068   4.719   0.311
 4024TIP3    H212079   2.976   4.662   0.205
 4025TIP3   OH212080   6.056   5.529   4.301
 4025TIP3    H112081   6.007   5.600   4.343
 4025TIP3    H212082   6.078   5.470   4.373
 4026TIP3   OH212083   4.823   5.555   3.679
 4026TIP3    H112084   4.806   5.642   3.643
 4026TIP3    H212085   4.740   5.508   3.669
 4027TIP3   OH212086   5.121   2.274   3.091
 4027TIP3    H112087   5.181   2.246   3.160
 4027TIP3    H212088   5.170   2.341   3.043
 4028TIP3   OH212089   0.704   2.617   1.095
 4028TIP3    H112090   0.768   2.615   1.023
 4028TIP3    H212091   0.638   2.553   1.070
 4029TIP3   OH212092   0.245   1.870   3.738
 4029TIP3    H112093   0.161   1.866   3.691
 4029TIP3    H212094   0.299   1.804   3.695
 4030TIP3   OH212095   3.981   5.757   1.653
 4030TIP3    H112096   3.952   5.834   1.604
 4030TIP3    H212097   3.972   5.684   1.592
 4031TIP3   OH212098   1.130   4.567   3.009
 4031TIP3    H112099   1.136   4.505   2.937
 4031TIP3    H212100   1.139   4.513   3.088
 4032TIP3   OH212101   2.544   4.778   1.138
 4032TIP3    H112102   2.601   4.815   1.205
 4032TIP3    H212103   2.523   4.852   1.081
 4033TIP3   OH212104   0.248   4.948   0.549
 4033TIP3    H112105   0.154   4.963   0.559
 4033TIP3    H212106   0.265   4.959   0.456
 4034TIP3   OH212107   3.206   1.451   2.227
 4034TIP3    H112108   3.167   1.414   2.306
 4034TIP3    H212109   3.188   1.385   2.159
 4035TIP3   OH212110   2.336   5.849   1.781
 4035TIP3    H112111   2.285   5.930   1.782
 4035TIP3    H212112   2.328   5.815   1.869
 4036TIP3   OH212113   4.094   4.694   1.966
 4036TIP3    H112114   4.137   4.622   1.920
 4036TIP3    H212115   4.113   4.772   1.913
 4037TIP3   OH212116   3.005   2.248   4.220
 4037TIP3    H112117   3.030   2.337   4.195
 4037TIP3    H212118   2.940   2.260   4.289
 4038TIP3   OH212119   1.404   2.645   2.673
 4038TIP3    H112120   1.495   2.646   2.643
 4038TIP3    H212121   1.354   2.623   2.594
 4039TIP3   OH212122   3.927   5.421   0.046
 4039TIP3    H112123   3.935   5.420  -0.050
 4039TIP3    H212124   3.895   5.509   0.066
 4040TIP3   OH212125   4.880   1.529   3.917
 4040TIP3    H112126   4.883   1.442   3.957
 4040TIP3    H212127   4.788   1.552   3.916
 4041TIP3   OH212128   0.328   3.819   0.107
 4041TIP3    H112129   0.312   3.744   0.049
 4041TIP3    H212130   0.291   3.793   0.191
 4042TIP3   OH212131   1.082   5.520   0.860
 4042TIP3    H112132   1.035   5.437   0.856
 4042TIP3    H212133   1.148   5.514   0.791
 4043TIP3   OH212134   5.245   3.305   0.048
 4043TIP3    H112135   5.331   3.335   0.077
 4043TIP3    H212136   5.207   3.380   0.002
 4044TIP3   OH212137   3.473   2.375   2.016
 4044TIP3    H112138   3.482   2.346   2.107
 4044TIP3    H212139   3.384   2.352   1.992
 4045TIP3   OH212140   4.714   5.748   0.398
 4045TIP3    H112141   4.670   5.792   0.471
 4045TIP3    H212142   4.741   5.663   0.432
 4046TIP3   OH212143   3.852   1.902   3.513
 4046TIP3    H112144   3.912   1.976   3.514
 4046TIP3    H212145   3.765   1.942   3.506
 4047TIP3   OH212146   4.736   5.573   2.546
 4047TIP3    H112147   4.694   5.656   2.528
 4047TIP3    H212148   4.789   5.555   2.469
 4048TIP3   OH212149   0.288   3.517   2.352
 4048TIP3    H112150   0.325   3.584   2.409
 4048TIP3    H212151   0.364   3.472   2.314
 4049TIP3   OH212152   6.246   1.136   0.066
 4049TIP3    H112153   6.232   1.129  -0.028
 4049TIP3    H212154   6.191   1.068   0.104
 4050TIP3   OH212155   5.802   4.203   4.850
 4050TIP3    H112156   5.710   4.194   4.827
 4050TIP3    H212157   5.811   4.294   4.879
 4051TIP3   OH212158   1.805   2.764   3.399
 4051TIP3    H112159   1.718   2.796   3.374
 4051TIP3    H212160   1.856   2.843   3.414
 4052TIP3   OH212161   1.515   2.471   3.781
 4052TIP3    H112162   1.532   2.376   3.782
 4052TIP3    H212163   1.420   2.478   3.778
 4053TIP3   OH212164   2.644   2.011   3.883
 4053TIP3    H112165   2.676   2.043   3.967
 4053TIP3    H212166   2.630   2.091   3.831
 4054TIP3   OH212167   1.340   3.107   5.074
 4054TIP3    H112168   1.370   3.017   5.063
 4054TIP3    H212169   1.268   3.102   5.136
 4055TIP3   OH212170   5.289   1.668   2.264
 4055TIP3    H112171   5.343   1.745   2.246
 4055TIP3    H212172   5.297   1.655   2.358
 4056TIP3   OH212173   0.232   4.303   4.419
 4056TIP3    H112174   0.271   4.368   4.477
 4056TIP3    H212175   0.249   4.219   4.462
 4057TIP3   OH212176   0.263   4.310   1.143
 4057TIP3    H112177   0.244   4.372   1.213
 4057TIP3    H212178   0.179   4.271   1.121
 4058TIP3   OH212179   3.225   0.546   2.053
 4058TIP3    H112180   3.198   0.603   1.982
 4058TIP3    H212181   3.221   0.601   2.131
 4059TIP3   OH212182   3.513   4.348   0.323
 4059TIP3    H112183   3.434   4.295   0.322
 4059TIP3    H212184   3.491   4.425   0.270
 4060TIP3   OH212185   2.543   1.537   3.384
 4060TIP3    H112186   2.537   1.525   3.289
 4060TIP3    H212187   2.490   1.466   3.421
 4061TIP3   OH212188   5.329   1.546   3.547
 4061TIP3    H112189   5.299   1.505   3.466
 4061TIP3    H212190   5.287   1.495   3.617
 4062TIP3   OH212191   5.900   3.892   4.624
 4062TIP3    H112192   5.832   3.826   4.634
 4062TIP3    H212193   5.982   3.843   4.636
 4063TIP3   OH212194   0.072   1.045   2.298
 4063TIP3    H112195  -0.008   0.995   2.310
 4063TIP3    H212196   0.136   1.003   2.356
 4064TIP3   OH212197   1.044   3.497   3.671
 4064TIP3    H112198   1.034   3.538   3.757
 4064TIP3    H212199   1.025   3.405   3.685
 4065TIP3   OH212200   5.007   1.245   1.251
 4065TIP3    H112201   5.076   1.225   1.188
 4065TIP3    H212202   4.939   1.180   1.236
 4066TIP3   OH212203   0.959   1.261   3.905
 4066TIP3    H112204   0.940   1.334   3.846
 4066TIP3    H212205   1.034   1.291   3.957
 4067TIP3   OH212206   2.876   5.165   2.242
 4067TIP3    H112207   2.808   5.228   2.264
 4067TIP3    H212208   2.848   5.084   2.284
 4068TIP3   OH212209   4.885   2.717   2.978
 4068TIP3    H112210   4.946   2.646   2.959
 4068TIP3    H212211   4.941   2.788   3.011
 4069TIP3   OH212212   6.025   2.473   1.001
 4069TIP3    H112213   6.022   2.468   0.906
 4069TIP3    H212214   6.099   2.532   1.020
 4070TIP3   OH212215   1.529   0.449   0.855
 4070TIP3    H112216   1.492   0.416   0.937
 4070TIP3    H212217   1.558   0.370   0.810
 4071TIP3   OH212218   5.789   2.821   1.200
 4071TIP3    H112219   5.789   2.892   1.264
 4071TIP3    H212220   5.864   2.840   1.144
 4072TIP3   OH212221   5.905   1.855   4.769
 4072TIP3    H112222   5.816   1.846   4.802
 4072TIP3    H212223   5.950   1.775   4.796
 4073TIP3   OH212224   1.368   3.135   4.006
 4073TIP3    H112225   1.405   3.140   3.918
 4073TIP3    H212226   1.343   3.044   4.017
 4074TIP3   OH212227   4.946   4.068   1.054
 4074TIP3    H112228   4.862   4.111   1.040
 4074TIP3    H212229   4.973   4.094   1.142
 4075TIP3   OH212230   3.789   3.844   2.386
 4075TIP3    H112231   3.857   3.853   2.320
 4075TIP3    H212232   3.816   3.902   2.457
 4076TIP3   OH212233   0.758   4.216   4.965
 4076TIP3    H112234   0.761   4.266   4.883
 4076TIP3    H212235   0.844   4.175   4.972
 4077TIP3   OH212236   4.154   2.373   4.509
 4077TIP3    H112237   4.103   2.443   4.469
 4077TIP3    H212238   4.118   2.365   4.597
 4078TIP3   OH212239   2.693   1.366   1.419
 4078TIP3    H112240   2.771   1.371   1.474
 4078TIP3    H212241   2.637   1.437   1.450
 4079TIP3   OH212242   5.152   5.334   1.904
 4079TIP3    H112243   5.101   5.399   1.857
 4079TIP3    H212244   5.100   5.254   1.899
 4080TIP3   OH212245   0.821   0.436   3.187
 4080TIP3    H112246   0.912   0.460   3.207
 4080TIP3    H212247   0.812   0.454   3.094
 4081TIP3   OH212248   4.092   5.279   3.882
 4081TIP3    H112249   4.040   5.256   3.805
 4081TIP3    H212250   4.134   5.196   3.907
 4082TIP3   OH212251   2.086   0.362   1.092
 4082TIP3    H112252   2.135   0.445   1.091
 4082TIP3    H212253   2.041   0.361   1.176
 4083TIP3   OH212254   5.577   3.530   1.559
 4083TIP3    H112255   5.609   3.518   1.649
 4083TIP3    H212256   5.551   3.622   1.555
 4084TIP3   OH212257   1.128   4.792   4.293
 4084TIP3    H112258   1.216   4.830   4.288
 4084TIP3    H212259   1.107   4.770   4.202
 4085TIP3   OH212260   3.072   1.757   3.657
 4085TIP3    H112261   3.080   1.665   3.684
 4085TIP3    H212262   3.091   1.807   3.736
 4086TIP3   OH212263   1.565   2.220   3.709
 4086TIP3    H112264   1.506   2.146   3.720
 4086TIP3    H212265   1.652   2.181   3.707
 4087TIP3   OH212266   1.659   3.196   0.609
 4087TIP3    H112267   1.565   3.213   0.600
 4087TIP3    H212268   1.688   3.256   0.678
 4088TIP3   OH212269   2.843   4.096   2.404
 4088TIP3    H112270   2.779   4.119   2.336
 4088TIP3    H212271   2.869   4.006   2.382
 4089TIP3   OH212272   5.390   1.984   3.631
 4089TIP3    H112273   5.431   1.911   3.678
 4089TIP3    H212274   5.393   1.958   3.539
 4090TIP3   OH212275   5.388   5.072   1.823
 4090TIP3    H112276   5.338   5.094   1.901
 4090TIP3    H212277   5.441   5.150   1.806
 4091TIP3   OH212278   5.164   2.127   0.323
 4091TIP3    H112279   5.164   2.200   0.260
 4091TIP3    H212280   5.201   2.164   0.403
 4092TIP3   OH212281   5.877   1.355   4.628
 4092TIP3    H112282   5.854   1.293   4.558
 4092TIP3    H212283   5.806   1.419   4.627
 4093TIP3   OH212284   2.206   1.122   5.076
 4093TIP3    H112285   2.264   1.198   5.071
 4093TIP3    H212286   2.218   1.077   4.992
 4094TIP3   OH212287   0.873   5.707   2.652
 4094TIP3    H112288   0.785   5.741   2.636
 4094TIP3    H212289   0.860   5.612   2.662
 4095TIP3   OH212290   4.242   3.286   4.701
 4095TIP3    H112291   4.275   3.198   4.683
 4095TIP3    H212292   4.148   3.280   4.682
 4096TIP3   OH212293   3.483   3.113   1.393
 4096TIP3    H112294   3.524   3.048   1.449
 4096TIP3    H212295   3.485   3.194   1.444
 4097TIP3   OH212296   1.092   3.818   3.744
 4097TIP3    H112297   1.172   3.807   3.796
 4097TIP3    H212298   1.104   3.902   3.700
 4098TIP3   OH212299   4.003   3.214   3.912
 4098TIP3    H112300   4.045   3.241   3.830
 4098TIP3    H212301   4.076   3.206   3.974
 4099TIP3   OH212302   3.270   1.922   0.890
 4099TIP3    H112303   3.215   1.854   0.929
 4099TIP3    H212304   3.220   1.954   0.815
 4100TIP3   OH212305   2.355   0.553   2.712
 4100TIP3    H112306   2.262   0.575   2.715
 4100TIP3    H212307   2.364   0.475   2.766
 4101TIP3   OH212308   5.827   1.824   0.494
 4101TIP3    H112309   5.903   1.793   0.543
 4101TIP3    H212310   5.824   1.918   0.513
 4102TIP3   OH212311   0.789   1.832   0.828
 4102TIP3    H112312   0.815   1.740   0.838
 4102TIP3    H212313   0.809   1.872   0.912
 4103TIP3   OH212314   4.580   2.859   2.269
 4103TIP3    H112315   4.546   2.925   2.330
 4103TIP3    H212316   4.531   2.779   2.289
 4104TIP3   OH212317   5.290   0.708   4.795
 4104TIP3    H112318   5.270   0.764   4.870
 4104TIP3    H212319   5.216   0.718   4.736
 4105TIP3   OH212320   2.171   2.718   2.770
 4105TIP3    H112321   2.096   2.764   2.809
 4105TIP3    H212322   2.205   2.663   2.841
 4106TIP3   OH212323   4.538   4.362  -0.024
 4106TIP3    H112324   4.536   4.305   0.053
 4106TIP3    H212325   4.492   4.441   0.004
 4107TIP3   OH212326   1.715   1.935   1.750
 4107TIP3    H112327   1.767   1.865   1.789
 4107TIP3    H212328   1.776   2.007   1.740
 4108TIP3   OH212329   4.841   2.615   3.537
 4108TIP3    H112330   4.847   2.692   3.481
 4108TIP3    H212331   4.931   2.591   3.555
 4109TIP3   OH212332   0.836   5.054   0.484
 4109TIP3    H112333   0.924   5.080   0.457
 4109TIP3    H212334   0.850   4.978   0.541
 4110TIP3   OH212335   3.444   0.872   4.966
 4110TIP3    H112336   3.451   0.965   4.986
 4110TIP3    H212337   3.527   0.849   4.925
 4111TIP3   OH212338   4.340   5.552   3.639
 4111TIP3    H112339   4.391   5.632   3.628
 4111TIP3    H212340   4.405   5.483   3.651
 4112TIP3   OH212341   5.696   4.536   4.632
 4112TIP3    H112342   5.698   4.487   4.715
 4112TIP3    H212343   5.654   4.476   4.571
 4113TIP3   OH212344   1.098   4.807   0.995
 4113TIP3    H112345   1.116   4.716   1.018
 4113TIP3    H212346   1.072   4.804   0.903
 4114TIP3   OH212347   1.837   3.473   2.383
 4114TIP3    H112348   1.873   3.511   2.463
 4114TIP3    H212349   1.908   3.420   2.347
 4115TIP3   OH212350   1.487   5.590   4.524
 4115TIP3    H112351   1.542   5.663   4.495
 4115TIP3    H212352   1.470   5.540   4.444
 4116TIP3   OH212353   3.530   0.986   0.526
 4116TIP3    H112354   3.595   1.031   0.581
 4116TIP3    H212355   3.460   1.050   0.515
 4117TIP3   OH212356   0.321   4.058   2.268
 4117TIP3    H112357   0.255   4.065   2.337
 4117TIP3    H212358   0.287   4.112   2.197
 4118TIP3   OH212359   0.159   4.115   2.501
 4118TIP3    H112360   0.222   4.169   2.549
 4118TIP3    H212361   0.082   4.113   2.558
 4119TIP3   OH212362   1.091   5.440   3.552
 4119TIP3    H112363   1.043   5.382   3.611
 4119TIP3    H212364   1.176   5.454   3.596
 4120TIP3   OH212365   2.278   4.720   3.653
 4120TIP3    H112366   2.207   4.666   3.689
 4120TIP3    H212367   2.317   4.761   3.730
 4121TIP3   OH212368   4.572   5.080   4.512
 4121TIP3    H112369   4.569   5.162   4.463
 4121TIP3    H212370   4.549   5.012   4.448
 4122TIP3   OH212371   5.899   0.914   2.443
 4122TIP3    H112372   5.982   0.897   2.486
 4122TIP3    H212373   5.872   0.829   2.408
 4123TIP3   OH212374   6.305   3.877   4.873
 4123TIP3    H112375   6.255   3.834   4.942
 4123TIP3    H212376   6.297   3.971   4.893
 4124TIP3   OH212377   4.778   0.742   2.438
 4124TIP3    H112378   4.865   0.710   2.463
 4124TIP3    H212379   4.792   0.832   2.409
 4125TIP3   OH212380   0.412   2.899   0.345
 4125TIP3    H112381   0.375   2.936   0.265
 4125TIP3    H212382   0.412   2.804   0.330
 4126TIP3   OH212383   1.863   4.391   0.320
 4126TIP3    H112384   1.796   4.452   0.353
 4126TIP3    H212385   1.821   4.305   0.325
 4127TIP3   OH212386   0.557   2.106   5.000
 4127TIP3    H112387   0.581   2.198   5.012
 4127TIP3    H212388   0.518   2.103   4.912
 4128TIP3   OH212389   2.457   1.052   2.752
 4128TIP3    H112390   2.428   1.129   2.703
 4128TIP3    H212391   2.528   1.084   2.807
 4129TIP3   OH212392   5.983   0.704   1.671
 4129TIP3    H112393   6.065   0.710   1.622
 4129TIP3    H212394   5.934   0.782   1.646
 4130TIP3   OH212395   3.163   2.400   3.563
 4130TIP3    H112396   3.220   2.354   3.625
 4130TIP3    H212397   3.152   2.488   3.601
 4131TIP3   OH212398   4.328   1.125   3.849
 4131TIP3    H112399   4.337   1.215   3.879
 4131TIP3    H212400   4.366   1.072   3.919
 4132TIP3   OH212401   3.631   3.591   3.640
 4132TIP3    H112402   3.650   3.513   3.589
 4132TIP3    H212403   3.611   3.559   3.728
 4133TIP3   OH212404   0.755   4.179   3.992
 4133TIP3    H112405   0.825   4.207   4.051
 4133TIP3    H212406   0.794   4.183   3.905
 4134TIP3   OH212407   4.933   5.545   4.636
 4134TIP3    H112408   4.868   5.584   4.577
 4134TIP3    H212409   4.887   5.540   4.720
 4135TIP3   OH212410   6.136   0.498   4.150
 4135TIP3    H112411   6.205   0.470   4.211
 4135TIP3    H212412   6.162   0.461   4.066
 4136TIP3   OH212413   1.969   4.264   2.010
 4136TIP3    H112414   2.025   4.258   1.933
 4136TIP3    H212415   1.934   4.353   2.008
 4137TIP3   OH212416   1.277   3.447   0.388
 4137TIP3    H112417   1.339   3.438   0.316
 4137TIP3    H212418   1.325   3.495   0.456
 4138TIP3   OH212419   2.218   1.115   2.293
 4138TIP3    H112420   2.296   1.123   2.239
 4138TIP3    H212421   2.239   1.046   2.357
 4139TIP3   OH212422   4.910   2.831   2.633
 4139TIP3    H112423   4.831   2.792   2.671
 4139TIP3    H212424   4.982   2.782   2.671
 4140TIP3   OH212425   4.838   3.331   3.987
 4140TIP3    H112426   4.868   3.410   4.032
 4140TIP3    H212427   4.754   3.310   4.028
 4141TIP3   OH212428   1.008   4.373   4.822
 4141TIP3    H112429   0.940   4.435   4.796
 4141TIP3    H212430   1.083   4.429   4.846
 4142TIP3   OH212431   3.825   3.144   4.399
 4142TIP3    H112432   3.781   3.060   4.388
 4142TIP3    H212433   3.760   3.209   4.372
 4143TIP3   OH212434   4.753   5.970   1.394
 4143TIP3    H112435   4.809   6.035   1.353
 4143TIP3    H212436   4.809   5.893   1.403
 4144TIP3   OH212437   4.143   3.325   3.699
 4144TIP3    H112438   4.099   3.359   3.622
 4144TIP3    H212439   4.190   3.247   3.669
 4145TIP3   OH212440   5.238   5.442   2.578
 4145TIP3    H112441   5.184   5.439   2.657
 4145TIP3    H212442   5.268   5.533   2.573
 4146TIP3   OH212443   1.345   1.096   3.132
 4146TIP3    H112444   1.308   1.182   3.149
 4146TIP3    H212445   1.434   1.114   3.102
 4147TIP3   OH212446   3.805   3.417   0.439
 4147TIP3    H112447   3.864   3.489   0.417
 4147TIP3    H212448   3.852   3.366   0.505
 4148TIP3   OH212449   4.833   5.057   2.357
 4148TIP3    H112450   4.909   5.115   2.363
 4148TIP3    H212451   4.791   5.081   2.275
 4149TIP3   OH212452   6.155   6.007   2.184
 4149TIP3    H112453   6.123   5.986   2.096
 4149TIP3    H212454   6.208   5.931   2.209
 4150TIP3   OH212455   3.212   3.710   1.337
 4150TIP3    H112456   3.197   3.751   1.253
 4150TIP3    H212457   3.195   3.779   1.401
 4151TIP3   OH212458   6.163   1.880   0.581
 4151TIP3    H112459   6.152   1.788   0.603
 4151TIP3    H212460   6.251   1.885   0.542
 4152TIP3   OH212461   0.514   2.093   0.426
 4152TIP3    H112462   0.549   2.173   0.467
 4152TIP3    H212463   0.424   2.116   0.402
 4153TIP3   OH212464   5.136   2.585   3.199
 4153TIP3    H112465   5.103   2.608   3.112
 4153TIP3    H212466   5.211   2.529   3.182
 4154TIP3   OH212467   5.910   3.586   3.941
 4154TIP3    H112468   5.822   3.612   3.970
 4154TIP3    H212469   5.940   3.526   4.009
 4155TIP3   OH212470   0.784   1.111   1.325
 4155TIP3    H112471   0.742   1.071   1.401
 4155TIP3    H212472   0.718   1.104   1.255
 4156TIP3   OH212473   5.868   5.721   0.769
 4156TIP3    H112474   5.897   5.682   0.851
 4156TIP3    H212475   5.778   5.747   0.785
 4157TIP3   OH212476   0.949   4.138   2.113
 4157TIP3    H112477   0.905   4.211   2.068
 4157TIP3    H212478   1.030   4.125   2.063
 4158TIP3   OH212479   0.888   5.230   0.192
 4158TIP3    H112480   0.928   5.183   0.119
 4158TIP3    H212481   0.961   5.254   0.249
 4159TIP3   OH212482   1.396   5.562   4.790
 4159TIP3    H112483   1.445   5.568   4.708
 4159TIP3    H212484   1.320   5.507   4.769
 4160TIP3   OH212485   6.218   3.161   3.282
 4160TIP3    H112486   6.215   3.256   3.289
 4160TIP3    H212487   6.272   3.134   3.357
 4161TIP3   OH212488   1.995   4.519   1.550
 4161TIP3    H112489   1.961   4.605   1.574
 4161TIP3    H212490   2.048   4.534   1.472
 4162TIP3   OH212491   3.684   4.132   4.640
 4162TIP3    H112492   3.774   4.105   4.622
 4162TIP3    H212493   3.670   4.108   4.731
 4163TIP3   OH212494   2.620   5.717   1.700
 4163TIP3    H112495   2.548   5.761   1.746
 4163TIP3    H212496   2.654   5.784   1.640
 4164TIP3   OH212497   3.682   1.382   1.904
 4164TIP3    H112498   3.744   1.312   1.883
 4164TIP3    H212499   3.707   1.412   1.991
 4165TIP3   OH212500   2.977   3.148   4.574
 4165TIP3    H112501   2.895   3.186   4.542
 4165TIP3    H212502   2.986   3.181   4.663
 4166TIP3   OH212503   4.152   2.182   1.261
 4166TIP3    H112504   4.247   2.173   1.248
 4166TIP3    H212505   4.117   2.192   1.173
 4167TIP3   OH212506   0.645   0.190   1.834
 4167TIP3    H112507   0.707   0.137   1.784
 4167TIP3    H212508   0.672   0.178   1.925
 4168TIP3   OH212509   6.310   4.940   0.542
 4168TIP3    H112510   6.255   5.008   0.502
 4168TIP3    H212511   6.290   4.945   0.635
 4169TIP3   OH212512   6.010   4.715   2.346
 4169TIP3    H112513   5.943   4.694   2.412
 4169TIP3    H212514   6.011   4.811   2.343
 4170TIP3   OH212515   0.381   3.996   4.367
 4170TIP3    H112516   0.409   4.035   4.284
 4170TIP3    H212517   0.461   3.963   4.407
 4171TIP3   OH212518   4.141   5.158   1.088
 4171TIP3    H112519   4.227   5.201   1.082
 4171TIP3    H212520   4.143   5.091   1.021
 4172TIP3   OH212521   3.556   3.848   2.217
 4172TIP3    H112522   3.569   3.803   2.134
 4172TIP3    H212523   3.633   3.825   2.269
 4173TIP3   OH212524   4.800   1.780   0.932
 4173TIP3    H112525   4.892   1.766   0.953
 4173TIP3    H212526   4.758   1.797   1.017
 4174TIP3   OH212527   0.337   0.190   3.970
 4174TIP3    H112528   0.254   0.144   3.986
 4174TIP3    H212529   0.364   0.221   4.056
 4175TIP3   OH212530   3.585   3.539   0.589
 4175TIP3    H112531   3.662   3.533   0.533
 4175TIP3    H212532   3.596   3.622   0.636
 4176TIP3   OH212533   3.914   2.727   2.365
 4176TIP3    H112534   3.953   2.671   2.298
 4176TIP3    H212535   3.851   2.670   2.410
 4177TIP3   OH212536   3.421   2.840   3.794
 4177TIP3    H112537   3.480   2.858   3.721
 4177TIP3    H212538   3.350   2.904   3.785
 4178TIP3   OH212539   5.576   2.551   1.900
 4178TIP3    H112540   5.597   2.470   1.854
 4178TIP3    H212541   5.649   2.564   1.961
 4179TIP3   OH212542   3.635   4.174   2.517
 4179TIP3    H112543   3.673   4.151   2.432
 4179TIP3    H212544   3.687   4.249   2.547
 4180TIP3   OH212545   5.957   3.444   4.850
 4180TIP3    H112546   6.040   3.416   4.888
 4180TIP3    H212547   5.900   3.367   4.857
 4181TIP3   OH212548   3.418   3.628   3.444
 4181TIP3    H112549   3.488   3.588   3.497
 4181TIP3    H212550   3.339   3.582   3.471
 4182TIP3   OH212551   4.142   4.725   1.469
 4182TIP3    H112552   4.122   4.816   1.447
 4182TIP3    H212553   4.200   4.695   1.398
 4183TIP3   OH212554   5.955   1.541   3.774
 4183TIP3    H112555   5.861   1.534   3.754
 4183TIP3    H212556   5.981   1.451   3.795
 4184TIP3   OH212557   1.747   4.078   1.942
 4184TIP3    H112558   1.740   4.053   2.034
 4184TIP3    H212559   1.812   4.149   1.942
 4185TIP3   OH212560   6.012   2.805   2.512
 4185TIP3    H112561   6.055   2.743   2.453
 4185TIP3    H212562   6.010   2.887   2.464
 4186TIP3   OH212563   3.357   2.080   3.346
 4186TIP3    H112564   3.353   2.175   3.354
 4186TIP3    H212565   3.275   2.049   3.384
 4187TIP3   OH212566   4.632   1.614   3.554
 4187TIP3    H112567   4.583   1.695   3.539
 4187TIP3    H212568   4.705   1.618   3.492
 4188TIP3   OH212569   4.397   1.486   1.535
 4188TIP3    H112570   4.398   1.549   1.463
 4188TIP3    H212571   4.332   1.420   1.508
 4189TIP3   OH212572   4.129   4.170   1.386
 4189TIP3    H112573   4.217   4.202   1.369
 4189TIP3    H212574   4.072   4.243   1.361
 4190TIP3   OH212575   3.953   4.237   2.795
 4190TIP3    H112576   3.864   4.262   2.818
 4190TIP3    H212577   3.994   4.318   2.764
 4191TIP3   OH212578   5.630   1.502   1.180
 4191TIP3    H112579   5.611   1.588   1.217
 4191TIP3    H212580   5.608   1.440   1.250
 4192TIP3   OH212581   1.319   4.961   2.490
 4192TIP3    H112582   1.375   4.888   2.515
 4192TIP3    H212583   1.245   4.956   2.551
 4193TIP3   OH212584   3.921   4.172   0.922
 4193TIP3    H112585   3.879   4.154   0.838
 4193TIP3    H212586   3.916   4.090   0.970
 4194TIP3   OH212587   1.059   5.668   3.727
 4194TIP3    H112588   1.023   5.587   3.765
 4194TIP3    H212589   1.118   5.638   3.658
 4195TIP3   OH212590   0.464   1.703   3.634
 4195TIP3    H112591   0.516   1.771   3.676
 4195TIP3    H212592   0.526   1.655   3.580
 4196TIP3   OH212593   2.333   2.384   0.708
 4196TIP3    H112594   2.349   2.332   0.787
 4196TIP3    H212595   2.239   2.398   0.707
 4197TIP3   OH212596   5.189   5.189   2.718
 4197TIP3    H112597   5.178   5.094   2.723
 4197TIP3    H212598   5.105   5.220   2.684
 4198TIP3   OH212599   4.864   3.217   2.747
 4198TIP3    H112600   4.852   3.157   2.673
 4198TIP3    H212601   4.795   3.193   2.809
 4199TIP3   OH212602   5.563   4.827   0.930
 4199TIP3    H112603   5.572   4.819   1.025
 4199TIP3    H212604   5.639   4.877   0.902
 4200TIP3   OH212605   3.036   3.614   4.279
 4200TIP3    H112606   2.997   3.642   4.196
 4200TIP3    H212607   3.001   3.674   4.344
 4201TIP3   OH212608   0.992   5.227   2.936
 4201TIP3    H112609   0.950   5.312   2.923
 4201TIP3    H212610   0.949   5.169   2.873
 4202TIP3   OH212611   4.280   3.808   4.276
 4202TIP3    H112612   4.326   3.749   4.336
 4202TIP3    H212613   4.342   3.822   4.204
 4203TIP3   OH212614   4.363   4.204   1.738
 4203TIP3    H112615   4.283   4.158   1.764
 4203TIP3    H212616   4.332   4.286   1.699
 4204TIP3   OH212617   5.250   0.728   4.268
 4204TIP3    H112618   5.181   0.671   4.302
 4204TIP3    H212619   5.308   0.669   4.220
 4205TIP3   OH212620   2.127   0.651   3.471
 4205TIP3    H112621   2.133   0.640   3.566
 4205TIP3    H212622   2.097   0.566   3.439
 4206TIP3   OH212623   4.108   3.461   0.122
 4206TIP3    H112624   4.110   3.426   0.032
 4206TIP3    H212625   4.182   3.419   0.165
 4207TIP3   OH212626   1.636   2.669   2.979
 4207TIP3    H112627   1.644   2.632   2.891
 4207TIP3    H212628   1.692   2.747   2.978
 4208TIP3   OH212629   0.098   5.492   3.971
 4208TIP3    H112630   0.049   5.457   4.045
 4208TIP3    H212631   0.044   5.473   3.895
 4209TIP3   OH212632   2.336   1.988   0.916
 4209TIP3    H112633   2.242   2.010   0.915
 4209TIP3    H212634   2.380   2.073   0.924
 4210TIP3   OH212635   4.737   0.030   1.297
 4210TIP3    H112636   4.664   0.091   1.303
 4210TIP3    H212637   4.813   0.086   1.280
 4211TIP3   OH212638   4.309   4.665   3.134
 4211TIP3    H112639   4.232   4.686   3.081
 4211TIP3    H212640   4.379   4.648   3.070
 4212TIP3   OH212641   4.552   5.394   3.681
 4212TIP3    H112642   4.547   5.421   3.773
 4212TIP3    H212643   4.587   5.304   3.685
 4213TIP3   OH212644   0.877   4.186   1.521
 4213TIP3    H112645   0.853   4.093   1.520
 4213TIP3    H212646   0.799   4.231   1.552
 4214TIP3   OH212647   3.134   5.293   2.403
 4214TIP3    H112648   3.076   5.227   2.439
 4214TIP3    H212649   3.075   5.366   2.380
 4215TIP3   OH212650   1.852   5.952   1.826
 4215TIP3    H112651   1.921   5.937   1.762
 4215TIP3    H212652   1.848   6.048   1.834
 4216TIP3   OH212653   5.816   0.797   0.287
 4216TIP3    H112654   5.821   0.729   0.354
 4216TIP3    H212655   5.783   0.751   0.209
 4217TIP3   OH212656   5.042   0.231   4.071
 4217TIP3    H112657   4.991   0.261   3.996
 4217TIP3    H212658   5.049   0.136   4.060
 4218TIP3   OH212659   2.956   3.427   2.150
 4218TIP3    H112660   2.990   3.494   2.209
 4218TIP3    H212661   2.898   3.374   2.205
 4219TIP3   OH212662   5.805   5.593   5.009
 4219TIP3    H112663   5.769   5.520   4.958
 4219TIP3    H212664   5.863   5.551   5.072
 4220TIP3   OH212665   6.067   4.282   2.136
 4220TIP3    H112666   5.998   4.313   2.077
 4220TIP3    H212667   6.127   4.355   2.143
 4221TIP3   OH212668   3.448   2.639   2.182
 4221TIP3    H112669   3.364   2.608   2.215
 4221TIP3    H212670   3.477   2.570   2.122
 4222TIP3   OH212671   2.663   5.448   3.331
 4222TIP3    H112672   2.584   5.397   3.347
 4222TIP3    H212673   2.668   5.458   3.236
 4223TIP3   OH212674   5.615   5.309   2.577
 4223TIP3    H112675   5.646   5.328   2.488
 4223TIP3    H212676   5.630   5.391   2.625
 4224TIP3   OH212677   0.996   0.599   0.789
 4224TIP3    H112678   1.019   0.524   0.844
 4224TIP3    H212679   0.909   0.626   0.820
 4225TIP3   OH212680   1.730   5.479   4.798
 4225TIP3    H112681   1.772   5.478   4.884
 4225TIP3    H212682   1.668   5.407   4.802
 4226TIP3   OH212683   5.166   4.354   5.172
 4226TIP3    H112684   5.075   4.325   5.167
 4226TIP3    H212685   5.216   4.284   5.129
 4227TIP3   OH212686   5.653   3.748   3.250
 4227TIP3    H112687   5.587   3.761   3.183
 4227TIP3    H212688   5.665   3.833   3.291
 4228TIP3   OH212689   0.702   2.889   0.738
 4228TIP3    H112690   0.720   2.914   0.647
 4228TIP3    H212691   0.753   2.951   0.790
 4229TIP3   OH212692   0.488   5.831   0.476
 4229TIP3    H112693   0.454   5.745   0.499
 4229TIP3    H212694   0.467   5.841   0.383
 4230TIP3   OH212695   0.591   0.704   1.848
 4230TIP3    H112696   0.535   0.749   1.784
 4230TIP3    H212697   0.588   0.612   1.822
 4231TIP3   OH212698   6.192   1.118   3.686
 4231TIP3    H112699   6.181   1.041   3.742
 4231TIP3    H212700   6.131   1.102   3.613
 4232TIP3   OH212701   5.405   0.787   1.660
 4232TIP3    H112702   5.369   0.854   1.602
 4232TIP3    H212703   5.490   0.822   1.688
 4233TIP3   OH212704   0.481   1.003   3.857
 4233TIP3    H112705   0.508   1.046   3.938
 4233TIP3    H212706   0.397   1.044   3.835
 4234TIP3   OH212707   5.099   1.581   0.974
 4234TIP3    H112708   5.126   1.490   0.988
 4234TIP3    H212709   5.066   1.582   0.884
 4235TIP3   OH212710   0.087   0.297   3.650
 4235TIP3    H112711   0.040   0.311   3.568
 4235TIP3    H212712   0.072   0.205   3.672
 4236TIP3   OH212713   3.807   5.010   3.094
 4236TIP3    H112714   3.780   5.005   3.003
 4236TIP3    H212715   3.792   4.921   3.128
 4237TIP3   OH212716   2.488   1.364   4.434
 4237TIP3    H112717   2.533   1.414   4.366
 4237TIP3    H212718   2.444   1.293   4.387
 4238TIP3   OH212719   1.243   5.221   2.588
 4238TIP3    H112720   1.168   5.200   2.533
 4238TIP3    H212721   1.297   5.141   2.587
 4239TIP3   OH212722   3.899   1.003   3.151
 4239TIP3    H112723   3.915   1.086   3.105
 4239TIP3    H212724   3.812   0.975   3.121
 4240TIP3   OH212725   3.816   4.832   4.894
 4240TIP3    H112726   3.881   4.898   4.869
 4240TIP3    H212727   3.773   4.869   4.971
 4241TIP3   OH212728   5.134   5.130   2.301
 4241TIP3    H112729   5.181   5.055   2.337
 4241TIP3    H212730   5.172   5.205   2.346
 4242TIP3   OH212731   1.082   5.532   5.006
 4242TIP3    H112732   0.999   5.485   5.015
 4242TIP3    H212733   1.124   5.492   4.930
 4243TIP3   OH212734   1.273   4.834   3.657
 4243TIP3    H112735   1.313   4.752   3.687
 4243TIP3    H212736   1.332   4.865   3.588
 4244TIP3   OH212737   4.185   5.797   1.948
 4244TIP3    H112738   4.130   5.732   1.991
 4244TIP3    H212739   4.128   5.873   1.935
 4245TIP3   OH212740   1.658   1.789   0.185
 4245TIP3    H112741   1.720   1.860   0.202
 4245TIP3    H212742   1.612   1.777   0.268
 4246TIP3   OH212743   3.113   5.238   0.223
 4246TIP3    H112744   3.195   5.218   0.178
 4246TIP3    H212745   3.121   5.196   0.308
 4247TIP3   OH212746   5.475   2.108   0.478
 4247TIP3    H112747   5.398   2.163   0.475
 4247TIP3    H212748   5.462   2.052   0.555
 4248TIP3   OH212749   4.202   4.446   2.450
 4248TIP3    H112750   4.120   4.415   2.411
 4248TIP3    H212751   4.175   4.495   2.527
 4249TIP3   OH212752   6.205   0.136   2.401
 4249TIP3    H112753   6.162   0.130   2.316
 4249TIP3    H212754   6.135   0.158   2.462
 4250TIP3   OH212755   0.159   1.727   4.025
 4250TIP3    H112756   0.107   1.729   3.944
 4250TIP3    H212757   0.104   1.679   4.087
 4251TIP3   OH212758   1.992   3.586   1.794
 4251TIP3    H112759   1.929   3.657   1.804
 4251TIP3    H212760   2.069   3.627   1.755
 4252TIP3   OH212761   5.649   4.966   1.756
 4252TIP3    H112762   5.597   4.994   1.832
 4252TIP3    H212763   5.668   4.874   1.774
 4253TIP3   OH212764   5.294   4.155   5.010
 4253TIP3    H112765   5.369   4.112   4.970
 4253TIP3    H212766   5.220   4.132   4.952
 4254TIP3   OH212767   3.591   1.978   3.502
 4254TIP3    H112768   3.511   1.984   3.554
 4254TIP3    H212769   3.582   2.046   3.436
 4255TIP3   OH212770   1.897   2.817   1.568
 4255TIP3    H112771   1.887   2.776   1.482
 4255TIP3    H212772   1.831   2.886   1.569
 4256TIP3   OH212773   3.163   3.888   1.107
 4256TIP3    H112774   3.131   3.867   1.019
 4256TIP3    H212775   3.212   3.969   1.096
 4257TIP3   OH212776   2.864   4.566   0.068
 4257TIP3    H112777   2.808   4.489   0.060
 4257TIP3    H212778   2.809   4.631   0.113
 4258TIP3   OH212779   1.415   3.587   2.574
 4258TIP3    H112780   1.468   3.511   2.551
 4258TIP3    H212781   1.342   3.552   2.625
 4259TIP3   OH212782   6.288   0.478   1.357
 4259TIP3    H112783   6.274   0.417   1.284
 4259TIP3    H212784   6.200   0.502   1.385
 4260TIP3   OH212785   0.381   5.550   0.471
 4260TIP3    H112786   0.286   5.554   0.468
 4260TIP3    H212787   0.401   5.506   0.554
 4261TIP3   OH212788   1.190   4.701   1.337
 4261TIP3    H112789   1.116   4.744   1.380
 4261TIP3    H212790   1.262   4.707   1.400
 4262TIP3   OH212791   6.349   2.034   3.120
 4262TIP3    H112792   6.357   2.045   3.214
 4262TIP3    H212793   6.390   1.950   3.101
 4263TIP3   OH212794   0.268   1.003   1.860
 4263TIP3    H112795   0.322   0.980   1.936
 4263TIP3    H212796   0.259   1.099   1.865
 4264TIP3   OH212797   5.176   4.040   4.199
 4264TIP3    H112798   5.170   3.972   4.267
 4264TIP3    H212799   5.085   4.070   4.188
 4265TIP3   OH212800   0.019   5.717   2.287
 4265TIP3    H112801   0.072   5.658   2.233
 4265TIP3    H212802  -0.020   5.660   2.353
 4266TIP3   OH212803   4.288   5.568   0.309
 4266TIP3    H112804   4.374   5.596   0.280
 4266TIP3    H212805   4.228   5.604   0.244
 4267TIP3   OH212806   3.657   0.856   2.129
 4267TIP3    H112807   3.617   0.914   2.195
 4267TIP3    H212808   3.613   0.772   2.143
 4268TIP3   OH212809   1.380   2.925   1.055
 4268TIP3    H112810   1.405   2.963   1.140
 4268TIP3    H212811   1.362   3.002   1.000
 4269TIP3   OH212812   3.137   2.404   4.979
 4269TIP3    H112813   3.210   2.464   4.992
 4269TIP3    H212814   3.086   2.412   5.060
 4270TIP3   OH212815   0.450   5.067   0.332
 4270TIP3    H112816   0.508   5.112   0.270
 4270TIP3    H212817   0.368   5.116   0.328
 4271TIP3   OH212818   2.547   2.753   2.465
 4271TIP3    H112819   2.602   2.697   2.410
 4271TIP3    H212820   2.610   2.809   2.511
 4272TIP3   OH212821   2.485   1.486   2.816
 4272TIP3    H112822   2.446   1.440   2.890
 4272TIP3    H212823   2.435   1.568   2.810
 4273TIP3   OH212824   0.826   2.069   3.037
 4273TIP3    H112825   0.765   2.103   3.102
 4273TIP3    H212826   0.854   1.985   3.072
 4274TIP3   OH212827   4.734   4.772   0.605
 4274TIP3    H112828   4.774   4.758   0.520
 4274TIP3    H212829   4.791   4.726   0.666
 4275TIP3   OH212830   4.136   3.668   1.861
 4275TIP3    H112831   4.226   3.698   1.879
 4275TIP3    H212832   4.135   3.577   1.889
 4276TIP3   OH212833   2.395   5.105   3.759
 4276TIP3    H112834   2.374   5.198   3.760
 4276TIP3    H212835   2.311   5.061   3.768
 4277TIP3   OH212836   6.187   1.436   1.929
 4277TIP3    H112837   6.230   1.516   1.956
 4277TIP3    H212838   6.144   1.458   1.846
 4278TIP3   OH212839   5.961   3.357   2.370
 4278TIP3    H112840   5.900   3.359   2.296
 4278TIP3    H212841   6.035   3.305   2.338
 4279TIP3   OH212842   1.859   2.530   3.247
 4279TIP3    H112843   1.798   2.458   3.264
 4279TIP3    H212844   1.851   2.586   3.324
 4280TIP3   OH212845   5.978   1.193   4.949
 4280TIP3    H112846   5.921   1.122   4.919
 4280TIP3    H212847   6.064   1.171   4.912
 4281TIP3   OH212848   4.795   5.400   3.137
 4281TIP3    H112849   4.862   5.462   3.165
 4281TIP3    H212850   4.716   5.427   3.183
 4282TIP3   OH212851   1.357   5.469   0.780
 4282TIP3    H112852   1.426   5.443   0.718
 4282TIP3    H212853   1.350   5.394   0.840
 4283TIP3   OH212854   4.156   1.386   2.722
 4283TIP3    H112855   4.098   1.415   2.653
 4283TIP3    H212856   4.197   1.306   2.688
 4284TIP3   OH212857   0.667   5.588   5.134
 4284TIP3    H112858   0.628   5.501   5.127
 4284TIP3    H212859   0.644   5.631   5.051
 4285TIP3   OH212860   1.917   2.896   4.817
 4285TIP3    H112861   1.908   2.983   4.854
 4285TIP3    H212862   2.008   2.871   4.837
 4286TIP3   OH212863   0.521   1.726   1.072
 4286TIP3    H112864   0.535   1.821   1.073
 4286TIP3    H212865   0.594   1.691   1.124
 4287TIP3   OH212866   5.219   4.550   0.914
 4287TIP3    H112867   5.137   4.585   0.948
 4287TIP3    H212868   5.282   4.561   0.986
 4288TIP3   OH212869   1.102   5.737   0.214
 4288TIP3    H112870   1.049   5.660   0.194
 4288TIP3    H212871   1.042   5.811   0.204
 4289TIP3   OH212872   2.955   3.497   1.569
 4289TIP3    H112873   2.995   3.571   1.614
 4289TIP3    H212874   3.026   3.434   1.559
 4290TIP3   OH212875   6.199   0.758   3.941
 4290TIP3    H112876   6.189   0.686   3.879
 4290TIP3    H212877   6.262   0.725   4.005
 4291TIP3   OH212878   4.675   0.640   2.752
 4291TIP3    H112879   4.623   0.658   2.674
 4291TIP3    H212880   4.612   0.609   2.817
 4292TIP3   OH212881   5.413   4.991   3.350
 4292TIP3    H112882   5.508   4.994   3.355
 4292TIP3    H212883   5.386   4.932   3.420
 4293TIP3   OH212884   3.611   5.068   4.643
 4293TIP3    H112885   3.546   5.136   4.630
 4293TIP3    H212886   3.681   5.089   4.581
 4294TIP3   OH212887   0.664   5.122   2.940
 4294TIP3    H112888   0.745   5.073   2.948
 4294TIP3    H212889   0.630   5.099   2.853
 4295TIP3   OH212890   1.937   3.692   0.552
 4295TIP3    H112891   1.862   3.731   0.506
 4295TIP3    H212892   1.933   3.599   0.531
 4296TIP3   OH212893   6.027   0.823   2.156
 4296TIP3    H112894   6.015   0.859   2.068
 4296TIP3    H212895   5.938   0.813   2.189
 4297TIP3   OH212896   2.297   5.575   4.665
 4297TIP3    H112897   2.375   5.596   4.613
 4297TIP3    H212898   2.294   5.479   4.665
 4298TIP3   OH212899   5.421   5.565   4.249
 4298TIP3    H112900   5.432   5.479   4.208
 4298TIP3    H212901   5.463   5.626   4.188
 4299TIP3   OH212902   0.915   1.805   4.563
 4299TIP3    H112903   0.829   1.777   4.594
 4299TIP3    H212904   0.977   1.759   4.619
 4300TIP3   OH212905   3.393   3.839   2.448
 4300TIP3    H112906   3.458   3.769   2.440
 4300TIP3    H212907   3.316   3.805   2.403
 4301TIP3   OH212908   4.448   3.908   0.087
 4301TIP3    H112909   4.399   3.875   0.011
 4301TIP3    H212910   4.449   4.003   0.076
 4302TIP3   OH212911   0.711   4.322   2.670
 4302TIP3    H112912   0.745   4.234   2.682
 4302TIP3    H212913   0.621   4.317   2.705
 4303TIP3   OH212914   4.425   1.710   1.336
 4303TIP3    H112915   4.494   1.735   1.275
 4303TIP3    H212916   4.359   1.667   1.281
 4304TIP3   OH212917   6.019   4.590   4.933
 4304TIP3    H112918   6.041   4.639   4.854
 4304TIP3    H212919   6.003   4.658   4.999
 4305TIP3   OH212920   2.880   0.909   3.509
 4305TIP3    H112921   2.849   0.915   3.419
 4305TIP3    H212922   2.853   0.822   3.538
 4306TIP3   OH212923   6.256   3.657   1.698
 4306TIP3    H112924   6.252   3.706   1.616
 4306TIP3    H212925   6.304   3.714   1.757
 4307TIP3   OH212926   5.932   2.274   2.024
 4307TIP3    H112927   5.951   2.267   1.930
 4307TIP3    H212928   6.014   2.304   2.063
 4308TIP3   OH212929   5.470   5.518   0.820
 4308TIP3    H112930   5.470   5.522   0.915
 4308TIP3    H212931   5.545   5.463   0.797
 4309TIP3   OH212932   1.247   0.884   4.499
 4309TIP3    H112933   1.232   0.910   4.409
 4309TIP3    H212934   1.186   0.937   4.550
 4310TIP3   OH212935   2.030   3.313   0.492
 4310TIP3    H112936   2.067   3.225   0.481
 4310TIP3    H212937   1.995   3.313   0.581
 4311TIP3   OH212938   0.181   1.506   2.082
 4311TIP3    H112939   0.266   1.549   2.092
 4311TIP3    H212940   0.124   1.551   2.145
 4312TIP3   OH212941   5.039   5.330   0.747
 4312TIP3    H112942   4.999   5.327   0.660
 4312TIP3    H212943   5.123   5.374   0.734
 4313TIP3   OH212944   2.911   5.823   2.161
 4313TIP3    H112945   2.945   5.826   2.250
 4313TIP3    H212946   2.987   5.842   2.105
 4314TIP3   OH212947   3.397   3.274   3.357
 4314TIP3    H112948   3.435   3.232   3.279
 4314TIP3    H212949   3.359   3.355   3.324
 4315TIP3   OH212950   1.564   1.883   4.891
 4315TIP3    H112951   1.561   1.912   4.799
 4315TIP3    H212952   1.649   1.912   4.922
 4316TIP3   OH212953   0.994   5.340   0.605
 4316TIP3    H112954   1.053   5.285   0.553
 4316TIP3    H212955   0.985   5.420   0.554
 4317TIP3   OH212956   3.230   4.981   0.716
 4317TIP3    H112957   3.193   4.913   0.773
 4317TIP3    H212958   3.301   5.020   0.768
 4318TIP3   OH212959   2.634   4.694   0.206
 4318TIP3    H112960   2.551   4.647   0.216
 4318TIP3    H212961   2.662   4.712   0.296
 4319TIP3   OH212962   0.620   3.012   3.354
 4319TIP3    H112963   0.651   2.996   3.265
 4319TIP3    H212964   0.592   3.104   3.354
 4320TIP3   OH212965   4.655   2.246   4.915
 4320TIP3    H112966   4.738   2.214   4.951
 4320TIP3    H212967   4.632   2.183   4.846
 4321TIP3   OH212968   5.132   4.910   3.671
 4321TIP3    H112969   5.204   4.862   3.630
 4321TIP3    H212970   5.149   5.001   3.648
 4322TIP3   OH212971   4.153   1.753   1.581
 4322TIP3    H112972   4.151   1.767   1.486
 4322TIP3    H212973   4.141   1.840   1.618
 4323TIP3   OH212974   0.431   4.965   2.170
 4323TIP3    H112975   0.476   5.041   2.132
 4323TIP3    H212976   0.370   4.937   2.102
 4324TIP3   OH212977   1.304   2.946   4.355
 4324TIP3    H112978   1.291   2.941   4.261
 4324TIP3    H212979   1.216   2.954   4.391
 4325TIP3   OH212980   4.117   2.039   1.637
 4325TIP3    H112981   4.059   2.039   1.560
 4325TIP3    H212982   4.068   2.087   1.703
 4326TIP3   OH212983   5.446   0.495   4.801
 4326TIP3    H112984   5.500   0.485   4.879
 4326TIP3    H212985   5.387   0.568   4.822
 4327TIP3   OH212986   3.825   1.377   4.475
 4327TIP3    H112987   3.739   1.417   4.486
 4327TIP3    H212988   3.858   1.415   4.393
 4328TIP3   OH212989   3.664   5.860   3.653
 4328TIP3    H112990   3.627   5.916   3.585
 4328TIP3    H212991   3.602   5.867   3.726
 4329TIP3   OH212992   3.797   5.769   4.733
 4329TIP3    H112993   3.714   5.812   4.716
 4329TIP3    H212994   3.846   5.831   4.788
 4330TIP3   OH212995   4.582   2.987   3.264
 4330TIP3    H112996   4.648   3.027   3.207
 4330TIP3    H212997   4.571   3.050   3.336
 4331TIP3   OH212998   3.105   1.957   3.874
 4331TIP3    H112999   3.058   1.947   3.957
 4331TIP3    H213000   3.102   2.051   3.856
 4332TIP3   OH213001   0.941   5.967   4.083
 4332TIP3    H113002   1.022   5.972   4.033
 4332TIP3    H213003   0.894   5.893   4.045
 4333TIP3   OH213004   3.551   1.404   4.581
 4333TIP3    H113005   3.489   1.375   4.648
 4333TIP3    H213006   3.504   1.471   4.531
 4334TIP3   OH213007   0.436   3.581   0.783
 4334TIP3    H113008   0.407   3.536   0.704
 4334TIP3    H213009   0.473   3.663   0.752
 4335TIP3   OH213010   2.987   4.813   4.352
 4335TIP3    H113011   2.914   4.789   4.409
 4335TIP3    H213012   3.059   4.832   4.411
 4336TIP3   OH213013   3.178   4.063   3.996
 4336TIP3    H113014   3.093   4.026   4.019
 4336TIP3    H213015   3.238   3.989   4.000
 4337TIP3   OH213016   2.599   4.376   1.566
 4337TIP3    H113017   2.599   4.415   1.478
 4337TIP3    H213018   2.681   4.327   1.570
 4338TIP3   OH213019   6.331   5.505   3.376
 4338TIP3    H113020   6.366   5.587   3.341
 4338TIP3    H213021   6.250   5.491   3.328
 4339TIP3   OH213022   0.451   1.967   2.126
 4339TIP3    H113023   0.487   1.924   2.204
 4339TIP3    H213024   0.527   2.003   2.081
 4340TIP3   OH213025   5.505   5.380   1.503
 4340TIP3    H113026   5.475   5.290   1.490
 4340TIP3    H213027   5.587   5.386   1.454
 4341TIP3   OH213028   3.467   3.658   3.137
 4341TIP3    H113029   3.410   3.614   3.199
 4341TIP3    H213030   3.519   3.718   3.190
 4342TIP3   OH213031   0.770   2.567   3.371
 4342TIP3    H113032   0.798   2.505   3.304
 4342TIP3    H213033   0.676   2.577   3.357
 4343TIP3   OH213034   6.210   2.294   4.098
 4343TIP3    H113035   6.173   2.343   4.171
 4343TIP3    H213036   6.169   2.331   4.021
 4344TIP3   OH213037   4.308   4.831   0.705
 4344TIP3    H113038   4.327   4.828   0.612
 4344TIP3    H213039   4.310   4.924   0.728
 4345TIP3   OH213040   1.620   2.944   1.935
 4345TIP3    H113041   1.668   3.018   1.972
 4345TIP3    H213042   1.650   2.938   1.845
 4346TIP3   OH213043   3.222   4.802   4.550
 4346TIP3    H113044   3.179   4.726   4.589
 4346TIP3    H213045   3.303   4.767   4.514
 4347TIP3   OH213046   1.227   0.879   3.024
 4347TIP3    H113047   1.265   0.961   3.056
 4347TIP3    H213048   1.299   0.817   3.026
 4348TIP3   OH213049   0.143   1.101   2.973
 4348TIP3    H113050   0.211   1.133   2.913
 4348TIP3    H213051   0.061   1.126   2.931
 4349TIP3   OH213052   6.325   5.356   4.271
 4349TIP3    H113053   6.330   5.410   4.350
 4349TIP3    H213054   6.254   5.295   4.288
 4350TIP3   OH213055   1.822   0.762   2.105
 4350TIP3    H113056   1.903   0.742   2.150
 4350TIP3    H213057   1.784   0.677   2.084
 4351TIP3   OH213058   5.528   1.984   0.219
 4351TIP3    H113059   5.618   1.963   0.245
 4351TIP3    H213060   5.487   2.018   0.299
 4352TIP3   OH213061   3.010   1.346   0.452
 4352TIP3    H113062   2.995   1.431   0.412
 4352TIP3    H213063   2.997   1.283   0.381
 4353TIP3   OH213064   0.173   2.230   4.434
 4353TIP3    H113065   0.108   2.183   4.382
 4353TIP3    H213066   0.256   2.185   4.417
 4354TIP3   OH213067   3.748   3.378   5.218
 4354TIP3    H113068   3.738   3.374   5.123
 4354TIP3    H213069   3.794   3.460   5.234
 4355TIP3   OH213070   4.643   4.174   3.342
 4355TIP3    H113071   4.604   4.235   3.405
 4355TIP3    H213072   4.737   4.192   3.347
 4356TIP3   OH213073   5.084   0.210   2.844
 4356TIP3    H113074   5.066   0.116   2.844
 4356TIP3    H213075   5.015   0.247   2.899
 4357TIP3   OH213076   5.047   3.108   0.430
 4357TIP3    H113077   5.083   3.106   0.519
 4357TIP3    H213078   5.005   3.023   0.419
 4358TIP3   OH213079   5.558   3.891   0.918
 4358TIP3    H113080   5.535   3.936   0.837
 4358TIP3    H213081   5.653   3.879   0.913
 4359TIP3   OH213082   1.795   1.702   3.864
 4359TIP3    H113083   1.798   1.700   3.769
 4359TIP3    H213084   1.785   1.794   3.886
 4360TIP3   OH213085   0.537   1.271   3.677
 4360TIP3    H113086   0.521   1.212   3.751
 4360TIP3    H213087   0.450   1.291   3.642
 4361TIP3   OH213088   1.726   4.821   0.932
 4361TIP3    H113089   1.631   4.820   0.917
 4361TIP3    H213090   1.748   4.914   0.931
 4362TIP3   OH213091   3.032   1.247   0.949
 4362TIP3    H113092   3.011   1.197   0.869
 4362TIP3    H213093   2.968   1.217   1.013
 4363TIP3   OH213094   0.938   1.449   3.705
 4363TIP3    H113095   0.990   1.492   3.637
 4363TIP3    H213096   0.877   1.393   3.657
 4364TIP3   OH213097   1.773   0.674   0.016
 4364TIP3    H113098   1.702   0.737   0.002
 4364TIP3    H213099   1.813   0.701   0.099
 4365TIP3   OH213100   2.710   5.245   0.943
 4365TIP3    H113101   2.747   5.213   0.861
 4365TIP3    H213102   2.759   5.198   1.011
 4366TIP3   OH213103   4.110   5.066   2.983
 4366TIP3    H113104   4.165   4.993   3.012
 4366TIP3    H213105   4.026   5.025   2.962
 4367TIP3   OH213106   5.548   1.302   1.027
 4367TIP3    H113107   5.516   1.336   0.944
 4367TIP3    H213108   5.572   1.379   1.078
 4368TIP3   OH213109   3.963   2.945   3.598
 4368TIP3    H113110   3.920   3.000   3.663
 4368TIP3    H213111   3.978   2.862   3.643
 4369TIP3   OH213112   5.956   3.618   1.084
 4369TIP3    H113113   5.917   3.565   1.153
 4369TIP3    H213114   6.044   3.583   1.074
 4370TIP3   OH213115   4.032   0.543   4.647
 4370TIP3    H113116   3.948   0.502   4.630
 4370TIP3    H213117   4.081   0.533   4.565
 4371TIP3   OH213118   0.688   1.994   1.436
 4371TIP3    H113119   0.624   1.943   1.487
 4371TIP3    H213120   0.634   2.048   1.378
 4372TIP3   OH213121   4.482   1.869   4.158
 4372TIP3    H113122   4.570   1.862   4.196
 4372TIP3    H213123   4.441   1.942   4.205
 4373TIP3   OH213124   3.426   0.283   3.615
 4373TIP3    H113125   3.464   0.295   3.702
 4373TIP3    H213126   3.501   0.265   3.558
 4374TIP3   OH213127   3.434   1.555   3.697
 4374TIP3    H113128   3.344   1.525   3.688
 4374TIP3    H213129   3.486   1.475   3.700
 4375TIP3   OH213130   6.059   4.833   2.778
 4375TIP3    H113131   6.024   4.859   2.863
 4375TIP3    H213132   5.998   4.765   2.747
 4376TIP3   OH213133   3.480   3.511   4.399
 4376TIP3    H113134   3.399   3.510   4.449
 4376TIP3    H213135   3.533   3.442   4.439
 4377TIP3   OH213136   0.243   5.626   1.410
 4377TIP3    H113137   0.172   5.562   1.416
 4377TIP3    H213138   0.227   5.671   1.327
 4378TIP3   OH213139   0.502   4.824   0.250
 4378TIP3    H113140   0.585   4.818   0.296
 4378TIP3    H213141   0.467   4.910   0.276
 4379TIP3   OH213142   1.981   2.155   3.494
 4379TIP3    H113143   1.994   2.063   3.470
 4379TIP3    H213144   2.029   2.204   3.427
 4380TIP3   OH213145   2.396   1.523   0.502
 4380TIP3    H113146   2.316   1.496   0.546
 4380TIP3    H213147   2.408   1.614   0.529
 4381TIP3   OH213148   3.728   5.777   2.138
 4381TIP3    H113149   3.749   5.837   2.067
 4381TIP3    H213150   3.735   5.830   2.218
 4382TIP3   OH213151   0.527   0.956   4.726
 4382TIP3    H113152   0.563   0.998   4.804
 4382TIP3    H213153   0.533   1.023   4.658
 4383TIP3   OH213154   2.125   0.759   0.421
 4383TIP3    H113155   2.086   0.827   0.367
 4383TIP3    H213156   2.164   0.805   0.495
 4384TIP3   OH213157   1.263   0.017   2.735
 4384TIP3    H113158   1.180  -0.022   2.709
 4384TIP3    H213159   1.295   0.061   2.656
 4385TIP3   OH213160   5.881   2.780   4.613
 4385TIP3    H113161   5.948   2.718   4.585
 4385TIP3    H213162   5.798   2.734   4.600
 4386TIP3   OH213163   6.270   3.935   3.374
 4386TIP3    H113164   6.259   4.014   3.428
 4386TIP3    H213165   6.297   3.868   3.436
 4387TIP3   OH213166   1.232   5.669   0.559
 4387TIP3    H113167   1.155   5.710   0.598
 4387TIP3    H213168   1.266   5.612   0.627
 4388TIP3   OH213169   3.856   3.646   0.685
 4388TIP3    H113170   3.921   3.715   0.688
 4388TIP3    H213171   3.906   3.565   0.697
 4389TIP3   OH213172   2.499   3.666   0.654
 4389TIP3    H113173   2.537   3.584   0.684
 4389TIP3    H213174   2.414   3.642   0.617
 4390TIP3   OH213175   4.536   5.174   2.907
 4390TIP3    H113176   4.547   5.266   2.928
 4390TIP3    H213177   4.601   5.129   2.961
 4391TIP3   OH213178   0.567   0.382   3.726
 4391TIP3    H113179   0.474   0.399   3.713
 4391TIP3    H213180   0.572   0.290   3.751
 4392TIP3   OH213181   1.086   5.822   2.574
 4392TIP3    H113182   1.124   5.750   2.523
 4392TIP3    H213183   1.015   5.782   2.624
 4393TIP3   OH213184   1.679   3.806   0.452
 4393TIP3    H113185   1.667   3.726   0.504
 4393TIP3    H213186   1.592   3.829   0.422
 4394TIP3   OH213187   3.655   2.855   2.756
 4394TIP3    H113188   3.705   2.816   2.828
 4394TIP3    H213189   3.722   2.886   2.694
 4395TIP3   OH213190   3.323   4.153   0.274
 4395TIP3    H113191   3.339   4.173   0.182
 4395TIP3    H213192   3.257   4.084   0.273
 4396TIP3   OH213193   0.529   1.465   0.633
 4396TIP3    H113194   0.526   1.375   0.601
 4396TIP3    H213195   0.595   1.462   0.703
 4397TIP3   OH213196   1.967   2.026   0.484
 4397TIP3    H113197   2.052   2.065   0.464
 4397TIP3    H213198   1.930   2.083   0.551
 4398TIP3   OH213199   4.558   3.317   4.105
 4398TIP3    H113200   4.559   3.408   4.134
 4398TIP3    H213201   4.505   3.272   4.171
 4399TIP3   OH213202   3.537   1.118   0.230
 4399TIP3    H113203   3.604   1.164   0.281
 4399TIP3    H213204   3.467   1.183   0.221
 4400TIP3   OH213205   4.617   1.591   4.908
 4400TIP3    H113206   4.563   1.524   4.867
 4400TIP3    H213207   4.680   1.616   4.841
 4401TIP3   OH213208   3.741   1.402   4.784
 4401TIP3    H113209   3.804   1.465   4.749
 4401TIP3    H213210   3.696   1.367   4.707
 4402TIP3   OH213211   5.754   2.446   1.082
 4402TIP3    H113212   5.743   2.528   1.035
 4402TIP3    H213213   5.848   2.437   1.094
 4403TIP3   OH213214   3.602   2.942   4.330
 4403TIP3    H113215   3.532   2.992   4.287
 4403TIP3    H213216   3.582   2.851   4.312
 4404TIP3   OH213217   4.447   3.755   1.860
 4404TIP3    H113218   4.413   3.842   1.881
 4404TIP3    H213219   4.502   3.732   1.935
 4405TIP3   OH213220   4.564   0.205   0.462
 4405TIP3    H113221   4.474   0.238   0.475
 4405TIP3    H213222   4.612   0.280   0.427
 4406TIP3   OH213223   3.249   2.835   2.061
 4406TIP3    H113224   3.323   2.896   2.073
 4406TIP3    H213225   3.286   2.763   2.011
 4407TIP3   OH213226   5.475   4.220   3.709
 4407TIP3    H113227   5.460   4.155   3.641
 4407TIP3    H213228   5.566   4.206   3.736
 4408TIP3   OH213229   4.842   2.927   3.688
 4408TIP3    H113230   4.829   3.017   3.659
 4408TIP3    H213231   4.917   2.895   3.637
 4409TIP3   OH213232   2.746   4.313   0.346
 4409TIP3    H113233   2.679   4.293   0.280
 4409TIP3    H213234   2.829   4.293   0.303
 4410TIP3   OH213235   1.781   1.614   1.614
 4410TIP3    H113236   1.702   1.630   1.562
 4410TIP3    H213237   1.781   1.519   1.629
 4411TIP3   OH213238   2.140   1.605   4.772
 4411TIP3    H113239   2.177   1.671   4.831
 4411TIP3    H213240   2.190   1.615   4.691
 4412TIP3   OH213241   0.858   0.519   3.759
 4412TIP3    H113242   0.907   0.476   3.689
 4412TIP3    H213243   0.926   0.554   3.817
 4413TIP3   OH213244   1.615   5.539   2.327
 4413TIP3    H113245   1.676   5.467   2.307
 4413TIP3    H213246   1.631   5.558   2.420
 4414TIP3   OH213247   0.110   0.675   4.159
 4414TIP3    H113248   0.171   0.748   4.165
 4414TIP3    H213249   0.165   0.601   4.132
 4415TIP3   OH213250   5.865   2.086   1.777
 4415TIP3    H113251   5.852   2.137   1.697
 4415TIP3    H213252   5.933   2.023   1.754
 4416TIP3   OH213253   5.217   3.362   1.717
 4416TIP3    H113254   5.237   3.340   1.808
 4416TIP3    H213255   5.212   3.458   1.716
 4417TIP3   OH213256   5.198   4.922   2.792
 4417TIP3    H113257   5.180   4.911   2.699
 4417TIP3    H213258   5.266   4.858   2.811
 4418TIP3   OH213259   1.725   1.613   3.069
 4418TIP3    H113260   1.748   1.640   2.980
 4418TIP3    H213261   1.809   1.591   3.109
 4419TIP3   OH213262   1.539   5.266   4.769
 4419TIP3    H113263   1.533   5.260   4.673
 4419TIP3    H213264   1.449   5.252   4.799
 4420TIP3   OH213265   2.816   0.759   0.078
 4420TIP3    H113266   2.844   0.723  -0.006
 4420TIP3    H213267   2.720   0.765   0.071
 4421TIP3   OH213268   3.961   2.824   1.205
 4421TIP3    H113269   3.913   2.742   1.211
 4421TIP3    H213270   4.030   2.808   1.141
 4422TIP3   OH213271   2.470   0.683   4.187
 4422TIP3    H113272   2.541   0.747   4.181
 4422TIP3    H213273   2.506   0.612   4.239
 4423TIP3   OH213274   0.232   2.945   1.372
 4423TIP3    H113275   0.173   2.873   1.353
 4423TIP3    H213276   0.208   3.013   1.308
 4424TIP3   OH213277   1.451   0.729   3.115
 4424TIP3    H113278   1.373   0.676   3.130
 4424TIP3    H213279   1.475   0.711   3.024
 4425TIP3   OH213280   5.261   1.039   1.651
 4425TIP3    H113281   5.199   1.042   1.578
 4425TIP3    H213282   5.234   0.964   1.703
 4426TIP3   OH213283   1.500   1.853   4.155
 4426TIP3    H113284   1.561   1.789   4.119
 4426TIP3    H213285   1.479   1.911   4.081
 4427TIP3   OH213286   0.575   2.931   3.625
 4427TIP3    H113287   0.640   2.985   3.669
 4427TIP3    H213288   0.608   2.922   3.536
 4428TIP3   OH213289   5.560   1.751   3.102
 4428TIP3    H113290   5.568   1.751   3.007
 4428TIP3    H213291   5.510   1.672   3.122
 4429TIP3   OH213292   2.001   1.796   2.953
 4429TIP3    H113293   1.958   1.744   2.885
 4429TIP3    H213294   2.023   1.879   2.910
 4430TIP3   OH213295   4.901   3.482   4.758
 4430TIP3    H113296   4.809   3.459   4.770
 4430TIP3    H213297   4.906   3.575   4.781
 4431TIP3   OH213298   4.063   0.877   1.106
 4431TIP3    H113299   4.016   0.958   1.085
 4431TIP3    H213300   4.156   0.901   1.095
 4432TIP3   OH213301   2.379   1.423   2.484
 4432TIP3    H113302   2.371   1.514   2.513
 4432TIP3    H213303   2.354   1.425   2.392
 4433TIP3   OH213304   5.171   3.524   1.311
 4433TIP3    H113305   5.099   3.481   1.265
 4433TIP3    H213306   5.249   3.474   1.286
 4434TIP3   OH213307   1.971   2.866   0.313
 4434TIP3    H113308   1.913   2.940   0.331
 4434TIP3    H213309   1.964   2.853   0.218
 4435TIP3   OH213310   1.161   2.953   0.820
 4435TIP3    H113311   1.075   2.931   0.857
 4435TIP3    H213312   1.222   2.942   0.893
 4436TIP3   OH213313   5.113   4.724   2.378
 4436TIP3    H113314   5.059   4.803   2.377
 4436TIP3    H213315   5.203   4.757   2.385
 4437TIP3   OH213316   3.094   4.725   3.849
 4437TIP3    H113317   3.068   4.691   3.935
 4437TIP3    H213318   3.019   4.707   3.793
 4438TIP3   OH213319   1.521   4.967   4.478
 4438TIP3    H113320   1.438   4.963   4.526
 4438TIP3    H213321   1.518   4.893   4.418
 4439TIP3   OH213322   0.168   4.899   3.816
 4439TIP3    H113323   0.161   4.855   3.731
 4439TIP3    H213324   0.258   4.932   3.819
 4440TIP3   OH213325   6.078   5.903   1.928
 4440TIP3    H113326   6.030   5.982   1.903
 4440TIP3    H213327   6.062   5.842   1.856
 4441TIP3   OH213328   3.944   0.886   0.143
 4441TIP3    H113329   3.922   0.978   0.131
 4441TIP3    H213330   4.004   0.866   0.071
 4442TIP3   OH213331   0.849   1.791   0.109
 4442TIP3    H113332   0.933   1.822   0.142
 4442TIP3    H213333   0.784   1.851   0.146
 4443TIP3   OH213334   6.227   1.703   2.013
 4443TIP3    H113335   6.274   1.674   2.092
 4443TIP3    H213336   6.292   1.755   1.964
 4444TIP3   OH213337   1.250   2.351   2.602
 4444TIP3    H113338   1.243   2.372   2.508
 4444TIP3    H213339   1.343   2.357   2.621
 4445TIP3   OH213340   4.022   2.154   2.370
 4445TIP3    H113341   3.934   2.117   2.380
 4445TIP3    H213342   4.042   2.145   2.277
 4446TIP3   OH213343   2.986   1.340   4.318
 4446TIP3    H113344   2.914   1.349   4.381
 4446TIP3    H213345   2.945   1.354   4.232
 4447TIP3   OH213346   6.226   2.117   2.438
 4447TIP3    H113347   6.239   2.165   2.520
 4447TIP3    H213348   6.172   2.043   2.463
 4448TIP3   OH213349   3.354   3.173   4.673
 4448TIP3    H113350   3.306   3.206   4.748
 4448TIP3    H213351   3.396   3.093   4.705
 4449TIP3   OH213352   1.227   3.308   1.964
 4449TIP3    H113353   1.237   3.384   1.905
 4449TIP3    H213354   1.211   3.347   2.050
 4450TIP3   OH213355   2.656   5.002   2.592
 4450TIP3    H113356   2.732   5.061   2.599
 4450TIP3    H213357   2.658   4.950   2.672
 4451TIP3   OH213358   2.829   3.658   5.171
 4451TIP3    H113359   2.763   3.641   5.103
 4451TIP3    H213360   2.819   3.586   5.233
 4452TIP3   OH213361   3.214   5.093   3.523
 4452TIP3    H113362   3.138   5.047   3.557
 4452TIP3    H213363   3.179   5.150   3.454
 4453TIP3   OH213364   4.550   2.723   1.641
 4453TIP3    H113365   4.483   2.656   1.629
 4453TIP3    H213366   4.595   2.727   1.556
 4454TIP3   OH213367   3.553   3.943   1.425
 4454TIP3    H113368   3.609   3.934   1.502
 4454TIP3    H213369   3.588   3.879   1.362
 4455TIP3   OH213370   2.512   1.473   0.181
 4455TIP3    H113371   2.483   1.420   0.255
 4455TIP3    H213372   2.487   1.422   0.104
 4456TIP3   OH213373   4.475   4.555   4.332
 4456TIP3    H113374   4.417   4.480   4.344
 4456TIP3    H213375   4.547   4.521   4.279
 4457TIP3   OH213376   3.301   0.416   0.771
 4457TIP3    H113377   3.380   0.445   0.725
 4457TIP3    H213378   3.323   0.329   0.803
 4458TIP3   OH213379   3.180   4.441   4.892
 4458TIP3    H113380   3.256   4.476   4.939
 4458TIP3    H213381   3.107   4.450   4.954
 4459TIP3   OH213382   2.903   1.243   2.106
 4459TIP3    H113383   2.931   1.195   2.185
 4459TIP3    H213384   2.984   1.259   2.058
 4460TIP3   OH213385   6.233   5.270   4.962
 4460TIP3    H113386   6.167   5.232   5.021
 4460TIP3    H213387   6.248   5.357   4.997
 4461TIP3   OH213388   1.337   2.587   2.945
 4461TIP3    H113389   1.336   2.597   2.850
 4461TIP3    H213390   1.389   2.661   2.977
 4462TIP3   OH213391   2.933   5.808   5.093
 4462TIP3    H113392   3.020   5.847   5.101
 4462TIP3    H213393   2.874   5.875   5.129
 4463TIP3   OH213394   0.884   4.288   4.207
 4463TIP3    H113395   0.921   4.356   4.263
 4463TIP3    H213396   0.850   4.222   4.268
 4464TIP3   OH213397   5.605   4.647   3.714
 4464TIP3    H113398   5.524   4.607   3.747
 4464TIP3    H213399   5.661   4.657   3.791
 4465TIP3   OH213400   0.297   4.979   4.550
 4465TIP3    H113401   0.313   4.996   4.457
 4465TIP3    H213402   0.217   5.028   4.569
 4466TIP3   OH213403   5.888   5.313   4.518
 4466TIP3    H113404   5.964   5.319   4.576
 4466TIP3    H213405   5.842   5.396   4.532
 4467TIP3   OH213406   5.944   0.144   0.192
 4467TIP3    H113407   5.960   0.108   0.279
 4467TIP3    H213408   5.855   0.117   0.171
 4468TIP3   OH213409   3.600   0.951   3.157
 4468TIP3    H113410   3.522   0.928   3.207
 4468TIP3    H213411   3.570   1.015   3.093
 4469TIP3   OH213412   4.638   0.493   2.465
 4469TIP3    H113413   4.625   0.576   2.420
 4469TIP3    H213414   4.676   0.517   2.550
 4470TIP3   OH213415   4.419   0.567   4.367
 4470TIP3    H113416   4.479   0.635   4.338
 4470TIP3    H213417   4.438   0.555   4.460
 4471TIP3   OH213418   2.259   5.778   2.085
 4471TIP3    H113419   2.352   5.801   2.093
 4471TIP3    H213420   2.213   5.862   2.084
 4472TIP3   OH213421   6.226   3.031   1.486
 4472TIP3    H113422   6.152   3.082   1.519
 4472TIP3    H213423   6.303   3.071   1.527
 4473TIP3   OH213424   5.894   5.542   3.488
 4473TIP3    H113425   5.902   5.446   3.489
 4473TIP3    H213426   5.889   5.566   3.581
 4474TIP3   OH213427   4.744  -0.015   0.438
 4474TIP3    H113428   4.669   0.045   0.438
 4474TIP3    H213429   4.818   0.040   0.464
 4475TIP3   OH213430   1.817   2.724   4.224
 4475TIP3    H113431   1.855   2.800   4.179
 4475TIP3    H213432   1.806   2.659   4.154
 4476TIP3   OH213433   5.350   4.687   3.894
 4476TIP3    H113434   5.276   4.659   3.840
 4476TIP3    H213435   5.370   4.611   3.949
 4477TIP3   OH213436   4.966   4.985   0.467
 4477TIP3    H113437   5.059   4.990   0.489
 4477TIP3    H213438   4.922   4.971   0.551
 4478TIP3   OH213439   2.812   4.701   5.060
 4478TIP3    H113440   2.724   4.733   5.077
 4478TIP3    H213441   2.862   4.724   5.139
 4479TIP3   OH213442   2.546   3.087   5.039
 4479TIP3    H113443   2.595   3.077   5.121
 4479TIP3    H213444   2.515   2.999   5.019
 4480TIP3   OH213445   3.164   1.932   1.158
 4480TIP3    H113446   3.214   1.961   1.234
 4480TIP3    H213447   3.196   1.987   1.086
 4481TIP3   OH213448   6.345   4.836   2.033
 4481TIP3    H113449   6.333   4.911   2.091
 4481TIP3    H213450   6.379   4.767   2.090
 4482TIP3   OH213451   4.962   5.013   2.634
 4482TIP3    H113452   4.925   5.099   2.613
 4482TIP3    H213453   4.893   4.951   2.611
 4483TIP3   OH213454   0.674   2.002   4.517
 4483TIP3    H113455   0.610   1.936   4.489
 4483TIP3    H213456   0.747   1.951   4.551
 4484TIP3   OH213457   4.704   2.742   3.861
 4484TIP3    H113458   4.744   2.807   3.803
 4484TIP3    H213459   4.773   2.678   3.878
 4485TIP3   OH213460   1.959   2.232   0.103
 4485TIP3    H113461   1.992   2.292   0.037
 4485TIP3    H213462   2.000   2.148   0.082
 4486TIP3   OH213463   0.637   5.517   1.112
 4486TIP3    H113464   0.704   5.460   1.075
 4486TIP3    H213465   0.635   5.495   1.205
 4487TIP3   OH213466   1.450   2.158   2.244
 4487TIP3    H113467   1.510   2.109   2.300
 4487TIP3    H213468   1.487   2.148   2.156
 4488TIP3   OH213469   0.122   3.549   2.831
 4488TIP3    H113470   0.089   3.601   2.758
 4488TIP3    H213471   0.213   3.530   2.807
 4489TIP3   OH213472   2.732   1.606   2.797
 4489TIP3    H113473   2.750   1.638   2.885
 4489TIP3    H213474   2.646   1.563   2.803
 4490TIP3   OH213475   5.443   2.721   2.077
 4490TIP3    H113476   5.522   2.727   2.132
 4490TIP3    H213477   5.474   2.681   1.995
 4491TIP3   OH213478   0.228   2.528   2.365
 4491TIP3    H113479   0.174   2.583   2.421
 4491TIP3    H213480   0.252   2.454   2.420
 4492TIP3   OH213481   0.446   4.241   2.450
 4492TIP3    H113482   0.421   4.173   2.388
 4492TIP3    H213483   0.442   4.322   2.400
 4493TIP3   OH213484   1.066   4.842   0.017
 4493TIP3    H113485   1.085   4.768   0.074
 4493TIP3    H213486   1.033   4.801  -0.063
 4494TIP3   OH213487   5.849   0.483   3.714
 4494TIP3    H113488   5.925   0.439   3.676
 4494TIP3    H213489   5.829   0.434   3.793
 4495TIP3   OH213490   1.009   3.665   1.135
 4495TIP3    H113491   1.051   3.741   1.095
 4495TIP3    H213492   0.961   3.624   1.063
 4496TIP3   OH213493   6.007   2.972   1.999
 4496TIP3    H113494   6.063   2.895   1.986
 4496TIP3    H213495   5.922   2.947   1.963
 4497TIP3   OH213496   4.019   2.398   4.749
 4497TIP3    H113497   4.101   2.421   4.794
 4497TIP3    H213498   3.979   2.482   4.728
 4498TIP3   OH213499   4.549   5.351   2.674
 4498TIP3    H113500   4.620   5.409   2.649
 4498TIP3    H213501   4.534   5.368   2.767
 4499TIP3   OH213502   2.018   3.264   0.009
 4499TIP3    H113503   2.012   3.325   0.082
 4499TIP3    H213504   1.950   3.293  -0.052
 4500TIP3   OH213505   4.542   3.174   3.468
 4500TIP3    H113506   4.497   3.224   3.401
 4500TIP3    H213507   4.583   3.241   3.524
 4501TIP3   OH213508   1.070   0.460   4.412
 4501TIP3    H113509   1.010   0.445   4.485
 4501TIP3    H213510   1.140   0.513   4.449
 4502TIP3   OH213511   0.255   5.279   4.267
 4502TIP3    H113512   0.268   5.243   4.179
 4502TIP3    H213513   0.161   5.289   4.275
 4503TIP3   OH213514   5.961   3.071   2.638
 4503TIP3    H113515   5.966   2.977   2.626
 4503TIP3    H213516   5.987   3.086   2.729
 4504TIP3   OH213517   2.606   1.188   1.246
 4504TIP3    H113518   2.646   1.259   1.296
 4504TIP3    H213519   2.675   1.157   1.188
 4505TIP3   OH213520   4.523   0.308   1.982
 4505TIP3    H113521   4.574   0.374   2.029
 4505TIP3    H213522   4.577   0.229   1.984
 4506TIP3   OH213523   6.138   3.541   2.610
 4506TIP3    H113524   6.077   3.476   2.644
 4506TIP3    H213525   6.083   3.603   2.562
 4507TIP3   OH213526   5.162   4.238   0.220
 4507TIP3    H113527   5.074   4.255   0.252
 4507TIP3    H213528   5.156   4.251   0.125
 4508TIP3   OH213529   6.057   4.824   4.207
 4508TIP3    H113530   6.064   4.875   4.127
 4508TIP3    H213531   6.112   4.871   4.270
 4509TIP3   OH213532   2.895   3.275   4.004
 4509TIP3    H113533   2.923   3.197   4.052
 4509TIP3    H213534   2.969   3.336   4.012
 4510TIP3   OH213535   2.920   3.123   1.011
 4510TIP3    H113536   3.005   3.123   1.056
 4510TIP3    H213537   2.861   3.163   1.074
 4511TIP3   OH213538   0.105   3.492   5.115
 4511TIP3    H113539   0.026   3.450   5.080
 4511TIP3    H213540   0.174   3.427   5.104
 4512TIP3   OH213541   0.089   1.627   4.671
 4512TIP3    H113542   0.085   1.536   4.697
 4512TIP3    H213543   0.072   1.626   4.576
 4513TIP3   OH213544   4.355   0.065   2.226
 4513TIP3    H113545   4.303   0.114   2.162
 4513TIP3    H213546   4.411   0.132   2.267
 4514TIP3   OH213547   3.199   5.632   3.746
 4514TIP3    H113548   3.280   5.594   3.780
 4514TIP3    H213549   3.174   5.575   3.674
 4515TIP3   OH213550   3.211   3.462   4.460
 4515TIP3    H113551   3.150   3.472   4.532
 4515TIP3    H213552   3.181   3.524   4.394
 4516TIP3   OH213553   3.941   3.744   4.430
 4516TIP3    H113554   3.855   3.721   4.467
 4516TIP3    H213555   4.003   3.690   4.479
 4517TIP3   OH213556   3.451   3.464   0.977
 4517TIP3    H113557   3.452   3.474   1.072
 4517TIP3    H213558   3.413   3.546   0.945
 4518TIP3   OH213559   0.717   2.603   3.833
 4518TIP3    H113560   0.756   2.540   3.894
 4518TIP3    H213561   0.624   2.580   3.830
 4519TIP3   OH213562   6.052   2.060   4.643
 4519TIP3    H113563   6.002   2.000   4.698
 4519TIP3    H213564   6.107   2.109   4.704
 4520TIP3   OH213565   1.245   5.438   3.957
 4520TIP3    H113566   1.163   5.483   3.937
 4520TIP3    H213567   1.311   5.486   3.907
 4521TIP3   OH213568   0.640   0.235   3.359
 4521TIP3    H113569   0.694   0.278   3.292
 4521TIP3    H213570   0.585   0.305   3.394
 4522TIP3   OH213571   0.454   4.981   4.827
 4522TIP3    H113572   0.408   4.926   4.891
 4522TIP3    H213573   0.384   5.018   4.773
 4523TIP3   OH213574   1.329   3.059   3.435
 4523TIP3    H113575   1.305   3.096   3.350
 4523TIP3    H213576   1.308   2.966   3.428
 4524TIP3   OH213577   2.726   5.453   2.643
 4524TIP3    H113578   2.635   5.434   2.665
 4524TIP3    H213579   2.775   5.430   2.722
 4525TIP3   OH213580   2.311   1.953   0.308
 4525TIP3    H113581   2.326   1.997   0.392
 4525TIP3    H213582   2.356   1.869   0.317
 4526TIP3   OH213583   3.881   2.735   0.020
 4526TIP3    H113584   3.790   2.759   0.036
 4526TIP3    H213585   3.906   2.683   0.096
 4527TIP3   OH213586   3.009   2.594   0.200
 4527TIP3    H113587   3.103   2.593   0.223
 4527TIP3    H213588   2.965   2.599   0.285
 4528TIP3   OH213589   5.053   3.260   2.181
 4528TIP3    H113590   5.147   3.254   2.164
 4528TIP3    H213591   5.017   3.299   2.102
 4529TIP3   OH213592   0.381   2.081   0.781
 4529TIP3    H113593   0.387   2.168   0.742
 4529TIP3    H213594   0.470   2.045   0.771
 4530TIP3   OH213595   5.240   2.397   4.087
 4530TIP3    H113596   5.175   2.339   4.048
 4530TIP3    H213597   5.210   2.485   4.066
 4531TIP3   OH213598   3.327   1.656   1.375
 4531TIP3    H113599   3.415   1.622   1.391
 4531TIP3    H213600   3.274   1.578   1.359
 4532TIP3   OH213601   4.722   5.338   2.087
 4532TIP3    H113602   4.759   5.295   2.010
 4532TIP3    H213603   4.696   5.425   2.056
 4533TIP3   OH213604   4.882   1.099   1.701
 4533TIP3    H113605   4.797   1.138   1.680
 4533TIP3    H213606   4.930   1.100   1.618
 4534TIP3   OH213607   5.253   4.846   1.073
 4534TIP3    H113608   5.313   4.775   1.097
 4534TIP3    H213609   5.260   4.854   0.978
 4535TIP3   OH213610   3.912   5.478   5.005
 4535TIP3    H113611   3.968   5.481   4.928
 4535TIP3    H213612   3.860   5.558   5.000
 4536TIP3   OH213613   2.736   0.608   0.971
 4536TIP3    H113614   2.826   0.630   0.948
 4536TIP3    H213615   2.692   0.692   0.980
 4537TIP3   OH213616  -0.020   0.273   2.788
 4537TIP3    H113617   0.042   0.344   2.773
 4537TIP3    H213618   0.028   0.211   2.843
 4538TIP3   OH213619   5.161   2.922   5.000
 4538TIP3    H113620   5.079   2.910   5.047
 4538TIP3    H213621   5.152   3.007   4.957
 4539TIP3   OH213622   4.199   0.458   2.620
 4539TIP3    H113623   4.207   0.534   2.561
 4539TIP3    H213624   4.180   0.497   2.706
 4540TIP3   OH213625   1.275   4.255   2.450
 4540TIP3    H113626   1.263   4.349   2.439
 4540TIP3    H213627   1.194   4.216   2.416
 4541TIP3   OH213628   1.523   5.138   0.366
 4541TIP3    H113629   1.578   5.177   0.298
 4541TIP3    H213630   1.574   5.066   0.401
 4542TIP3   OH213631   2.559   2.162   4.134
 4542TIP3    H113632   2.464   2.161   4.123
 4542TIP3    H213633   2.573   2.215   4.212
 4543TIP3   OH213634   1.873   1.806   2.142
 4543TIP3    H113635   1.830   1.724   2.166
 4543TIP3    H213636   1.822   1.841   2.069
 4544TIP3   OH213637   3.702   2.591   3.878
 4544TIP3    H113638   3.703   2.685   3.893
 4544TIP3    H213639   3.794   2.565   3.882
 4545TIP3   OH213640   1.357   5.534   0.016
 4545TIP3    H113641   1.361   5.609  -0.044
 4545TIP3    H213642   1.329   5.572   0.100
 4546TIP3   OH213643   6.217   5.753   0.753
 4546TIP3    H113644   6.240   5.684   0.816
 4546TIP3    H213645   6.160   5.812   0.802
 4547TIP3   OH213646   4.686   5.449   1.085
 4547TIP3    H113647   4.689   5.488   1.173
 4547TIP3    H213648   4.598   5.467   1.054
 4548TIP3   OH213649   4.472   1.123   1.325
 4548TIP3    H113650   4.380   1.146   1.314
 4548TIP3    H213651   4.518   1.207   1.331
 4549TIP3   OH213652   3.103   3.709   2.297
 4549TIP3    H113653   3.140   3.622   2.311
 4549TIP3    H213654   3.160   3.750   2.232
 4550TIP3   OH213655   4.227   4.000   0.656
 4550TIP3    H113656   4.216   4.093   0.677
 4550TIP3    H213657   4.307   3.997   0.603
 4551TIP3   OH213658   0.096   0.602   1.172
 4551TIP3    H113659   0.040   0.541   1.221
 4551TIP3    H213660   0.133   0.659   1.240
 4552TIP3   OH213661   3.440   0.944   1.572
 4552TIP3    H113662   3.511   1.004   1.594
 4552TIP3    H213663   3.448   0.933   1.477
 4553TIP3   OH213664   4.163   0.437   1.489
 4553TIP3    H113665   4.148   0.362   1.546
 4553TIP3    H213666   4.081   0.486   1.492
 4554TIP3   OH213667   3.635   3.582   1.465
 4554TIP3    H113668   3.605   3.602   1.377
 4554TIP3    H213669   3.694   3.508   1.454
 4555TIP3   OH213670   4.669   1.192   2.026
 4555TIP3    H113671   4.745   1.226   1.980
 4555TIP3    H213672   4.706   1.145   2.101
 4556TIP3   OH213673   5.091   5.639   0.840
 4556TIP3    H113674   4.996   5.635   0.831
 4556TIP3    H213675   5.124   5.575   0.777
 4557TIP3   OH213676   2.278   5.615   2.301
 4557TIP3    H113677   2.304   5.571   2.221
 4557TIP3    H213678   2.277   5.708   2.278
 4558TIP3   OH213679   0.893   1.870   4.080
 4558TIP3    H113680   0.800   1.876   4.101
 4558TIP3    H213681   0.933   1.831   4.157
 4559TIP3   OH213682   0.163   0.968   4.793
 4559TIP3    H113683   0.184   0.943   4.703
 4559TIP3    H213684   0.172   0.886   4.842
 4560TIP3   OH213685   2.509   0.775   1.146
 4560TIP3    H113686   2.445   0.830   1.100
 4560TIP3    H213687   2.483   0.685   1.125
 4561TIP3   OH213688   2.852   2.307   3.804
 4561TIP3    H113689   2.920   2.239   3.810
 4561TIP3    H213690   2.893   2.378   3.756
 4562TIP3   OH213691   3.268   3.886   2.191
 4562TIP3    H113692   3.361   3.865   2.197
 4562TIP3    H213693   3.263   3.980   2.208
 4563TIP3   OH213694   5.541   0.698   3.264
 4563TIP3    H113695   5.513   0.681   3.174
 4563TIP3    H213696   5.522   0.790   3.279
 4564TIP3   OH213697   3.031   4.324   2.188
 4564TIP3    H113698   2.995   4.277   2.113
 4564TIP3    H213699   2.957   4.374   2.223
 4565TIP3   OH213700   5.273   4.880   0.788
 4565TIP3    H113701   5.249   4.833   0.707
 4565TIP3    H213702   5.368   4.877   0.790
 4566TIP3   OH213703   5.668   5.826   4.962
 4566TIP3    H113704   5.712   5.889   5.020
 4566TIP3    H213705   5.711   5.743   4.980
 4567TIP3   OH213706   5.428   5.718   4.525
 4567TIP3    H113707   5.465   5.693   4.609
 4567TIP3    H213708   5.438   5.814   4.522
 4568TIP3   OH213709   3.324   3.532   0.186
 4568TIP3    H113710   3.373   3.610   0.161
 4568TIP3    H213711   3.369   3.501   0.265
 4569TIP3   OH213712   2.682   3.612   1.193
 4569TIP3    H113713   2.646   3.542   1.138
 4569TIP3    H213714   2.615   3.626   1.260
 4570TIP3   OH213715   3.493   5.131   3.631
 4570TIP3    H113716   3.524   5.047   3.597
 4570TIP3    H213717   3.400   5.133   3.608
 4571TIP3   OH213718   1.357   0.397   1.541
 4571TIP3    H113719   1.440   0.352   1.523
 4571TIP3    H213720   1.384   0.482   1.578
 4572TIP3   OH213721   0.358   0.671   3.932
 4572TIP3    H113722   0.306   0.746   3.904
 4572TIP3    H213723   0.445   0.707   3.949
 4573TIP3   OH213724   3.609   5.441   1.613
 4573TIP3    H113725   3.559   5.522   1.612
 4573TIP3    H213726   3.616   5.415   1.521
 4574TIP3   OH213727   2.972   2.386   4.674
 4574TIP3    H113728   3.035   2.327   4.634
 4574TIP3    H213729   3.019   2.469   4.682
 4575TIP3   OH213730   4.328   0.927   0.752
 4575TIP3    H113731   4.323   0.880   0.669
 4575TIP3    H213732   4.269   1.002   0.741
 4576TIP3   OH213733   0.604   5.386   0.765
 4576TIP3    H113734   0.513   5.412   0.755
 4576TIP3    H213735   0.626   5.343   0.683
 4577TIP3   OH213736   3.526   1.457   1.036
 4577TIP3    H113737   3.558   1.472   1.124
 4577TIP3    H213738   3.439   1.419   1.048
 4578TIP3   OH213739   6.037   0.283   4.841
 4578TIP3    H113740   5.946   0.308   4.825
 4578TIP3    H213741   6.056   0.318   4.928
 4579TIP3   OH213742   3.946   0.382   4.900
 4579TIP3    H113743   3.959   0.473   4.927
 4579TIP3    H213744   3.861   0.382   4.856
 4580TIP3   OH213745   4.400   1.005   5.049
 4580TIP3    H113746   4.414   1.080   5.106
 4580TIP3    H213747   4.379   1.044   4.964
 4581TIP3   OH213748   2.064   5.226   4.371
 4581TIP3    H113749   2.007   5.285   4.321
 4581TIP3    H213750   2.141   5.215   4.316
 4582TIP3   OH213751   4.914   1.178   3.749
 4582TIP3    H113752   4.872   1.096   3.727
 4582TIP3    H213753   4.863   1.245   3.703
 4583TIP3   OH213754   4.715   0.782   1.568
 4583TIP3    H113755   4.668   0.749   1.644
 4583TIP3    H213756   4.723   0.876   1.584
 4584TIP3   OH213757   0.264   0.834   0.704
 4584TIP3    H113758   0.235   0.922   0.684
 4584TIP3    H213759   0.248   0.824   0.798
 4585TIP3   OH213760   3.130   0.907   4.009
 4585TIP3    H113761   3.073   0.983   4.006
 4585TIP3    H213762   3.209   0.938   4.055
 4586TIP3   OH213763   3.733   5.669   4.985
 4586TIP3    H113764   3.640   5.650   5.001
 4586TIP3    H213765   3.738   5.684   4.891
 4587TIP3   OH213766   5.834   1.242   1.591
 4587TIP3    H113767   5.751   1.279   1.619
 4587TIP3    H213768   5.880   1.316   1.550
 4588TIP3   OH213769   1.473   4.869   1.956
 4588TIP3    H113770   1.436   4.957   1.964
 4588TIP3    H213771   1.425   4.829   1.884
 4589TIP3   OH213772   2.434   5.331   1.278
 4589TIP3    H113773   2.484   5.255   1.248
 4589TIP3    H213774   2.384   5.298   1.353
 4590TIP3   OH213775   3.761   2.889   0.699
 4590TIP3    H113776   3.773   2.924   0.610
 4590TIP3    H213777   3.747   2.966   0.754
 4591TIP3   OH213778   5.700   3.215   3.405
 4591TIP3    H113779   5.662   3.302   3.416
 4591TIP3    H213780   5.789   3.223   3.441
 4592TIP3   OH213781   5.352   2.173   4.671
 4592TIP3    H113782   5.338   2.188   4.764
 4592TIP3    H213783   5.402   2.249   4.641
 4593TIP3   OH213784   4.766   1.180   4.403
 4593TIP3    H113785   4.853   1.201   4.438
 4593TIP3    H213786   4.733   1.263   4.370
 4594TIP3   OH213787   1.856   4.639   2.858
 4594TIP3    H113788   1.834   4.662   2.949
 4594TIP3    H213789   1.772   4.634   2.814
 4595TIP3   OH213790   1.406   2.583   2.212
 4595TIP3    H113791   1.446   2.526   2.278
 4595TIP3    H213792   1.481   2.625   2.169
 4596TIP3   OH213793   2.506   3.779   4.369
 4596TIP3    H113794   2.436   3.760   4.305
 4596TIP3    H213795   2.495   3.872   4.389
 4597TIP3   OH213796   6.283   1.156   4.058
 4597TIP3    H113797   6.359   1.102   4.079
 4597TIP3    H213798   6.246   1.179   4.143
 4598TIP3   OH213799   5.977   5.207   5.012
 4598TIP3    H113800   5.929   5.264   4.952
 4598TIP3    H213801   5.985   5.124   4.965
 4599TIP3   OH213802   0.799   4.410   2.416
 4599TIP3    H113803   0.779   4.367   2.499
 4599TIP3    H213804   0.714   4.427   2.376
 4600TIP3   OH213805   5.775   2.567   2.079
 4600TIP3    H113806   5.866   2.594   2.094
 4600TIP3    H213807   5.769   2.479   2.116
 4601TIP3   OH213808   2.106   4.728   1.875
 4601TIP3    H113809   2.032   4.670   1.892
 4601TIP3    H213810   2.181   4.669   1.868
 4602TIP3   OH213811   3.873   4.858   2.041
 4602TIP3    H113812   3.958   4.820   2.064
 4602TIP3    H213813   3.891   4.913   1.964
 4603TIP3   OH213814   1.684   5.713   3.462
 4603TIP3    H113815   1.705   5.620   3.472
 4603TIP3    H213816   1.763   5.759   3.490
 4604TIP3   OH213817   1.874   2.482   1.157
 4604TIP3    H113818   1.857   2.390   1.139
 4604TIP3    H213819   1.855   2.527   1.075
 4605TIP3   OH213820   1.341   3.398   3.027
 4605TIP3    H113821   1.422   3.437   3.061
 4605TIP3    H213822   1.272   3.442   3.076
 4606TIP3   OH213823   3.586   0.392   3.830
 4606TIP3    H113824   3.622   0.391   3.918
 4606TIP3    H213825   3.659   0.420   3.774
 4607TIP3   OH213826   0.858   0.451   4.185
 4607TIP3    H113827   0.875   0.506   4.262
 4607TIP3    H213828   0.852   0.362   4.220
 4608TIP3   OH213829   0.552   1.816   0.725
 4608TIP3    H113830   0.588   1.842   0.640
 4608TIP3    H213831   0.627   1.814   0.784
 4609TIP3   OH213832   6.246   4.193   3.504
 4609TIP3    H113833   6.214   4.234   3.423
 4609TIP3    H213834   6.241   4.263   3.569
 4610TIP3   OH213835   0.806   2.907   4.791
 4610TIP3    H113836   0.883   2.960   4.814
 4610TIP3    H213837   0.759   2.896   4.873
 4611TIP3   OH213838   3.666   3.282   3.197
 4611TIP3    H113839   3.741   3.251   3.248
 4611TIP3    H213840   3.678   3.377   3.192
 4612TIP3   OH213841   4.586   2.454   3.893
 4612TIP3    H113842   4.548   2.542   3.893
 4612TIP3    H213843   4.668   2.464   3.845
 4613TIP3   OH213844   0.668   4.335   1.592
 4613TIP3    H113845   0.641   4.285   1.670
 4613TIP3    H213846   0.679   4.424   1.625
 4614TIP3   OH213847   0.270   1.001   1.339
 4614TIP3    H113848   0.341   1.050   1.382
 4614TIP3    H213849   0.266   1.039   1.251
 4615TIP3   OH213850   2.237   1.273   1.328
 4615TIP3    H113851   2.144   1.282   1.310
 4615TIP3    H213852   2.275   1.241   1.246
 4616TIP3   OH213853   4.267   2.453   1.100
 4616TIP3    H113854   4.335   2.386   1.100
 4616TIP3    H213855   4.188   2.408   1.070
 4617TIP3   OH213856   5.116   3.125   1.538
 4617TIP3    H113857   5.120   3.201   1.596
 4617TIP3    H213858   5.168   3.151   1.462
 4618TIP3   OH213859   3.420   4.624   2.286
 4618TIP3    H113860   3.476   4.685   2.238
 4618TIP3    H213861   3.467   4.540   2.283
 4619TIP3   OH213862   3.612   5.269   2.804
 4619TIP3    H113863   3.647   5.291   2.890
 4619TIP3    H213864   3.585   5.352   2.766
 4620TIP3   OH213865   0.144   0.894   3.203
 4620TIP3    H113866   0.233   0.867   3.227
 4620TIP3    H213867   0.153   0.929   3.114
 4621TIP3   OH213868   1.545   2.435   4.745
 4621TIP3    H113869   1.588   2.416   4.662
 4621TIP3    H213870   1.472   2.374   4.750
 4622TIP3   OH213871   1.713   1.017   1.106
 4622TIP3    H113872   1.790   0.963   1.124
 4622TIP3    H213873   1.711   1.026   1.011
 4623TIP3   OH213874   3.105   2.232   1.556
 4623TIP3    H113875   3.140   2.229   1.466
 4623TIP3    H213876   3.011   2.217   1.545
 4624TIP3   OH213877   3.516   3.746   1.913
 4624TIP3    H113878   3.514   3.728   1.819
 4624TIP3    H213879   3.506   3.660   1.954
 4625TIP3   OH213880   4.674   1.126   3.081
 4625TIP3    H113881   4.592   1.109   3.126
 4625TIP3    H213882   4.662   1.213   3.041
 4626TIP3   OH213883   3.438   1.577   4.064
 4626TIP3    H113884   3.348   1.544   4.057
 4626TIP3    H213885   3.486   1.532   3.994
 4627TIP3   OH213886   4.022   0.765   3.652
 4627TIP3    H113887   4.072   0.823   3.594
 4627TIP3    H213888   3.987   0.697   3.594
 4628TIP3   OH213889   3.298   5.677   2.545
 4628TIP3    H113890   3.282   5.585   2.563
 4628TIP3    H213891   3.265   5.723   2.622
 4629TIP3   OH213892   0.344   2.653   3.494
 4629TIP3    H113893   0.342   2.734   3.442
 4629TIP3    H213894   0.343   2.683   3.585
 4630TIP3   OH213895   4.712   2.151   0.599
 4630TIP3    H113896   4.782   2.145   0.533
 4630TIP3    H213897   4.720   2.239   0.635
 4631TIP3   OH213898   0.276   1.094   1.079
 4631TIP3    H113899   0.317   1.163   1.026
 4631TIP3    H213900   0.182   1.106   1.065
 4632TIP3   OH213901   2.627   5.382   0.512
 4632TIP3    H113902   2.713   5.361   0.476
 4632TIP3    H213903   2.641   5.463   0.561
 4633TIP3   OH213904   5.982   1.967   4.097
 4633TIP3    H113905   6.005   1.997   4.185
 4633TIP3    H213906   5.954   1.876   4.109
 4634TIP3   OH213907   0.438   1.499   0.158
 4634TIP3    H113908   0.364   1.450   0.121
 4634TIP3    H213909   0.439   1.581   0.107
 4635TIP3   OH213910   5.699   4.300   1.101
 4635TIP3    H113911   5.777   4.335   1.144
 4635TIP3    H213912   5.703   4.334   1.011
 4636TIP3   OH213913   0.989   5.426   4.549
 4636TIP3    H113914   0.920   5.491   4.536
 4636TIP3    H213915   0.962   5.351   4.494
 4637TIP3   OH213916   1.177   0.902   0.331
 4637TIP3    H113917   1.245   0.925   0.268
 4637TIP3    H213918   1.199   0.814   0.360
 4638TIP3   OH213919   5.764   1.570   4.862
 4638TIP3    H113920   5.858   1.569   4.842
 4638TIP3    H213921   5.723   1.531   4.785
 4639TIP3   OH213922   4.468   2.192   2.541
 4639TIP3    H113923   4.445   2.102   2.518
 4639TIP3    H213924   4.409   2.246   2.488
 4640TIP3   OH213925   4.773   3.471   2.631
 4640TIP3    H113926   4.832   3.445   2.561
 4640TIP3    H213927   4.761   3.391   2.683
 4641TIP3   OH213928   4.824   5.689   4.360
 4641TIP3    H113929   4.788   5.751   4.423
 4641TIP3    H213930   4.752   5.672   4.299
 4642TIP3   OH213931   1.552   0.594   3.669
 4642TIP3    H113932   1.486   0.574   3.602
 4642TIP3    H213933   1.515   0.667   3.717
 4643TIP3   OH213934   4.954   2.538   3.865
 4643TIP3    H113935   5.007   2.579   3.797
 4643TIP3    H213936   4.915   2.462   3.822
 4644TIP3   OH213937   4.767   1.425   2.575
 4644TIP3    H113938   4.797   1.344   2.616
 4644TIP3    H213939   4.845   1.460   2.531
 4645TIP3   OH213940   1.533   2.737   1.484
 4645TIP3    H113941   1.516   2.760   1.393
 4645TIP3    H213942   1.470   2.790   1.533
 4646TIP3   OH213943   5.316   4.569   5.019
 4646TIP3    H113944   5.286   4.494   5.071
 4646TIP3    H213945   5.235   4.608   4.986
 4647TIP3   OH213946   4.322   5.288   0.933
 4647TIP3    H113947   4.415   5.269   0.945
 4647TIP3    H213948   4.312   5.378   0.964
 4648TIP3   OH213949   4.973   3.467   3.727
 4648TIP3    H113950   4.918   3.545   3.730
 4648TIP3    H213951   5.062   3.500   3.739
 4649TIP3   OH213952   0.975   0.527   0.518
 4649TIP3    H113953   0.894   0.572   0.497
 4649TIP3    H213954   1.003   0.565   0.601
 4650TIP3   OH213955   5.906   4.375   2.509
 4650TIP3    H113956   5.850   4.380   2.586
 4650TIP3    H213957   5.846   4.387   2.435
 4651TIP3   OH213958   1.498   5.974   0.005
 4651TIP3    H113959   1.513   6.024   0.085
 4651TIP3    H213960   1.409   5.941   0.013
 4652TIP3   OH213961   1.032   3.595   1.615
 4652TIP3    H113962   1.057   3.639   1.534
 4652TIP3    H213963   0.994   3.664   1.669
 4653TIP3   OH213964   3.906   5.800   3.558
 4653TIP3    H113965   3.906   5.715   3.515
 4653TIP3    H213966   3.815   5.814   3.584
 4654TIP3   OH213967   3.536   0.960   1.310
 4654TIP3    H113968   3.585   0.888   1.273
 4654TIP3    H213969   3.459   0.968   1.254
 4655TIP3   OH213970   0.311   0.455   1.023
 4655TIP3    H113971   0.221   0.488   1.029
 4655TIP3    H213972   0.325   0.439   0.929
 4656TIP3   OH213973   2.482   1.744   0.311
 4656TIP3    H113974   2.504   1.674   0.249
 4656TIP3    H213975   2.506   1.708   0.397
 4657TIP3   OH213976   3.698   4.125   3.211
 4657TIP3    H113977   3.715   4.147   3.302
 4657TIP3    H213978   3.776   4.154   3.164
 4658TIP3   OH213979   3.930   5.759   1.115
 4658TIP3    H113980   3.873   5.769   1.038
 4658TIP3    H213981   3.881   5.701   1.173
 4659TIP3   OH213982   3.340   2.714   1.551
 4659TIP3    H113983   3.323   2.628   1.589
 4659TIP3    H213984   3.418   2.703   1.498
 4660TIP3   OH213985   3.565   5.393   2.363
 4660TIP3    H113986   3.585   5.303   2.388
 4660TIP3    H213987   3.630   5.413   2.295
 4661TIP3   OH213988   4.004   5.560   2.411
 4661TIP3    H113989   3.973   5.620   2.480
 4661TIP3    H213990   4.086   5.525   2.445
 4662TIP3   OH213991   4.767   0.366   1.558
 4662TIP3    H113992   4.725   0.446   1.588
 4662TIP3    H213993   4.739   0.299   1.620
 4663TIP3   OH213994   0.210   5.733   0.786
 4663TIP3    H113995   0.195   5.639   0.787
 4663TIP3    H213996   0.297   5.745   0.824
 4664TIP3   OH213997   5.349   0.830   3.518
 4664TIP3    H113998   5.321   0.861   3.432
 4664TIP3    H213999   5.271   0.839   3.573
 4665TIP3   OH214000   5.544   4.662   2.276
 4665TIP3    H114001   5.506   4.716   2.345
 4665TIP3    H214002   5.469   4.640   2.220
 4666TIP3   OH214003   0.999   4.615   3.540
 4666TIP3    H114004   0.991   4.590   3.448
 4666TIP3    H214005   0.918   4.661   3.560
 4667TIP3   OH214006   3.431   3.665   4.684
 4667TIP3    H114007   3.381   3.627   4.757
 4667TIP3    H214008   3.375   3.736   4.652
 4668TIP3   OH214009   5.291   4.914   1.590
 4668TIP3    H114010   5.310   4.929   1.683
 4668TIP3    H214011   5.216   4.853   1.591
 4669TIP3   OH214012   4.363   3.432   3.844
 4669TIP3    H114013   4.297   3.398   3.783
 4669TIP3    H214014   4.444   3.435   3.792
 4670TIP3   OH214015   3.161   4.080   3.284
 4670TIP3    H114016   3.235   4.141   3.281
 4670TIP3    H214017   3.130   4.075   3.194
 4671TIP3   OH214018   4.047   1.271   0.837
 4671TIP3    H114019   4.006   1.358   0.838
 4671TIP3    H214020   4.114   1.276   0.905
 4672TIP3   OH214021   4.725   1.785   1.707
 4672TIP3    H114022   4.781   1.801   1.783
 4672TIP3    H214023   4.748   1.697   1.677
 4673TIP3   OH214024   1.535   3.995   0.998
 4673TIP3    H114025   1.614   3.998   0.945
 4673TIP3    H214026   1.463   4.002   0.935
 4674TIP3   OH214027   4.273   2.527   4.787
 4674TIP3    H114028   4.349   2.477   4.757
 4674TIP3    H214029   4.297   2.558   4.875
 4675TIP3   OH214030   1.292   5.946   3.656
 4675TIP3    H114031   1.222   5.946   3.722
 4675TIP3    H214032   1.351   6.016   3.684
 4676TIP3   OH214033   4.340   1.693   1.043
 4676TIP3    H114034   4.365   1.619   1.098
 4676TIP3    H214035   4.245   1.689   1.039
 4677TIP3   OH214036   5.756   1.016   4.266
 4677TIP3    H114037   5.752   0.963   4.187
 4677TIP3    H214038   5.743   0.953   4.337
 4678TIP3   OH214039   6.250   4.229   0.253
 4678TIP3    H114040   6.302   4.222   0.333
 4678TIP3    H214041   6.193   4.152   0.255
 4679TIP3   OH214042   2.254   4.189   4.948
 4679TIP3    H114043   2.164   4.222   4.949
 4679TIP3    H214044   2.307   4.262   4.980
 4680TIP3   OH214045   6.098   2.191   2.770
 4680TIP3    H114046   6.188   2.223   2.758
 4680TIP3    H214047   6.093   2.169   2.863
 4681TIP3   OH214048   1.672   5.759   4.412
 4681TIP3    H114049   1.725   5.681   4.428
 4681TIP3    H214050   1.634   5.745   4.325
 4682TIP3   OH214051   5.074   3.130   4.790
 4682TIP3    H114052   5.038   3.113   4.703
 4682TIP3    H214053   5.020   3.201   4.825
 4683TIP3   OH214054   2.102   1.178   4.014
 4683TIP3    H114055   2.169   1.150   3.951
 4683TIP3    H214056   2.128   1.267   4.038
 4684TIP3   OH214057   2.333   1.787   1.111
 4684TIP3    H114058   2.315   1.859   1.051
 4684TIP3    H214059   2.260   1.726   1.099
 4685TIP3   OH214060   0.355   5.155   0.734
 4685TIP3    H114061   0.321   5.111   0.656
 4685TIP3    H214062   0.305   5.236   0.739
 4686TIP3   OH214063   0.892   1.047   5.013
 4686TIP3    H114064   0.890   1.042   4.917
 4686TIP3    H214065   0.969   0.997   5.038
 4687TIP3   OH214066   0.865   2.775   4.376
 4687TIP3    H114067   0.930   2.845   4.387
 4687TIP3    H214068   0.893   2.707   4.437
 4688TIP3   OH214069   2.754   5.453   1.138
 4688TIP3    H114070   2.682   5.479   1.196
 4688TIP3    H214071   2.713   5.395   1.074
 4689TIP3   OH214072   2.042   3.425   2.914
 4689TIP3    H114073   2.092   3.506   2.915
 4689TIP3    H214074   2.080   3.374   2.843
 4690TIP3   OH214075   1.096   2.599   1.411
 4690TIP3    H114076   1.012   2.553   1.405
 4690TIP3    H214077   1.104   2.646   1.328
 4691TIP3   OH214078   2.467   4.265   2.041
 4691TIP3    H114079   2.445   4.240   1.951
 4691TIP3    H214080   2.442   4.358   2.046
 4692TIP3   OH214081   1.562   2.309   4.488
 4692TIP3    H114082   1.481   2.262   4.466
 4692TIP3    H214083   1.562   2.385   4.430
 4693TIP3   OH214084   1.837   2.673   3.731
 4693TIP3    H114085   1.798   2.673   3.643
 4693TIP3    H214086   1.918   2.724   3.721
 4694TIP3   OH214087   4.795   3.094   4.319
 4694TIP3    H114088   4.745   3.041   4.382
 4694TIP3    H214089   4.810   3.036   4.245
 4695TIP3   OH214090   5.967   1.645   4.519
 4695TIP3    H114091   5.975   1.626   4.612
 4695TIP3    H214092   5.923   1.730   4.516
 4696TIP3   OH214093   2.579   0.866   3.100
 4696TIP3    H114094   2.596   0.873   3.006
 4696TIP3    H214095   2.665   0.849   3.139
 4697TIP3   OH214096   1.227   3.292   3.567
 4697TIP3    H114097   1.198   3.276   3.657
 4697TIP3    H214098   1.247   3.205   3.532
 4698TIP3   OH214099   4.983   0.254   1.783
 4698TIP3    H114100   4.979   0.308   1.862
 4698TIP3    H214101   5.026   0.309   1.718
 4699TIP3   OH214102   1.708   0.211   2.272
 4699TIP3    H114103   1.699   0.214   2.368
 4699TIP3    H214104   1.802   0.217   2.257
 4700TIP3   OH214105   5.667   1.239   3.912
 4700TIP3    H114106   5.629   1.154   3.889
 4700TIP3    H214107   5.600   1.282   3.965
 4701TIP3   OH214108   1.518   1.473   2.594
 4701TIP3    H114109   1.570   1.516   2.527
 4701TIP3    H214110   1.429   1.507   2.581
 4702TIP3   OH214111   5.175   0.913   1.916
 4702TIP3    H114112   5.270   0.898   1.912
 4702TIP3    H214113   5.137   0.846   1.860
 4703TIP3   OH214114   4.382   5.710   2.463
 4703TIP3    H114115   4.377   5.628   2.512
 4703TIP3    H214116   4.335   5.774   2.517
 4704TIP3   OH214117   5.146   2.775   4.063
 4704TIP3    H114118   5.129   2.753   4.155
 4704TIP3    H214119   5.061   2.801   4.029
 4705TIP3   OH214120   0.839   5.189   2.690
 4705TIP3    H114121   0.874   5.205   2.602
 4705TIP3    H214122   0.779   5.115   2.680
 4706TIP3   OH214123   2.817   2.517   4.939
 4706TIP3    H114124   2.759   2.448   4.971
 4706TIP3    H214125   2.891   2.471   4.901
 4707TIP3   OH214126   6.262   3.417   3.339
 4707TIP3    H114127   6.215   3.393   3.419
 4707TIP3    H214128   6.229   3.504   3.317
 4708TIP3   OH214129   3.037   0.064   0.812
 4708TIP3    H114130   2.999  -0.023   0.798
 4708TIP3    H214131   3.121   0.060   0.767
 4709TIP3   OH214132   6.088   5.461   0.358
 4709TIP3    H114133   6.114   5.497   0.442
 4709TIP3    H214134   6.126   5.520   0.293
 4710TIP3   OH214135   3.977   3.871   4.777
 4710TIP3    H114136   4.059   3.897   4.820
 4710TIP3    H214137   3.917   3.851   4.849
 4711TIP3   OH214138   3.562   0.657   2.937
 4711TIP3    H114139   3.651   0.645   2.971
 4711TIP3    H214140   3.530   0.569   2.920
 4712TIP3   OH214141   5.260   5.535   3.465
 4712TIP3    H114142   5.302   5.449   3.461
 4712TIP3    H214143   5.290   5.580   3.386
 4713TIP3   OH214144   5.222   0.888   2.690
 4713TIP3    H114145   5.215   0.793   2.690
 4713TIP3    H214146   5.295   0.907   2.630
 4714TIP3   OH214147   5.684   5.356   0.762
 4714TIP3    H114148   5.695   5.284   0.701
 4714TIP3    H214149   5.770   5.396   0.770
 4715TIP3   OH214150   0.680   5.679   0.778
 4715TIP3    H114151   0.765   5.687   0.822
 4715TIP3    H214152   0.671   5.585   0.761
 4716TIP3   OH214153   5.290   2.929   2.167
 4716TIP3    H114154   5.271   2.893   2.254
 4716TIP3    H214155   5.340   2.860   2.123
 4717TIP3   OH214156   2.501   3.908   1.739
 4717TIP3    H114157   2.419   3.935   1.699
 4717TIP3    H214158   2.567   3.964   1.699
 4718TIP3   OH214159   1.288   1.981   2.364
 4718TIP3    H114160   1.337   2.025   2.295
 4718TIP3    H214161   1.287   1.889   2.338
 4719TIP3   OH214162   2.662   3.288   2.174
 4719TIP3    H114163   2.625   3.251   2.094
 4719TIP3    H214164   2.696   3.212   2.221
 4720TIP3   OH214165   2.035   0.563   4.958
 4720TIP3    H114166   2.123   0.532   4.937
 4720TIP3    H214167   2.050   0.639   5.014
 4721TIP3   OH214168   2.514   0.642   2.409
 4721TIP3    H114169   2.597   0.597   2.393
 4721TIP3    H214170   2.490   0.616   2.498
 4722TIP3   OH214171   5.901   2.273   1.575
 4722TIP3    H114172   5.992   2.289   1.550
 4722TIP3    H214173   5.852   2.278   1.493
 4723TIP3   OH214174   4.541   5.439   2.955
 4723TIP3    H114175   4.545   5.447   3.050
 4723TIP3    H214176   4.585   5.518   2.923
 4724TIP3   OH214177   2.797   5.412   4.876
 4724TIP3    H114178   2.859   5.346   4.907
 4724TIP3    H214179   2.848   5.493   4.873
 4725TIP3   OH214180   3.815   5.060   0.836
 4725TIP3    H114181   3.830   4.966   0.835
 4725TIP3    H214182   3.743   5.074   0.775
 4726TIP3   OH214183   1.729   3.979   2.232
 4726TIP3    H114184   1.795   3.914   2.210
 4726TIP3    H214185   1.732   3.985   2.328
 4727TIP3   OH214186   5.139   5.285   3.093
 4727TIP3    H114187   5.073   5.227   3.053
 4727TIP3    H214188   5.136   5.264   3.186
 4728TIP3   OH214189   3.425   4.826   4.252
 4728TIP3    H114190   3.423   4.745   4.201
 4728TIP3    H214191   3.463   4.800   4.336
 4729TIP3   OH214192   0.818   3.125   0.849
 4729TIP3    H114193   0.728   3.158   0.853
 4729TIP3    H214194   0.860   3.162   0.926
 4730TIP3   OH214195   5.254   0.915   3.268
 4730TIP3    H114196   5.201   0.837   3.252
 4730TIP3    H214197   5.202   0.987   3.232
 4731TIP3   OH214198   0.325   4.051   1.163
 4731TIP3    H114199   0.308   4.145   1.166
 4731TIP3    H214200   0.400   4.043   1.104
 4732TIP3   OH214201   1.596   1.844   1.529
 4732TIP3    H114202   1.609   1.931   1.492
 4732TIP3    H214203   1.645   1.845   1.612
 4733TIP3   OH214204   0.694   2.904   1.785
 4733TIP3    H114205   0.614   2.883   1.833
 4733TIP3    H214206   0.744   2.958   1.845
 4734TIP3   OH214207   4.332   4.093   4.315
 4734TIP3    H114208   4.378   4.061   4.237
 4734TIP3    H214209   4.286   4.016   4.349
 4735TIP3   OH214210   2.916   3.797   2.066
 4735TIP3    H114211   2.887   3.886   2.081
 4735TIP3    H214212   2.932   3.761   2.153
 4736TIP3   OH214213   1.327   1.312   4.280
 4736TIP3    H114214   1.370   1.332   4.197
 4736TIP3    H214215   1.264   1.243   4.259
 4737TIP3   OH214216   3.730   3.239   1.299
 4737TIP3    H114217   3.788   3.168   1.273
 4737TIP3    H214218   3.642   3.203   1.290
 4738TIP3   OH214219   1.629   5.146   5.140
 4738TIP3    H114220   1.577   5.218   5.177
 4738TIP3    H214221   1.690   5.123   5.210
 4739TIP3   OH214222   4.161   4.821   5.018
 4739TIP3    H114223   4.253   4.849   5.015
 4739TIP3    H214224   4.145   4.803   5.111
 4740TIP3   OH214225   4.898   0.739   4.107
 4740TIP3    H114226   4.943   0.690   4.176
 4740TIP3    H214227   4.863   0.816   4.150
 4741TIP3   OH214228   1.954   0.281   3.073
 4741TIP3    H114229   2.026   0.266   3.012
 4741TIP3    H214230   1.942   0.196   3.116
 4742TIP3   OH214231   1.008   3.915   3.412
 4742TIP3    H114232   1.081   3.940   3.355
 4742TIP3    H214233   1.039   3.933   3.501
 4743TIP3   OH214234   1.570   4.223   0.807
 4743TIP3    H114235   1.609   4.256   0.888
 4743TIP3    H214236   1.476   4.230   0.821
 4744TIP3   OH214237   1.433   5.450   3.324
 4744TIP3    H114238   1.480   5.532   3.307
 4744TIP3    H214239   1.502   5.389   3.348
 4745TIP3   OH214240   4.050   1.728   1.112
 4745TIP3    H114241   3.985   1.787   1.073
 4745TIP3    H214242   4.070   1.766   1.197
 4746TIP3   OH214243   6.013   4.050   3.393
 4746TIP3    H114244   6.021   4.145   3.385
 4746TIP3    H214245   6.060   4.016   3.317
 4747TIP3   OH214246   1.383   3.646   1.077
 4747TIP3    H114247   1.388   3.702   0.999
 4747TIP3    H214248   1.364   3.559   1.042
 4748TIP3   OH214249   1.580   3.472   0.867
 4748TIP3    H114250   1.513   3.473   0.799
 4748TIP3    H214251   1.564   3.551   0.918
 4749TIP3   OH214252   3.895   5.752   2.868
 4749TIP3    H114253   3.808   5.786   2.887
 4749TIP3    H214254   3.948   5.777   2.943
 4750TIP3   OH214255   2.761   0.520   2.442
 4750TIP3    H114256   2.847   0.540   2.479
 4750TIP3    H214257   2.754   0.425   2.445
 4751TIP3   OH214258   5.446   1.735   3.786
 4751TIP3    H114259   5.381   1.733   3.857
 4751TIP3    H214260   5.428   1.657   3.735
 4752TIP3   OH214261   0.970   0.674   1.975
 4752TIP3    H114262   0.886   0.694   2.016
 4752TIP3    H214263   1.021   0.754   1.986
 4753TIP3   OH214264   5.196   0.673   1.107
 4753TIP3    H114265   5.142   0.722   1.046
 4753TIP3    H214266   5.242   0.740   1.158
 4754TIP3   OH214267   2.399   0.881   4.739
 4754TIP3    H114268   2.461   0.874   4.667
 4754TIP3    H214269   2.454   0.894   4.816
 4755TIP3   OH214270   0.273   3.684   1.651
 4755TIP3    H114271   0.366   3.669   1.669
 4755TIP3    H214272   0.272   3.751   1.583
 4756TIP3   OH214273   2.770   5.855   2.448
 4756TIP3    H114274   2.688   5.901   2.429
 4756TIP3    H214275   2.749   5.762   2.434
 4757TIP3   OH214276   1.338   5.682   1.317
 4757TIP3    H114277   1.335   5.647   1.229
 4757TIP3    H214278   1.428   5.714   1.327
 4758TIP3   OH214279   4.260   5.860   3.409
 4758TIP3    H114280   4.229   5.777   3.373
 4758TIP3    H214281   4.275   5.916   3.333
 4759TIP3   OH214282   3.053   5.961   0.504
 4759TIP3    H114283   2.996   5.941   0.430
 4759TIP3    H214284   3.047   5.884   0.560
 4760TIP3   OH214285   1.059   3.788   1.372
 4760TIP3    H114286   1.007   3.861   1.337
 4760TIP3    H214287   1.043   3.716   1.312
 4761TIP3   OH214288   0.566   0.539   4.889
 4761TIP3    H114289   0.625   0.508   4.957
 4761TIP3    H214290   0.506   0.598   4.935
 4762TIP3   OH214291   3.986   1.015   1.380
 4762TIP3    H114292   3.998   0.970   1.297
 4762TIP3    H214293   3.894   1.040   1.381
 4763TIP3   OH214294   6.111   5.189   0.491
 4763TIP3    H114295   6.081   5.275   0.460
 4763TIP3    H214296   6.114   5.198   0.586
 4764TIP3   OH214297   6.246   5.174   2.419
 4764TIP3    H114298   6.178   5.149   2.481
 4764TIP3    H214299   6.241   5.270   2.414
 4765TIP3   OH214300   4.679   3.265   5.045
 4765TIP3    H114301   4.717   3.187   5.004
 4765TIP3    H214302   4.605   3.231   5.096
 4766TIP3   OH214303   3.170   2.137   4.884
 4766TIP3    H114304   3.248   2.116   4.937
 4766TIP3    H214305   3.140   2.221   4.918
 4767TIP3   OH214306   4.347   4.895   2.731
 4767TIP3    H114307   4.333   4.844   2.651
 4767TIP3    H214308   4.430   4.940   2.716
 4768TIP3   OH214309   3.724   4.164   4.908
 4768TIP3    H114310   3.800   4.216   4.883
 4768TIP3    H214311   3.741   4.136   4.998
 4769TIP3   OH214312   2.063   0.392   3.341
 4769TIP3    H114313   2.140   0.336   3.335
 4769TIP3    H214314   2.040   0.412   3.251
 4770TIP3   OH214315   0.503   0.444   0.370
 4770TIP3    H114316   0.560   0.475   0.441
 4770TIP3    H214317   0.480   0.355   0.395
 4771TIP3   OH214318   3.486   3.340   0.739
 4771TIP3    H114319   3.538   3.398   0.683
 4771TIP3    H214320   3.496   3.377   0.827
 4772TIP3   OH214321   2.162   1.303   3.719
 4772TIP3    H114322   2.214   1.351   3.782
 4772TIP3    H214323   2.200   1.215   3.718
 4773TIP3   OH214324   3.305   1.721   3.238
 4773TIP3    H114325   3.268   1.641   3.200
 4773TIP3    H214326   3.358   1.691   3.312
 4774TIP3   OH214327   4.393   4.707   3.535
 4774TIP3    H114328   4.348   4.754   3.605
 4774TIP3    H214329   4.439   4.636   3.580
 4775TIP3   OH214330   5.799   4.485   1.436
 4775TIP3    H114331   5.839   4.450   1.356
 4775TIP3    H214332   5.810   4.579   1.428
 4776TIP3   OH214333   0.558   3.106   5.071
 4776TIP3    H114334   0.564   3.147   4.985
 4776TIP3    H214335   0.553   3.012   5.053
 4777TIP3   OH214336   1.261   0.004   1.515
 4777TIP3    H114337   1.211   0.062   1.572
 4777TIP3    H214338   1.352   0.031   1.527
 4778TIP3   OH214339   4.979   2.082   2.928
 4778TIP3    H114340   5.003   2.148   2.994
 4778TIP3    H214341   5.062   2.062   2.884
 4779TIP3   OH214342   4.210   2.842   3.748
 4779TIP3    H114343   4.255   2.921   3.717
 4779TIP3    H214344   4.262   2.813   3.823
 4780TIP3   OH214345   1.057   2.475   0.905
 4780TIP3    H114346   1.042   2.508   0.816
 4780TIP3    H214347   1.151   2.484   0.918
 4781TIP3   OH214348   1.001   4.035   4.592
 4781TIP3    H114349   1.008   4.091   4.515
 4781TIP3    H214350   0.986   3.947   4.557
 4782TIP3   OH214351   4.615   5.406   5.052
 4782TIP3    H114352   4.572   5.490   5.037
 4782TIP3    H214353   4.560   5.342   5.006
 4783TIP3   OH214354   4.760   0.032   0.907
 4783TIP3    H114355   4.693  -0.035   0.916
 4783TIP3    H214356   4.775   0.064   0.996
 4784TIP3   OH214357   6.353   5.155   3.399
 4784TIP3    H114358   6.265   5.174   3.431
 4784TIP3    H214359   6.411   5.196   3.463
 4785TIP3   OH214360   4.385   3.773   5.055
 4785TIP3    H114361   4.312   3.734   5.103
 4785TIP3    H214362   4.457   3.775   5.119
 4786TIP3   OH214363   0.849   2.501   1.343
 4786TIP3    H114364   0.835   2.471   1.254
 4786TIP3    H214365   0.767   2.482   1.388
 4787TIP3   OH214366   1.537   0.532   2.701
 4787TIP3    H114367   1.519   0.619   2.736
 4787TIP3    H214368   1.507   0.471   2.769
 4788TIP3   OH214369   5.841   1.729   2.354
 4788TIP3    H114370   5.795   1.742   2.437
 4788TIP3    H214371   5.787   1.774   2.289
 4789TIP3   OH214372   1.451   0.767   4.871
 4789TIP3    H114373   1.521   0.786   4.808
 4789TIP3    H214374   1.423   0.678   4.849
 4790TIP3   OH214375   4.041   2.117   2.903
 4790TIP3    H114376   4.129   2.153   2.891
 4790TIP3    H214377   4.001   2.122   2.816
 4791TIP3   OH214378   0.824   0.051   4.982
 4791TIP3    H114379   0.862   0.075   4.897
 4791TIP3    H214380   0.843  -0.043   4.991
 4792TIP3   OH214381   1.233   5.350   0.361
 4792TIP3    H114382   1.240   5.424   0.301
 4792TIP3    H214383   1.323   5.333   0.389
 4793TIP3   OH214384   4.297   0.484   0.649
 4793TIP3    H114385   4.282   0.397   0.613
 4793TIP3    H214386   4.211   0.512   0.681
 4794TIP3   OH214387   5.284   4.477   1.745
 4794TIP3    H114388   5.276   4.556   1.798
 4794TIP3    H214389   5.282   4.405   1.808
 4795TIP3   OH214390   3.537   2.326   2.750
 4795TIP3    H114391   3.551   2.250   2.806
 4795TIP3    H214392   3.497   2.391   2.807
 4796TIP3   OH214393   6.061   0.405   0.030
 4796TIP3    H114394   6.090   0.456   0.106
 4796TIP3    H214395   6.073   0.464  -0.045
 4797TIP3   OH214396   2.442   5.171   2.475
 4797TIP3    H114397   2.508   5.109   2.504
 4797TIP3    H214398   2.372   5.165   2.540
 4798TIP3   OH214399   4.159   3.116   0.400
 4798TIP3    H114400   4.238   3.163   0.374
 4798TIP3    H214401   4.166   3.032   0.354
 4799TIP3   OH214402   0.022   1.161   0.833
 4799TIP3    H114403   0.051   1.081   0.878
 4799TIP3    H214404   0.004   1.222   0.904
 4800TIP3   OH214405   4.591   4.876   3.435
 4800TIP3    H114406   4.572   4.966   3.457
 4800TIP3    H214407   4.509   4.829   3.449
 4801TIP3   OH214408   2.119   0.726   4.011
 4801TIP3    H114409   2.074   0.642   4.015
 4801TIP3    H214410   2.207   0.705   3.978
 4802TIP3   OH214411   5.293   2.668   1.334
 4802TIP3    H114412   5.296   2.735   1.402
 4802TIP3    H214413   5.366   2.689   1.276
 4803TIP3   OH214414   5.405   0.403   1.968
 4803TIP3    H114415   5.460   0.343   2.019
 4803TIP3    H214416   5.346   0.442   2.033
 4804TIP3   OH214417   1.091   2.000   4.496
 4804TIP3    H114418   1.025   1.931   4.493
 4804TIP3    H214419   1.152   1.972   4.564
 4805TIP3   OH214420   0.215   5.506   1.995
 4805TIP3    H114421   0.220   5.508   2.091
 4805TIP3    H214422   0.137   5.454   1.976
 4806TIP3   OH214423   0.067   1.352   4.750
 4806TIP3    H114424   0.118   1.344   4.831
 4806TIP3    H214425   0.014   1.273   4.747
 4807TIP3   OH214426   3.279   4.243   2.692
 4807TIP3    H114427   3.260   4.153   2.667
 4807TIP3    H214428   3.339   4.275   2.624
 4808TIP3   OH214429   2.423   3.829   2.773
 4808TIP3    H114430   2.407   3.869   2.858
 4808TIP3    H214431   2.514   3.849   2.753
 4809TIP3   OH214432   3.968   0.611   3.240
 4809TIP3    H114433   3.873   0.600   3.253
 4809TIP3    H214434   3.975   0.667   3.163
 4810TIP3   OH214435   0.658   3.940   0.184
 4810TIP3    H114436   0.617   3.910   0.102
 4810TIP3    H214437   0.646   4.035   0.183
 4811TIP3   OH214438   0.690   3.735   2.006
 4811TIP3    H114439   0.671   3.648   2.041
 4811TIP3    H214440   0.717   3.787   2.083
 4812TIP3   OH214441   3.868   5.678   0.108
 4812TIP3    H114442   3.832   5.756   0.066
 4812TIP3    H214443   3.879   5.703   0.199
 4813TIP3   OH214444   3.845   4.008   2.625
 4813TIP3    H114445   3.878   4.069   2.690
 4813TIP3    H214446   3.750   4.008   2.637
 4814TIP3   OH214447   4.930   1.617   3.157
 4814TIP3    H114448   4.925   1.628   3.252
 4814TIP3    H214449   5.020   1.638   3.134
 4815TIP3   OH214450   0.777   4.064   2.655
 4815TIP3    H114451   0.789   3.989   2.714
 4815TIP3    H214452   0.729   4.028   2.580
 4816TIP3   OH214453   1.700   1.948   2.901
 4816TIP3    H114454   1.740   1.875   2.853
 4816TIP3    H214455   1.731   1.937   2.991
 4817TIP3   OH214456   3.481   5.690   3.854
 4817TIP3    H114457   3.416   5.742   3.902
 4817TIP3    H214458   3.548   5.669   3.920
 4818TIP3   OH214459   0.917   5.734   0.921
 4818TIP3    H114460   0.987   5.792   0.953
 4818TIP3    H214461   0.962   5.653   0.899
 4819TIP3   OH214462   2.623   1.677   5.015
 4819TIP3    H114463   2.622   1.583   4.998
 4819TIP3    H214464   2.569   1.715   4.945
 4820TIP3   OH214465   1.864   3.274   1.410
 4820TIP3    H114466   1.893   3.345   1.352
 4820TIP3    H214467   1.893   3.194   1.366
 4821TIP3   OH214468   2.717   5.874   2.939
 4821TIP3    H114469   2.779   5.802   2.931
 4821TIP3    H214470   2.644   5.850   2.882
 4822TIP3   OH214471   4.625   2.793   1.061
 4822TIP3    H114472   4.587   2.837   1.137
 4822TIP3    H214473   4.719   2.810   1.068
 4823TIP3   OH214474   5.429   2.813   0.370
 4823TIP3    H114475   5.341   2.809   0.330
 4823TIP3    H214476   5.473   2.734   0.337
 4824TIP3   OH214477   3.494   5.832   4.215
 4824TIP3    H114478   3.566   5.770   4.205
 4824TIP3    H214479   3.427   5.803   4.152
 4825TIP3   OH214480   0.590   4.422   2.246
 4825TIP3    H114481   0.628   4.426   2.158
 4825TIP3    H214482   0.500   4.395   2.231
 4826TIP3   OH214483   4.535   1.958   0.695
 4826TIP3    H114484   4.594   1.884   0.710
 4826TIP3    H214485   4.585   2.017   0.638
 4827TIP3   OH214486   1.627   0.767   4.076
 4827TIP3    H114487   1.646   0.746   4.168
 4827TIP3    H214488   1.562   0.702   4.050
 4828TIP3   OH214489   0.499   0.237   4.609
 4828TIP3    H114490   0.487   0.283   4.691
 4828TIP3    H214491   0.565   0.170   4.628
 4829TIP3   OH214492   1.156   0.011   3.641
 4829TIP3    H114493   1.248   0.036   3.654
 4829TIP3    H214494   1.112   0.038   3.720
 4830TIP3   OH214495   4.327   4.590   0.835
 4830TIP3    H114496   4.407   4.596   0.887
 4830TIP3    H214497   4.333   4.663   0.774
 4831TIP3   OH214498   4.861   1.516   0.080
 4831TIP3    H114499   4.939   1.528   0.133
 4831TIP3    H214500   4.853   1.597   0.029
 4832TIP3   OH214501   4.326   3.278   1.018
 4832TIP3    H114502   4.410   3.279   1.063
 4832TIP3    H214503   4.272   3.216   1.067
 4833TIP3   OH214504   1.296   4.633   3.965
 4833TIP3    H114505   1.291   4.602   3.875
 4833TIP3    H214506   1.357   4.573   4.008
 4834TIP3   OH214507   3.918   4.044   4.575
 4834TIP3    H114508   3.885   4.010   4.491
 4834TIP3    H214509   3.920   3.968   4.633
 4835TIP3   OH214510   2.771   1.068   0.837
 4835TIP3    H114511   2.714   1.006   0.793
 4835TIP3    H214512   2.816   1.016   0.904
 4836TIP3   OH214513   0.761   4.110   0.733
 4836TIP3    H114514   0.666   4.106   0.744
 4836TIP3    H214515   0.777   4.060   0.652
 4837TIP3   OH214516   5.568   0.040   3.803
 4837TIP3    H114517   5.564   0.119   3.858
 4837TIP3    H214518   5.477   0.012   3.793
 4838TIP3   OH214519   3.872   4.824   0.321
 4838TIP3    H114520   3.827   4.761   0.377
 4838TIP3    H214521   3.852   4.909   0.361
 4839TIP3   OH214522   6.211   4.478   4.576
 4839TIP3    H114523   6.217   4.519   4.490
 4839TIP3    H214524   6.162   4.397   4.560
 4840TIP3   OH214525   1.824   3.832   1.810
 4840TIP3    H114526   1.740   3.809   1.770
 4840TIP3    H214527   1.806   3.912   1.860
 4841TIP3   OH214528   0.594   4.564   0.327
 4841TIP3    H114529   0.528   4.622   0.289
 4841TIP3    H214530   0.556   4.476   0.322
 4842TIP3   OH214531   2.591   5.558   1.409
 4842TIP3    H114532   2.610   5.561   1.503
 4842TIP3    H214533   2.532   5.484   1.399
 4843TIP3   OH214534   5.737   2.549   2.470
 4843TIP3    H114535   5.760   2.474   2.416
 4843TIP3    H214536   5.820   2.587   2.497
 4844TIP3   OH214537   5.478   0.115   1.547
 4844TIP3    H114538   5.408   0.053   1.569
 4844TIP3    H214539   5.445   0.163   1.471
 4845TIP3   OH214540   1.625   5.546   2.639
 4845TIP3    H114541   1.720   5.554   2.646
 4845TIP3    H214542   1.595   5.530   2.729
 4846TIP3   OH214543   3.747   5.939   2.387
 4846TIP3    H114544   3.781   5.964   2.473
 4846TIP3    H214545   3.668   5.888   2.406
 4847TIP3   OH214546   1.162   0.303   0.562
 4847TIP3    H114547   1.189   0.320   0.653
 4847TIP3    H214548   1.096   0.370   0.544
 4848TIP3   OH214549   0.290   3.750   1.000
 4848TIP3    H114550   0.329   3.774   1.084
 4848TIP3    H214551   0.358   3.700   0.956
 4849TIP3   OH214552   3.529   1.018   2.336
 4849TIP3    H114553   3.515   1.113   2.343
 4849TIP3    H214554   3.553   0.991   2.425
 4850TIP3   OH214555   1.312   5.759   3.427
 4850TIP3    H114556   1.342   5.678   3.468
 4850TIP3    H214557   1.287   5.815   3.501
 4851TIP3   OH214558   1.559   4.335   2.541
 4851TIP3    H114559   1.469   4.320   2.568
 4851TIP3    H214560   1.553   4.403   2.474
 4852TIP3   OH214561   5.064   2.891   1.221
 4852TIP3    H114562   5.108   2.878   1.137
 4852TIP3    H214563   5.115   2.959   1.265
 4853TIP3   OH214564   5.142   1.724   4.695
 4853TIP3    H114565   5.090   1.788   4.648
 4853TIP3    H214566   5.082   1.650   4.708
 4854TIP3   OH214567   4.946   3.586   2.140
 4854TIP3    H114568   4.920   3.524   2.071
 4854TIP3    H214569   4.920   3.672   2.106
 4855TIP3   OH214570   0.186   5.244   3.743
 4855TIP3    H114571   0.178   5.333   3.709
 4855TIP3    H214572   0.244   5.200   3.681
 4856TIP3   OH214573   3.760   2.172   1.802
 4856TIP3    H114574   3.765   2.267   1.808
 4856TIP3    H214575   3.689   2.148   1.861
 4857TIP3   OH214576   3.862   4.706   3.927
 4857TIP3    H114577   3.770   4.727   3.945
 4857TIP3    H214578   3.907   4.790   3.928
 4858TIP3   OH214579   6.184   3.128   4.153
 4858TIP3    H114580   6.107   3.175   4.121
 4858TIP3    H214581   6.245   3.128   4.079
 4859TIP3   OH214582   0.885   5.223   3.416
 4859TIP3    H114583   0.917   5.306   3.380
 4859TIP3    H214584   0.893   5.161   3.343
 4860TIP3   OH214585   0.341   0.085   2.634
 4860TIP3    H114586   0.349   0.154   2.700
 4860TIP3    H214587   0.252   0.095   2.600
 4861TIP3   OH214588   4.053   4.631   4.813
 4861TIP3    H114589   4.104   4.561   4.855
 4861TIP3    H214590   4.050   4.701   4.878
 4862TIP3   OH214591   5.742   0.612   2.807
 4862TIP3    H114592   5.769   0.554   2.878
 4862TIP3    H214593   5.726   0.696   2.849
 4863TIP3   OH214594   4.733   3.801   2.293
 4863TIP3    H114595   4.822   3.778   2.319
 4863TIP3    H214596   4.680   3.728   2.325
 4864TIP3   OH214597   2.830   3.734   4.087
 4864TIP3    H114598   2.864   3.822   4.068
 4864TIP3    H214599   2.798   3.703   4.003
 4865TIP3   OH214600   2.931   0.464   4.846
 4865TIP3    H114601   2.913   0.545   4.895
 4865TIP3    H214602   2.889   0.478   4.762
 4866TIP3   OH214603   4.598   5.045   2.654
 4866TIP3    H114604   4.585   5.114   2.720
 4866TIP3    H214605   4.650   4.979   2.700
 4867TIP3   OH214606   3.544   3.891   4.832
 4867TIP3    H114607   3.484   3.886   4.757
 4867TIP3    H214608   3.540   3.804   4.871
 4868TIP3   OH214609   1.009   4.696   4.517
 4868TIP3    H114610   1.030   4.743   4.598
 4868TIP3    H214611   1.039   4.753   4.447
 4869TIP3   OH214612   0.047   1.691   2.237
 4869TIP3    H114613   0.122   1.674   2.295
 4869TIP3    H214614  -0.009   1.750   2.287
 4870TIP3   OH214615   2.936   0.175   2.321
 4870TIP3    H114616   2.996   0.118   2.370
 4870TIP3    H214617   2.862   0.188   2.380
 4871TIP3   OH214618   5.107   0.347   0.236
 4871TIP3    H114619   5.142   0.298   0.311
 4871TIP3    H214620   5.037   0.292   0.202
 4872TIP3   OH214621   1.457   3.568   4.518
 4872TIP3    H114622   1.538   3.525   4.491
 4872TIP3    H214623   1.483   3.625   4.591
 4873TIP3   OH214624   3.059   5.558   2.344
 4873TIP3    H114625   3.041   5.648   2.370
 4873TIP3    H214626   3.149   5.560   2.311
 4874TIP3   OH214627   0.790   3.025   0.315
 4874TIP3    H114628   0.809   3.093   0.250
 4874TIP3    H214629   0.834   3.054   0.395
 4875TIP3   OH214630   3.896   3.677   3.459
 4875TIP3    H114631   3.837   3.694   3.385
 4875TIP3    H214632   3.933   3.762   3.481
 4876TIP3   OH214633   2.255   1.198   1.046
 4876TIP3    H114634   2.164   1.176   1.028
 4876TIP3    H214635   2.270   1.279   0.998
 4877TIP3   OH214636   2.172   4.904   2.574
 4877TIP3    H114637   2.080   4.896   2.547
 4877TIP3    H214638   2.203   4.984   2.533
 4878TIP3   OH214639   1.538   0.378   0.323
 4878TIP3    H114640   1.535   0.452   0.384
 4878TIP3    H214641   1.544   0.419   0.237
 4879TIP3   OH214642   3.525   5.651   0.724
 4879TIP3    H114643   3.490   5.672   0.811
 4879TIP3    H214644   3.501   5.559   0.711
 4880TIP3   OH214645   4.294   1.901   2.402
 4880TIP3    H114646   4.253   1.930   2.321
 4880TIP3    H214647   4.225   1.910   2.468
 4881TIP3   OH214648   4.053   0.500   3.463
 4881TIP3    H114649   4.024   0.540   3.381
 4881TIP3    H214650   4.145   0.478   3.448
 4882TIP3   OH214651   5.118   2.099   0.838
 4882TIP3    H114652   5.073   2.163   0.894
 4882TIP3    H214653   5.088   2.014   0.872
 4883TIP3   OH214654   1.688   4.309   2.992
 4883TIP3    H114655   1.750   4.323   2.920
 4883TIP3    H214656   1.603   4.326   2.953
 4884TIP3   OH214657   6.253   5.635   2.816
 4884TIP3    H114658   6.160   5.610   2.814
 4884TIP3    H214659   6.257   5.709   2.877
 4885TIP3   OH214660   2.860   4.064   0.301
 4885TIP3    H114661   2.870   4.133   0.367
 4885TIP3    H214662   2.942   4.015   0.307
 4886TIP3   OH214663   5.241   5.468   0.672
 4886TIP3    H114664   5.278   5.479   0.584
 4886TIP3    H214665   5.313   5.489   0.731
 4887TIP3   OH214666   6.166   3.956   0.220
 4887TIP3    H114667   6.258   3.929   0.228
 4887TIP3    H214668   6.146   3.946   0.127
 4888TIP3   OH214669   5.930   2.976   2.301
 4888TIP3    H114670   5.836   2.993   2.311
 4888TIP3    H214671   5.942   2.964   2.207
 4889TIP3   OH214672   0.920   0.371   4.969
 4889TIP3    H114673   0.826   0.379   4.986
 4889TIP3    H214674   0.928   0.290   4.919
 4890TIP3   OH214675   2.406   1.658   1.337
 4890TIP3    H114676   2.323   1.696   1.367
 4890TIP3    H214677   2.414   1.686   1.246
 4891TIP3   OH214678   3.365   1.002   4.603
 4891TIP3    H114679   3.367   1.065   4.675
 4891TIP3    H214680   3.455   0.970   4.597
 4892TIP3   OH214681   1.805   2.618   0.303
 4892TIP3    H114682   1.833   2.707   0.282
 4892TIP3    H214683   1.758   2.588   0.225
 4893TIP3   OH214684   2.434   4.986   1.616
 4893TIP3    H114685   2.468   5.063   1.571
 4893TIP3    H214686   2.358   4.960   1.565
 4894TIP3   OH214687   2.141   4.011   3.072
 4894TIP3    H114688   2.099   4.039   3.154
 4894TIP3    H214689   2.216   3.960   3.101
 4895TIP3   OH214690   1.916   1.881   1.116
 4895TIP3    H114691   1.833   1.869   1.163
 4895TIP3    H214692   1.961   1.797   1.126
 4896TIP3   OH214693   3.498   2.021   2.398
 4896TIP3    H114694   3.459   2.026   2.485
 4896TIP3    H214695   3.433   1.977   2.344
 4897TIP3   OH214696   5.852   3.072   1.308
 4897TIP3    H114697   5.801   3.152   1.322
 4897TIP3    H214698   5.928   3.101   1.257
 4898TIP3   OH214699   4.380   4.450   3.311
 4898TIP3    H114700   4.460   4.455   3.363
 4898TIP3    H214701   4.356   4.542   3.295
 4899TIP3   OH214702   6.256   5.841   0.033
 4899TIP3    H114703   6.163   5.823   0.017
 4899TIP3    H214704   6.291   5.865  -0.052
 4900TIP3   OH214705   5.590   0.148   3.160
 4900TIP3    H114706   5.645   0.217   3.197
 4900TIP3    H214707   5.502   0.185   3.157
 4901TIP3   OH214708   3.293   0.441   1.664
 4901TIP3    H114709   3.298   0.347   1.645
 4901TIP3    H214710   3.271   0.481   1.580
 4902TIP3   OH214711   2.199   2.532   1.767
 4902TIP3    H114712   2.196   2.544   1.672
 4902TIP3    H214713   2.121   2.576   1.799
 4903TIP3   OH214714   3.866   5.221   1.558
 4903TIP3    H114715   3.875   5.177   1.474
 4903TIP3    H214716   3.874   5.314   1.538
 4904TIP3   OH214717   5.381   1.669   2.520
 4904TIP3    H114718   5.375   1.602   2.588
 4904TIP3    H214719   5.335   1.744   2.557
 4905TIP3   OH214720   2.857   5.380   0.307
 4905TIP3    H114721   2.936   5.366   0.253
 4905TIP3    H214722   2.797   5.425   0.248
 4906TIP3   OH214723   3.680   2.699   0.209
 4906TIP3    H114724   3.593   2.735   0.191
 4906TIP3    H214725   3.664   2.608   0.236
 4907TIP3   OH214726   4.823   0.521   0.341
 4907TIP3    H114727   4.776   0.452   0.294
 4907TIP3    H214728   4.913   0.487   0.348
 4908TIP3   OH214729   4.722   3.953   3.203
 4908TIP3    H114730   4.680   4.033   3.235
 4908TIP3    H214731   4.798   3.984   3.154
 4909TIP3   OH214732   6.303   4.697   3.714
 4909TIP3    H114733   6.388   4.691   3.671
 4909TIP3    H214734   6.270   4.784   3.690
 4910TIP3   OH214735   3.246   5.332   1.240
 4910TIP3    H114736   3.179   5.400   1.235
 4910TIP3    H214737   3.328   5.380   1.247
 4911TIP3   OH214738   4.329   0.635   0.975
 4911TIP3    H114739   4.354   0.640   1.067
 4911TIP3    H214740   4.367   0.552   0.944
 4912TIP3   OH214741   3.033   4.235   0.467
 4912TIP3    H114742   3.038   4.241   0.563
 4912TIP3    H214743   3.093   4.303   0.436
 4913TIP3   OH214744   3.938   0.964   5.137
 4913TIP3    H114745   3.892   0.880   5.141
 4913TIP3    H214746   3.975   0.967   5.049
 4914TIP3   OH214747   5.261   2.213   3.308
 4914TIP3    H114748   5.302   2.298   3.291
 4914TIP3    H214749   5.328   2.149   3.283
 4915TIP3   OH214750   6.187   0.642   3.333
 4915TIP3    H114751   6.216   0.573   3.274
 4915TIP3    H214752   6.146   0.707   3.277
 4916TIP3   OH214753   2.651   3.929   4.771
 4916TIP3    H114754   2.563   3.896   4.786
 4916TIP3    H214755   2.643   3.990   4.698
 4917TIP3   OH214756   2.491   3.080   2.040
 4917TIP3    H114757   2.427   3.066   1.970
 4917TIP3    H214758   2.491   2.997   2.089
 4918TIP3   OH214759   5.397   3.699   3.609
 4918TIP3    H114760   5.362   3.610   3.615
 4918TIP3    H214761   5.350   3.748   3.677
 4919TIP3   OH214762   3.735   2.569   2.108
 4919TIP3    H114763   3.805   2.632   2.095
 4919TIP3    H214764   3.734   2.517   2.027
 4920TIP3   OH214765   1.813   3.366   0.791
 4920TIP3    H114766   1.736   3.421   0.805
 4920TIP3    H214767   1.884   3.412   0.835
 4921TIP3   OH214768   1.603   3.388   2.494
 4921TIP3    H114769   1.636   3.354   2.577
 4921TIP3    H214770   1.677   3.435   2.456
 4922TIP3   OH214771   5.685   2.395   4.988
 4922TIP3    H114772   5.631   2.452   5.044
 4922TIP3    H214773   5.696   2.315   5.039
 4923TIP3   OH214774   3.471   5.496   3.670
 4923TIP3    H114775   3.412   5.426   3.699
 4923TIP3    H214776   3.491   5.545   3.749
 4924TIP3   OH214777   2.371   1.687   2.553
 4924TIP3    H114778   2.296   1.711   2.499
 4924TIP3    H214779   2.447   1.721   2.505
 4925TIP3   OH214780   1.853   1.568   4.817
 4925TIP3    H114781   1.947   1.579   4.803
 4925TIP3    H214782   1.841   1.585   4.910
 4926TIP3   OH214783   1.723   3.425   4.114
 4926TIP3    H114784   1.751   3.446   4.025
 4926TIP3    H214785   1.740   3.505   4.164
 4927TIP3   OH214786   5.093   2.519   3.466
 4927TIP3    H114787   5.064   2.429   3.460
 4927TIP3    H214788   5.101   2.549   3.375
 4928TIP3   OH214789   1.620   2.699   2.082
 4928TIP3    H114790   1.620   2.745   1.998
 4928TIP3    H214791   1.707   2.660   2.087
 4929TIP3   OH214792   4.235   2.163   4.839
 4929TIP3    H114793   4.279   2.237   4.881
 4929TIP3    H214794   4.306   2.113   4.799
 4930TIP3   OH214795   5.272   0.881   1.301
 4930TIP3    H114796   5.281   0.967   1.261
 4930TIP3    H214797   5.205   0.893   1.369
 4931TIP3   OH214798   1.831   1.157   2.958
 4931TIP3    H114799   1.863   1.237   2.917
 4931TIP3    H214800   1.838   1.090   2.890
 4932TIP3   OH214801   2.997   5.552   2.016
 4932TIP3    H114802   3.018   5.566   2.108
 4932TIP3    H214803   2.968   5.638   1.985
 4933TIP3   OH214804   6.298   4.427   4.008
 4933TIP3    H114805   6.357   4.470   4.069
 4933TIP3    H214806   6.270   4.348   4.053
 4934TIP3   OH214807   5.461   2.034   3.320
 4934TIP3    H114808   5.428   1.945   3.321
 4934TIP3    H214809   5.555   2.025   3.339
 4935TIP3   OH214810   5.192   5.497   4.495
 4935TIP3    H114811   5.162   5.434   4.429
 4935TIP3    H214812   5.112   5.527   4.539
 4936TIP3   OH214813   5.289   3.413   4.026
 4936TIP3    H114814   5.366   3.355   4.022
 4936TIP3    H214815   5.237   3.387   3.950
 4937TIP3   OH214816   0.322   3.115   4.161
 4937TIP3    H114817   0.255   3.184   4.161
 4937TIP3    H214818   0.390   3.146   4.220
 4938TIP3   OH214819   5.354   5.704   2.584
 4938TIP3    H114820   5.445   5.729   2.571
 4938TIP3    H214821   5.308   5.740   2.509
 4939TIP3   OH214822   6.029   1.984   4.377
 4939TIP3    H114823   6.076   2.030   4.447
 4939TIP3    H214824   5.946   1.959   4.416
 4940TIP3   OH214825   4.346   2.406   0.581
 4940TIP3    H114826   4.390   2.355   0.650
 4940TIP3    H214827   4.382   2.494   0.590
 4941TIP3   OH214828   0.484   5.720   0.976
 4941TIP3    H114829   0.538   5.716   0.896
 4941TIP3    H214830   0.533   5.668   1.040
 4942TIP3   OH214831   2.668   5.320   2.375
 4942TIP3    H114832   2.710   5.360   2.451
 4942TIP3    H214833   2.606   5.257   2.412
 4943TIP3   OH214834   2.586   4.948   0.605
 4943TIP3    H114835   2.542   5.003   0.540
 4943TIP3    H214836   2.531   4.870   0.611
 4944TIP3   OH214837   3.484   3.988   2.654
 4944TIP3    H114838   3.432   3.950   2.583
 4944TIP3    H214839   3.536   4.057   2.613
 4945TIP3   OH214840   4.377   3.222   3.234
 4945TIP3    H114841   4.285   3.242   3.220
 4945TIP3    H214842   4.397   3.154   3.168
 4946TIP3   OH214843   3.357   5.334   4.602
 4946TIP3    H114844   3.298   5.359   4.673
 4946TIP3    H214845   3.316   5.256   4.564
 4947TIP3   OH214846   0.131   0.679   2.205
 4947TIP3    H114847   0.065   0.747   2.219
 4947TIP3    H214848   0.211   0.727   2.183
 4948TIP3   OH214849   2.002   0.306   5.039
 4948TIP3    H114850   1.996   0.385   4.986
 4948TIP3    H214851   2.045   0.242   4.982
 4949TIP3   OH214852   2.948   5.964   1.243
 4949TIP3    H114853   2.910   6.042   1.285
 4949TIP3    H214854   2.961   5.902   1.315
 4950TIP3   OH214855   3.078   0.283   2.086
 4950TIP3    H114856   3.024   0.288   2.164
 4950TIP3    H214857   3.068   0.368   2.044
 4951TIP3   OH214858   2.685   3.074   2.871
 4951TIP3    H114859   2.597   3.095   2.902
 4951TIP3    H214860   2.673   3.058   2.777
 4952TIP3   OH214861   6.230   1.320   5.185
 4952TIP3    H114862   6.252   1.260   5.114
 4952TIP3    H214863   6.199   1.263   5.255
 4953TIP3   OH214864   0.835   0.930   1.660
 4953TIP3    H114865   0.898   0.923   1.732
 4953TIP3    H214866   0.843   0.848   1.613
 4954TIP3   OH214867   1.952   5.667   4.436
 4954TIP3    H114868   1.982   5.642   4.349
 4954TIP3    H214869   1.928   5.584   4.477
 4955TIP3   OH214870   5.516   1.577   4.231
 4955TIP3    H114871   5.578   1.649   4.238
 4955TIP3    H214872   5.555   1.507   4.284
 4956TIP3   OH214873   6.270   3.017   3.063
 4956TIP3    H114874   6.246   3.062   3.143
 4956TIP3    H214875   6.187   3.006   3.016
 4957TIP3   OH214876   0.333   1.206   2.751
 4957TIP3    H114877   0.328   1.246   2.665
 4957TIP3    H214878   0.411   1.244   2.791
 4958TIP3   OH214879   4.552   5.793   3.681
 4958TIP3    H114880   4.626   5.849   3.705
 4958TIP3    H214881   4.584   5.741   3.607
 4959TIP3   OH214882   2.757   5.127   1.990
 4959TIP3    H114883   2.678   5.177   2.010
 4959TIP3    H214884   2.803   5.119   2.074
 4960TIP3   OH214885   1.461   0.804   1.073
 4960TIP3    H114886   1.390   0.775   1.016
 4960TIP3    H214887   1.453   0.900   1.074
 4961TIP3   OH214888   0.158   4.944   4.278
 4961TIP3    H114889   0.156   4.925   4.184
 4961TIP3    H214890   0.244   4.982   4.293
 4962TIP3   OH214891   4.914   4.355   1.868
 4962TIP3    H114892   4.885   4.318   1.951
 4962TIP3    H214893   4.966   4.286   1.827
 4963TIP3   OH214894   4.215   3.543   4.058
 4963TIP3    H114895   4.274   3.578   4.124
 4963TIP3    H214896   4.273   3.518   3.986
 4964TIP3   OH214897   6.355   4.349   2.228
 4964TIP3    H114898   6.302   4.422   2.196
 4964TIP3    H214899   6.313   4.323   2.310
 4965TIP3   OH214900   3.025   4.215   4.439
 4965TIP3    H114901   3.036   4.203   4.533
 4965TIP3    H214902   3.071   4.140   4.400
 4966TIP3   OH214903   5.442   4.317   2.582
 4966TIP3    H114904   5.520   4.342   2.631
 4966TIP3    H214905   5.379   4.387   2.600
 4967TIP3   OH214906   1.510   0.470   3.996
 4967TIP3    H114907   1.494   0.430   4.081
 4967TIP3    H214908   1.422   0.489   3.961
 4968TIP3   OH214909   2.350   0.483   3.415
 4968TIP3    H114910   2.395   0.517   3.493
 4968TIP3    H214911   2.302   0.559   3.381
 4969TIP3   OH214912   5.678   2.363   2.247
 4969TIP3    H114913   5.601   2.348   2.192
 4969TIP3    H214914   5.707   2.276   2.274
 4970TIP3   OH214915   5.459   5.893   1.040
 4970TIP3    H114916   5.415   5.823   1.089
 4970TIP3    H214917   5.427   5.974   1.078
 4971TIP3   OH214918   0.116   4.617   1.603
 4971TIP3    H114919   0.140   4.525   1.594
 4971TIP3    H214920   0.189   4.665   1.564
 4972TIP3   OH214921   2.407   5.182   0.212
 4972TIP3    H114922   2.457   5.127   0.152
 4972TIP3    H214923   2.325   5.134   0.226
 4973TIP3   OH214924   2.822   0.569   0.471
 4973TIP3    H114925   2.855   0.499   0.527
 4973TIP3    H214926   2.733   0.586   0.504
 4974TIP3   OH214927   0.901   0.301  -0.007
 4974TIP3    H114928   0.917   0.244   0.068
 4974TIP3    H214929   0.814   0.276  -0.038
 4975TIP3   OH214930   3.291   5.324   3.762
 4975TIP3    H114931   3.267   5.273   3.839
 4975TIP3    H214932   3.212   5.328   3.710
 4976TIP3   OH214933   5.595   1.733   2.813
 4976TIP3    H114934   5.649   1.732   2.734
 4976TIP3    H214935   5.516   1.780   2.787
 4977TIP3   OH214936   2.882   5.141   2.852
 4977TIP3    H114937   2.937   5.138   2.931
 4977TIP3    H214938   2.794   5.125   2.884
 4978TIP3   OH214939   1.642   1.091   1.407
 4978TIP3    H114940   1.654   1.053   1.494
 4978TIP3    H214941   1.631   1.015   1.349
 4979TIP3   OH214942   3.290   0.186   1.577
 4979TIP3    H114943   3.216   0.126   1.581
 4979TIP3    H214944   3.345   0.162   1.652
 4980TIP3   OH214945   4.354   0.084   0.785
 4980TIP3    H114946   4.408   0.160   0.760
 4980TIP3    H214947   4.409   0.036   0.847
 4981TIP3   OH214948   5.868   2.663   3.630
 4981TIP3    H114949   5.888   2.634   3.719
 4981TIP3    H214950   5.932   2.732   3.612
 4982TIP3   OH214951   4.922   2.361   2.819
 4982TIP3    H114952   4.877   2.362   2.734
 4982TIP3    H214953   4.922   2.269   2.845
 4983TIP3   OH214954   2.048   2.562   2.988
 4983TIP3    H114955   1.997   2.625   3.039
 4983TIP3    H214956   2.106   2.521   3.052
 4984TIP3   OH214957   2.593   4.417   3.718
 4984TIP3    H114958   2.522   4.388   3.775
 4984TIP3    H214959   2.672   4.406   3.770
 4985TIP3   OH214960   0.389   3.126   1.642
 4985TIP3    H114961   0.352   3.212   1.664
 4985TIP3    H214962   0.439   3.141   1.561
 4986TIP3   OH214963   1.770   4.478   0.726
 4986TIP3    H114964   1.746   4.397   0.682
 4986TIP3    H214965   1.840   4.454   0.786
 4987TIP3   OH214966   3.198   2.712   0.696
 4987TIP3    H114967   3.131   2.747   0.754
 4987TIP3    H214968   3.152   2.692   0.615
 4988TIP3   OH214969   6.256   2.258   3.702
 4988TIP3    H114970   6.318   2.233   3.771
 4988TIP3    H214971   6.177   2.285   3.749
 4989TIP3   OH214972   0.040   2.612   1.926
 4989TIP3    H114973   0.079   2.533   1.964
 4989TIP3    H214974   0.103   2.642   1.861
 4990TIP3   OH214975   4.409   1.401   0.061
 4990TIP3    H114976   4.465   1.327   0.087
 4990TIP3    H214977   4.451   1.477   0.101
 4991TIP3   OH214978   2.719   2.302   5.086
 4991TIP3    H114979   2.637   2.257   5.107
 4991TIP3    H214980   2.780   2.272   5.154
 4992TIP3   OH214981   1.224   4.090   4.028
 4992TIP3    H114982   1.183   4.147   3.962
 4992TIP3    H214983   1.302   4.056   3.985
 4993TIP3   OH214984   0.136   5.053   0.133
 4993TIP3    H114985   0.064   5.112   0.157
 4993TIP3    H214986   0.215   5.106   0.144
 4994TIP3   OH214987   3.844   0.347   4.608
 4994TIP3    H114988   3.892   0.283   4.556
 4994TIP3    H214989   3.752   0.330   4.590
 4995TIP3   OH214990   2.894   4.215   1.088
 4995TIP3    H114991   2.856   4.155   1.023
 4995TIP3    H214992   2.921   4.158   1.160
 4996TIP3   OH214993   0.758   3.141   2.430
 4996TIP3    H114994   0.822   3.207   2.404
 4996TIP3    H214995   0.673   3.183   2.414
 4997TIP3   OH214996   0.576   1.305   2.814
 4997TIP3    H114997   0.636   1.292   2.740
 4997TIP3    H214998   0.530   1.386   2.794
 4998TIP3   OH214999   5.731   5.576   4.535
 4998TIP3    H115000   5.742   5.665   4.503
 4998TIP3    H215001   5.697   5.586   4.624
 4999TIP3   OH215002   2.573   4.938   2.176
 4999TIP3    H115003   2.658   4.925   2.219
 4999TIP3    H215004   2.564   4.862   2.119
 5000TIP3   OH215005   4.231   2.668   0.111
 5000TIP3    H115006   4.171   2.733   0.147
 5000TIP3    H215007   4.318   2.698   0.138
 5001TIP3   OH215008   0.242   3.719   5.074
 5001TIP3    H115009   0.260   3.715   4.980
 5001TIP3    H215010   0.171   3.658   5.088
 5002TIP3   OH215011   1.211   5.937   2.827
 5002TIP3    H115012   1.253   5.923   2.911
 5002TIP3    H215013   1.230   5.858   2.777
 5003TIP3   OH215014   1.363   1.671   4.391
 5003TIP3    H115015   1.304   1.599   4.370
 5003TIP3    H215016   1.450   1.636   4.373
 5004TIP3   OH215017   1.564   2.705   4.821
 5004TIP3    H115018   1.541   2.653   4.897
 5004TIP3    H215019   1.590   2.642   4.754
 5005TIP3   OH215020   5.695   2.293   3.513
 5005TIP3    H115021   5.652   2.273   3.597
 5005TIP3    H215022   5.786   2.308   3.536
 5006TIP3   OH215023   1.702   0.249   4.439
 5006TIP3    H115024   1.677   0.289   4.523
 5006TIP3    H215025   1.797   0.262   4.433
 5007TIP3   OH215026   5.564   4.984   2.158
 5007TIP3    H115027   5.521   4.941   2.232
 5007TIP3    H215028   5.494   5.030   2.112
 5008TIP3   OH215029   4.890   4.417   5.082
 5008TIP3    H115030   4.908   4.489   5.143
 5008TIP3    H215031   4.888   4.459   4.996
 5009TIP3   OH215032   4.549   5.803   1.219
 5009TIP3    H115033   4.490   5.732   1.194
 5009TIP3    H215034   4.622   5.759   1.263
 5010TIP3   OH215035   3.155   4.768   0.852
 5010TIP3    H115036   3.112   4.772   0.937
 5010TIP3    H215037   3.222   4.700   0.862
 5011TIP3   OH215038   4.613   2.687   4.680
 5011TIP3    H115039   4.524   2.724   4.685
 5011TIP3    H215040   4.667   2.750   4.727
 5012TIP3   OH215041   2.757   4.779   4.529
 5012TIP3    H115042   2.755   4.770   4.624
 5012TIP3    H215043   2.681   4.729   4.498
 5013TIP3   OH215044   4.631   2.265   2.746
 5013TIP3    H115045   4.574   2.251   2.670
 5013TIP3    H215046   4.645   2.178   2.783
 5014TIP3   OH215047   2.135   2.971   2.499
 5014TIP3    H115048   2.055   2.981   2.449
 5014TIP3    H215049   2.192   3.042   2.469
 5015TIP3   OH215050   5.037   3.982   2.468
 5015TIP3    H115051   5.102   3.990   2.538
 5015TIP3    H215052   5.025   4.071   2.436
 5016TIP3   OH215053   0.007   3.463   4.780
 5016TIP3    H115054   0.077   3.524   4.758
 5016TIP3    H215055  -0.041   3.451   4.698
 5017TIP3   OH215056   2.092   3.823   4.535
 5017TIP3    H115057   2.036   3.814   4.612
 5017TIP3    H215058   2.056   3.761   4.472
 5018TIP3   OH215059   1.513   5.984   2.468
 5018TIP3    H115060   1.434   6.022   2.507
 5018TIP3    H215061   1.508   5.891   2.491
 5019TIP3   OH215062   2.519   2.957   4.724
 5019TIP3    H115063   2.564   2.933   4.643
 5019TIP3    H215064   2.545   2.890   4.787
 5020TIP3   OH215065   2.602   1.534   4.211
 5020TIP3    H115066   2.659   1.557   4.138
 5020TIP3    H215067   2.516   1.566   4.185
 5021TIP3   OH215068   6.150   3.721   3.854
 5021TIP3    H115069   6.056   3.700   3.853
 5021TIP3    H215070   6.153   3.816   3.839
 5022TIP3   OH215071   1.869   1.149   4.171
 5022TIP3    H115072   1.915   1.113   4.247
 5022TIP3    H215073   1.930   1.134   4.098
 5023TIP3   OH215074   2.837   5.509   4.236
 5023TIP3    H115075   2.852   5.497   4.142
 5023TIP3    H215076   2.869   5.597   4.254
 5024TIP3   OH215077   3.500   0.667   1.609
 5024TIP3    H115078   3.510   0.661   1.704
 5024TIP3    H215079   3.465   0.755   1.593
 5025TIP3   OH215080   2.349   2.272   2.430
 5025TIP3    H115081   2.411   2.340   2.406
 5025TIP3    H215082   2.399   2.212   2.486
 5026TIP3   OH215083   6.098   3.609   2.144
 5026TIP3    H115084   6.102   3.628   2.050
 5026TIP3    H215085   6.015   3.647   2.172
 5027TIP3   OH215086   2.063   4.340   1.754
 5027TIP3    H115087   2.054   4.413   1.693
 5027TIP3    H215088   2.085   4.265   1.698
 5028TIP3   OH215089   5.377   5.143   1.471
 5028TIP3    H115090   5.364   5.060   1.516
 5028TIP3    H215091   5.344   5.129   1.382
 5029TIP3   OH215092   0.642   2.132   3.528
 5029TIP3    H115093   0.641   2.216   3.574
 5029TIP3    H215094   0.722   2.134   3.476
 5030TIP3   OH215095   6.237   2.690   0.452
 5030TIP3    H115096   6.171   2.757   0.471
 5030TIP3    H215097   6.242   2.688   0.357
 5031TIP3   OH215098   5.474   2.742   0.867
 5031TIP3    H115099   5.440   2.750   0.777
 5031TIP3    H215100   5.560   2.702   0.856
 5032TIP3   OH215101   1.174   2.908   4.628
 5032TIP3    H115102   1.144   2.870   4.710
 5032TIP3    H215103   1.253   2.858   4.606
 5033TIP3   OH215104   3.654   1.479   4.221
 5033TIP3    H115105   3.597   1.402   4.228
 5033TIP3    H215106   3.726   1.451   4.165
 5034TIP3   OH215107   6.032   2.614   2.148
 5034TIP3    H115108   6.093   2.543   2.128
 5034TIP3    H215109   6.060   2.647   2.233
 5035TIP3   OH215110   1.227   3.067   2.477
 5035TIP3    H115111   1.170   3.004   2.520
 5035TIP3    H215112   1.311   3.023   2.469
 5036TIP3   OH215113   6.137   3.092   3.608
 5036TIP3    H115114   6.225   3.104   3.644
 5036TIP3    H215115   6.080   3.138   3.670
 5037TIP3   OH215116   5.730   1.138   2.019
 5037TIP3    H115117   5.740   1.044   2.034
 5037TIP3    H215118   5.806   1.161   1.965
 5038TIP3   OH215119   4.486   1.873   5.011
 5038TIP3    H115120   4.500   1.943   4.946
 5038TIP3    H215121   4.391   1.863   5.015
 5039TIP3   OH215122   3.423   0.097   0.937
 5039TIP3    H115123   3.379   0.012   0.934
 5039TIP3    H215124   3.373   0.147   1.001
 5040TIP3   OH215125   1.644   3.960   3.415
 5040TIP3    H115126   1.584   3.900   3.460
 5040TIP3    H215127   1.679   3.908   3.343
 5041TIP3   OH215128   4.548   2.481   0.205
 5041TIP3    H115129   4.580   2.392   0.213
 5041TIP3    H215130   4.516   2.487   0.115
 5042TIP3   OH215131   2.589   3.042   1.670
 5042TIP3    H115132   2.651   3.116   1.670
 5042TIP3    H215133   2.534   3.057   1.747
 5043TIP3   OH215134   1.526   5.686   0.815
 5043TIP3    H115135   1.576   5.699   0.734
 5043TIP3    H215136   1.456   5.626   0.790
 5044TIP3   OH215137   2.746   4.479   1.303
 5044TIP3    H115138   2.754   4.531   1.223
 5044TIP3    H215139   2.808   4.407   1.291
 5045TIP3   OH215140   4.082   4.262   4.541
 5045TIP3    H115141   4.026   4.187   4.563
 5045TIP3    H215142   4.147   4.264   4.611
 5046TIP3   OH215143   0.442   2.584   0.281
 5046TIP3    H115144   0.507   2.575   0.211
 5046TIP3    H215145   0.358   2.567   0.237
 5047TIP3   OH215146   2.998   4.992   3.278
 5047TIP3    H115147   3.063   4.925   3.301
 5047TIP3    H215148   2.921   4.943   3.251
 5048TIP3   OH215149   3.939   4.550   4.534
 5048TIP3    H115150   3.983   4.565   4.618
 5048TIP3    H215151   3.848   4.575   4.549
 5049TIP3   OH215152   1.774   0.594   4.669
 5049TIP3    H115153   1.764   0.528   4.739
 5049TIP3    H215154   1.862   0.577   4.634
 5050TIP3   OH215155   0.021   2.583   2.784
 5050TIP3    H115156   0.095   2.570   2.843
 5050TIP3    H215157  -0.043   2.632   2.835
 5051TIP3   OH215158   5.653   5.739   0.121
 5051TIP3    H115159   5.649   5.645   0.134
 5051TIP3    H215160   5.636   5.776   0.208
 5052TIP3   OH215161   0.824   4.579   2.936
 5052TIP3    H115162   0.851   4.596   2.845
 5052TIP3    H215163   0.847   4.487   2.951
 5053TIP3   OH215164   5.626   5.674   2.255
 5053TIP3    H115165   5.681   5.680   2.177
 5053TIP3    H215166   5.540   5.649   2.222
 5054TIP3   OH215167   2.364   4.955   4.089
 5054TIP3    H115168   2.413   5.025   4.132
 5054TIP3    H215169   2.355   4.887   4.155
 5055TIP3   OH215170   6.209   0.279   1.158
 5055TIP3    H115171   6.189   0.186   1.152
 5055TIP3    H215172   6.197   0.312   1.069
 5056TIP3   OH215173   3.307   1.036   2.671
 5056TIP3    H115174   3.240   1.070   2.730
 5056TIP3    H215175   3.260   0.974   2.615
 5057TIP3   OH215176   1.397   2.606   1.234
 5057TIP3    H115177   1.397   2.564   1.321
 5057TIP3    H215178   1.325   2.668   1.238
 5058TIP3   OH215179   5.788   3.992   3.046
 5058TIP3    H115180   5.823   3.907   3.018
 5058TIP3    H215181   5.852   4.055   3.013
 5059TIP3   OH215182   3.572   1.861   1.936
 5059TIP3    H115183   3.519   1.941   1.944
 5059TIP3    H215184   3.572   1.823   2.023
 5060TIP3   OH215185   3.767   2.453   0.039
 5060TIP3    H115186   3.834   2.389   0.063
 5060TIP3    H215187   3.689   2.426   0.089
 5061TIP3   OH215188   1.404   2.434   0.147
 5061TIP3    H115189   1.416   2.341   0.166
 5061TIP3    H215190   1.493   2.470   0.148
 5062TIP3   OH215191   3.422   0.650   1.198
 5062TIP3    H115192   3.478   0.603   1.260
 5062TIP3    H215193   3.483   0.691   1.137
 5063TIP3   OH215194   4.251   1.016   2.999
 5063TIP3    H115195   4.269   0.929   2.963
 5063TIP3    H215196   4.162   1.036   2.969
 5064TIP3   OH215197   4.819   0.918   0.170
 5064TIP3    H115198   4.804   0.827   0.196
 5064TIP3    H215199   4.808   0.918   0.075
 5065TIP3   OH215200   5.143   1.330   4.290
 5065TIP3    H115201   5.073   1.329   4.354
 5065TIP3    H215202   5.209   1.388   4.327
 5066TIP3   OH215203   4.927   1.005   2.461
 5066TIP3    H115204   4.952   1.092   2.492
 5066TIP3    H215205   4.939   0.948   2.537
 5067TIP3   OH215206   3.822   4.606   2.264
 5067TIP3    H115207   3.903   4.648   2.237
 5067TIP3    H215208   3.760   4.625   2.193
 5068TIP3   OH215209   1.735   5.154   0.197
 5068TIP3    H115210   1.822   5.184   0.224
 5068TIP3    H215211   1.730   5.178   0.104
 5069TIP3   OH215212   3.581   0.481   0.889
 5069TIP3    H115213   3.531   0.551   0.847
 5069TIP3    H215214   3.668   0.518   0.902
 5070TIP3   OH215215   4.823   5.616   0.767
 5070TIP3    H115216   4.822   5.557   0.691
 5070TIP3    H215217   4.737   5.603   0.807
 5071TIP3   OH215218   5.518   1.189   4.240
 5071TIP3    H115219   5.598   1.145   4.212
 5071TIP3    H215220   5.471   1.123   4.291
 5072TIP3   OH215221   2.109   3.004   1.624
 5072TIP3    H115222   2.156   2.958   1.554
 5072TIP3    H215223   2.022   2.962   1.626
 5073TIP3   OH215224   3.032   0.701   2.972
 5073TIP3    H115225   3.127   0.702   2.959
 5073TIP3    H215226   3.008   0.608   2.967
 5074TIP3   OH215227   2.011   1.816   0.790
 5074TIP3    H115228   2.009   1.821   0.694
 5074TIP3    H215229   2.000   1.907   0.818
 5075TIP3   OH215230   5.490   4.604   1.580
 5075TIP3    H115231   5.404   4.574   1.609
 5075TIP3    H215232   5.473   4.653   1.500
 5076TIP3   OH215233   1.037   3.418   1.238
 5076TIP3    H115234   1.091   3.395   1.314
 5076TIP3    H215235   1.053   3.511   1.224
 5077TIP3   OH215236   2.826   3.512   2.802
 5077TIP3    H115237   2.826   3.432   2.856
 5077TIP3    H215238   2.853   3.482   2.715
 5078TIP3   OH215239   0.249   5.043   2.731
 5078TIP3    H115240   0.162   5.053   2.771
 5078TIP3    H215241   0.270   4.950   2.743
 5079TIP3   OH215242   0.568   0.788   3.292
 5079TIP3    H115243   0.615   0.707   3.315
 5079TIP3    H215244   0.476   0.769   3.312
 5080TIP3   OH215245   1.316   1.436   4.581
 5080TIP3    H115246   1.405   1.461   4.606
 5080TIP3    H215247   1.325   1.397   4.494
 5081TIP3   OH215248   2.039   4.346   4.504
 5081TIP3    H115249   2.104   4.389   4.560
 5081TIP3    H215250   2.082   4.266   4.474
 5082TIP3   OH215251   2.561   5.803   4.843
 5082TIP3    H115252   2.558   5.726   4.899
 5082TIP3    H215253   2.653   5.808   4.814
 5083TIP3   OH215254   3.342   0.306   4.714
 5083TIP3    H115255   3.276   0.297   4.645
 5083TIP3    H215256   3.293   0.343   4.788
 5084TIP3   OH215257   0.564   0.775   0.671
 5084TIP3    H115258   0.478   0.769   0.712
 5084TIP3    H215259   0.625   0.751   0.741
 5085TIP3   OH215260   3.738   2.159   2.369
 5085TIP3    H115261   3.705   2.237   2.326
 5085TIP3    H215262   3.663   2.100   2.374
 5086TIP3   OH215263   3.126   1.294   4.875
 5086TIP3    H115264   3.104   1.304   4.968
 5086TIP3    H215265   3.087   1.371   4.834
 5087TIP3   OH215266   4.072   4.929   1.230
 5087TIP3    H115267   4.150   4.974   1.262
 5087TIP3    H215268   4.054   4.970   1.145
 5088TIP3   OH215269   3.653   3.864   3.580
 5088TIP3    H115270   3.627   3.772   3.567
 5088TIP3    H215271   3.723   3.860   3.645
 5089TIP3   OH215272   2.265   3.269   2.159
 5089TIP3    H115273   2.203   3.292   2.090
 5089TIP3    H215274   2.348   3.308   2.131
 5090TIP3   OH215275   5.107   2.345   4.891
 5090TIP3    H115276   5.041   2.412   4.909
 5090TIP3    H215277   5.119   2.299   4.975
 5091TIP3   OH215278   1.246   1.694   5.146
 5091TIP3    H115279   1.297   1.763   5.188
 5091TIP3    H215280   1.288   1.682   5.061
 5092TIP3   OH215281   5.329   4.474   1.338
 5092TIP3    H115282   5.253   4.473   1.396
 5092TIP3    H215283   5.334   4.384   1.304
 5093TIP3   OH215284   4.701   3.571   1.132
 5093TIP3    H115285   4.722   3.662   1.112
 5093TIP3    H215286   4.624   3.575   1.189
 5094TIP3   OH215287   2.515   3.411   2.374
 5094TIP3    H115288   2.559   3.364   2.303
 5094TIP3    H215289   2.583   3.421   2.442
 5095TIP3   OH215290   3.128   3.611   3.597
 5095TIP3    H115291   3.085   3.658   3.525
 5095TIP3    H215292   3.146   3.679   3.662
 5096TIP3   OH215293   1.874   5.599   1.997
 5096TIP3    H115294   1.965   5.592   2.025
 5096TIP3    H215295   1.877   5.593   1.902
 5097TIP3   OH215296   0.214   0.576   0.599
 5097TIP3    H115297   0.203   0.657   0.647
 5097TIP3    H215298   0.256   0.516   0.660
 5098TIP3   OH215299   0.259   1.627   2.411
 5098TIP3    H115300   0.224   1.616   2.500
 5098TIP3    H215301   0.335   1.568   2.408
 5099TIP3   OH215302   1.461   0.854   3.756
 5099TIP3    H115303   1.406   0.848   3.678
 5099TIP3    H215304   1.491   0.945   3.757
 5100TIP3   OH215305   3.881   3.706   0.053
 5100TIP3    H115306   3.945   3.772   0.079
 5100TIP3    H215307   3.887   3.703  -0.043
 5101TIP3   OH215308   4.618   1.108   1.722
 5101TIP3    H115309   4.541   1.063   1.687
 5101TIP3    H215310   4.613   1.095   1.817
 5102TIP3   OH215311   5.626   3.953   2.614
 5102TIP3    H115312   5.622   3.903   2.533
 5102TIP3    H215313   5.719   3.957   2.636
 5103TIP3   OH215314   2.501   3.352   3.138
 5103TIP3    H115315   2.407   3.340   3.129
 5103TIP3    H215316   2.526   3.291   3.207
 5104TIP3   OH215317   3.341   1.248   0.681
 5104TIP3    H115318   3.271   1.312   0.695
 5104TIP3    H215319   3.410   1.298   0.638
 5105TIP3   OH215320   5.460   1.145   5.113
 5105TIP3    H115321   5.386   1.179   5.164
 5105TIP3    H215322   5.493   1.220   5.065
 5106TIP3   OH215323   2.396   5.461   1.875
 5106TIP3    H115324   2.391   5.367   1.858
 5106TIP3    H215325   2.484   5.486   1.847
 5107TIP3   OH215326   0.261   2.687   0.591
 5107TIP3    H115327   0.291   2.755   0.652
 5107TIP3    H215328   0.317   2.612   0.609
 5108TIP3   OH215329   5.997   4.832   1.814
 5108TIP3    H115330   5.940   4.763   1.781
 5108TIP3    H215331   5.968   4.847   1.904
 5109TIP3   OH215332   2.778   0.023   3.105
 5109TIP3    H115333   2.691   0.020   3.066
 5109TIP3    H215334   2.834   0.057   3.034
 5110TIP3   OH215335   5.832   2.550   4.292
 5110TIP3    H115336   5.851   2.627   4.238
 5110TIP3    H215337   5.779   2.584   4.364
 5111TIP3   OH215338   4.014   2.290   1.026
 5111TIP3    H115339   4.014   2.384   1.011
 5111TIP3    H215340   3.946   2.276   1.093
 5112TIP3   OH215341   6.271   0.856   3.624
 5112TIP3    H115342   6.281   0.915   3.550
 5112TIP3    H215343   6.190   0.809   3.607
 5113TIP3   OH215344   5.949   5.431   3.209
 5113TIP3    H115345   5.921   5.499   3.270
 5113TIP3    H215346   6.041   5.452   3.192
 5114TIP3   OH215347   1.982   2.862   0.038
 5114TIP3    H115348   2.048   2.794   0.024
 5114TIP3    H215349   2.003   2.930  -0.027
 5115TIP3   OH215350   1.403   5.832   4.894
 5115TIP3    H115351   1.421   5.761   4.832
 5115TIP3    H215352   1.344   5.891   4.847
 5116TIP3   OH215353   2.754   4.088   4.281
 5116TIP3    H115354   2.818   4.142   4.328
 5116TIP3    H215355   2.719   4.030   4.348
 5117TIP3   OH215356   2.067   4.473   2.342
 5117TIP3    H115357   2.062   4.557   2.295
 5117TIP3    H215358   2.066   4.407   2.273
 5118TIP3   OH215359   2.762   3.597   3.361
 5118TIP3    H115360   2.691   3.607   3.424
 5118TIP3    H215361   2.745   3.512   3.319
 5119TIP3   OH215362   4.515   0.716   2.283
 5119TIP3    H115363   4.473   0.711   2.197
 5119TIP3    H215364   4.568   0.796   2.279
 5120TIP3   OH215365   2.422   0.650   1.423
 5120TIP3    H115366   2.436   0.701   1.343
 5120TIP3    H215367   2.477   0.692   1.489
 5121TIP3   OH215368   1.028   4.236   2.644
 5121TIP3    H115369   1.031   4.313   2.588
 5121TIP3    H215370   0.944   4.194   2.624
 5122TIP3   OH215371   0.353   3.868   1.984
 5122TIP3    H115372   0.414   3.825   2.044
 5122TIP3    H215373   0.325   3.798   1.925
 5123TIP3   OH215374   4.812   4.660   3.332
 5123TIP3    H115375   4.848   4.711   3.260
 5123TIP3    H215376   4.755   4.720   3.378
 5124TIP3   OH215377   4.226   3.284   5.174
 5124TIP3    H115378   4.192   3.332   5.099
 5124TIP3    H215379   4.149   3.254   5.221
 5125TIP3   OH215380   2.684   2.442   4.688
 5125TIP3    H115381   2.780   2.441   4.690
 5125TIP3    H215382   2.662   2.409   4.600
 5126TIP3   OH215383   4.798   4.909   1.430
 5126TIP3    H115384   4.890   4.897   1.406
 5126TIP3    H215385   4.749   4.880   1.353
 5127TIP3   OH215386   5.775   1.960   1.482
 5127TIP3    H115387   5.771   1.909   1.563
 5127TIP3    H215388   5.730   2.042   1.504
 5128TIP3   OH215389   5.803   3.431   4.166
 5128TIP3    H115390   5.773   3.518   4.140
 5128TIP3    H215391   5.755   3.412   4.247
 5129TIP3   OH215392   6.039   2.038   1.056
 5129TIP3    H115393   5.966   2.098   1.042
 5129TIP3    H215394   6.080   2.030   0.970
 5130TIP3   OH215395   0.036   3.244   0.984
 5130TIP3    H115396  -0.036   3.251   0.921
 5130TIP3    H215397   0.114   3.268   0.934
 5131TIP3   OH215398   2.382   2.241   0.963
 5131TIP3    H115399   2.448   2.309   0.978
 5131TIP3    H215400   2.316   2.256   1.031
 5132TIP3   OH215401   2.955   0.073   2.896
 5132TIP3    H115402   3.024   0.067   2.830
 5132TIP3    H215403   3.000   0.062   2.980
 5133TIP3   OH215404   5.978   5.147   0.755
 5133TIP3    H115405   6.070   5.122   0.762
 5133TIP3    H215406   5.971   5.230   0.801
 5134TIP3   OH215407   5.930   4.799   0.640
 5134TIP3    H115408   5.841   4.834   0.638
 5134TIP3    H215409   5.933   4.736   0.568
 5135TIP3   OH215410   3.842   4.878   4.279
 5135TIP3    H115411   3.875   4.807   4.224
 5135TIP3    H215412   3.799   4.939   4.218
 5136TIP3   OH215413   3.800   3.392   3.817
 5136TIP3    H115414   3.865   3.333   3.855
 5136TIP3    H215415   3.850   3.465   3.782
 5137TIP3   OH215416   1.429   1.226   4.010
 5137TIP3    H115417   1.416   1.131   4.004
 5137TIP3    H215418   1.501   1.244   3.951
 5138TIP3   OH215419   0.156   5.743   4.428
 5138TIP3    H115420   0.086   5.717   4.369
 5138TIP3    H215421   0.189   5.826   4.392
 5139TIP3   OH215422   1.435   2.578   3.488
 5139TIP3    H115423   1.494   2.563   3.415
 5139TIP3    H215424   1.484   2.548   3.565
 5140TIP3   OH215425   1.290   2.814   0.365
 5140TIP3    H115426   1.372   2.854   0.337
 5140TIP3    H215427   1.256   2.770   0.286
 5141TIP3   OH215428   4.154   4.262   0.437
 5141TIP3    H115429   4.105   4.343   0.418
 5141TIP3    H215430   4.091   4.208   0.484
 5142TIP3   OH215431   2.656   2.206   1.736
 5142TIP3    H115432   2.560   2.205   1.730
 5142TIP3    H215433   2.683   2.275   1.675
 5143TIP3   OH215434   3.945   5.823   3.842
 5143TIP3    H115435   3.865   5.872   3.823
 5143TIP3    H215436   3.983   5.804   3.756
 5144TIP3   OH215437   1.313   0.710   4.196
 5144TIP3    H115438   1.362   0.764   4.134
 5144TIP3    H215439   1.348   0.735   4.282
 5145TIP3   OH215440   1.782   1.329   1.624
 5145TIP3    H115441   1.687   1.334   1.622
 5145TIP3    H215442   1.803   1.247   1.579
 5146TIP3   OH215443   5.575   5.401   3.993
 5146TIP3    H115444   5.662   5.403   3.954
 5146TIP3    H215445   5.530   5.477   3.956
 5147TIP3   OH215446   4.644   1.981   2.631
 5147TIP3    H115447   4.664   1.943   2.717
 5147TIP3    H215448   4.608   1.907   2.581
 5148TIP3   OH215449   2.308   0.930   1.049
 5148TIP3    H115450   2.335   1.019   1.068
 5148TIP3    H215451   2.213   0.936   1.037
 5149TIP3   OH215452   5.317   3.966   2.049
 5149TIP3    H115453   5.412   3.963   2.057
 5149TIP3    H215454   5.286   3.898   2.109
 5150TIP3   OH215455   3.085   5.444   5.088
 5150TIP3    H115456   3.082   5.351   5.067
 5150TIP3    H215457   3.152   5.452   5.156
 5151TIP3   OH215458   4.048   4.957   2.588
 5151TIP3    H115459   4.142   4.973   2.583
 5151TIP3    H215460   4.033   4.928   2.678
 5152TIP3   OH215461   2.859   4.098   2.676
 5152TIP3    H115462   2.844   4.114   2.583
 5152TIP3    H215463   2.949   4.066   2.681
 5153TIP3   OH215464   4.384   2.237   3.558
 5153TIP3    H115465   4.316   2.217   3.623
 5153TIP3    H215466   4.336   2.260   3.479
 5154TIP3   OH215467   0.647   3.870   1.026
 5154TIP3    H115468   0.677   3.807   0.961
 5154TIP3    H215469   0.601   3.937   0.976
 5155TIP3   OH215470   1.108   4.840   2.991
 5155TIP3    H115471   1.094   4.745   2.982
 5155TIP3    H215472   1.170   4.847   3.064
 5156TIP3   OH215473   2.721   0.561   1.771
 5156TIP3    H115474   2.771   0.526   1.697
 5156TIP3    H215475   2.788   0.598   1.829
 5157TIP3   OH215476   2.834   3.067   3.824
 5157TIP3    H115477   2.854   3.082   3.916
 5157TIP3    H215478   2.787   2.983   3.823
 5158TIP3   OH215479   0.751   1.471   1.935
 5158TIP3    H115480   0.667   1.424   1.933
 5158TIP3    H215481   0.816   1.404   1.911
 5159TIP3   OH215482   1.055   0.028   1.783
 5159TIP3    H115483   1.035   0.037   1.876
 5159TIP3    H215484   1.105   0.107   1.762
 5160TIP3   OH215485   5.634   1.850   4.228
 5160TIP3    H115486   5.590   1.934   4.242
 5160TIP3    H215487   5.671   1.856   4.140
 5161TIP3   OH215488   4.708   5.564   1.919
 5161TIP3    H115489   4.650   5.531   1.851
 5161TIP3    H215490   4.701   5.659   1.913
 5162TIP3   OH215491   1.075   3.462   0.649
 5162TIP3    H115492   1.137   3.486   0.579
 5162TIP3    H215493   1.100   3.517   0.723
 5163TIP3   OH215494   2.748   2.104   0.448
 5163TIP3    H115495   2.730   2.019   0.407
 5163TIP3    H215496   2.768   2.162   0.374
 5164TIP3   OH215497   2.598   5.370   4.227
 5164TIP3    H115498   2.564   5.425   4.157
 5164TIP3    H215499   2.667   5.423   4.267
 5165TIP3   OH215500   2.662   0.781   4.874
 5165TIP3    H115501   2.691   0.727   4.947
 5165TIP3    H215502   2.686   0.731   4.796
 5166TIP3   OH215503   2.746   0.812   0.732
 5166TIP3    H115504   2.838   0.822   0.707
 5166TIP3    H215505   2.697   0.853   0.661
 5167TIP3   OH215506   2.170   5.208   3.468
 5167TIP3    H115507   2.128   5.257   3.538
 5167TIP3    H215508   2.181   5.120   3.504
 5168TIP3   OH215509   3.161   2.857   0.160
 5168TIP3    H115510   3.105   2.910   0.102
 5168TIP3    H215511   3.121   2.867   0.247
 5169TIP3   OH215512   2.321   3.819   0.318
 5169TIP3    H115513   2.401   3.864   0.345
 5169TIP3    H215514   2.322   3.822   0.223
 5170TIP3   OH215515   0.408   1.895   3.041
 5170TIP3    H115516   0.416   1.977   3.091
 5170TIP3    H215517   0.445   1.828   3.099
 5171TIP3   OH215518   3.667   2.355   3.460
 5171TIP3    H115519   3.667   2.320   3.371
 5171TIP3    H215520   3.649   2.449   3.448
 5172TIP3   OH215521   2.139   4.961   3.623
 5172TIP3    H115522   2.168   4.872   3.604
 5172TIP3    H215523   2.122   4.962   3.717
 5173TIP3   OH215524   0.317   1.558   1.387
 5173TIP3    H115525   0.304   1.519   1.300
 5173TIP3    H215526   0.408   1.585   1.388
 5174TIP3   OH215527   2.428   4.265   3.888
 5174TIP3    H115528   2.375   4.216   3.825
 5174TIP3    H215529   2.375   4.265   3.968
 5175TIP3   OH215530   0.750   3.940   3.296
 5175TIP3    H115531   0.842   3.914   3.308
 5175TIP3    H215532   0.710   3.866   3.250
 5176TIP3   OH215533   3.357   5.202   2.751
 5176TIP3    H115534   3.322   5.144   2.819
 5176TIP3    H215535   3.452   5.197   2.763
 5177TIP3   OH215536   6.252   5.285   2.040
 5177TIP3    H115537   6.290   5.220   2.100
 5177TIP3    H215538   6.174   5.242   2.005
 5178TIP3   OH215539   3.561   3.505   2.910
 5178TIP3    H115540   3.567   3.596   2.882
 5178TIP3    H215541   3.526   3.509   2.999
 5179TIP3   OH215542   1.666   0.350   1.717
 5179TIP3    H115543   1.626   0.434   1.740
 5179TIP3    H215544   1.604   0.284   1.750
 5180TIP3   OH215545   2.710   3.264   0.537
 5180TIP3    H115546   2.723   3.206   0.462
 5180TIP3    H215547   2.776   3.237   0.601
 5181TIP3   OH215548   1.279  -0.018   4.596
 5181TIP3    H115549   1.361  -0.067   4.603
 5181TIP3    H215550   1.306   0.073   4.588
 5182TIP3   OH215551   3.931   1.908   1.888
 5182TIP3    H115552   3.846   1.947   1.869
 5182TIP3    H215553   3.911   1.816   1.908
 5183TIP3   OH215554   3.298   3.106   0.043
 5183TIP3    H115555   3.238   3.181   0.046
 5183TIP3    H215556   3.358   3.121   0.116
 5184TIP3   OH215557   4.776   3.732   3.464
 5184TIP3    H115558   4.774   3.637   3.468
 5184TIP3    H215559   4.835   3.752   3.392
 5185TIP3   OH215560   2.431   4.994   1.010
 5185TIP3    H115561   2.446   5.072   0.956
 5185TIP3    H215562   2.344   4.964   0.985
 5186TIP3   OH215563   3.964   3.499   2.886
 5186TIP3    H115564   3.917   3.576   2.919
 5186TIP3    H215565   3.908   3.425   2.912
 5187TIP3   OH215566   2.457   2.642   3.142
 5187TIP3    H115567   2.453   2.680   3.230
 5187TIP3    H215568   2.481   2.715   3.086
 5188TIP3   OH215569   5.322   0.603   0.714
 5188TIP3    H115570   5.263   0.658   0.662
 5188TIP3    H215571   5.409   0.637   0.695
 5189TIP3   OH215572   5.926   2.555   3.188
 5189TIP3    H115573   6.005   2.590   3.229
 5189TIP3    H215574   5.878   2.632   3.158
 5190TIP3   OH215575   1.616   0.933   0.295
 5190TIP3    H115576   1.535   0.924   0.244
 5190TIP3    H215577   1.602   1.012   0.348
 5191TIP3   OH215578   3.647   3.785   3.944
 5191TIP3    H115579   3.627   3.695   3.917
 5191TIP3    H215580   3.713   3.815   3.881
 5192TIP3   OH215581   2.814   0.792   1.393
 5192TIP3    H115582   2.838   0.706   1.358
 5192TIP3    H215583   2.744   0.774   1.456
 5193TIP3   OH215584   2.690   4.405   0.840
 5193TIP3    H115585   2.678   4.378   0.749
 5193TIP3    H215586   2.780   4.382   0.861
 5194TIP3   OH215587   5.744   3.561   5.015
 5194TIP3    H115588   5.764   3.479   4.969
 5194TIP3    H215589   5.828   3.605   5.022
 5195TIP3   OH215590   2.844   4.609   4.734
 5195TIP3    H115591   2.842   4.514   4.724
 5195TIP3    H215592   2.833   4.624   4.828
 5196TIP3   OH215593   4.901   4.095   4.214
 5196TIP3    H115594   4.860   4.091   4.128
 5196TIP3    H215595   4.840   4.049   4.272
 5197TIP3   OH215596   4.230   3.223   0.725
 5197TIP3    H115597   4.186   3.306   0.707
 5197TIP3    H215598   4.291   3.243   0.795
 5198TIP3   OH215599   5.515   4.041   3.090
 5198TIP3    H115600   5.478   4.017   3.005
 5198TIP3    H215601   5.607   4.013   3.085
 5199TIP3   OH215602   4.285   4.383   1.320
 5199TIP3    H115603   4.275   4.421   1.233
 5199TIP3    H215604   4.354   4.435   1.362
 5200TIP3   OH215605   1.280   2.459   4.136
 5200TIP3    H115606   1.312   2.381   4.091
 5200TIP3    H215607   1.207   2.489   4.083
 5201TIP3   OH215608   1.941   5.697   3.977
 5201TIP3    H115609   2.011   5.691   3.912
 5201TIP3    H215610   1.922   5.790   3.984
 5202TIP3   OH215611   6.242   4.586   1.438
 5202TIP3    H115612   6.179   4.657   1.449
 5202TIP3    H215613   6.306   4.600   1.507
 5203TIP3   OH215614   0.440   4.342   0.319
 5203TIP3    H115615   0.384   4.275   0.358
 5203TIP3    H215616   0.404   4.354   0.231
 5204TIP3   OH215617   5.218   0.046   3.939
 5204TIP3    H115618   5.228   0.139   3.922
 5204TIP3    H215619   5.246   0.004   3.857
 5205TIP3   OH215620   3.578   1.580   1.455
 5205TIP3    H115621   3.658   1.591   1.403
 5205TIP3    H215622   3.610   1.566   1.544
 5206TIP3   OH215623   3.995   4.940   4.046
 5206TIP3    H115624   3.972   5.026   4.082
 5206TIP3    H215625   4.086   4.926   4.072
 5207TIP3   OH215626   1.538   4.709   3.762
 5207TIP3    H115627   1.589   4.637   3.800
 5207TIP3    H215628   1.602   4.759   3.711
 5208TIP3   OH215629   4.939   2.618   0.804
 5208TIP3    H115630   4.930   2.658   0.890
 5208TIP3    H215631   4.952   2.691   0.744
 5209TIP3   OH215632   0.208   1.760   0.270
 5209TIP3    H115633   0.277   1.721   0.324
 5209TIP3    H215634   0.255   1.814   0.206
 5210TIP3   OH215635   3.558   5.286   3.886
 5210TIP3    H115636   3.512   5.264   3.805
 5210TIP3    H215637   3.505   5.247   3.955
 5211TIP3   OH215638   3.580   5.713   1.692
 5211TIP3    H115639   3.592   5.805   1.666
 5211TIP3    H215640   3.499   5.713   1.743
 5212TIP3   OH215641   2.331   1.619   5.186
 5212TIP3    H115642   2.353   1.669   5.107
 5212TIP3    H215643   2.236   1.627   5.194
 5213TIP3   OH215644   4.267   3.298   4.306
 5213TIP3    H115645   4.240   3.371   4.362
 5213TIP3    H215646   4.338   3.256   4.353
 5214TIP3   OH215647   0.651   1.295   2.164
 5214TIP3    H115648   0.590   1.265   2.232
 5214TIP3    H215649   0.603   1.283   2.082
 5215TIP3   OH215650   5.578   4.952   4.717
 5215TIP3    H115651   5.655   4.900   4.696
 5215TIP3    H215652   5.591   4.978   4.809
 5216TIP3   OH215653   4.888   5.450   0.287
 5216TIP3    H115654   4.813   5.417   0.238
 5216TIP3    H215655   4.954   5.468   0.220
 5217TIP3   OH215656   1.775   0.111   2.732
 5217TIP3    H115657   1.697   0.154   2.698
 5217TIP3    H215658   1.831   0.099   2.655
 5218TIP3   OH215659   4.687   1.355   2.923
 5218TIP3    H115660   4.612   1.348   2.864
 5218TIP3    H215661   4.695   1.448   2.940
 5219TIP3   OH215662   1.241   2.521   4.755
 5219TIP3    H115663   1.287   2.598   4.723
 5219TIP3    H215664   1.226   2.468   4.676
 5220TIP3   OH215665   4.018   2.674   0.541
 5220TIP3    H115666   4.071   2.752   0.524
 5220TIP3    H215667   3.932   2.695   0.505
 5221TIP3   OH215668   1.450   5.639   3.874
 5221TIP3    H115669   1.529   5.692   3.880
 5221TIP3    H215670   1.396   5.667   3.948
 5222TIP3   OH215671   1.844   4.608   2.436
 5222TIP3    H115672   1.761   4.564   2.422
 5222TIP3    H215673   1.910   4.544   2.411
 5223TIP3   OH215674   3.549   4.563   3.659
 5223TIP3    H115675   3.629   4.615   3.646
 5223TIP3    H215676   3.522   4.539   3.570
 5224TIP3   OH215677   6.252   5.511   5.080
 5224TIP3    H115678   6.267   5.573   5.008
 5224TIP3    H215679   6.286   5.555   5.157
 5225TIP3   OH215680   4.942   2.924   0.923
 5225TIP3    H115681   4.922   2.989   0.990
 5225TIP3    H215682   5.036   2.910   0.931
 5226TIP3   OH215683   3.413   3.382   2.680
 5226TIP3    H115684   3.476   3.407   2.748
 5226TIP3    H215685   3.423   3.287   2.672
 5227TIP3   OH215686   5.602   2.027   1.228
 5227TIP3    H115687   5.648   1.997   1.150
 5227TIP3    H215688   5.672   2.039   1.294
 5228TIP3   OH215689   3.108   5.436   3.580
 5228TIP3    H115690   3.062   5.368   3.630
 5228TIP3    H215691   3.124   5.396   3.494
 5229TIP3   OH215692   0.262   5.873   2.434
 5229TIP3    H115693   0.227   5.901   2.349
 5229TIP3    H215694   0.325   5.804   2.413
 5230TIP3   OH215695   5.844   0.989   4.799
 5230TIP3    H115696   5.885   1.013   4.716
 5230TIP3    H215697   5.751   0.984   4.779
 5231TIP3   OH215698   1.225   5.789   4.014
 5231TIP3    H115699   1.272   5.858   4.060
 5231TIP3    H215700   1.172   5.835   3.949
 5232TIP3   OH215701   4.996   0.389   3.439
 5232TIP3    H115702   5.026   0.310   3.483
 5232TIP3    H215703   4.951   0.439   3.507
 5233TIP3   OH215704   6.014   2.445   4.936
 5233TIP3    H115705   5.963   2.464   4.857
 5233TIP3    H215706   6.015   2.527   4.984
 5234TIP3   OH215707   2.080   4.774   1.320
 5234TIP3    H115708   2.154   4.767   1.260
 5234TIP3    H215709   2.012   4.719   1.281
 5235TIP3   OH215710   4.125   0.902   1.608
 5235TIP3    H115711   4.094   0.930   1.521
 5235TIP3    H215712   4.092   0.969   1.668
 5236TIP3   OH215713   4.792   4.821   2.526
 5236TIP3    H115714   4.788   4.735   2.483
 5236TIP3    H215715   4.828   4.879   2.459
 5237TIP3   OH215716   0.309   1.458   1.135
 5237TIP3    H115717   0.306   1.407   1.054
 5237TIP3    H215718   0.287   1.548   1.107
 5238TIP3   OH215719   5.749   4.710   1.697
 5238TIP3    H115720   5.667   4.691   1.651
 5238TIP3    H215721   5.799   4.629   1.692
 5239TIP3   OH215722   1.200   3.114   0.471
 5239TIP3    H115723   1.223   3.126   0.379
 5239TIP3    H215724   1.171   3.023   0.477
 5240TIP3   OH215725   4.634   2.477   2.349
 5240TIP3    H115726   4.696   2.481   2.276
 5240TIP3    H215727   4.688   2.489   2.427
 5241TIP3   OH215728   3.429   5.839   3.156
 5241TIP3    H115729   3.473   5.916   3.193
 5241TIP3    H215730   3.366   5.813   3.222
 5242TIP3   OH215731   2.302   5.404   2.525
 5242TIP3    H115732   2.284   5.435   2.436
 5242TIP3    H215733   2.368   5.335   2.513
 5243TIP3   OH215734   4.065   5.492   3.664
 5243TIP3    H115735   4.157   5.504   3.640
 5243TIP3    H215736   4.067   5.465   3.755
 5244TIP3   OH215737   3.482   4.005   0.724
 5244TIP3    H115738   3.538   3.933   0.751
 5244TIP3    H215739   3.418   3.965   0.664
 5245TIP3   OH215740   0.903   4.467   0.996
 5245TIP3    H115741   0.808   4.470   0.982
 5245TIP3    H215742   0.940   4.484   0.909
 5246TIP3   OH215743   1.673   0.888   1.896
 5246TIP3    H115744   1.580   0.911   1.901
 5246TIP3    H215745   1.686   0.822   1.964
 5247TIP3   OH215746   1.415   4.029   2.397
 5247TIP3    H115747   1.507   4.047   2.420
 5247TIP3    H215748   1.370   4.112   2.415
 5248TIP3   OH215749   4.798   0.770   3.122
 5248TIP3    H115750   4.842   0.708   3.180
 5248TIP3    H215751   4.756   0.833   3.181
 5249TIP3   OH215752   3.444   3.817   0.212
 5249TIP3    H115753   3.369   3.853   0.165
 5249TIP3    H215754   3.413   3.810   0.303
 5250TIP3   OH215755   5.218   5.772   4.350
 5250TIP3    H115756   5.265   5.783   4.267
 5250TIP3    H215757   5.138   5.822   4.339
 5251TIP3   OH215758   2.744   5.026   4.744
 5251TIP3    H115759   2.814   4.996   4.803
 5251TIP3    H215760   2.689   5.081   4.800
 5252TIP3   OH215761   2.869   5.886   0.783
 5252TIP3    H115762   2.789   5.928   0.815
 5252TIP3    H215763   2.919   5.957   0.744
 5253TIP3   OH215764   4.365   0.964   4.111
 5253TIP3    H115765   4.374   0.869   4.102
 5253TIP3    H215766   4.276   0.976   4.144
 5254TIP3   OH215767   4.260   4.806   4.513
 5254TIP3    H115768   4.335   4.865   4.510
 5254TIP3    H215769   4.202   4.837   4.444
 5255TIP3   OH215770   1.996   5.215   0.273
 5255TIP3    H115771   2.015   5.148   0.207
 5255TIP3    H215772   2.038   5.294   0.239
 5256TIP3   OH215773   3.601   2.422   0.268
 5256TIP3    H115774   3.544   2.370   0.324
 5256TIP3    H215775   3.682   2.431   0.317
 5257TIP3   OH215776   5.693   5.852   3.257
 5257TIP3    H115777   5.695   5.852   3.161
 5257TIP3    H215778   5.643   5.774   3.280
 5258TIP3   OH215779   3.047   5.187   0.816
 5258TIP3    H115780   3.114   5.134   0.774
 5258TIP3    H215781   2.995   5.125   0.866
 5259TIP3   OH215782   4.082   1.335   5.079
 5259TIP3    H115783   4.033   1.369   5.004
 5259TIP3    H215784   4.088   1.409   5.139
 5260TIP3   OH215785   0.756   4.582   2.636
 5260TIP3    H115786   0.679   4.604   2.583
 5260TIP3    H215787   0.765   4.487   2.627
 5261TIP3   OH215788   3.258   5.081   1.337
 5261TIP3    H115789   3.286   5.168   1.309
 5261TIP3    H215790   3.292   5.073   1.426
 5262TIP3   OH215791   2.251   4.198   1.020
 5262TIP3    H115792   2.326   4.185   0.962
 5262TIP3    H215793   2.288   4.202   1.108
 5263TIP3   OH215794   3.006   0.555   2.575
 5263TIP3    H115795   3.006   0.474   2.626
 5263TIP3    H215796   3.053   0.618   2.629
 5264TIP3   OH215797   1.701   0.418   2.101
 5264TIP3    H115798   1.691   0.337   2.151
 5264TIP3    H215799   1.718   0.485   2.167
 5265TIP3   OH215800   1.219   2.406   3.524
 5265TIP3    H115801   1.170   2.423   3.605
 5265TIP3    H215802   1.281   2.478   3.517
 5266TIP3   OH215803   1.858   4.795   0.286
 5266TIP3    H115804   1.886   4.704   0.288
 5266TIP3    H215805   1.905   4.837   0.358
 5267TIP3   OH215806   1.548   3.370   3.835
 5267TIP3    H115807   1.597   3.402   3.759
 5267TIP3    H215808   1.506   3.290   3.805
 5268TIP3   OH215809   1.350   2.141   4.432
 5268TIP3    H115810   1.262   2.132   4.396
 5268TIP3    H215811   1.383   2.051   4.436
 5269TIP3   OH215812   4.159   3.405   2.650
 5269TIP3    H115813   4.071   3.380   2.676
 5269TIP3    H215814   4.153   3.497   2.624
 5270TIP3   OH215815   2.394   0.547   1.087
 5270TIP3    H115816   2.353   0.543   1.001
 5270TIP3    H215817   2.424   0.457   1.104
 5271TIP3   OH215818   2.582   2.786   4.989
 5271TIP3    H115819   2.641   2.752   5.057
 5271TIP3    H215820   2.611   2.744   4.908
 5272TIP3   OH215821   3.911   2.938   1.447
 5272TIP3    H115822   3.963   3.018   1.436
 5272TIP3    H215823   3.934   2.885   1.371
 5273TIP3   OH215824   2.034   3.807   1.353
 5273TIP3    H115825   2.012   3.794   1.445
 5273TIP3    H215826   2.114   3.860   1.355
 5274TIP3   OH215827   1.946   1.546   4.022
 5274TIP3    H115828   1.918   1.463   3.982
 5274TIP3    H215829   1.910   1.614   3.964
 5275TIP3   OH215830   0.380   4.520   3.058
 5275TIP3    H115831   0.438   4.541   2.986
 5275TIP3    H215832   0.406   4.579   3.129
 5276TIP3   OH215833   1.743   3.898   0.149
 5276TIP3    H115834   1.722   3.827   0.210
 5276TIP3    H215835   1.717   3.864   0.063
 5277TIP3   OH215836   4.146   5.884   0.774
 5277TIP3    H115837   4.121   5.850   0.689
 5277TIP3    H215838   4.116   5.817   0.836
 5278TIP3   OH215839   4.030   1.291   3.407
 5278TIP3    H115840   3.958   1.249   3.454
 5278TIP3    H215841   3.990   1.368   3.367
 5279TIP3   OH215842   0.387   0.554   1.647
 5279TIP3    H115843   0.409   0.551   1.554
 5279TIP3    H215844   0.436   0.480   1.685
 5280TIP3   OH215845   4.870   3.990   0.125
 5280TIP3    H115846   4.811   3.914   0.128
 5280TIP3    H215847   4.950   3.956   0.087
 5281TIP3   OH215848   4.648   3.773   1.666
 5281TIP3    H115849   4.618   3.796   1.579
 5281TIP3    H215850   4.570   3.779   1.721
 5282TIP3   OH215851   1.693   4.163   3.934
 5282TIP3    H115852   1.706   4.200   4.022
 5282TIP3    H215853   1.779   4.168   3.893
 5283TIP3   OH215854   4.940   5.177   0.130
 5283TIP3    H115855   4.859   5.209   0.168
 5283TIP3    H215856   4.972   5.111   0.192
 5284TIP3   OH215857   4.452   3.682   4.465
 5284TIP3    H115858   4.456   3.596   4.507
 5284TIP3    H215859   4.423   3.742   4.534
 5285TIP3   OH215860   3.875   5.066   0.453
 5285TIP3    H115861   3.884   5.131   0.383
 5285TIP3    H215862   3.935   5.096   0.521
 5286TIP3   OH215863   2.228   4.152   0.700
 5286TIP3    H115864   2.261   4.241   0.714
 5286TIP3    H215865   2.246   4.107   0.783
 5287TIP3   OH215866   1.386   0.875   0.700
 5287TIP3    H115867   1.402   0.952   0.755
 5287TIP3    H215868   1.292   0.859   0.710
 5288TIP3   OH215869   4.389   3.566   4.877
 5288TIP3    H115870   4.396   3.643   4.934
 5288TIP3    H215871   4.315   3.586   4.820
 5289TIP3   OH215872   3.574   5.288   4.873
 5289TIP3    H115873   3.626   5.272   4.951
 5289TIP3    H215874   3.484   5.265   4.898
 5290TIP3   OH215875   1.438   3.256   4.453
 5290TIP3    H115876   1.487   3.192   4.505
 5290TIP3    H215877   1.468   3.242   4.363
 5291TIP3   OH215878   5.367   2.843   2.623
 5291TIP3    H115879   5.391   2.782   2.553
 5291TIP3    H215880   5.425   2.918   2.610
 5292TIP3   OH215881   3.305   1.362   1.541
 5292TIP3    H115882   3.285   1.456   1.545
 5292TIP3    H215883   3.232   1.325   1.491
 5293TIP3   OH215884   3.018   1.532   2.687
 5293TIP3    H115885   2.950   1.595   2.707
 5293TIP3    H215886   2.971   1.455   2.656
 5294TIP3   OH215887   2.741   3.138   2.522
 5294TIP3    H115888   2.820   3.183   2.494
 5294TIP3    H215889   2.688   3.205   2.565
 5295TIP3   OH215890   2.292   4.017   4.121
 5295TIP3    H115891   2.259   4.106   4.126
 5295TIP3    H215892   2.216   3.961   4.135
 5296TIP3   OH215893   0.276   2.099   3.309
 5296TIP3    H115894   0.195   2.058   3.338
 5296TIP3    H215895   0.345   2.051   3.356
 5297TIP3   OH215896   3.481   3.228   5.141
 5297TIP3    H115897   3.569   3.192   5.154
 5297TIP3    H215898   3.449   3.246   5.230
 5298TIP3   OH215899   3.700   4.764   3.208
 5298TIP3    H115900   3.730   4.687   3.256
 5298TIP3    H215901   3.617   4.737   3.168
 5299TIP3   OH215902   5.105   5.438   2.847
 5299TIP3    H115903   5.114   5.413   2.939
 5299TIP3    H215904   5.011   5.439   2.832
 5300TIP3   OH215905   4.938   0.158   0.132
 5300TIP3    H115906   4.918   0.073   0.173
 5300TIP3    H215907   4.913   0.147   0.041
 5301TIP3   OH215908   0.231   2.085   1.042
 5301TIP3    H115909   0.211   2.177   1.023
 5301TIP3    H215910   0.230   2.042   0.957
 5302TIP3   OH215911   0.454   0.281   1.157
 5302TIP3    H115912   0.454   0.209   1.094
 5302TIP3    H215913   0.391   0.344   1.121
 5303TIP3   OH215914   3.353   3.763   4.314
 5303TIP3    H115915   3.320   3.721   4.234
 5303TIP3    H215916   3.406   3.695   4.356
 5304TIP3   OH215917   4.800   1.678   2.766
 5304TIP3    H115918   4.778   1.609   2.705
 5304TIP3    H215919   4.731   1.676   2.832
 5305TIP3   OH215920   4.710   5.005   2.066
 5305TIP3    H115921   4.627   5.045   2.038
 5305TIP3    H215922   4.684   4.928   2.116
 5306TIP3   OH215923   2.893   3.013   3.562
 5306TIP3    H115924   2.950   3.086   3.538
 5306TIP3    H215925   2.872   3.028   3.654
 5307TIP3   OH215926   1.641   0.776   0.666
 5307TIP3    H115927   1.670   0.789   0.757
 5307TIP3    H215928   1.545   0.770   0.673
 5308TIP3   OH215929   5.676   1.119   2.867
 5308TIP3    H115930   5.698   1.163   2.949
 5308TIP3    H215931   5.627   1.185   2.817
 5309TIP3   OH215932   4.099   4.953   1.850
 5309TIP3    H115933   4.115   4.985   1.761
 5309TIP3    H215934   4.140   5.018   1.906
 5310TIP3   OH215935   5.365   1.581   4.666
 5310TIP3    H115936   5.343   1.498   4.708
 5310TIP3    H215937   5.296   1.641   4.695
 5311TIP3   OH215938   2.276   2.107   1.360
 5311TIP3    H115939   2.345   2.150   1.309
 5311TIP3    H215940   2.196   2.155   1.339
 5312TIP3   OH215941   2.216   5.677   3.886
 5312TIP3    H115942   2.266   5.612   3.934
 5312TIP3    H215943   2.247   5.761   3.919
 5313TIP3   OH215944   0.208   2.670   1.680
 5313TIP3    H115945   0.231   2.763   1.686
 5313TIP3    H215946   0.220   2.648   1.588
 5314TIP3   OH215947   3.922   4.810   0.780
 5314TIP3    H115948   3.880   4.772   0.703
 5314TIP3    H215949   3.934   4.737   0.840
 5315TIP3   OH215950   5.836   0.416   2.988
 5315TIP3    H115951   5.889   0.337   2.997
 5315TIP3    H215952   5.767   0.406   3.054
 5316TIP3   OH215953   2.373   3.172   3.911
 5316TIP3    H115954   2.447   3.140   3.859
 5316TIP3    H215955   2.394   3.264   3.927
 5317TIP3   OH215956   0.086   2.118   4.895
 5317TIP3    H115957  -0.009   2.123   4.891
 5317TIP3    H215958   0.111   2.068   4.817
 5318TIP3   OH215959   2.068   1.209   2.527
 5318TIP3    H115960   2.122   1.196   2.449
 5318TIP3    H215961   2.123   1.261   2.586
 5319TIP3   OH215962   4.124   3.991   3.043
 5319TIP3    H115963   4.170   4.002   3.126
 5319TIP3    H215964   4.148   3.903   3.013
 5320TIP3   OH215965   4.183   4.254   3.771
 5320TIP3    H115966   4.166   4.348   3.771
 5320TIP3    H215967   4.158   4.225   3.859
 5321TIP3   OH215968   1.442   4.456   1.243
 5321TIP3    H115969   1.393   4.440   1.323
 5321TIP3    H215970   1.410   4.541   1.212
 5322TIP3   OH215971   1.419   2.170   5.005
 5322TIP3    H115972   1.503   2.129   5.024
 5322TIP3    H215973   1.377   2.112   4.942
 5323TIP3   OH215974   2.674   5.999   3.963
 5323TIP3    H115975   2.650   5.908   3.978
 5323TIP3    H215976   2.750   5.994   3.906
 5324TIP3   OH215977   5.118   4.092   3.771
 5324TIP3    H115978   5.195   4.073   3.825
 5324TIP3    H215979   5.145   4.068   3.682
 5325TIP3   OH215980   3.124   3.417   1.902
 5325TIP3    H115981   3.198   3.476   1.919
 5325TIP3    H215982   3.164   3.339   1.865
 5326TIP3   OH215983   3.496   2.425   3.857
 5326TIP3    H115984   3.491   2.399   3.949
 5326TIP3    H215985   3.574   2.480   3.851
 5327TIP3   OH215986   1.565   1.973   0.932
 5327TIP3    H115987   1.588   1.968   1.024
 5327TIP3    H215988   1.472   1.948   0.929
 5328TIP3   OH215989   3.238   1.912   2.296
 5328TIP3    H115990   3.194   1.863   2.365
 5328TIP3    H215991   3.213   2.003   2.311
 5329TIP3   OH215992   3.681   3.269   2.560
 5329TIP3    H115993   3.647   3.195   2.509
 5329TIP3    H215994   3.723   3.325   2.496
 5330TIP3   OH215995   4.341   1.988   2.786
 5330TIP3    H115996   4.435   1.991   2.764
 5330TIP3    H215997   4.333   2.042   2.864
 5331TIP3   OH215998   0.440   2.748   0.038
 5331TIP3    H115999   0.359   2.696   0.042
 5331TIP3    H216000   0.490   2.708  -0.033
 5332TIP3   OH216001   0.377   2.625   1.425
 5332TIP3    H116002   0.460   2.657   1.460
 5332TIP3    H216003   0.394   2.533   1.405
 5333TIP3   OH216004   2.685   0.828   4.206
 5333TIP3    H116005   2.765   0.842   4.155
 5333TIP3    H216006   2.689   0.894   4.275
 5334TIP3   OH216007   3.381   1.676   2.158
 5334TIP3    H116008   3.337   1.748   2.203
 5334TIP3    H216009   3.331   1.598   2.184
 5335TIP3   OH216010   1.871   5.553   1.298
 5335TIP3    H116011   1.932   5.488   1.333
 5335TIP3    H216012   1.785   5.515   1.312
 5336TIP3   OH216013   2.525   5.560   0.736
 5336TIP3    H116014   2.481   5.639   0.769
 5336TIP3    H216015   2.611   5.591   0.708
 5337TIP3   OH216016   2.058   1.664   1.106
 5337TIP3    H116017   2.039   1.612   1.028
 5337TIP3    H216018   2.036   1.605   1.179
 5338TIP3   OH216019   3.921   0.237   3.950
 5338TIP3    H116020   3.923   0.333   3.947
 5338TIP3    H216021   3.856   0.216   4.017
 5339TIP3   OH216022   4.712   4.862   3.915
 5339TIP3    H116023   4.697   4.840   3.823
 5339TIP3    H216024   4.779   4.801   3.944
 5340TIP3   OH216025   2.491   5.499   3.990
 5340TIP3    H116026   2.412   5.445   3.991
 5340TIP3    H216027   2.531   5.480   3.905
 5341TIP3   OH216028   0.959   0.162   3.232
 5341TIP3    H116029   0.955   0.257   3.243
 5341TIP3    H216030   0.947   0.148   3.138
 5342TIP3   OH216031   3.174   4.211   3.728
 5342TIP3    H116032   3.118   4.161   3.668
 5342TIP3    H216033   3.184   4.154   3.804
 5343TIP3   OH216034   6.262   0.793   4.328
 5343TIP3    H116035   6.304   0.736   4.263
 5343TIP3    H216036   6.178   0.816   4.289
 5344TIP3   OH216037   2.683   5.718   0.389
 5344TIP3    H116038   2.655   5.805   0.417
 5344TIP3    H216039   2.705   5.672   0.470
 5345TIP3   OH216040   4.619   4.468   4.696
 5345TIP3    H116041   4.632   4.412   4.620
 5345TIP3    H216042   4.536   4.513   4.679
 5346TIP3   OH216043   0.972   5.462   1.985
 5346TIP3    H116044   0.963   5.483   1.892
 5346TIP3    H216045   1.062   5.431   1.993
 5347TIP3   OH216046   0.422   4.515   4.497
 5347TIP3    H116047   0.391   4.592   4.546
 5347TIP3    H216048   0.390   4.530   4.408
 5348TIP3   OH216049   2.174   4.768   0.198
 5348TIP3    H116050   2.140   4.811   0.276
 5348TIP3    H216051   2.110   4.699   0.179
 5349TIP3   OH216052   1.399   2.101   3.293
 5349TIP3    H116053   1.306   2.095   3.272
 5349TIP3    H216054   1.443   2.058   3.221
 5350TIP3   OH216055   5.413   0.033   0.663
 5350TIP3    H116056   5.404   0.002   0.754
 5350TIP3    H216057   5.339  -0.007   0.617
 5351TIP3   OH216058   2.233   2.385   4.682
 5351TIP3    H116059   2.193   2.360   4.766
 5351TIP3    H216060   2.272   2.471   4.700
 5352TIP3   OH216061   3.997   3.504   4.233
 5352TIP3    H116062   4.041   3.535   4.311
 5352TIP3    H216063   4.065   3.503   4.165
 5353TIP3   OH216064   4.737   5.140   3.092
 5353TIP3    H116065   4.739   5.233   3.113
 5353TIP3    H216066   4.827   5.118   3.069
 5354TIP3   OH216067   4.567   1.844   2.349
 5354TIP3    H116068   4.473   1.856   2.341
 5354TIP3    H216069   4.577   1.764   2.401
 5355TIP3   OH216070   1.235   5.987   4.368
 5355TIP3    H116071   1.257   5.964   4.278
 5355TIP3    H216072   1.174   5.919   4.396
 5356TIP3   OH216073   2.549   3.213   3.364
 5356TIP3    H116074   2.510   3.296   3.389
 5356TIP3    H216075   2.628   3.206   3.418
 5357TIP3   OH216076   0.615   5.719   4.856
 5357TIP3    H116077   0.686   5.760   4.808
 5357TIP3    H216078   0.573   5.660   4.793
 5358TIP3   OH216079   2.570   0.865   2.235
 5358TIP3    H116080   2.537   0.843   2.148
 5358TIP3    H216081   2.543   0.791   2.291
 5359TIP3   OH216082   4.615   4.114   1.812
 5359TIP3    H116083   4.532   4.133   1.768
 5359TIP3    H216084   4.591   4.097   1.903
 5360TIP3   OH216085   0.262   5.423   5.102
 5360TIP3    H116086   0.239   5.330   5.101
 5360TIP3    H216087   0.332   5.431   5.037
 5361TIP3   OH216088   1.487   0.131   0.801
 5361TIP3    H116089   1.534   0.146   0.719
 5361TIP3    H216090   1.477   0.036   0.807
 5362TIP3   OH216091   4.670   1.772   1.205
 5362TIP3    H116092   4.710   1.858   1.190
 5362TIP3    H216093   4.743   1.717   1.234
 5363TIP3   OH216094   3.194   4.357   1.653
 5363TIP3    H116095   3.236   4.411   1.719
 5363TIP3    H216096   3.112   4.402   1.633
 5364TIP3   OH216097   4.222   3.638   3.284
 5364TIP3    H116098   4.221   3.732   3.300
 5364TIP3    H216099   4.313   3.612   3.301
 5365TIP3   OH216100   2.097   6.002   3.167
 5365TIP3    H116101   2.057   5.968   3.246
 5365TIP3    H216102   2.023   6.019   3.108
 5366TIP3   OH216103   3.816   0.061   3.749
 5366TIP3    H116104   3.882   0.005   3.707
 5366TIP3    H216105   3.864   0.111   3.815
 5367TIP3   OH216106   1.891   1.728   1.827
 5367TIP3    H116107   1.931   1.650   1.867
 5367TIP3    H216108   1.838   1.693   1.755
 5368TIP3   OH216109   4.088   5.647   0.580
 5368TIP3    H116110   4.000   5.616   0.557
 5368TIP3    H216111   4.136   5.645   0.497
 5369TIP3   OH216112   2.681  -0.037   2.748
 5369TIP3    H116113   2.750   0.003   2.800
 5369TIP3    H216114   2.607  -0.046   2.808
 5370TIP3   OH216115   3.176   2.867   4.227
 5370TIP3    H116116   3.179   2.947   4.279
 5370TIP3    H216117   3.149   2.799   4.290
 5371TIP3   OH216118   5.073   5.882   4.600
 5371TIP3    H116119   5.096   5.928   4.519
 5371TIP3    H216120   5.084   5.948   4.668
 5372TIP3   OH216121   1.325   5.618   0.299
 5372TIP3    H116122   1.265   5.684   0.264
 5372TIP3    H216123   1.315   5.625   0.394
 5373TIP3   OH216124   1.694   1.359   4.197
 5373TIP3    H116125   1.650   1.289   4.245
 5373TIP3    H216126   1.779   1.321   4.172
 5374TIP3   OH216127   0.325   3.895   0.738
 5374TIP3    H116128   0.312   3.936   0.823
 5374TIP3    H216129   0.278   3.812   0.743
 5375TIP3   OH216130   2.318   3.507   0.545
 5375TIP3    H116131   2.261   3.507   0.469
 5375TIP3    H216132   2.375   3.431   0.534
 5376TIP3   OH216133   3.446   4.276   3.909
 5376TIP3    H116134   3.421   4.281   4.001
 5376TIP3    H216135   3.372   4.234   3.866
 5377TIP3   OH216136   4.768   3.826   1.044
 5377TIP3    H116137   4.843   3.863   1.092
 5377TIP3    H216138   4.787   3.848   0.952
 5378TIP3   OH216139   5.822   4.956   0.856
 5378TIP3    H116140   5.859   4.904   0.928
 5378TIP3    H216141   5.898   4.993   0.812
 5379TIP3   OH216142   5.469   4.059   1.471
 5379TIP3    H116143   5.442   4.009   1.394
 5379TIP3    H216144   5.563   4.073   1.458
 5380TIP3   OH216145   5.594   5.869   0.362
 5380TIP3    H116146   5.682   5.889   0.395
 5380TIP3    H216147   5.535   5.917   0.420
 5381TIP3   OH216148   4.470   2.970   2.047
 5381TIP3    H116149   4.431   3.020   2.119
 5381TIP3    H216150   4.559   2.951   2.076
 5382TIP3   OH216151   2.639   0.336   1.244
 5382TIP3    H116152   2.554   0.364   1.279
 5382TIP3    H216153   2.621   0.250   1.205
 5383TIP3   OH216154   1.012   1.752   4.296
 5383TIP3    H116155   0.951   1.741   4.369
 5383TIP3    H216156   1.013   1.667   4.253
 5384TIP3   OH216157   4.470   4.960   1.690
 5384TIP3    H116158   4.539   5.024   1.709
 5384TIP3    H216159   4.445   4.926   1.776
 5385TIP3   OH216160   3.671   5.186   2.143
 5385TIP3    H116161   3.752   5.208   2.190
 5385TIP3    H216162   3.642   5.104   2.184
 5386TIP3   OH216163   5.092   1.192   4.790
 5386TIP3    H116164   5.015   1.220   4.839
 5386TIP3    H216165   5.060   1.123   4.732
 5387TIP3   OH216166  -0.016   1.194   2.589
 5387TIP3    H116167   0.060   1.144   2.618
 5387TIP3    H216168   0.018   1.251   2.519
 5388TIP3   OH216169   1.517   5.778   2.154
 5388TIP3    H116170   1.423   5.763   2.162
 5388TIP3    H216171   1.555   5.727   2.226
 5389TIP3   OH216172   5.914   3.718   2.546
 5389TIP3    H116173   5.858   3.728   2.469
 5389TIP3    H216174   5.953   3.804   2.559
 5390TIP3   OH216175   0.507   5.612   0.246
 5390TIP3    H116176   0.450   5.572   0.312
 5390TIP3    H216177   0.452   5.680   0.206
 5391TIP3   OH216178   2.619   2.879   3.829
 5391TIP3    H116179   2.641   2.791   3.860
 5391TIP3    H216180   2.549   2.865   3.765
 5392TIP3   OH216181   2.661   1.781   1.776
 5392TIP3    H116182   2.741   1.818   1.739
 5392TIP3    H216183   2.631   1.718   1.711
 5393TIP3   OH216184   2.141   4.744   2.263
 5393TIP3    H116185   2.219   4.785   2.302
 5393TIP3    H216186   2.078   4.815   2.254
 5394TIP3   OH216187   2.323   1.949   3.251
 5394TIP3    H116188   2.317   1.862   3.210
 5394TIP3    H216189   2.410   1.951   3.290
 5395TIP3   OH216190   0.371   3.592   2.016
 5395TIP3    H116191   0.450   3.551   2.050
 5395TIP3    H216192   0.304   3.523   2.020
 5396TIP3   OH216193   2.268   0.272   1.967
 5396TIP3    H116194   2.216   0.202   1.927
 5396TIP3    H216195   2.318   0.309   1.894
 5397TIP3   OH216196   4.372   2.045   1.700
 5397TIP3    H116197   4.404   1.987   1.631
 5397TIP3    H216198   4.278   2.050   1.685
 5398TIP3   OH216199   4.471   3.642   3.480
 5398TIP3    H116200   4.432   3.724   3.510
 5398TIP3    H216201   4.512   3.664   3.397
 5399TIP3   OH216202   1.787   0.486   3.018
 5399TIP3    H116203   1.721   0.445   2.963
 5399TIP3    H216204   1.853   0.418   3.031
 5400TIP3   OH216205   1.499   4.698   1.462
 5400TIP3    H116206   1.540   4.774   1.504
 5400TIP3    H216207   1.554   4.624   1.486
 5401TIP3   OH216208   5.481   2.637   3.748
 5401TIP3    H116209   5.571   2.630   3.779
 5401TIP3    H216210   5.470   2.564   3.687
 5402TIP3   OH216211   2.896   1.762   0.829
 5402TIP3    H116212   2.899   1.675   0.867
 5402TIP3    H216213   2.829   1.808   0.880
 5403TIP3   OH216214   3.363   3.236   4.026
 5403TIP3    H116215   3.279   3.194   4.007
 5403TIP3    H216216   3.398   3.259   3.940
 5404TIP3   OH216217   6.314   0.430   2.498
 5404TIP3    H116218   6.332   0.370   2.426
 5404TIP3    H216219   6.236   0.395   2.540
 5405TIP3   OH216220   0.074   3.469   0.772
 5405TIP3    H116221   0.053   3.516   0.852
 5405TIP3    H216222  -0.009   3.462   0.725
 5406TIP3   OH216223   0.982   1.798   1.321
 5406TIP3    H116224   1.072   1.828   1.316
 5406TIP3    H216225   0.936   1.867   1.368
 5407TIP3   OH216226   3.972   3.301   4.590
 5407TIP3    H116227   3.932   3.236   4.532
 5407TIP3    H216228   3.901   3.330   4.647
 5408TIP3   OH216229   0.202   5.676   4.684
 5408TIP3    H116230   0.179   5.696   4.594
 5408TIP3    H216231   0.284   5.724   4.699
 5409TIP3   OH216232   2.663   1.763   2.080
 5409TIP3    H116233   2.733   1.826   2.095
 5409TIP3    H216234   2.647   1.767   1.986
 5410TIP3   OH216235   2.658   3.971   3.112
 5410TIP3    H116236   2.635   3.982   3.205
 5410TIP3    H216237   2.749   3.941   3.114
 5411TIP3   OH216238   1.973   4.060   0.159
 5411TIP3    H116239   1.892   4.012   0.177
 5411TIP3    H216240   2.018   4.065   0.244
 5412TIP3   OH216241   3.185   4.443   3.320
 5412TIP3    H116242   3.138   4.386   3.258
 5412TIP3    H216243   3.234   4.382   3.375
 5413TIP3   OH216244   2.245   2.951   4.627
 5413TIP3    H116245   2.256   2.872   4.573
 5413TIP3    H216246   2.331   2.964   4.667
 5414TIP3   OH216247   6.276   5.131   1.190
 5414TIP3    H116248   6.307   5.219   1.167
 5414TIP3    H216249   6.352   5.074   1.175
 5415TIP3   OH216250   1.320   4.019   1.756
 5415TIP3    H116251   1.317   4.005   1.661
 5415TIP3    H216252   1.295   3.935   1.794
 5416TIP3   OH216253   2.425   1.577   1.896
 5416TIP3    H116254   2.374   1.617   1.825
 5416TIP3    H216255   2.425   1.643   1.965
 5417TIP3   OH216256   0.887   1.868   3.481
 5417TIP3    H116257   0.932   1.952   3.487
 5417TIP3    H216258   0.805   1.882   3.529
 5418TIP3   OH216259   4.671   3.938   0.392
 5418TIP3    H116260   4.724   3.910   0.467
 5418TIP3    H216261   4.693   3.875   0.323
 5419TIP3   OH216262   3.902   0.900   4.109
 5419TIP3    H116263   3.908   0.993   4.084
 5419TIP3    H216264   3.933   0.853   4.031
 5420TIP3   OH216265   2.056   0.057   0.213
 5420TIP3    H116266   2.051  -0.018   0.155
 5420TIP3    H216267   1.976   0.107   0.194
 5421TIP3   OH216268   3.961   3.736   1.142
 5421TIP3    H116269   4.017   3.659   1.132
 5421TIP3    H216270   4.009   3.791   1.204
 5422TIP3   OH216271   3.619   2.987   0.008
 5422TIP3    H116272   3.679   2.998   0.082
 5422TIP3    H216273   3.532   3.001   0.045
 5423TIP3   OH216274   3.048   4.902   1.331
 5423TIP3    H116275   3.095   4.984   1.314
 5423TIP3    H216276   3.095   4.863   1.404
 5424TIP3   OH216277   0.689   0.372   5.090
 5424TIP3    H116278   0.701   0.409   5.178
 5424TIP3    H216279   0.594   0.373   5.077
 5425TIP3   OH216280   2.839   0.128   4.426
 5425TIP3    H116281   2.746   0.103   4.423
 5425TIP3    H216282   2.841   0.201   4.488
 5426TIP3   OH216283   4.711   3.321   1.648
 5426TIP3    H116284   4.759   3.398   1.616
 5426TIP3    H216285   4.659   3.354   1.721
 5427TIP3   OH216286   1.002   1.024   0.536
 5427TIP3    H116287   1.086   0.994   0.500
 5427TIP3    H216288   0.947   1.039   0.459
 5428TIP3   OH216289   5.279   0.421   2.936
 5428TIP3    H116290   5.369   0.412   2.906
 5428TIP3    H216291   5.237   0.339   2.910
 5429TIP3   OH216292   6.021   2.852   1.057
 5429TIP3    H116293   6.109   2.837   1.092
 5429TIP3    H216294   6.033   2.861   0.963
 5430TIP3   OH216295   0.908   1.210   2.149
 5430TIP3    H116296   0.967   1.260   2.204
 5430TIP3    H216297   0.821   1.241   2.173
 5431TIP3   OH216298   3.402   2.663   1.899
 5431TIP3    H116299   3.362   2.576   1.895
 5431TIP3    H216300   3.394   2.697   1.810
 5432TIP3   OH216301   4.170   2.591   5.069
 5432TIP3    H116302   4.254   2.633   5.049
 5432TIP3    H216303   4.110   2.663   5.084
 5433TIP3   OH216304   3.276   0.596   3.401
 5433TIP3    H116305   3.271   0.606   3.496
 5433TIP3    H216306   3.307   0.506   3.388
 5434TIP3   OH216307   6.114   3.326   1.662
 5434TIP3    H116308   6.050   3.379   1.711
 5434TIP3    H216309   6.065   3.247   1.637
 5435TIP3   OH216310   5.147   5.668   4.743
 5435TIP3    H116311   5.058   5.650   4.715
 5435TIP3    H216312   5.173   5.745   4.692
 5436TIP3   OH216313   0.218   0.565   2.474
 5436TIP3    H116314   0.124   0.565   2.458
 5436TIP3    H216315   0.257   0.544   2.390
 5437TIP3   OH216316   2.365   4.873   2.319
 5437TIP3    H116317   2.431   4.921   2.269
 5437TIP3    H216318   2.415   4.814   2.374
 5438TIP3   OH216319   6.102   5.707   4.553
 5438TIP3    H116320   6.114   5.792   4.510
 5438TIP3    H216321   6.070   5.729   4.640
 5439TIP3   OH216322   3.113   3.967   0.279
 5439TIP3    H116323   3.124   3.944   0.187
 5439TIP3    H216324   3.107   3.883   0.324
 5440TIP3   OH216325   5.575   0.133   4.127
 5440TIP3    H116326   5.661   0.124   4.086
 5440TIP3    H216327   5.576   0.068   4.198
 5441TIP3   OH216328   3.570   2.879   2.067
 5441TIP3    H116329   3.639   2.908   2.127
 5441TIP3    H216330   3.539   2.796   2.105
 5442TIP3   OH216331   4.473   0.756   3.903
 5442TIP3    H116332   4.552   0.799   3.872
 5442TIP3    H216333   4.413   0.758   3.828
 5443TIP3   OH216334   2.829   3.617   3.762
 5443TIP3    H116335   2.755   3.677   3.775
 5443TIP3    H216336   2.906   3.669   3.784
 5444TIP3   OH216337   3.440   5.009   4.868
 5444TIP3    H116338   3.495   5.019   4.946
 5444TIP3    H216339   3.501   5.021   4.794
 5445TIP3   OH216340  -0.014   2.991   3.952
 5445TIP3    H116341   0.074   3.000   3.918
 5445TIP3    H216342  -0.002   2.956   4.041
 5446TIP3   OH216343   3.817   3.121   0.187
 5446TIP3    H116344   3.766   3.199   0.211
 5446TIP3    H216345   3.896   3.127   0.241
 5447TIP3   OH216346   1.116   5.538   2.503
 5447TIP3    H116347   1.047   5.494   2.453
 5447TIP3    H216348   1.187   5.475   2.507
 5448TIP3   OH216349   2.366   1.830   4.356
 5448TIP3    H116350   2.427   1.780   4.410
 5448TIP3    H216351   2.418   1.902   4.321
 5449TIP3   OH216352   6.083   0.100   2.162
 5449TIP3    H116353   6.035   0.178   2.133
 5449TIP3    H216354   6.096   0.049   2.082
 5450TIP3   OH216355   4.671   4.011   3.790
 5450TIP3    H116356   4.621   4.075   3.842
 5450TIP3    H216357   4.623   4.006   3.707
 5451TIP3   OH216358   1.683   3.299   3.230
 5451TIP3    H116359   1.603   3.332   3.271
 5451TIP3    H216360   1.745   3.372   3.237
 5452TIP3   OH216361   5.108   2.811   3.569
 5452TIP3    H116362   5.142   2.751   3.502
 5452TIP3    H216363   5.161   2.793   3.647
 5453TIP3   OH216364   2.606   1.326   2.093
 5453TIP3    H116365   2.559   1.257   2.138
 5453TIP3    H216366   2.696   1.295   2.087
 5454TIP3   OH216367   3.990   1.535   1.384
 5454TIP3    H116368   3.972   1.612   1.439
 5454TIP3    H216369   3.967   1.461   1.439
 5455TIP3   OH216370   4.761   1.794   0.368
 5455TIP3    H116371   4.821   1.835   0.306
 5455TIP3    H216372   4.802   1.807   0.453
 5456TIP3   OH216373   1.728   1.564   2.448
 5456TIP3    H116374   1.717   1.659   2.445
 5456TIP3    H216375   1.805   1.546   2.395
 5457TIP3   OH216376   3.647   2.791   1.781
 5457TIP3    H116377   3.574   2.794   1.843
 5457TIP3    H216378   3.723   2.819   1.832
 5458TIP3   OH216379   1.648   2.581   0.083
 5458TIP3    H116380   1.612   2.667   0.104
 5458TIP3    H216381   1.654   2.580  -0.012
 5459TIP3   OH216382   1.675   5.539   1.606
 5459TIP3    H116383   1.750   5.592   1.578
 5459TIP3    H216384   1.664   5.561   1.699
 5460TIP3   OH216385   4.418   0.391   4.162
 5460TIP3    H116386   4.486   0.328   4.186
 5460TIP3    H216387   4.413   0.450   4.237
 5461TIP3   OH216388   0.530   3.478   1.342
 5461TIP3    H116389   0.619   3.449   1.322
 5461TIP3    H216390   0.531   3.493   1.436
 5462TIP3   OH216391   2.198   1.835   1.410
 5462TIP3    H116392   2.144   1.867   1.338
 5462TIP3    H216393   2.252   1.910   1.435
 5463TIP3   OH216394   1.973   1.624   3.594
 5463TIP3    H116395   1.882   1.651   3.585
 5463TIP3    H216396   1.972   1.557   3.663
 5464TIP3   OH216397   5.343   5.553   0.061
 5464TIP3    H116398   5.378   5.563  -0.028
 5464TIP3    H216399   5.413   5.508   0.109
 5465TIP3   OH216400   3.436   3.953   3.716
 5465TIP3    H116401   3.532   3.949   3.711
 5465TIP3    H216402   3.406   3.924   3.630
 5466TIP3   OH216403   6.067   2.906   3.903
 5466TIP3    H116404   6.000   2.967   3.874
 5466TIP3    H216405   6.145   2.960   3.915
 5467TIP3   OH216406   1.799   0.670   3.802
 5467TIP3    H116407   1.736   0.657   3.873
 5467TIP3    H216408   1.744   0.676   3.723
 5468TIP3   OH216409   4.655   2.243   0.153
 5468TIP3    H116410   4.569   2.238   0.113
 5468TIP3    H216411   4.667   2.158   0.196
 5469TIP3   OH216412   1.494   0.185   4.717
 5469TIP3    H116413   1.439   0.173   4.795
 5469TIP3    H216414   1.539   0.101   4.707
 5470TIP3   OH216415   4.742   4.227   0.958
 5470TIP3    H116416   4.712   4.153   0.906
 5470TIP3    H216417   4.664   4.281   0.971
 5471TIP3   OH216418   5.090   1.963   0.592
 5471TIP3    H116419   5.077   1.993   0.502
 5471TIP3    H216420   5.087   2.044   0.644
 5472TIP3   OH216421   4.268   5.126   1.988
 5472TIP3    H116422   4.340   5.146   2.047
 5472TIP3    H216423   4.231   5.211   1.964
 5473TIP3   OH216424   1.571   1.368   3.836
 5473TIP3    H116425   1.662   1.395   3.820
 5473TIP3    H216426   1.529   1.448   3.868
 5474TIP3   OH216427   3.381   1.293   4.764
 5474TIP3    H116428   3.302   1.303   4.818
 5474TIP3    H216429   3.426   1.217   4.802
 5475TIP3   OH216430   5.934   1.687   4.082
 5475TIP3    H116431   5.901   1.635   4.155
 5475TIP3    H216432   5.939   1.625   4.009
 5476TIP3   OH216433   5.244   2.971   2.834
 5476TIP3    H116434   5.277   2.953   2.746
 5476TIP3    H216435   5.165   3.022   2.820
 5477TIP3   OH216436   5.287   4.825   0.176
 5477TIP3    H116437   5.245   4.748   0.137
 5477TIP3    H216438   5.218   4.867   0.226
 5478TIP3   OH216439   3.827   0.607   0.934
 5478TIP3    H116440   3.890   0.672   0.904
 5478TIP3    H216441   3.869   0.565   1.009
 5479TIP3   OH216442   6.196   3.495   1.045
 5479TIP3    H116443   6.171   3.405   1.066
 5479TIP3    H216444   6.286   3.503   1.077
 5480TIP3   OH216445   4.747   5.510   0.518
 5480TIP3    H116446   4.798   5.468   0.449
 5480TIP3    H216447   4.657   5.480   0.502
 5481TIP3   OH216448   3.206   2.533   4.652
 5481TIP3    H116449   3.258   2.460   4.686
 5481TIP3    H216450   3.266   2.606   4.650
 5482TIP3   OH216451   0.384   4.089   0.107
 5482TIP3    H116452   0.346   4.123   0.188
 5482TIP3    H216453   0.363   3.996   0.106
 5483TIP3   OH216454   3.267   1.760   4.542
 5483TIP3    H116455   3.289   1.829   4.605
 5483TIP3    H216456   3.172   1.756   4.543
 5484TIP3   OH216457   1.139   4.848   4.018
 5484TIP3    H116458   1.197   4.772   4.012
 5484TIP3    H216459   1.184   4.916   3.968
 5485TIP3   OH216460   6.285   4.518   3.460
 5485TIP3    H116461   6.273   4.612   3.450
 5485TIP3    H216462   6.266   4.501   3.552
 5486TIP3   OH216463   5.479   3.828   4.489
 5486TIP3    H116464   5.484   3.826   4.584
 5486TIP3    H216465   5.556   3.879   4.462
 5487TIP3   OH216466   4.641   4.335   2.320
 5487TIP3    H116467   4.551   4.346   2.351
 5487TIP3    H216468   4.651   4.241   2.308
 5488TIP3   OH216469   3.492   5.567   5.060
 5488TIP3    H116470   3.436   5.571   4.983
 5488TIP3    H216471   3.478   5.479   5.095
 5489TIP3   OH216472   2.962   0.284   2.665
 5489TIP3    H116473   2.914   0.262   2.744
 5489TIP3    H216474   2.966   0.202   2.616
 5490TIP3   OH216475   1.824   0.037   1.524
 5490TIP3    H116476   1.817  -0.040   1.579
 5490TIP3    H216477   1.874   0.007   1.447
 5491TIP3   OH216478   3.765   3.868   1.593
 5491TIP3    H116479   3.831   3.798   1.588
 5491TIP3    H216480   3.817   3.948   1.589
 5492TIP3   OH216481   2.642   5.037   3.890
 5492TIP3    H116482   2.626   5.056   3.983
 5492TIP3    H216483   2.572   5.083   3.844
 5493TIP3   OH216484   4.528   4.235   0.768
 5493TIP3    H116485   4.451   4.292   0.781
 5493TIP3    H216486   4.496   4.164   0.712
 5494TIP3   OH216487   4.924   4.724   2.868
 5494TIP3    H116488   4.981   4.780   2.816
 5494TIP3    H216489   4.932   4.637   2.828
 5495TIP3   OH216490   6.044   5.709   2.456
 5495TIP3    H116491   6.020   5.616   2.456
 5495TIP3    H216492   5.999   5.745   2.532
 5496TIP3   OH216493   1.432   0.617   1.655
 5496TIP3    H116494   1.385   0.650   1.731
 5496TIP3    H216495   1.505   0.679   1.644
 5497TIP3   OH216496   6.357   5.452   1.457
 5497TIP3    H116497   6.272   5.494   1.466
 5497TIP3    H216498   6.386   5.435   1.546
 5498TIP3   OH216499   6.164   3.458   3.593
 5498TIP3    H116500   6.114   3.539   3.583
 5498TIP3    H216501   6.203   3.465   3.680
 5499TIP3   OH216502   4.846   3.957   1.737
 5499TIP3    H116503   4.790   4.030   1.763
 5499TIP3    H216504   4.786   3.895   1.694
 5500TIP3   OH216505   2.976   1.957   0.582
 5500TIP3    H116506   2.951   1.963   0.489
 5500TIP3    H216507   2.900   1.991   0.629
 5501TIP3   OH216508   4.414   3.395   2.783
 5501TIP3    H116509   4.339   3.417   2.727
 5501TIP3    H216510   4.430   3.474   2.834
 5502TIP3   OH216511   3.959   3.103   1.215
 5502TIP3    H116512   3.938   3.010   1.210
 5502TIP3    H216513   4.054   3.107   1.205
 5503TIP3   OH216514   2.056   3.878   3.398
 5503TIP3    H116515   2.085   3.788   3.413
 5503TIP3    H216516   2.134   3.921   3.362
 5504TIP3   OH216517   0.116   3.283   4.087
 5504TIP3    H116518   0.033   3.322   4.116
 5504TIP3    H216519   0.158   3.353   4.037
 5505TIP3   OH216520   0.953   2.726   3.579
 5505TIP3    H116521   0.952   2.814   3.540
 5505TIP3    H216522   0.894   2.674   3.523
 5506TIP3   OH216523   5.754   0.861   4.470
 5506TIP3    H116524   5.705   0.897   4.543
 5506TIP3    H216525   5.747   0.766   4.481
 5507TIP3   OH216526   4.045   3.453   3.163
 5507TIP3    H116527   4.102   3.520   3.200
 5507TIP3    H216528   4.024   3.486   3.075
 5508TIP3   OH216529   0.312   3.353   0.917
 5508TIP3    H116530   0.284   3.376   1.006
 5508TIP3    H216531   0.371   3.423   0.891
 5509TIP3   OH216532   6.323   5.292   0.199
 5509TIP3    H116533   6.268   5.309   0.123
 5509TIP3    H216534   6.292   5.354   0.265
 5510TIP3   OH216535   4.359   5.323   0.563
 5510TIP3    H116536   4.366   5.401   0.617
 5510TIP3    H216537   4.446   5.311   0.525
 5511TIP3   OH216538   4.549   5.712   3.389
 5511TIP3    H116539   4.607   5.788   3.378
 5511TIP3    H216540   4.471   5.748   3.430
 5512TIP3   OH216541   0.592   3.675   3.324
 5512TIP3    H116542   0.515   3.732   3.321
 5512TIP3    H216543   0.560   3.591   3.291
 5513TIP3   OH216544   1.747   3.033   3.942
 5513TIP3    H116545   1.660   2.993   3.943
 5513TIP3    H216546   1.740   3.104   3.878
 5514TIP3   OH216547   5.446   5.362   3.644
 5514TIP3    H116548   5.501   5.401   3.576
 5514TIP3    H216549   5.507   5.342   3.715
 5515TIP3   OH216550   1.729   5.253   1.658
 5515TIP3    H116551   1.712   5.342   1.625
 5515TIP3    H216552   1.715   5.196   1.582
 5516TIP3   OH216553   0.173   3.362   3.396
 5516TIP3    H116554   0.089   3.406   3.386
 5516TIP3    H216555   0.218   3.412   3.464
 5517TIP3   OH216556   3.746   1.134   3.885
 5517TIP3    H116557   3.745   1.188   3.806
 5517TIP3    H216558   3.835   1.100   3.890
 5518TIP3   OH216559   0.211   1.338   4.967
 5518TIP3    H116560   0.257   1.407   5.014
 5518TIP3    H216561   0.185   1.276   5.034
 5519TIP3   OH216562   2.576   0.585   0.712
 5519TIP3    H116563   2.667   0.612   0.724
 5519TIP3    H216564   2.526   0.640   0.772
 5520TIP3   OH216565   0.845   0.744   1.313
 5520TIP3    H116566   0.768   0.799   1.321
 5520TIP3    H216567   0.868   0.721   1.403
 5521TIP3   OH216568   5.232   3.106   2.507
 5521TIP3    H116569   5.206   3.014   2.508
 5521TIP3    H216570   5.215   3.138   2.595
 5522TIP3   OH216571   5.857   1.336   0.980
 5522TIP3    H116572   5.769   1.309   0.953
 5522TIP3    H216573   5.910   1.257   0.974
 5523TIP3   OH216574   4.811   1.171   0.630
 5523TIP3    H116575   4.799   1.159   0.536
 5523TIP3    H216576   4.861   1.253   0.637
 5524TIP3   OH216577   0.738   1.580   3.230
 5524TIP3    H116578   0.698   1.524   3.163
 5524TIP3    H216579   0.666   1.634   3.262
 5525TIP3   OH216580   1.354   5.416   1.447
 5525TIP3    H116581   1.341   5.386   1.537
 5525TIP3    H216582   1.320   5.505   1.446
 5526TIP3   OH216583   0.369   0.771   3.555
 5526TIP3    H116584   0.375   0.866   3.558
 5526TIP3    H216585   0.276   0.752   3.570
 5527TIP3   OH216586   1.660   4.948   2.144
 5527TIP3    H116587   1.600   4.893   2.094
 5527TIP3    H216588   1.695   5.010   2.080
 5528TIP3   OH216589   2.764   4.741   1.951
 5528TIP3    H116590   2.792   4.664   1.902
 5528TIP3    H216591   2.839   4.763   2.007
 5529TIP3   OH216592   4.591   3.142   0.837
 5529TIP3    H116593   4.599   3.199   0.760
 5529TIP3    H216594   4.627   3.193   0.909
 5530TIP3   OH216595   3.595   0.101   4.962
 5530TIP3    H116596   3.562   0.033   4.904
 5530TIP3    H216597   3.516   0.146   4.993
 5531TIP3   OH216598   2.249   0.032   0.893
 5531TIP3    H116599   2.191  -0.011   0.829
 5531TIP3    H216600   2.307  -0.038   0.923
 5532TIP3   OH216601   5.887   0.076   1.107
 5532TIP3    H116602   5.980   0.054   1.112
 5532TIP3    H216603   5.884   0.155   1.053
 5533TIP3   OH216604   2.413   4.430   0.480
 5533TIP3    H116605   2.496   4.387   0.500
 5533TIP3    H216606   2.376   4.377   0.409
 5534TIP3   OH216607   3.235   5.430   2.706
 5534TIP3    H116608   3.160   5.391   2.661
 5534TIP3    H216609   3.294   5.357   2.723
 5535TIP3   OH216610   1.151   4.330   3.157
 5535TIP3    H116611   1.245   4.345   3.147
 5535TIP3    H216612   1.144   4.243   3.198
 5536TIP3   OH216613   2.501   3.298   2.684
 5536TIP3    H116614   2.415   3.285   2.645
 5536TIP3    H216615   2.488   3.371   2.745
 5537TIP3   OH216616   3.163   1.517   3.930
 5537TIP3    H116617   3.164   1.437   3.983
 5537TIP3    H216618   3.129   1.490   3.845
 5538TIP3   OH216619   2.389   2.890   3.612
 5538TIP3    H116620   2.357   2.977   3.588
 5538TIP3    H216621   2.403   2.846   3.528
 5539TIP3   OH216622   0.614   3.241   1.127
 5539TIP3    H116623   0.659   3.312   1.173
 5539TIP3    H216624   0.556   3.285   1.065
 5540TIP3   OH216625   0.387   3.697   3.011
 5540TIP3    H116626   0.329   3.768   2.983
 5540TIP3    H216627   0.329   3.633   3.051
 5541TIP3   OH216628   2.546   4.480   4.022
 5541TIP3    H116629   2.461   4.505   4.058
 5541TIP3    H216630   2.533   4.392   3.987
 5542TIP3   OH216631   2.581   1.845   4.521
 5542TIP3    H116632   2.562   1.933   4.552
 5542TIP3    H216633   2.571   1.790   4.599
 5543TIP3   OH216634   3.879   0.702   1.776
 5543TIP3    H116635   3.840   0.620   1.807
 5543TIP3    H216636   3.917   0.680   1.691
 5544TIP3   OH216637   0.792   5.460   2.681
 5544TIP3    H116638   0.802   5.365   2.685
 5544TIP3    H216639   0.706   5.477   2.720
 5545TIP3   OH216640   3.558   4.537   1.175
 5545TIP3    H116641   3.571   4.532   1.081
 5545TIP3    H216642   3.602   4.618   1.201
 5546TIP3   OH216643   5.356   4.152   3.310
 5546TIP3    H116644   5.383   4.089   3.376
 5546TIP3    H216645   5.413   4.133   3.235
 5547TIP3   OH216646   1.270   4.914   0.370
 5547TIP3    H116647   1.344   4.855   0.379
 5547TIP3    H216648   1.197   4.868   0.411
 5548TIP3   OH216649   0.256   2.264   4.702
 5548TIP3    H116650   0.204   2.248   4.623
 5548TIP3    H216651   0.273   2.177   4.737
 5549TIP3   OH216652   4.885   1.881   0.150
 5549TIP3    H116653   4.959   1.880   0.091
 5549TIP3    H216654   4.809   1.865   0.095
 5550TIP3   OH216655   0.257   4.485   1.392
 5550TIP3    H116656   0.202   4.561   1.371
 5550TIP3    H216657   0.346   4.518   1.391
 5551TIP3   OH216658   3.917   2.416   3.624
 5551TIP3    H116659   3.930   2.474   3.549
 5551TIP3    H216660   3.822   2.413   3.635
 5552TIP3   OH216661   4.880   1.874   4.054
 5552TIP3    H116662   4.896   1.788   4.091
 5552TIP3    H216663   4.917   1.935   4.118
 5553TIP3   OH216664   2.343   3.505   1.980
 5553TIP3    H116665   2.250   3.488   1.962
 5553TIP3    H216666   2.343   3.553   2.063
 5554TIP3   OH216667   5.369   2.966   4.102
 5554TIP3    H116668   5.380   2.990   4.194
 5554TIP3    H216669   5.278   2.936   4.095
 5555TIP3   OH216670   1.583   4.270   1.106
 5555TIP3    H116671   1.547   4.345   1.154
 5555TIP3    H216672   1.585   4.199   1.170
 5556TIP3   OH216673   4.284   3.674   0.825
 5556TIP3    H116674   4.273   3.656   0.918
 5556TIP3    H216675   4.341   3.750   0.821
 5557TIP3   OH216676   3.904   5.279   3.349
 5557TIP3    H116677   3.958   5.205   3.322
 5557TIP3    H216678   3.816   5.242   3.359
 5558TIP3   OH216679   2.258   4.922   1.976
 5558TIP3    H116680   2.199   4.854   1.943
 5558TIP3    H216681   2.346   4.888   1.958
 5559TIP3   OH216682   0.674   0.466   3.982
 5559TIP3    H116683   0.744   0.479   4.047
 5559TIP3    H216684   0.597   0.443   4.034
 5560TIP3   OH216685   5.507   0.356   4.002
 5560TIP3    H116686   5.532   0.277   4.049
 5560TIP3    H216687   5.590   0.390   3.968
 5561TIP3   OH216688   0.639   0.329   4.368
 5561TIP3    H116689   0.609   0.301   4.454
 5561TIP3    H216690   0.625   0.424   4.367
 5562TIP3   OH216691   2.410   1.411   1.482
 5562TIP3    H116692   2.397   1.501   1.451
 5562TIP3    H216693   2.370   1.357   1.414
 5563TIP3   OH216694   3.547   1.395   0.543
 5563TIP3    H116695   3.601   1.344   0.483
 5563TIP3    H216696   3.596   1.476   0.556
 5564TIP3   OH216697   5.817   0.590   4.727
 5564TIP3    H116698   5.776   0.559   4.646
 5564TIP3    H216699   5.756   0.656   4.761
 5565TIP3   OH216700   0.056   1.305   2.362
 5565TIP3    H116701  -0.002   1.336   2.292
 5565TIP3    H216702   0.082   1.217   2.335
 5566TIP3   OH216703   3.934   1.464   2.593
 5566TIP3    H116704   3.883   1.530   2.640
 5566TIP3    H216705   3.884   1.383   2.604
 5567TIP3   OH216706   4.216   2.413   3.398
 5567TIP3    H116707   4.134   2.460   3.416
 5567TIP3    H216708   4.227   2.420   3.303
 5568TIP3   OH216709   3.190   1.870   2.804
 5568TIP3    H116710   3.272   1.820   2.811
 5568TIP3    H216711   3.202   1.945   2.863
 5569TIP3   OH216712   1.134   4.846   0.732
 5569TIP3    H116713   1.186   4.881   0.659
 5569TIP3    H216714   1.179   4.878   0.811
 5570TIP3   OH216715   3.006   4.459   1.130
 5570TIP3    H116716   2.956   4.379   1.117
 5570TIP3    H216717   3.078   4.454   1.067
 5571TIP3   OH216718   1.411   4.278   4.868
 5571TIP3    H116719   1.405   4.339   4.795
 5571TIP3    H216720   1.437   4.195   4.828
 5572TIP3   OH216721   1.709   5.527   0.392
 5572TIP3    H116722   1.712   5.536   0.487
 5572TIP3    H216723   1.760   5.602   0.360
 5573TIP3   OH216724   3.577   3.262   2.161
 5573TIP3    H116725   3.633   3.316   2.217
 5573TIP3    H216726   3.489   3.273   2.197
 5574TIP3   OH216727   4.369   5.586   4.353
 5574TIP3    H116728   4.349   5.675   4.322
 5574TIP3    H216729   4.283   5.549   4.374
 5575TIP3   OH216730   2.835   1.222   3.050
 5575TIP3    H116731   2.907   1.282   3.031
 5575TIP3    H216732   2.764   1.279   3.079
 5576TIP3   OH216733   0.789   5.748   3.089
 5576TIP3    H116734   0.758   5.839   3.091
 5576TIP3    H216735   0.717   5.697   3.126
 5577TIP3   OH216736   3.878   0.791   0.376
 5577TIP3    H116737   3.926   0.846   0.438
 5577TIP3    H216738   3.892   0.833   0.291
 5578TIP3   OH216739   1.329   0.184   1.023
 5578TIP3    H116740   1.378   0.243   1.080
 5578TIP3    H216741   1.388   0.169   0.949
 5579TIP3   OH216742   2.888   1.777   3.227
 5579TIP3    H116743   2.901   1.750   3.318
 5579TIP3    H216744   2.945   1.720   3.176
 5580TIP3   OH216745   3.825   1.319   1.507
 5580TIP3    H116746   3.803   1.243   1.453
 5580TIP3    H216747   3.749   1.331   1.564
 5581TIP3   OH216748   4.112   3.481   0.680
 5581TIP3    H116749   4.159   3.552   0.725
 5581TIP3    H216750   4.150   3.478   0.593
 5582TIP3   OH216751   2.595   5.725   2.735
 5582TIP3    H116752   2.591   5.703   2.642
 5582TIP3    H216753   2.509   5.763   2.754
 5583TIP3   OH216754   5.157   4.162   0.535
 5583TIP3    H116755   5.082   4.149   0.477
 5583TIP3    H216756   5.233   4.147   0.479
 5584TIP3   OH216757   2.843   4.974   0.667
 5584TIP3    H116758   2.748   4.984   0.667
 5584TIP3    H216759   2.874   5.037   0.602
 5585TIP3   OH216760   2.922   4.999   0.956
 5585TIP3    H116761   2.921   4.961   0.869
 5585TIP3    H216762   2.912   4.924   1.015
 5586TIP3   OH216763   4.556   5.320   4.378
 5586TIP3    H116764   4.527   5.318   4.287
 5586TIP3    H216765   4.547   5.411   4.404
 5587TIP3   OH216766   5.672   4.682   1.158
 5587TIP3    H116767   5.718   4.716   1.235
 5587TIP3    H216768   5.733   4.617   1.121
 5588TIP3   OH216769  -0.008   1.966   1.634
 5588TIP3    H116770   0.061   1.905   1.606
 5588TIP3    H216771  -0.028   1.939   1.724
 5589TIP3   OH216772   1.509   1.310   1.556
 5589TIP3    H116773   1.524   1.255   1.480
 5589TIP3    H216774   1.414   1.306   1.570
 5590TIP3   OH216775   0.404   4.667   2.192
 5590TIP3    H116776   0.432   4.754   2.219
 5590TIP3    H216777   0.447   4.654   2.107
 5591TIP3   OH216778   5.959   3.298   1.017
 5591TIP3    H116779   5.979   3.234   1.085
 5591TIP3    H216780   5.865   3.312   1.025
 5592TIP3   OH216781   2.132   5.120   2.404
 5592TIP3    H116782   2.162   5.189   2.345
 5592TIP3    H216783   2.158   5.039   2.361
 5593TIP3   OH216784   2.529   0.512   4.764
 5593TIP3    H116785   2.477   0.534   4.687
 5593TIP3    H216786   2.598   0.453   4.731
 5594TIP3   OH216787   2.686   3.703   2.946
 5594TIP3    H116788   2.760   3.663   2.899
 5594TIP3    H216789   2.613   3.643   2.931
 5595TIP3   OH216790   4.074   3.217   2.268
 5595TIP3    H116791   4.065   3.124   2.289
 5595TIP3    H216792   4.011   3.232   2.197
 5596TIP3   OH216793   4.795   1.450   2.204
 5596TIP3    H116794   4.728   1.497   2.154
 5596TIP3    H216795   4.860   1.516   2.226
 5597TIP3   OH216796   6.318   1.287   1.060
 5597TIP3    H116797   6.282   1.375   1.070
 5597TIP3    H216798   6.255   1.230   1.105
 5598TIP3   OH216799   1.092   0.964   2.557
 5598TIP3    H116800   1.112   0.871   2.551
 5598TIP3    H216801   1.137   0.994   2.636
 5599TIP3   OH216802   0.100   2.925   4.208
 5599TIP3    H116803   0.155   3.004   4.206
 5599TIP3    H216804   0.111   2.891   4.297
 5600TIP3   OH216805   3.337   2.851   0.479
 5600TIP3    H116806   3.303   2.802   0.553
 5600TIP3    H216807   3.302   2.939   0.491
 5601TIP3   OH216808   5.057   1.621   2.832
 5601TIP3    H116809   5.043   1.526   2.843
 5601TIP3    H216810   4.969   1.658   2.827
 5602TIP3   OH216811   2.034   4.844   4.409
 5602TIP3    H116812   2.021   4.933   4.377
 5602TIP3    H216813   2.103   4.850   4.475
 5603TIP3   OH216814   0.423   5.370   4.908
 5603TIP3    H116815   0.353   5.309   4.884
 5603TIP3    H216816   0.457   5.402   4.825
 5604TIP3   OH216817   1.770   5.069   3.250
 5604TIP3    H116818   1.693   5.015   3.235
 5604TIP3    H216819   1.840   5.007   3.271
 5605TIP3   OH216820   5.926   1.221   2.772
 5605TIP3    H116821   5.861   1.180   2.715
 5605TIP3    H216822   5.927   1.313   2.744
 5606TIP3   OH216823   2.056   2.234   2.401
 5606TIP3    H116824   2.016   2.167   2.346
 5606TIP3    H216825   2.149   2.211   2.404
 5607TIP3   OH216826   4.922   0.137   0.566
 5607TIP3    H116827   5.006   0.093   0.581
 5607TIP3    H216828   4.934   0.224   0.603
 5608TIP3   OH216829   6.053   1.049   2.945
 5608TIP3    H116830   6.134   1.034   2.895
 5608TIP3    H216831   6.010   1.121   2.898
 5609TIP3   OH216832   2.974   4.680   4.103
 5609TIP3    H116833   2.980   4.743   4.175
 5609TIP3    H216834   2.907   4.716   4.045
 5610TIP3   OH216835   2.322   4.725   4.929
 5610TIP3    H116836   2.273   4.713   4.848
 5610TIP3    H216837   2.269   4.682   4.996
 5611TIP3   OH216838   3.091   2.212   2.720
 5611TIP3    H116839   3.165   2.251   2.672
 5611TIP3    H216840   3.073   2.273   2.791
 5612TIP3   OH216841   4.250   2.294   2.893
 5612TIP3    H116842   4.303   2.306   2.971
 5612TIP3    H216843   4.251   2.379   2.850
 5613TIP3   OH216844   6.187   4.064   3.819
 5613TIP3    H116845   6.145   4.081   3.903
 5613TIP3    H216846   6.278   4.088   3.832
 5614TIP3   OH216847   5.990   0.674   4.930
 5614TIP3    H116848   5.943   0.654   4.849
 5614TIP3    H216849   5.924   0.714   4.987
 5615TIP3   OH216850   1.931   0.055   3.382
 5615TIP3    H116851   1.884   0.137   3.367
 5615TIP3    H216852   2.024   0.081   3.386
 5616TIP3   OH216853   4.851   1.118   3.306
 5616TIP3    H116854   4.870   1.033   3.346
 5616TIP3    H216855   4.769   1.105   3.258
 5617TIP3   OH216856   6.181   4.599   4.331
 5617TIP3    H116857   6.261   4.645   4.356
 5617TIP3    H216858   6.126   4.665   4.290
 5618TIP3   OH216859   0.350   4.729   4.645
 5618TIP3    H116860   0.258   4.747   4.663
 5618TIP3    H216861   0.386   4.814   4.618
 5619TIP3   OH216862   2.488   4.557   4.696
 5619TIP3    H116863   2.531   4.528   4.616
 5619TIP3    H216864   2.487   4.653   4.690
 5620TIP3   OH216865   2.232   0.243   1.556
 5620TIP3    H116866   2.278   0.162   1.535
 5620TIP3    H216867   2.154   0.214   1.603
 5621TIP3   OH216868   5.399   4.899   4.233
 5621TIP3    H116869   5.420   4.906   4.326
 5621TIP3    H216870   5.457   4.830   4.201
 5622TIP3   OH216871   2.964   2.055   1.380
 5622TIP3    H116872   2.940   1.993   1.449
 5622TIP3    H216873   3.049   2.025   1.348
 5623TIP3   OH216874   1.275   1.212   2.597
 5623TIP3    H116875   1.243   1.151   2.663
 5623TIP3    H216876   1.370   1.213   2.608
 5624TIP3   OH216877   1.468   3.305   2.778
 5624TIP3    H116878   1.525   3.358   2.833
 5624TIP3    H216879   1.383   3.308   2.821
 5625TIP3   OH216880   3.719   3.364   4.713
 5625TIP3    H116881   3.644   3.387   4.769
 5625TIP3    H216882   3.682   3.313   4.641
 5626TIP3   OH216883   1.133   2.162   3.487
 5626TIP3    H116884   1.180   2.238   3.519
 5626TIP3    H216885   1.192   2.088   3.502
 5627TIP3   OH216886   1.645   2.204   0.205
 5627TIP3    H116887   1.688   2.130   0.248
 5627TIP3    H216888   1.717   2.259   0.173
 5628TIP3   OH216889   5.431   4.277   0.279
 5628TIP3    H116890   5.347   4.241   0.250
 5628TIP3    H216891   5.464   4.215   0.343
 5629TIP3   OH216892   5.577   0.208   1.252
 5629TIP3    H116893   5.488   0.234   1.276
 5629TIP3    H216894   5.577   0.203   1.157
 5630TIP3   OH216895   0.399   1.173   4.856
 5630TIP3    H116896   0.363   1.090   4.824
 5630TIP3    H216897   0.323   1.226   4.878
 5631TIP3   OH216898   0.913   0.177   4.733
 5631TIP3    H116899   0.959   0.094   4.737
 5631TIP3    H216900   0.977   0.239   4.699
 5632TIP3   OH216901   3.841   0.051   1.313
 5632TIP3    H116902   3.820  -0.040   1.292
 5632TIP3    H216903   3.931   0.062   1.282
 5633TIP3   OH216904   1.499   5.335   0.562
 5633TIP3    H116905   1.504   5.272   0.490
 5633TIP3    H216906   1.584   5.379   0.561
 5634TIP3   OH216907   2.465   5.171   2.082
 5634TIP3    H116908   2.412   5.131   2.013
 5634TIP3    H216909   2.508   5.097   2.125
 5635TIP3   OH216910   4.422   0.692   2.026
 5635TIP3    H116911   4.503   0.715   1.980
 5635TIP3    H216912   4.354   0.697   1.958
 5636TIP3   OH216913   1.191   5.835   0.939
 5636TIP3    H116914   1.197   5.776   1.014
 5636TIP3    H216915   1.200   5.777   0.863
 5637TIP3   OH216916   5.963   1.193   3.177
 5637TIP3    H116917   5.887   1.241   3.143
 5637TIP3    H216918   5.997   1.146   3.101
 5638TIP3   OH216919   3.302   0.239   2.904
 5638TIP3    H116920   3.303   0.154   2.860
 5638TIP3    H216921   3.369   0.290   2.857
 5639TIP3   OH216922   4.961   3.603   2.838
 5639TIP3    H116923   4.909   3.552   2.776
 5639TIP3    H216924   4.898   3.662   2.880
 5640TIP3   OH216925   1.765   2.228   3.304
 5640TIP3    H116926   1.831   2.214   3.372
 5640TIP3    H216927   1.759   2.143   3.259
 5641TIP3   OH216928   4.918   5.290   2.537
 5641TIP3    H116929   4.990   5.351   2.521
 5641TIP3    H216930   4.862   5.299   2.460
 5642TIP3   OH216931   4.931   4.409   2.924
 5642TIP3    H116932   4.975   4.409   3.009
 5642TIP3    H216933   4.996   4.371   2.864
 5643TIP3   OH216934   5.245   2.778   3.794
 5643TIP3    H116935   5.215   2.765   3.884
 5643TIP3    H216936   5.325   2.726   3.788
 5644TIP3   OH216937   4.688   2.095   4.408
 5644TIP3    H116938   4.777   2.062   4.396
 5644TIP3    H216939   4.700   2.186   4.435
 5645TIP3   OH216940   0.664   4.934   3.989
 5645TIP3    H116941   0.746   4.885   3.980
 5645TIP3    H216942   0.618   4.919   3.906
 5646TIP3   OH216943   2.708   0.153   1.971
 5646TIP3    H116944   2.799   0.143   1.942
 5646TIP3    H216945   2.669   0.213   1.907
 5647TIP3   OH216946   0.447   2.779   4.042
 5647TIP3    H116947   0.504   2.751   4.114
 5647TIP3    H216948   0.397   2.852   4.079
 5648TIP3   OH216949   3.960   2.531   2.755
 5648TIP3    H116950   4.053   2.556   2.754
 5648TIP3    H216951   3.948   2.481   2.674
 5649TIP3   OH216952   1.023   1.747   2.075
 5649TIP3    H116953   1.100   1.744   2.132
 5649TIP3    H216954   0.953   1.706   2.126
 5650TIP3   OH216955   5.993   3.173   3.834
 5650TIP3    H116956   6.060   3.223   3.881
 5650TIP3    H216957   5.915   3.229   3.839
 5651TIP3   OH216958   6.235   1.564   3.695
 5651TIP3    H116959   6.158   1.537   3.745
 5651TIP3    H216960   6.201   1.590   3.610
 5652TIP3   OH216961   3.233   1.406   0.991
 5652TIP3    H116962   3.251   1.450   0.908
 5652TIP3    H216963   3.172   1.336   0.969
 5653TIP3   OH216964   4.213   0.262   3.257
 5653TIP3    H116965   4.304   0.280   3.236
 5653TIP3    H216966   4.206   0.167   3.256
 5654TIP3   OH216967   0.652   2.211   3.206
 5654TIP3    H116968   0.648   2.292   3.155
 5654TIP3    H216969   0.574   2.213   3.260
 5655TIP3   OH216970   0.283   2.309   3.142
 5655TIP3    H116971   0.281   2.232   3.199
 5655TIP3    H216972   0.212   2.365   3.174
 5656TIP3   OH216973   2.349   0.833   4.395
 5656TIP3    H116974   2.426   0.858   4.447
 5656TIP3    H216975   2.381   0.764   4.337
 5657TIP3   OH216976   2.317   4.992   5.002
 5657TIP3    H116977   2.343   4.917   4.947
 5657TIP3    H216978   2.223   4.980   5.016
 5658TIP3   OH216979   1.097   5.119   0.392
 5658TIP3    H116980   1.180   5.072   0.401
 5658TIP3    H216981   1.122   5.209   0.371
 5659TIP3   OH216982   5.763   0.283   3.479
 5659TIP3    H116983   5.701   0.289   3.551
 5659TIP3    H216984   5.770   0.372   3.446
 5660TIP3   OH216985   0.386   2.748   3.080
 5660TIP3    H116986   0.384   2.823   3.020
 5660TIP3    H216987   0.355   2.784   3.164
 5661TIP3   OH216988   3.740   1.133   1.330
 5661TIP3    H116989   3.735   1.138   1.235
 5661TIP3    H216990   3.665   1.080   1.355
 5662TIP3   OH216991   2.583   3.428   0.743
 5662TIP3    H116992   2.610   3.393   0.659
 5662TIP3    H216993   2.658   3.412   0.801
 5663TIP3   OH216994   6.262   5.536   0.927
 5663TIP3    H116995   6.182   5.542   0.980
 5663TIP3    H216996   6.320   5.480   0.978
 5664TIP3   OH216997   5.993   2.212   5.107
 5664TIP3    H116998   5.993   2.305   5.084
 5664TIP3    H216999   5.909   2.180   5.075
 5665TIP3   OH217000   2.000   3.781   1.082
 5665TIP3    H117001   2.024   3.864   1.040
 5665TIP3    H217002   2.014   3.796   1.175
 5666TIP3   OH217003   3.210   2.953   1.668
 5666TIP3    H117004   3.235   2.862   1.653
 5666TIP3    H217005   3.266   3.004   1.609
 5667TIP3   OH217006   4.926   0.385   0.943
 5667TIP3    H117007   4.925   0.416   0.853
 5667TIP3    H217008   4.859   0.436   0.988
 5668TIP3   OH217009   1.403   4.826   0.072
 5668TIP3    H117010   1.355   4.909   0.080
 5668TIP3    H217011   1.486   4.851   0.032
 5669TIP3   OH217012   1.158   5.340   0.056
 5669TIP3    H117013   1.205   5.257   0.044
 5669TIP3    H217014   1.217   5.406   0.018
 5670TIP3   OH217015   0.161   0.210   1.202
 5670TIP3    H117016   0.103   0.286   1.212
 5670TIP3    H217017   0.231   0.225   1.265
 5671TIP3   OH217018   5.071   4.729   3.097
 5671TIP3    H117019   5.008   4.736   3.025
 5671TIP3    H217020   5.148   4.778   3.065
 5672TIP3   OH217021   1.032   4.051   3.115
 5672TIP3    H117022   0.943   4.081   3.095
 5672TIP3    H217023   1.031   3.957   3.097
 5673TIP3   OH217024   1.875   1.236   1.302
 5673TIP3    H117025   1.791   1.191   1.314
 5673TIP3    H217026   1.932   1.200   1.370
 5674TIP3   OH217027   5.273   0.004   5.087
 5674TIP3    H117028   5.242   0.088   5.053
 5674TIP3    H217029   5.358   0.025   5.128
 5675TIP3   OH217030   5.769   2.280   4.324
 5675TIP3    H117031   5.728   2.238   4.248
 5675TIP3    H217032   5.781   2.371   4.297
 5676TIP3   OH217033   1.336   0.294   3.300
 5676TIP3    H117034   1.303   0.320   3.214
 5676TIP3    H217035   1.290   0.212   3.320
 5677TIP3   OH217036   0.465   0.093   3.056
 5677TIP3    H117037   0.488   0.141   2.976
 5677TIP3    H217038   0.436   0.162   3.117
 5678TIP3   OH217039   3.699   5.078   3.341
 5678TIP3    H117040   3.718   5.061   3.248
 5678TIP3    H217041   3.603   5.069   3.347
 5679TIP3   OH217042   3.423   4.252   1.486
 5679TIP3    H117043   3.356   4.300   1.534
 5679TIP3    H217044   3.473   4.205   1.554
 5680TIP3   OH217045   3.799   1.876   0.705
 5680TIP3    H117046   3.708   1.886   0.675
 5680TIP3    H217047   3.848   1.940   0.655
 5681TIP3   OH217048   0.599   2.425   4.243
 5681TIP3    H117049   0.507   2.424   4.268
 5681TIP3    H217050   0.646   2.403   4.323
 5682TIP3   OH217051   1.494   3.486   1.721
 5682TIP3    H117052   1.543   3.412   1.757
 5682TIP3    H217053   1.560   3.552   1.701
 5683TIP3   OH217054   1.873   3.451   3.408
 5683TIP3    H117055   1.940   3.517   3.425
 5683TIP3    H217056   1.922   3.370   3.393
 5684TIP3   OH217057   1.443   4.057   3.868
 5684TIP3    H117058   1.422   4.105   3.787
 5684TIP3    H217059   1.529   4.089   3.893
 5685TIP3   OH217060   4.120   1.030   3.359
 5685TIP3    H117061   4.098   1.123   3.368
 5685TIP3    H217062   4.084   1.005   3.274
 5686TIP3   OH217063   2.721   1.831   2.992
 5686TIP3    H117064   2.801   1.812   3.041
 5686TIP3    H217065   2.751   1.886   2.919
 5687TIP3   OH217066   5.839   0.413   0.669
 5687TIP3    H117067   5.933   0.413   0.687
 5687TIP3    H217068   5.814   0.321   0.673
 5688TIP3   OH217069   3.468   5.199   0.465
 5688TIP3    H117070   3.383   5.182   0.426
 5688TIP3    H217071   3.513   5.253   0.401
 5689TIP3   OH217072   2.890   3.761   4.705
 5689TIP3    H117073   2.961   3.741   4.766
 5689TIP3    H217074   2.831   3.816   4.756
 5690TIP3   OH217075   1.279   2.400   1.497
 5690TIP3    H117076   1.212   2.346   1.538
 5690TIP3    H217077   1.240   2.487   1.491
 5691TIP3   OH217078   0.287   4.606   0.022
 5691TIP3    H117079   0.293   4.511   0.035
 5691TIP3    H217080   0.219   4.634   0.083
 5692TIP3   OH217081   5.731   2.139   5.067
 5692TIP3    H117082   5.695   2.098   4.988
 5692TIP3    H217083   5.663   2.128   5.133
 5693TIP3   OH217084   0.134   1.705   0.936
 5693TIP3    H117085   0.221   1.669   0.918
 5693TIP3    H217086   0.133   1.790   0.892
 5694TIP3   OH217087   0.262   0.661   0.030
 5694TIP3    H117088   0.330   0.606  -0.010
 5694TIP3    H217089   0.198   0.600   0.065
 5695TIP3   OH217090   0.668   1.988   0.199
 5695TIP3    H117091   0.673   2.077   0.164
 5695TIP3    H217092   0.601   1.994   0.267
 5696TIP3   OH217093   1.864   2.636   4.771
 5696TIP3    H117094   1.878   2.633   4.676
 5696TIP3    H217095   1.858   2.730   4.791
 5697TIP3   OH217096   4.945   0.557   1.422
 5697TIP3    H117097   4.911   0.519   1.503
 5697TIP3    H217098   5.034   0.584   1.443
 5698TIP3   OH217099   3.434   2.500   0.052
 5698TIP3    H117100   3.479   2.421   0.020
 5698TIP3    H217101   3.441   2.494   0.147
 5699TIP3   OH217102   5.384   4.027   0.419
 5699TIP3    H117103   5.361   3.956   0.359
 5699TIP3    H217104   5.478   4.016   0.434
 5700TIP3   OH217105   2.728   5.362   4.605
 5700TIP3    H117106   2.710   5.394   4.694
 5700TIP3    H217107   2.813   5.399   4.583
 5701TIP3   OH217108   5.439   5.665   0.595
 5701TIP3    H117109   5.442   5.615   0.677
 5701TIP3    H217110   5.477   5.750   0.617
 5702TIP3   OH217111   2.174   3.540   4.912
 5702TIP3    H117112   2.101   3.555   4.852
 5702TIP3    H217113   2.176   3.618   4.967
 5703TIP3   OH217114   5.720   5.918   1.093
 5703TIP3    H117115   5.626   5.936   1.091
 5703TIP3    H217116   5.756   5.987   1.148
 5704TIP3   OH217117   6.080   1.777   0.225
 5704TIP3    H117118   6.123   1.722   0.290
 5704TIP3    H217119   6.153   1.816   0.176
 5705TIP3   OH217120   5.410   4.755   2.783
 5705TIP3    H117121   5.433   4.791   2.697
 5705TIP3    H217122   5.493   4.736   2.825
 5706TIP3   OH217123   3.517   0.093   3.148
 5706TIP3    H117124   3.528   0.181   3.112
 5706TIP3    H217125   3.470   0.106   3.230
 5707TIP3   OH217126   1.595   0.101   0.280
 5707TIP3    H117127   1.599   0.195   0.294
 5707TIP3    H217128   1.594   0.091   0.184
 5708TIP3   OH217129   4.100   4.962   4.347
 5708TIP3    H117130   4.014   4.921   4.339
 5708TIP3    H217131   4.096   5.038   4.289
 5709TIP3   OH217132   1.760   2.490   1.723
 5709TIP3    H117133   1.693   2.554   1.749
 5709TIP3    H217134   1.711   2.409   1.709
 5710TIP3   OH217135   1.111   2.946   3.896
 5710TIP3    H117136   1.024   2.908   3.900
 5710TIP3    H217137   1.159   2.890   3.835
 5711TIP3   OH217138   3.125   2.683   4.431
 5711TIP3    H117139   3.164   2.607   4.474
 5711TIP3    H217140   3.113   2.746   4.501
 5712TIP3   OH217141   2.028   1.337   3.463
 5712TIP3    H117142   1.991   1.249   3.471
 5712TIP3    H217143   2.082   1.347   3.542
 5713TIP3   OH217144   1.227   5.624   2.789
 5713TIP3    H117145   1.196   5.564   2.721
 5713TIP3    H217146   1.152   5.638   2.846
 5714TIP3   OH217147   4.333  -0.021   2.697
 5714TIP3    H117148   4.282   0.060   2.703
 5714TIP3    H217149   4.294  -0.069   2.624
 5715TIP3   OH217150   3.206   0.282   3.163
 5715TIP3    H117151   3.266   0.348   3.198
 5715TIP3    H217152   3.257   0.236   3.096
 5716TIP3   OH217153   1.803   4.270   2.369
 5716TIP3    H117154   1.746   4.309   2.435
 5716TIP3    H217155   1.744   4.223   2.311
 5717TIP3   OH217156   0.583   0.977   0.483
 5717TIP3    H117157   0.566   0.926   0.562
 5717TIP3    H217158   0.530   0.935   0.415
 5718TIP3   OH217159   5.579   2.823   0.025
 5718TIP3    H117160   5.561   2.816  -0.069
 5718TIP3    H217161   5.595   2.916   0.040
 5719TIP3   OH217162   0.620   4.755   5.075
 5719TIP3    H117163   0.595   4.704   4.998
 5719TIP3    H217164   0.640   4.842   5.040
 5720TIP3   OH217165   4.229   4.250   2.933
 5720TIP3    H117166   4.287   4.235   3.008
 5720TIP3    H217167   4.176   4.170   2.927
 5721TIP3   OH217168   2.830   0.461   1.505
 5721TIP3    H117169   2.791   0.374   1.493
 5721TIP3    H217170   2.911   0.458   1.453
 5722TIP3   OH217171   3.899   1.270   2.992
 5722TIP3    H117172   3.841   1.319   2.932
 5722TIP3    H217173   3.967   1.333   3.016
 5723TIP3   OH217174   2.010   5.015   0.074
 5723TIP3    H117175   2.049   4.939   0.117
 5723TIP3    H217176   1.950   4.979   0.009
 5724TIP3   OH217177   3.987   5.221   4.743
 5724TIP3    H117178   3.958   5.253   4.829
 5724TIP3    H217179   4.021   5.133   4.760
 5725TIP3   OH217180   0.257   4.136   2.872
 5725TIP3    H117181   0.234   4.212   2.925
 5725TIP3    H217182   0.325   4.167   2.813
 5726TIP3   OH217183   4.192   3.661   4.693
 5726TIP3    H117184   4.205   3.756   4.691
 5726TIP3    H217185   4.120   3.648   4.754
 5727TIP3   OH217186   5.124   0.665   2.914
 5727TIP3    H117187   5.185   0.593   2.932
 5727TIP3    H217188   5.061   0.628   2.852
 5728TIP3   OH217189   2.534   4.127   0.210
 5728TIP3    H117190   2.518   4.072   0.287
 5728TIP3    H217191   2.573   4.067   0.146
 5729TIP3   OH217192   5.395   3.165   3.255
 5729TIP3    H117193   5.397   3.126   3.342
 5729TIP3    H217194   5.367   3.093   3.197
 5730TIP3   OH217195   5.947   5.634   1.990
 5730TIP3    H117196   5.889   5.665   1.920
 5730TIP3    H217197   5.976   5.713   2.035
 5731TIP3   OH217198   0.733   4.125   4.383
 5731TIP3    H117199   0.659   4.184   4.369
 5731TIP3    H217200   0.699   4.055   4.438
 5732TIP3   OH217201   1.997   4.381   0.872
 5732TIP3    H117202   2.093   4.381   0.871
 5732TIP3    H217203   1.973   4.303   0.822
 5733TIP3   OH217204   0.201   3.746   2.193
 5733TIP3    H117205   0.265   3.816   2.188
 5733TIP3    H217206   0.252   3.665   2.185
 5734TIP3   OH217207   1.080   0.554   2.845
 5734TIP3    H117208   0.990   0.557   2.813
 5734TIP3    H217209   1.119   0.481   2.798
 5735TIP3   OH217210   3.714   0.795   0.593
 5735TIP3    H117211   3.754   0.777   0.508
 5735TIP3    H217212   3.639   0.850   0.573
 5736TIP3   OH217213   3.983   2.568   3.408
 5736TIP3    H117214   3.909   2.628   3.403
 5736TIP3    H217215   4.055   2.623   3.440
 5737TIP3   OH217216   4.855   2.131   5.116
 5737TIP3    H117217   4.909   2.067   5.161
 5737TIP3    H217218   4.766   2.113   5.147
 5738TIP3   OH217219   3.478   1.655   3.453
 5738TIP3    H117220   3.559   1.686   3.492
 5738TIP3    H217221   3.422   1.633   3.528
 5739TIP3   OH217222   4.317   4.895   3.730
 5739TIP3    H117223   4.349   4.908   3.819
 5739TIP3    H217224   4.238   4.949   3.725
 5740TIP3   OH217225   2.498   4.181   0.848
 5740TIP3    H117226   2.533   4.120   0.912
 5740TIP3    H217227   2.570   4.242   0.832
 5741TIP3   OH217228   4.066   0.893   0.540
 5741TIP3    H117229   4.121   0.964   0.508
 5741TIP3    H217230   4.032   0.925   0.624
 5742TIP3   OH217231   2.224   0.442   3.874
 5742TIP3    H117232   2.293   0.507   3.868
 5742TIP3    H217233   2.162   0.465   3.805
 5743TIP3   OH217234   2.092   0.099   4.856
 5743TIP3    H117235   2.078   0.042   4.780
 5743TIP3    H217236   2.184   0.086   4.878
 5744TIP3   OH217237   2.396   3.377   4.353
 5744TIP3    H117238   2.411   3.321   4.428
 5744TIP3    H217239   2.450   3.340   4.283
 5745TIP3   OH217240   5.641   4.028   0.477
 5745TIP3    H117241   5.650   3.954   0.538
 5745TIP3    H217242   5.728   4.036   0.438
 5746TIP3   OH217243   1.293   2.792   3.422
 5746TIP3    H117244   1.342   2.712   3.441
 5746TIP3    H217245   1.214   2.761   3.377
 5747TIP3   OH217246   4.735   4.862   0.951
 5747TIP3    H117247   4.809   4.916   0.979
 5747TIP3    H217248   4.659   4.901   0.994
 5748TIP3   OH217249   3.547   0.694   3.420
 5748TIP3    H117250   3.545   0.665   3.511
 5748TIP3    H217251   3.455   0.689   3.391
 5749TIP3   OH217252   0.797   5.982   4.774
 5749TIP3    H117253   0.821   6.021   4.858
 5749TIP3    H217254   0.876   5.936   4.745
 5750TIP3   OH217255   4.243   3.916   3.308
 5750TIP3    H117256   4.305   3.920   3.381
 5750TIP3    H217257   4.164   3.958   3.342
 5751TIP3   OH217258   0.531   3.300   3.913
 5751TIP3    H117259   0.475   3.262   3.846
 5751TIP3    H217260   0.618   3.302   3.873
 5752TIP3   OH217261   3.250   3.020   4.477
 5752TIP3    H117262   3.189   2.966   4.528
 5752TIP3    H217263   3.274   3.091   4.536
 5753TIP3   OH217264   6.286   4.761   4.003
 5753TIP3    H117265   6.316   4.745   3.913
 5753TIP3    H217266   6.198   4.798   3.993
 5754TIP3   OH217267   1.794   1.124   5.074
 5754TIP3    H117268   1.766   1.149   5.162
 5754TIP3    H217269   1.734   1.054   5.049
 5755TIP3   OH217270   4.725   5.988   0.130
 5755TIP3    H117271   4.806   5.970   0.082
 5755TIP3    H217272   4.729   5.931   0.206
 5756TIP3   OH217273   3.921   4.171   3.067
 5756TIP3    H117274   3.986   4.106   3.043
 5756TIP3    H217275   3.898   4.214   2.985
 5757TIP3   OH217276   2.949   3.019   1.746
 5757TIP3    H117277   2.908   3.000   1.662
 5757TIP3    H217278   3.041   2.998   1.733
 5758TIP3   OH217279   0.223   1.211   4.460
 5758TIP3    H117280   0.163   1.141   4.437
 5758TIP3    H217281   0.245   1.196   4.552
 5759TIP3   OH217282   5.638   4.752   1.987
 5759TIP3    H117283   5.645   4.803   2.068
 5759TIP3    H217284   5.727   4.753   1.950
 5760TIP3   OH217285   2.487   4.783   1.905
 5760TIP3    H117286   2.453   4.737   1.828
 5760TIP3    H217287   2.582   4.770   1.901
 5761TIP3   OH217288   4.127   5.343   2.935
 5761TIP3    H117289   4.120   5.261   2.985
 5761TIP3    H217290   4.056   5.338   2.871
 5762TIP3   OH217291   4.673   1.636   3.017
 5762TIP3    H117292   4.604   1.670   3.073
 5762TIP3    H217293   4.747   1.620   3.076
 5763TIP3   OH217294   0.203   0.658   4.709
 5763TIP3    H117295   0.132   0.612   4.665
 5763TIP3    H217296   0.233   0.723   4.646
 5764TIP3   OH217297   5.836   2.917   3.110
 5764TIP3    H117298   5.797   2.849   3.055
 5764TIP3    H217299   5.768   2.985   3.116
 5765TIP3   OH217300   0.776   3.294   1.829
 5765TIP3    H117301   0.801   3.206   1.859
 5765TIP3    H217302   0.842   3.317   1.764
 5766TIP3   OH217303   1.389   2.950   2.803
 5766TIP3    H117304   1.472   2.976   2.764
 5766TIP3    H217305   1.359   2.877   2.749
 5767TIP3   OH217306   4.402   2.643   2.316
 5767TIP3    H117307   4.484   2.594   2.324
 5767TIP3    H217308   4.370   2.623   2.228
 5768TIP3   OH217309   1.509   3.980   0.649
 5768TIP3    H117310   1.585   3.921   0.658
 5768TIP3    H217311   1.542   4.065   0.678
 5769TIP3   OH217312   0.098   0.128   2.546
 5769TIP3    H117313   0.033   0.125   2.476
 5769TIP3    H217314   0.062   0.189   2.610
 5770TIP3   OH217315   3.755   5.038   1.724
 5770TIP3    H117316   3.808   5.096   1.669
 5770TIP3    H217317   3.730   4.966   1.667
 5771TIP3   OH217318   3.783   2.656   4.194
 5771TIP3    H117319   3.840   2.707   4.137
 5771TIP3    H217320   3.696   2.692   4.178
 5772TIP3   OH217321   5.940   1.050   0.304
 5772TIP3    H117322   5.877   0.979   0.296
 5772TIP3    H217323   5.957   1.058   0.397
 5773TIP3   OH217324   6.162   4.660   1.008
 5773TIP3    H117325   6.162   4.756   1.001
 5773TIP3    H217326   6.096   4.632   0.945
 5774TIP3   OH217327   4.597   3.192   2.834
 5774TIP3    H117328   4.544   3.131   2.886
 5774TIP3    H217329   4.541   3.269   2.823
 5775TIP3   OH217330   6.078   2.840   3.543
 5775TIP3    H117331   6.095   2.923   3.588
 5775TIP3    H217332   6.052   2.865   3.455
 5776TIP3   OH217333   3.047   1.156   4.641
 5776TIP3    H117334   2.955   1.161   4.664
 5776TIP3    H217335   3.093   1.189   4.719
 5777TIP3   OH217336   0.807   4.993   2.301
 5777TIP3    H117337   0.742   5.015   2.235
 5777TIP3    H217338   0.854   4.918   2.265
 5778TIP3   OH217339   3.674   5.355   1.355
 5778TIP3    H117340   3.768   5.357   1.340
 5778TIP3    H217341   3.655   5.264   1.376
 5779TIP3   OH217342   1.088   4.779   1.778
 5779TIP3    H117343   1.137   4.823   1.709
 5779TIP3    H217344   0.996   4.799   1.758
 5780TIP3   OH217345   0.669   4.379   1.963
 5780TIP3    H117346   0.639   4.291   1.939
 5780TIP3    H217347   0.753   4.389   1.920
 5781TIP3   OH217348   5.931   5.089   0.111
 5781TIP3    H117349   5.978   5.042   0.180
 5781TIP3    H217350   5.991   5.088   0.036
 5782TIP3   OH217351   3.039   3.163   0.280
 5782TIP3    H117352   3.027   3.206   0.196
 5782TIP3    H217353   2.999   3.077   0.269
 5783TIP3   OH217354   1.533   1.552   0.639
 5783TIP3    H117355   1.511   1.574   0.549
 5783TIP3    H217356   1.622   1.586   0.651
 5784TIP3   OH217357   4.923   0.113   4.787
 5784TIP3    H117358   5.011   0.097   4.753
 5784TIP3    H217359   4.929   0.093   4.880
 5785TIP3   OH217360   5.203   0.216   2.199
 5785TIP3    H117361   5.207   0.302   2.241
 5785TIP3    H217362   5.290   0.203   2.163
 5786TIP3   OH217363   2.504   5.427   0.076
 5786TIP3    H117364   2.466   5.409  -0.010
 5786TIP3    H217365   2.452   5.373   0.137
 5787TIP3   OH217366   4.377   2.707   0.700
 5787TIP3    H117367   4.349   2.710   0.792
 5787TIP3    H217368   4.470   2.732   0.703
 5788TIP3   OH217369   5.351   0.598   3.783
 5788TIP3    H117370   5.409   0.627   3.853
 5788TIP3    H217371   5.291   0.672   3.771
 5789TIP3   OH217372   3.734   1.457   2.158
 5789TIP3    H117373   3.719   1.365   2.182
 5789TIP3    H217374   3.703   1.507   2.233
 5790TIP3   OH217375   2.563   0.255   1.764
 5790TIP3    H117376   2.619   0.291   1.696
 5790TIP3    H217377   2.487   0.313   1.766
 5791TIP3   OH217378   4.869   3.444   3.200
 5791TIP3    H117379   4.887   3.533   3.173
 5791TIP3    H217380   4.775   3.431   3.184
 5792TIP3   OH217381   5.151   3.232   2.743
 5792TIP3    H117382   5.186   3.301   2.799
 5792TIP3    H217383   5.056   3.236   2.755
 5793TIP3   OH217384   1.357   3.244   1.250
 5793TIP3    H117385   1.439   3.264   1.296
 5793TIP3    H217386   1.374   3.267   1.159
 5794TIP3   OH217387   4.423   2.591   3.581
 5794TIP3    H117388   4.352   2.529   3.562
 5794TIP3    H217389   4.499   2.555   3.536
 5795TIP3   OH217390   4.898   2.608   1.559
 5795TIP3    H117391   4.884   2.616   1.653
 5795TIP3    H217392   4.982   2.563   1.551
 5796TIP3   OH217393   3.407   2.255   0.372
 5796TIP3    H117394   3.427   2.243   0.280
 5796TIP3    H217395   3.334   2.195   0.389
 5797TIP3   OH217396   4.933   1.649   2.516
 5797TIP3    H117397   4.917   1.716   2.450
 5797TIP3    H217398   4.892   1.683   2.595
 5798TIP3   OH217399   2.347   0.406   1.730
 5798TIP3    H117400   2.294   0.361   1.665
 5798TIP3    H217401   2.312   0.495   1.732
 5799TIP3   OH217402   3.806   5.608   1.814
 5799TIP3    H117403   3.721   5.631   1.775
 5799TIP3    H217404   3.868   5.664   1.769
 5800TIP3   OH217405   4.355   3.069   3.656
 5800TIP3    H117406   4.394   3.070   3.568
 5800TIP3    H217407   4.430   3.069   3.715
 5801TIP3   OH217408   2.493   5.885   2.061
 5801TIP3    H117409   2.530   5.966   2.026
 5801TIP3    H217410   2.564   5.822   2.058
 5802TIP3   OH217411   3.665   1.852   2.753
 5802TIP3    H117412   3.757   1.869   2.734
 5802TIP3    H217413   3.640   1.785   2.689
 5803TIP3   OH217414   3.330   1.125   5.074
 5803TIP3    H117415   3.353   1.214   5.100
 5803TIP3    H217416   3.246   1.135   5.028
 5804TIP3   OH217417   2.301   4.516   2.113
 5804TIP3    H117418   2.279   4.522   2.020
 5804TIP3    H217419   2.277   4.601   2.150
 5805TIP3   OH217420   6.028   0.463   1.459
 5805TIP3    H117421   5.981   0.545   1.444
 5805TIP3    H217422   5.969   0.395   1.427
 5806TIP3   OH217423   5.590   1.980   1.769
 5806TIP3    H117424   5.648   1.914   1.732
 5806TIP3    H217425   5.621   1.994   1.858
 5807TIP3   OH217426   1.929   3.795   2.432
 5807TIP3    H117427   1.867   3.788   2.505
 5807TIP3    H217428   1.968   3.708   2.425
 5808TIP3   OH217429   4.014   1.705   3.348
 5808TIP3    H117430   3.993   1.745   3.264
 5808TIP3    H217431   3.955   1.746   3.411
 5809TIP3   OH217432   1.730   5.517   4.085
 5809TIP3    H117433   1.683   5.473   4.014
 5809TIP3    H217434   1.807   5.555   4.043
 5810TIP3   OH217435   0.310   0.452   3.669
 5810TIP3    H117436   0.274   0.538   3.690
 5810TIP3    H217437   0.234   0.394   3.664
 5811TIP3   OH217438   1.220   0.720   2.598
 5811TIP3    H117439   1.201   0.717   2.692
 5811TIP3    H217440   1.212   0.629   2.569
 5812TIP3   OH217441   3.947   4.562   1.495
 5812TIP3    H117442   3.928   4.562   1.589
 5812TIP3    H217443   4.023   4.620   1.487
 5813TIP3   OH217444   5.783   5.004   0.353
 5813TIP3    H117445   5.692   5.005   0.324
 5813TIP3    H217446   5.834   5.005   0.272
 5814TIP3   OH217447   3.144   0.811   4.642
 5814TIP3    H117448   3.179   0.892   4.604
 5814TIP3    H217449   3.061   0.797   4.598
 5815TIP3   OH217450   2.202   0.619   2.461
 5815TIP3    H117451   2.272   0.625   2.526
 5815TIP3    H217452   2.148   0.546   2.491
 5816TIP3   OH217453   0.111   1.572   2.646
 5816TIP3    H117454   0.037   1.609   2.693
 5816TIP3    H217455   0.152   1.512   2.709
 5817TIP3   OH217456   5.796   1.849   4.485
 5817TIP3    H117457   5.726   1.847   4.420
 5817TIP3    H217458   5.750   1.850   4.570
 5818TIP3   OH217459   2.524   5.948   2.342
 5818TIP3    H117460   2.478   5.909   2.268
 5818TIP3    H217461   2.526   6.042   2.323
 5819TIP3   OH217462   1.380   1.112   4.971
 5819TIP3    H117463   1.399   1.191   5.020
 5819TIP3    H217464   1.402   1.133   4.880
 5820TIP3   OH217465   3.007   5.364  -0.011
 5820TIP3    H117466   3.075   5.350  -0.077
 5820TIP3    H217467   3.043   5.325   0.069
 5821TIP3   OH217468   1.752   1.972   0.743
 5821TIP3    H117469   1.678   1.994   0.800
 5821TIP3    H217470   1.786   2.057   0.714
 5822TIP3   OH217471   3.858   0.083   2.298
 5822TIP3    H117472   3.797   0.059   2.367
 5822TIP3    H217473   3.817   0.158   2.255
 5823TIP3   OH217474   0.672   2.039   1.973
 5823TIP3    H117475   0.632   2.065   1.890
 5823TIP3    H217476   0.760   2.078   1.969
 5824TIP3   OH217477   2.142   2.201   4.922
 5824TIP3    H117478   2.148   2.167   4.833
 5824TIP3    H217479   2.051   2.188   4.947
 5825TIP3   OH217480   4.214   1.231   1.308
 5825TIP3    H117481   4.171   1.246   1.392
 5825TIP3    H217482   4.148   1.184   1.256
 5826TIP3   OH217483   5.024   2.081   4.129
 5826TIP3    H117484   5.095   2.023   4.101
 5826TIP3    H217485   5.024   2.151   4.064
 5827TIP3   OH217486   1.320   4.574   2.465
 5827TIP3    H117487   1.280   4.628   2.397
 5827TIP3    H217488   1.347   4.636   2.533
 5828TIP3   OH217489   1.019   2.775   4.121
 5828TIP3    H117490   0.980   2.813   4.200
 5828TIP3    H217491   0.967   2.812   4.049
 5829TIP3   OH217492   3.450   3.608   1.223
 5829TIP3    H117493   3.378   3.653   1.268
 5829TIP3    H217494   3.518   3.674   1.214
 5830TIP3   OH217495   2.569   5.751   4.017
 5830TIP3    H117496   2.605   5.746   4.105
 5830TIP3    H217497   2.537   5.663   3.999
 5831TIP3   OH217498   6.110   2.421   3.847
 5831TIP3    H117499   6.021   2.389   3.855
 5831TIP3    H217500   6.101   2.515   3.833
 5832TIP3   OH217501   1.958   4.180   0.694
 5832TIP3    H117502   2.052   4.164   0.697
 5832TIP3    H217503   1.926   4.124   0.623
 5833TIP3   OH217504   5.245   5.022   4.893
 5833TIP3    H117505   5.193   5.058   4.820
 5833TIP3    H217506   5.287   5.098   4.932
 5834TIP3   OH217507   4.969   2.692   4.733
 5834TIP3    H117508   4.897   2.723   4.678
 5834TIP3    H217509   4.944   2.715   4.822
 5835TIP3   OH217510   3.706   3.957   0.157
 5835TIP3    H117511   3.626   3.919   0.195
 5835TIP3    H217512   3.688   3.960   0.063
 5836TIP3   OH217513   0.708   5.324   3.757
 5836TIP3    H117514   0.796   5.361   3.770
 5836TIP3    H217515   0.725   5.233   3.732
 5837TIP3   OH217516   0.937   1.394   0.552
 5837TIP3    H117517   0.883   1.409   0.629
 5837TIP3    H217518   0.888   1.432   0.480
 5838TIP3   OH217519   5.528   2.729   1.161
 5838TIP3    H117520   5.510   2.770   1.076
 5838TIP3    H217521   5.623   2.717   1.162
 5839TIP3   OH217522   6.214   0.574   2.078
 5839TIP3    H117523   6.209   0.559   2.172
 5839TIP3    H217524   6.282   0.641   2.068
 5840TIP3   OH217525   0.265   4.894   1.958
 5840TIP3    H117526   0.172   4.882   1.938
 5840TIP3    H217527   0.308   4.817   1.921
 5841TIP3   OH217528   2.700   3.596   4.283
 5841TIP3    H117529   2.736   3.658   4.220
 5841TIP3    H217530   2.625   3.641   4.322
 5842TIP3   OH217531   3.191   5.671   1.147
 5842TIP3    H117532   3.140   5.598   1.183
 5842TIP3    H217533   3.125   5.732   1.114
 5843TIP3   OH217534   3.422   2.733   4.666
 5843TIP3    H117535   3.444   2.824   4.685
 5843TIP3    H217536   3.500   2.684   4.690
 5844TIP3   OH217537   5.690   1.819   3.486
 5844TIP3    H117538   5.732   1.825   3.572
 5844TIP3    H217539   5.762   1.810   3.424
 5845TIP3   OH217540   1.793   5.616   2.928
 5845TIP3    H117541   1.858   5.584   2.865
 5845TIP3    H217542   1.763   5.699   2.892
 5846TIP3   OH217543   2.578   2.454   2.451
 5846TIP3    H117544   2.606   2.476   2.362
 5846TIP3    H217545   2.657   2.424   2.495
 5847TIP3   OH217546   2.310   5.282   4.670
 5847TIP3    H117547   2.346   5.251   4.587
 5847TIP3    H217548   2.379   5.263   4.734
 5848TIP3   OH217549   4.486   4.044   0.570
 5848TIP3    H117550   4.508   4.133   0.541
 5848TIP3    H217551   4.510   3.988   0.496
 5849TIP3   OH217552   2.433   3.331   3.595
 5849TIP3    H117553   2.478   3.283   3.664
 5849TIP3    H217554   2.375   3.267   3.555
 5850TIP3   OH217555   6.196   5.189   3.139
 5850TIP3    H117556   6.148   5.177   3.220
 5850TIP3    H217557   6.288   5.198   3.167
 5851TIP3   OH217558   1.577   1.203   3.057
 5851TIP3    H117559   1.548   1.284   3.016
 5851TIP3    H217560   1.662   1.185   3.017
 5852TIP3   OH217561   4.568   5.212   1.769
 5852TIP3    H117562   4.525   5.249   1.692
 5852TIP3    H217563   4.543   5.270   1.841
 5853TIP3   OH217564   2.432   2.883   2.751
 5853TIP3    H117565   2.503   2.868   2.689
 5853TIP3    H217566   2.391   2.797   2.762
 5854TIP3   OH217567   5.530   2.954   1.839
 5854TIP3    H117568   5.460   3.019   1.843
 5854TIP3    H217569   5.491   2.881   1.789
 5855TIP3   OH217570   1.892   4.159   3.382
 5855TIP3    H117571   1.825   4.146   3.315
 5855TIP3    H217572   1.929   4.072   3.396
 5856TIP3   OH217573   1.630   4.708   4.432
 5856TIP3    H117574   1.586   4.688   4.515
 5856TIP3    H217575   1.721   4.683   4.447
 5857TIP3   OH217576   6.234   1.274   3.192
 5857TIP3    H117577   6.143   1.246   3.193
 5857TIP3    H217578   6.242   1.330   3.115
 5858TIP3   OH217579   5.223   5.447   2.152
 5858TIP3    H117580   5.279   5.388   2.203
 5858TIP3    H217581   5.196   5.394   2.077
 5859TIP3   OH217582   6.176   1.671   1.536
 5859TIP3    H117583   6.242   1.729   1.500
 5859TIP3    H217584   6.093   1.707   1.507
 5860TIP3   OH217585   1.504   4.560   0.800
 5860TIP3    H117586   1.599   4.543   0.801
 5860TIP3    H217587   1.492   4.620   0.726
 5861TIP3   OH217588   5.465   4.256   2.314
 5861TIP3    H117589   5.456   4.309   2.392
 5861TIP3    H217590   5.440   4.168   2.341
 5862TIP3   OH217591   6.159   0.056   2.801
 5862TIP3    H117592   6.205  -0.028   2.807
 5862TIP3    H217593   6.228   0.120   2.788
 5863TIP3   OH217594   2.596   1.342   3.113
 5863TIP3    H117595   2.598   1.436   3.092
 5863TIP3    H217596   2.509   1.314   3.087
 5864TIP3   OH217597   0.690   0.098   0.623
 5864TIP3    H117598   0.681   0.056   0.709
 5864TIP3    H217599   0.716   0.027   0.565
 5865TIP3   OH217600   1.689   3.377   3.605
 5865TIP3    H117601   1.651   3.298   3.567
 5865TIP3    H217602   1.753   3.406   3.539
 5866TIP3   OH217603   0.122   3.123   1.566
 5866TIP3    H117604   0.176   3.120   1.645
 5866TIP3    H217605   0.142   3.040   1.521
 5867TIP3   OH217606   3.648   4.890   4.063
 5867TIP3    H117607   3.613   4.854   3.981
 5867TIP3    H217608   3.591   4.855   4.131
 5868TIP3   OH217609   1.042   2.144   1.160
 5868TIP3    H117610   1.013   2.120   1.248
 5868TIP3    H217611   1.124   2.191   1.174
 5869TIP3   OH217612   5.784   1.574   2.081
 5869TIP3    H117613   5.814   1.577   2.172
 5869TIP3    H217614   5.756   1.484   2.067
 5870TIP3   OH217615   2.296   0.146   0.653
 5870TIP3    H117616   2.260   0.065   0.617
 5870TIP3    H217617   2.291   0.135   0.748
 5871TIP3   OH217618   5.425   0.450   1.036
 5871TIP3    H117619   5.336   0.477   1.057
 5871TIP3    H217620   5.419   0.357   1.016
 5872TIP3   OH217621   3.559   3.002   3.354
 5872TIP3    H117622   3.531   2.979   3.265
 5872TIP3    H217623   3.631   3.064   3.341
 5873TIP3   OH217624   6.320   0.545   5.017
 5873TIP3    H117625   6.272   0.613   4.969
 5873TIP3    H217626   6.283   0.547   5.105
 5874TIP3   OH217627   5.574   5.521   3.475
 5874TIP3    H117628   5.664   5.553   3.467
 5874TIP3    H217629   5.524   5.576   3.414
 5875TIP3   OH217630   1.622   2.257   4.110
 5875TIP3    H117631   1.537   2.266   4.066
 5875TIP3    H217632   1.615   2.315   4.187
 5876TIP3   OH217633   5.360   4.797   3.558
 5876TIP3    H117634   5.411   4.720   3.532
 5876TIP3    H217635   5.403   4.830   3.636
 5877TIP3   OH217636   0.715   1.722   1.745
 5877TIP3    H117637   0.626   1.758   1.741
 5877TIP3    H217638   0.705   1.639   1.792
 5878TIP3   OH217639   1.120   0.909   1.945
 5878TIP3    H117640   1.058   0.952   1.887
 5878TIP3    H217641   1.139   0.973   2.013
 5879TIP3   OH217642   5.577   2.769   5.053
 5879TIP3    H117643   5.490   2.804   5.072
 5879TIP3    H217644   5.626   2.844   5.020
 5880TIP3   OH217645   2.207   4.829   0.735
 5880TIP3    H117646   2.159   4.761   0.782
 5880TIP3    H217647   2.182   4.910   0.779
 5881TIP3   OH217648   6.091   3.180   1.209
 5881TIP3    H117649   6.133   3.096   1.223
 5881TIP3    H217650   6.126   3.237   1.277
 5882TIP3   OH217651   1.822   5.286   1.138
 5882TIP3    H117652   1.905   5.324   1.167
 5882TIP3    H217653   1.756   5.348   1.169
 5883TIP3   OH217654   4.950   0.132   2.241
 5883TIP3    H117655   4.959   0.037   2.232
 5883TIP3    H217656   5.038   0.166   2.225
 5884TIP3   OH217657   0.541   3.173   0.833
 5884TIP3    H117658   0.506   3.120   0.904
 5884TIP3    H217659   0.469   3.177   0.769
 5885TIP3   OH217660   0.468   2.459   3.753
 5885TIP3    H117661   0.390   2.407   3.733
 5885TIP3    H217662   0.442   2.549   3.733
 5886TIP3   OH217663   4.955   3.650   2.402
 5886TIP3    H117664   5.016   3.604   2.460
 5886TIP3    H217665   4.950   3.595   2.324
 5887TIP3   OH217666   4.593   4.774   1.510
 5887TIP3    H117667   4.664   4.837   1.519
 5887TIP3    H217668   4.517   4.820   1.546
 5888TIP3   OH217669   1.972   2.966   3.481
 5888TIP3    H117670   1.989   2.960   3.575
 5888TIP3    H217671   2.044   2.919   3.440
 5889TIP3   OH217672   1.661   4.286   0.555
 5889TIP3    H117673   1.634   4.227   0.484
 5889TIP3    H217674   1.616   4.253   0.632
 5890TIP3   OH217675   2.116   5.816   4.625
 5890TIP3    H117676   2.045   5.785   4.570
 5890TIP3    H217677   2.186   5.752   4.613
 5891TIP3   OH217678   3.019   3.214   4.845
 5891TIP3    H117679   2.942   3.172   4.883
 5891TIP3    H217680   3.094   3.166   4.882
 5892TIP3   OH217681   4.931   4.482   0.220
 5892TIP3    H117682   4.951   4.478   0.127
 5892TIP3    H217683   4.889   4.398   0.239
 5893TIP3   OH217684   0.953   5.200   3.961
 5893TIP3    H117685   0.878   5.175   4.014
 5893TIP3    H217686   1.029   5.171   4.011
 5894TIP3   OH217687   1.192   4.281   3.837
 5894TIP3    H117688   1.160   4.371   3.824
 5894TIP3    H217689   1.286   4.287   3.825
 5895TIP3   OH217690   2.101   1.711   2.426
 5895TIP3    H117691   2.010   1.707   2.457
 5895TIP3    H217692   2.099   1.774   2.354
 5896TIP3   OH217693   2.888   5.947   2.721
 5896TIP3    H117694   2.804   5.903   2.737
 5896TIP3    H217695   2.876   5.993   2.638
 5897TIP3   OH217696   0.196   2.357   1.119
 5897TIP3    H117697   0.192   2.389   1.209
 5897TIP3    H217698   0.112   2.384   1.080
 5898TIP3   OH217699   2.134   3.267   1.039
 5898TIP3    H117700   2.189   3.345   1.035
 5898TIP3    H217701   2.188   3.198   1.001
 5899TIP3   OH217702   1.145   2.578   4.352
 5899TIP3    H117703   1.063   2.594   4.306
 5899TIP3    H217704   1.189   2.511   4.299
 5900TIP3   OH217705   1.145   1.573   0.632
 5900TIP3    H117706   1.093   1.562   0.552
 5900TIP3    H217707   1.183   1.661   0.624
 5901TIP3   OH217708   0.754   1.408   0.796
 5901TIP3    H117709   0.791   1.320   0.802
 5901TIP3    H217710   0.754   1.440   0.886
 5902TIP3   OH217711   0.592   3.514   1.032
 5902TIP3    H117712   0.680   3.493   1.001
 5902TIP3    H217713   0.554   3.568   0.962
 5903TIP3   OH217714   3.083   1.114   3.406
 5903TIP3    H117715   3.050   1.195   3.444
 5903TIP3    H217716   3.106   1.060   3.481
 5904TIP3   OH217717   4.891   1.146   2.200
 5904TIP3    H117718   4.887   1.106   2.287
 5904TIP3    H217719   4.919   1.076   2.142
 5905TIP3   OH217720   0.970   4.066   0.356
 5905TIP3    H117721   0.941   4.149   0.318
 5905TIP3    H217722   0.890   4.027   0.392
 5906TIP3   OH217723   2.175   5.520   2.047
 5906TIP3    H117724   2.180   5.614   2.067
 5906TIP3    H217725   2.241   5.508   1.978
 5907TIP3   OH217726   1.609   0.067   2.070
 5907TIP3    H117727   1.607   0.123   2.148
 5907TIP3    H217728   1.640  -0.018   2.103
 5908TIP3   OH217729   4.697   0.283   0.197
 5908TIP3    H117730   4.636   0.216   0.167
 5908TIP3    H217731   4.784   0.242   0.188
 5909TIP3   OH217732   1.397   4.438   3.182
 5909TIP3    H117733   1.372   4.529   3.194
 5909TIP3    H217734   1.490   4.436   3.205
 5910TIP3   OH217735   4.718   3.463   0.857
 5910TIP3    H117736   4.793   3.509   0.819
 5910TIP3    H217737   4.730   3.473   0.951
 5911TIP3   OH217738   1.888   1.270   4.433
 5911TIP3    H117739   1.851   1.317   4.508
 5911TIP3    H217740   1.928   1.337   4.379
 5912TIP3   OH217741   0.959   3.788   4.396
 5912TIP3    H117742   1.050   3.772   4.372
 5912TIP3    H217743   0.913   3.798   4.312
 5913TIP3   OH217744   0.322   2.454   4.383
 5913TIP3    H117745   0.307   2.494   4.297
 5913TIP3    H217746   0.253   2.388   4.391
 5914TIP3   OH217747   1.389   0.085   4.137
 5914TIP3    H117748   1.324   0.111   4.202
 5914TIP3    H217749   1.456   0.154   4.140
 5915TIP3   OH217750   4.397   0.751   2.828
 5915TIP3    H117751   4.328   0.685   2.830
 5915TIP3    H217752   4.428   0.751   2.737
 5916TIP3   OH217753   0.122   0.194   0.915
 5916TIP3    H117754   0.146   0.108   0.880
 5916TIP3    H217755   0.133   0.185   1.009
 5917TIP3   OH217756   0.461   5.247   3.867
 5917TIP3    H117757   0.404   5.324   3.869
 5917TIP3    H217758   0.548   5.281   3.847
 5918TIP3   OH217759   2.328   1.795   3.542
 5918TIP3    H117760   2.317   1.720   3.484
 5918TIP3    H217761   2.419   1.822   3.529
 5919TIP3   OH217762   0.319   4.193   4.975
 5919TIP3    H117763   0.377   4.241   5.034
 5919TIP3    H217764   0.320   4.103   5.008
 5920TIP3   OH217765   2.789   1.577   3.981
 5920TIP3    H117766   2.769   1.622   3.898
 5920TIP3    H217767   2.830   1.644   4.035
 5921TIP3   OH217768   3.683   0.334   4.094
 5921TIP3    H117769   3.707   0.419   4.129
 5921TIP3    H217770   3.634   0.291   4.164
 5922TIP3   OH217771   4.900   2.348   3.652
 5922TIP3    H117772   4.941   2.289   3.588
 5922TIP3    H217773   4.810   2.319   3.657
 5923TIP3   OH217774   3.639   5.001   5.065
 5923TIP3    H117775   3.576   4.960   5.124
 5923TIP3    H217776   3.658   5.085   5.106
 5924TIP3   OH217777   2.317   5.134   2.707
 5924TIP3    H117778   2.223   5.146   2.717
 5924TIP3    H217779   2.343   5.084   2.785
 5925TIP3   OH217780   2.162   5.008   0.940
 5925TIP3    H117781   2.068   4.987   0.941
 5925TIP3    H217782   2.165   5.096   0.903
 5926TIP3   OH217783   4.717   0.604   1.271
 5926TIP3    H117784   4.795   0.573   1.317
 5926TIP3    H217785   4.672   0.660   1.335
 5927TIP3   OH217786   0.611   0.694   4.676
 5927TIP3    H117787   0.571   0.639   4.744
 5927TIP3    H217788   0.571   0.781   4.689
 5928TIP3   OH217789   6.035   4.317   3.349
 5928TIP3    H117790   5.982   4.327   3.270
 5928TIP3    H217791   6.037   4.404   3.388
 5929TIP3   OH217792   1.519   2.969   4.727
 5929TIP3    H117793   1.524   2.876   4.750
 5929TIP3    H217794   1.537   2.972   4.633
 5930TIP3   OH217795   0.646   3.993   1.267
 5930TIP3    H117796   0.629   3.936   1.342
 5930TIP3    H217797   0.647   3.934   1.191
 5931TIP3   OH217798   3.706   4.630   2.490
 5931TIP3    H117799   3.772   4.698   2.507
 5931TIP3    H217800   3.720   4.607   2.398
 5932TIP3   OH217801   5.035   3.766   3.959
 5932TIP3    H117802   4.992   3.850   3.944
 5932TIP3    H217803   4.977   3.720   4.019
 5933TIP3   OH217804   2.470   2.831   2.117
 5933TIP3    H117805   2.408   2.788   2.057
 5933TIP3    H217806   2.421   2.840   2.198
 5934TIP3   OH217807   3.312   0.788   2.958
 5934TIP3    H117808   3.399   0.748   2.952
 5934TIP3    H217809   3.322   0.858   3.021
 5935TIP3   OH217810   5.076   0.721   1.746
 5935TIP3    H117811   5.099   0.659   1.678
 5935TIP3    H217812   4.990   0.692   1.777
 5936TIP3   OH217813   5.599   4.355   3.378
 5936TIP3    H117814   5.574   4.363   3.286
 5936TIP3    H217815   5.627   4.263   3.387
 5937TIP3   OH217816   3.628   5.485   1.980
 5937TIP3    H117817   3.587   5.568   2.002
 5937TIP3    H217818   3.715   5.509   1.946
 5938TIP3   OH217819   4.588   1.154   4.021
 5938TIP3    H117820   4.546   1.095   4.082
 5938TIP3    H217821   4.585   1.240   4.064
 5939TIP3   OH217822   4.501   5.208   2.151
 5939TIP3    H117823   4.566   5.274   2.124
 5939TIP3    H217824   4.500   5.213   2.246
 5940TIP3   OH217825   4.855   4.692   0.364
 5940TIP3    H117826   4.867   4.609   0.317
 5940TIP3    H217827   4.943   4.729   0.370
 5941TIP3   OH217828   1.959   4.709   0.831
 5941TIP3    H117829   1.959   4.621   0.868
 5941TIP3    H217830   1.880   4.749   0.865
 5942TIP3   OH217831   3.528   1.232   4.176
 5942TIP3    H117832   3.453   1.230   4.235
 5942TIP3    H217833   3.544   1.140   4.153
 5943TIP3   OH217834   6.326   3.250   1.844
 5943TIP3    H117835   6.318   3.313   1.915
 5943TIP3    H217836   6.257   3.274   1.782
 5944TIP3   OH217837   4.564   1.166   0.127
 5944TIP3    H117838   4.648   1.196   0.094
 5944TIP3    H217839   4.549   1.082   0.083
 5945TIP3   OH217840   3.854   3.825   0.349
 5945TIP3    H117841   3.903   3.742   0.346
 5945TIP3    H217842   3.860   3.860   0.261
 5946TIP3   OH217843   3.281   3.157   4.970
 5946TIP3    H117844   3.274   3.063   4.985
 5946TIP3    H217845   3.357   3.184   5.021
 5947TIP3   OH217846   2.912   5.810   3.219
 5947TIP3    H117847   2.907   5.820   3.314
 5947TIP3    H217848   2.823   5.829   3.189
 5948TIP3   OH217849   3.613   4.523   2.903
 5948TIP3    H117850   3.532   4.546   2.858
 5948TIP3    H217851   3.593   4.535   2.996
 5949TIP3   OH217852   2.000   4.546   0.157
 5949TIP3    H117853   1.978   4.512   0.070
 5949TIP3    H217854   1.956   4.486   0.217
 5950TIP3   OH217855   1.401   1.108   0.840
 5950TIP3    H117856   1.407   1.148   0.927
 5950TIP3    H217857   1.425   1.177   0.779
 5951TIP3   OH217858   5.597   4.444   1.895
 5951TIP3    H117859   5.597   4.512   1.962
 5951TIP3    H217860   5.579   4.491   1.814
 5952TIP3   OH217861   1.377   3.554   1.381
 5952TIP3    H117862   1.440   3.590   1.318
 5952TIP3    H217863   1.423   3.483   1.424
 5953TIP3   OH217864   4.480   0.307   3.177
 5953TIP3    H117865   4.569   0.335   3.199
 5953TIP3    H217866   4.492   0.225   3.129
 5954TIP3   OH217867   4.667   0.583   0.026
 5954TIP3    H117868   4.615   0.520  -0.024
 5954TIP3    H217869   4.624   0.667   0.010
 5955TIP3   OH217870   2.747   3.206   1.223
 5955TIP3    H117871   2.657   3.213   1.255
 5955TIP3    H217872   2.788   3.142   1.280
 5956TIP3   OH217873   2.983   0.446   3.653
 5956TIP3    H117874   2.927   0.480   3.583
 5956TIP3    H217875   3.024   0.523   3.691
 5957TIP3   OH217876   1.968   0.243   4.415
 5957TIP3    H117877   2.013   0.217   4.335
 5957TIP3    H217878   2.037   0.281   4.470
 5958TIP3   OH217879   6.102   4.222   4.650
 5958TIP3    H117880   6.119   4.260   4.737
 5958TIP3    H217881   6.138   4.134   4.656
 5959TIP3   OH217882   3.125   2.741   1.374
 5959TIP3    H117883   3.167   2.752   1.288
 5959TIP3    H217884   3.197   2.749   1.437
 5960TIP3   OH217885   5.052   4.245   2.410
 5960TIP3    H117886   5.080   4.334   2.389
 5960TIP3    H217887   4.974   4.257   2.465
 5961TIP3   OH217888   3.002   3.323   3.267
 5961TIP3    H117889   2.910   3.342   3.284
 5961TIP3    H217890   3.001   3.240   3.218
 5962TIP3   OH217891   0.891   3.640   2.929
 5962TIP3    H117892   0.924   3.595   2.852
 5962TIP3    H217893   0.806   3.600   2.946
 5963TIP3   OH217894   1.939   1.477   2.293
 5963TIP3    H117895   2.029   1.510   2.303
 5963TIP3    H217896   1.937   1.440   2.205
 5964TIP3   OH217897   4.498   1.919   1.491
 5964TIP3    H117898   4.456   1.863   1.425
 5964TIP3    H217899   4.571   1.867   1.523
 5965TIP3   OH217900   0.127   2.164   2.854
 5965TIP3    H117901   0.074   2.168   2.934
 5965TIP3    H217902   0.211   2.203   2.879
 5966TIP3   OH217903   3.099   2.620   2.917
 5966TIP3    H117904   3.048   2.623   2.998
 5966TIP3    H217905   3.047   2.567   2.857
 5967TIP3   OH217906   1.900   1.430   0.709
 5967TIP3    H117907   1.900   1.350   0.657
 5967TIP3    H217908   1.947   1.494   0.656
 5968TIP3   OH217909   4.083   1.624   4.203
 5968TIP3    H117910   4.018   1.673   4.152
 5968TIP3    H217911   4.106   1.682   4.275
 5969TIP3   OH217912   1.525   2.185   0.589
 5969TIP3    H117913   1.507   2.238   0.667
 5969TIP3    H217914   1.550   2.248   0.522
 5970TIP3   OH217915   5.339   1.336   1.369
 5970TIP3    H117916   5.431   1.361   1.378
 5970TIP3    H217917   5.307   1.333   1.459
 5971TIP3   OH217918   1.229   5.843   2.147
 5971TIP3    H117919   1.140   5.809   2.134
 5971TIP3    H217920   1.217   5.937   2.159
 5972TIP3   OH217921   3.578   0.492   1.369
 5972TIP3    H117922   3.659   0.442   1.377
 5972TIP3    H217923   3.562   0.526   1.457
 5973TIP3   OH217924   1.751   0.331   1.438
 5973TIP3    H117925   1.757   0.294   1.526
 5973TIP3    H217926   1.837   0.315   1.399
 5974TIP3   OH217927   3.027   1.256   1.806
 5974TIP3    H117928   3.058   1.186   1.748
 5974TIP3    H217929   3.096   1.263   1.872
 5975TIP3   OH217930   1.805   3.807   3.240
 5975TIP3    H117931   1.759   3.724   3.253
 5975TIP3    H217932   1.895   3.788   3.268
 5976TIP3   OH217933   5.117   0.412   1.134
 5976TIP3    H117934   5.142   0.504   1.131
 5976TIP3    H217935   5.042   0.405   1.075
 5977TIP3   OH217936   2.552   1.320   0.407
 5977TIP3    H117937   2.474   1.366   0.440
 5977TIP3    H217938   2.620   1.388   0.405
 5978TIP3   OH217939   0.492   5.973   4.503
 5978TIP3    H117940   0.522   6.001   4.590
 5978TIP3    H217941   0.540   5.892   4.486
 5979TIP3   OH217942   5.735   2.856   1.975
 5979TIP3    H117943   5.659   2.883   1.924
 5979TIP3    H217944   5.703   2.849   2.064
 5980TIP3   OH217945   0.043   4.693   4.959
 5980TIP3    H117946  -0.024   4.640   5.003
 5980TIP3    H217947   0.126   4.658   4.992
 5981TIP3   OH217948   5.790   4.052   0.261
 5981TIP3    H117949   5.854   4.081   0.196
 5981TIP3    H217950   5.719   4.015   0.209
 5982TIP3   OH217951   0.118   5.736   4.070
 5982TIP3    H117952   0.061   5.733   4.146
 5982TIP3    H217953   0.108   5.650   4.029
 5983TIP3   OH217954   5.904   3.446   1.294
 5983TIP3    H117955   5.990   3.418   1.325
 5983TIP3    H217956   5.844   3.380   1.328
 5984TIP3   OH217957   5.429   3.350   1.261
 5984TIP3    H117958   5.404   3.302   1.340
 5984TIP3    H217959   5.377   3.310   1.191
 5985TIP3   OH217960   4.837   0.517   3.650
 5985TIP3    H117961   4.864   0.597   3.695
 5985TIP3    H217962   4.743   0.511   3.666
 5986TIP3   OH217963   1.631   1.369   4.660
 5986TIP3    H117964   1.711   1.415   4.635
 5986TIP3    H217965   1.618   1.392   4.752
 5987TIP3   OH217966   0.662   0.763   3.939
 5987TIP3    H117967   0.673   0.819   4.016
 5987TIP3    H217968   0.614   0.817   3.876
 5988TIP3   OH217969   3.280   1.767   5.053
 5988TIP3    H117970   3.317   1.697   5.000
 5988TIP3    H217971   3.353   1.796   5.108
 5989TIP3   OH217972   3.198   2.809   1.119
 5989TIP3    H117973   3.173   2.835   1.030
 5989TIP3    H217974   3.269   2.869   1.142
 5990TIP3   OH217975   2.525   0.582   3.604
 5990TIP3    H117976   2.590   0.522   3.641
 5990TIP3    H217977   2.504   0.642   3.674
 5991TIP3   OH217978   5.886   4.566   2.161
 5991TIP3    H117979   5.809   4.524   2.198
 5991TIP3    H217980   5.931   4.606   2.235
 5992TIP3   OH217981   5.458   1.451   3.777
 5992TIP3    H117982   5.434   1.374   3.725
 5992TIP3    H217983   5.438   1.426   3.867
 5993TIP3   OH217984   0.457   3.905   3.751
 5993TIP3    H117985   0.380   3.919   3.696
 5993TIP3    H217986   0.530   3.939   3.699
 5994TIP3   OH217987   1.162   3.746   2.693
 5994TIP3    H117988   1.233   3.751   2.757
 5994TIP3    H217989   1.116   3.830   2.702
 5995TIP3   OH217990   4.501   3.920   2.556
 5995TIP3    H117991   4.509   3.916   2.651
 5995TIP3    H217992   4.411   3.947   2.540
 5996TIP3   OH217993   3.424   5.722   0.965
 5996TIP3    H117994   3.484   5.696   1.035
 5996TIP3    H217995   3.340   5.684   0.990
 5997TIP3   OH217996   4.149   4.073   4.045
 5997TIP3    H117997   4.169   4.021   4.122
 5997TIP3    H217998   4.081   4.134   4.073
 5998TIP3   OH217999   1.622   0.502   5.085
 5998TIP3    H118000   1.682   0.548   5.026
 5998TIP3    H218001   1.618   0.558   5.163
 5999TIP3   OH218002   5.952   3.790   2.956
 5999TIP3    H118003   6.037   3.759   2.926
 5999TIP3    H218004   5.908   3.712   2.988
 6000TIP3   OH218005   6.173   3.109   0.165
 6000TIP3    H118006   6.079   3.096   0.176
 6000TIP3    H218007   6.211   3.077   0.247
 6001TIP3   OH218008   3.185   2.373   1.973
 6001TIP3    H118009   3.163   2.287   1.939
 6001TIP3    H218010   3.134   2.435   1.920
 6002TIP3   OH218011   0.380   2.344   2.898
 6002TIP3    H118012   0.365   2.319   2.990
 6002TIP3    H218013   0.443   2.279   2.866
 6003TIP3   OH218014   3.675   1.685   4.418
 6003TIP3    H118015   3.625   1.756   4.458
 6003TIP3    H218016   3.764   1.720   4.408
 6004TIP3   OH218017   1.509   4.467   0.210
 6004TIP3    H118018   1.431   4.444   0.160
 6004TIP3    H218019   1.582   4.434   0.157
 6005TIP3   OH218020   3.892   0.173   0.362
 6005TIP3    H118021   3.951   0.156   0.289
 6005TIP3    H218022   3.804   0.161   0.325
 6006TIP3   OH218023   1.315   1.370   0.740
 6006TIP3    H118024   1.360   1.409   0.815
 6006TIP3    H218025   1.271   1.443   0.697
 6007TIP3   OH218026   1.614   4.503   2.328
 6007TIP3    H118027   1.550   4.564   2.292
 6007TIP3    H218028   1.599   4.421   2.280
 6008TIP3   OH218029   6.347   1.159   2.039
 6008TIP3    H118030   6.277   1.225   2.039
 6008TIP3    H218031   6.336   1.114   2.123
 6009TIP3   OH218032   3.059   1.839   1.671
 6009TIP3    H118033   3.010   1.919   1.685
 6009TIP3    H218034   3.142   1.853   1.717
 6010TIP3   OH218035   1.461   4.041   2.124
 6010TIP3    H118036   1.461   3.955   2.082
 6010TIP3    H218037   1.509   4.028   2.206
 6011TIP3   OH218038   0.215   0.247   4.383
 6011TIP3    H118039   0.289   0.288   4.429
 6011TIP3    H218040   0.249   0.163   4.353
 6012TIP3   OH218041   0.151   4.634   2.791
 6012TIP3    H118042   0.147   4.542   2.817
 6012TIP3    H218043   0.062   4.657   2.767
 6013TIP3   OH218044   2.242   2.135   3.873
 6013TIP3    H118045   2.260   2.045   3.845
 6013TIP3    H218046   2.202   2.125   3.960
 6014TIP3   OH218047   5.779   1.489   2.940
 6014TIP3    H118048   5.728   1.560   2.901
 6014TIP3    H218049   5.854   1.533   2.980
 6015TIP3   OH218050   0.496   2.542   0.579
 6015TIP3    H118051   0.470   2.562   0.490
 6015TIP3    H218052   0.577   2.492   0.571
 6016TIP3   OH218053   6.050   2.986   2.917
 6016TIP3    H118054   5.970   2.999   2.968
 6016TIP3    H218055   6.070   2.893   2.928
 6017TIP3   OH218056   6.055   5.210   3.368
 6017TIP3    H118057   6.004   5.177   3.441
 6017TIP3    H218058   5.999   5.276   3.327
 6018TIP3   OH218059   5.520   0.877   5.099
 6018TIP3    H118060   5.495   0.969   5.111
 6018TIP3    H218061   5.437   0.829   5.105
 6019TIP3   OH218062   4.214   1.755   4.977
 6019TIP3    H118063   4.138   1.793   4.933
 6019TIP3    H218064   4.253   1.697   4.911
 6020TIP3   OH218065   5.277   4.535   2.667
 6020TIP3    H118066   5.185   4.548   2.641
 6020TIP3    H218067   5.296   4.609   2.725
 6021TIP3   OH218068   1.758   3.772   1.425
 6021TIP3    H118069   1.832   3.734   1.378
 6021TIP3    H218070   1.703   3.809   1.356
 6022TIP3   OH218071   1.559   4.286   2.154
 6022TIP3    H118072   1.567   4.329   2.069
 6022TIP3    H218073   1.519   4.201   2.134
 6023TIP3   OH218074   3.194   5.869   4.822
 6023TIP3    H118075   3.178   5.891   4.914
 6023TIP3    H218076   3.159   5.944   4.773
 6024TIP3   OH218077   5.518   3.235   4.967
 6024TIP3    H118078   5.501   3.292   4.892
 6024TIP3    H218079   5.435   3.191   4.984
 6025TIP3   OH218080   2.304   3.617   4.250
 6025TIP3    H118081   2.345   3.550   4.304
 6025TIP3    H218082   2.211   3.612   4.272
 6026TIP3   OH218083   4.689   0.901   4.637
 6026TIP3    H118084   4.766   0.862   4.677
 6026TIP3    H218085   4.723   0.961   4.572
 6027TIP3   OH218086   1.870   2.808   3.088
 6027TIP3    H118087   1.845   2.742   3.153
 6027TIP3    H218088   1.803   2.875   3.096
 6028TIP3   OH218089   1.961   2.669   1.811
 6028TIP3    H118090   1.893   2.603   1.801
 6028TIP3    H218091   1.956   2.720   1.730
 6029TIP3   OH218092   5.917   2.771   4.121
 6029TIP3    H118093   5.985   2.809   4.176
 6029TIP3    H218094   5.938   2.801   4.033
 6030TIP3   OH218095   4.257   3.497   0.449
 6030TIP3    H118096   4.267   3.574   0.393
 6030TIP3    H218097   4.316   3.432   0.411
 6031TIP3   OH218098   5.381   3.906   2.887
 6031TIP3    H118099   5.306   3.884   2.832
 6031TIP3    H218100   5.456   3.907   2.826
 6032TIP3   OH218101   0.050   5.916   5.097
 6032TIP3    H118102   0.039   5.933   5.191
 6032TIP3    H218103  -0.039   5.909   5.063
 6033TIP3   OH218104   0.380   5.256   3.443
 6033TIP3    H118105   0.438   5.301   3.382
 6033TIP3    H218106   0.420   5.170   3.456
 6034TIP3   OH218107   5.990   5.542   2.909
 6034TIP3    H118108   5.894   5.538   2.904
 6034TIP3    H218109   6.015   5.461   2.953
 6035TIP3   OH218110   2.128   0.268   0.434
 6035TIP3    H118111   2.060   0.227   0.380
 6035TIP3    H218112   2.161   0.197   0.489
 6036TIP3   OH218113   0.426   1.019   5.099
 6036TIP3    H118114   0.435   1.080   5.026
 6036TIP3    H218115   0.516   0.996   5.123
 6037TIP3   OH218116   6.174   5.956   2.492
 6037TIP3    H118117   6.143   5.976   2.404
 6037TIP3    H218118   6.170   5.860   2.498
 6038TIP3   OH218119   2.911   1.514   0.232
 6038TIP3    H118120   2.940   1.438   0.181
 6038TIP3    H218121   2.896   1.582   0.167
 6039TIP3   OH218122   1.959   5.589   2.389
 6039TIP3    H118123   2.045   5.556   2.362
 6039TIP3    H218124   1.899   5.555   2.323
 6040TIP3   OH218125   3.698   5.964   3.961
 6040TIP3    H118126   3.697   5.870   3.977
 6040TIP3    H218127   3.617   5.981   3.914
 6041TIP3   OH218128   5.834   1.253   0.168
 6041TIP3    H118129   5.892   1.248   0.091
 6041TIP3    H218130   5.865   1.184   0.226
 6042TIP3   OH218131   4.181   4.549   0.604
 6042TIP3    H118132   4.093   4.539   0.641
 6042TIP3    H218133   4.240   4.526   0.676
 6043TIP3   OH218134   5.045   2.274   1.495
 6043TIP3    H118135   5.082   2.362   1.488
 6043TIP3    H218136   4.987   2.266   1.420
 6044TIP3   OH218137   1.308   0.846   3.548
 6044TIP3    H118138   1.249   0.909   3.506
 6044TIP3    H218139   1.368   0.819   3.478
 6045TIP3   OH218140   3.708   0.738   4.776
 6045TIP3    H118141   3.761   0.753   4.855
 6045TIP3    H218142   3.678   0.648   4.785
 6046TIP3   OH218143   6.250   3.902   4.241
 6046TIP3    H118144   6.217   3.992   4.241
 6046TIP3    H218145   6.314   3.899   4.312
 6047TIP3   OH218146   2.413   2.234   3.271
 6047TIP3    H118147   2.396   2.140   3.273
 6047TIP3    H218148   2.395   2.264   3.360
 6048TIP3   OH218149   5.418   0.719   1.930
 6048TIP3    H118150   5.426   0.626   1.950
 6048TIP3    H218151   5.418   0.722   1.834
 6049TIP3   OH218152   1.142   3.190   1.491
 6049TIP3    H118153   1.105   3.111   1.453
 6049TIP3    H218154   1.226   3.202   1.447
 6050TIP3   OH218155   4.661   4.327   4.476
 6050TIP3    H118156   4.665   4.233   4.494
 6050TIP3    H218157   4.729   4.342   4.410
 6051TIP3   OH218158   2.402   1.086   3.114
 6051TIP3    H118159   2.446   1.003   3.094
 6051TIP3    H218160   2.365   1.074   3.201
 6052TIP3   OH218161   1.035   5.717   2.977
 6052TIP3    H118162   1.096   5.784   3.007
 6052TIP3    H218163   0.951   5.744   3.014
 6053TIP3   OH218164   0.905   3.416   2.424
 6053TIP3    H118165   0.840   3.484   2.439
 6053TIP3    H218166   0.989   3.459   2.443
 6054TIP3   OH218167   5.522   2.341   4.483
 6054TIP3    H118168   5.505   2.368   4.393
 6054TIP3    H218169   5.617   2.327   4.486
 6055TIP3   OH218170   0.051   5.079   3.983
 6055TIP3    H118171   0.074   5.006   3.926
 6055TIP3    H218172  -0.005   5.134   3.928
 6056TIP3   OH218173   1.474   2.902   2.174
 6056TIP3    H118174   1.532   2.892   2.099
 6056TIP3    H218175   1.434   2.989   2.162
 6057TIP3   OH218176   4.080   4.166   3.322
 6057TIP3    H118177   4.102   4.257   3.341
 6057TIP3    H218178   4.035   4.168   3.238
 6058TIP3   OH218179   5.843   3.089   0.588
 6058TIP3    H118180   5.766   3.078   0.533
 6058TIP3    H218181   5.868   3.181   0.575
 6059TIP3   OH218182   0.663   1.489   3.813
 6059TIP3    H118183   0.633   1.529   3.894
 6059TIP3    H218184   0.604   1.414   3.800
 6060TIP3   OH218185   5.726   3.589   0.798
 6060TIP3    H118186   5.770   3.651   0.857
 6060TIP3    H218187   5.750   3.619   0.710
 6061TIP3   OH218188   3.590   5.916   0.602
 6061TIP3    H118189   3.579   5.840   0.658
 6061TIP3    H218190   3.531   5.901   0.529
 6062TIP3   OH218191   2.089   5.097   2.086
 6062TIP3    H118192   2.168   5.045   2.067
 6062TIP3    H218193   2.060   5.129   2.001
 6063TIP3   OH218194   6.098   1.147   1.169
 6063TIP3    H118195   6.030   1.141   1.101
 6063TIP3    H218196   6.108   1.058   1.202
 6064TIP3   OH218197   5.204   2.589   0.445
 6064TIP3    H118198   5.140   2.518   0.438
 6064TIP3    H218199   5.193   2.623   0.534
 6065TIP3   OH218200   3.740   3.075   5.166
 6065TIP3    H118201   3.689   3.028   5.100
 6065TIP3    H218202   3.824   3.094   5.123
 6066TIP3   OH218203   0.584   0.994   1.712
 6066TIP3    H118204   0.573   1.020   1.804
 6066TIP3    H218205   0.666   0.945   1.711
 6067TIP3   OH218206   3.144   3.467   2.400
 6067TIP3    H118207   3.054   3.456   2.432
 6067TIP3    H218208   3.195   3.490   2.478
 6068TIP3   OH218209   5.563   0.050   1.821
 6068TIP3    H118210   5.480   0.097   1.813
 6068TIP3    H218211   5.611   0.070   1.740
 6069TIP3   OH218212   2.780   3.686   0.745
 6069TIP3    H118213   2.694   3.656   0.715
 6069TIP3    H218214   2.782   3.663   0.838
 6070TIP3   OH218215   4.273   5.581   0.747
 6070TIP3    H118216   4.229   5.588   0.832
 6070TIP3    H218217   4.204   5.600   0.683
 6071TIP3   OH218218   1.319   1.781   1.597
 6071TIP3    H118219   1.406   1.796   1.562
 6071TIP3    H218220   1.328   1.703   1.651
 6072TIP3   OH218221   3.226   4.799   0.281
 6072TIP3    H118222   3.267   4.882   0.255
 6072TIP3    H218223   3.266   4.778   0.365
 6073TIP3   OH218224   3.249   5.392   4.130
 6073TIP3    H118225   3.247   5.303   4.094
 6073TIP3    H218226   3.182   5.439   4.080
 6074TIP3   OH218227   0.544   4.365   3.888
 6074TIP3    H118228   0.597   4.317   3.951
 6074TIP3    H218229   0.459   4.375   3.930
 6075TIP3   OH218230   3.148   2.283   3.056
 6075TIP3    H118231   3.057   2.281   3.083
 6075TIP3    H218232   3.197   2.295   3.138
 6076TIP3   OH218233   5.207   2.546   2.069
 6076TIP3    H118234   5.266   2.540   2.145
 6076TIP3    H218235   5.157   2.626   2.084
 6077TIP3   OH218236   1.829   1.026   4.606
 6077TIP3    H118237   1.863   1.081   4.536
 6077TIP3    H218238   1.847   1.076   4.686
 6078TIP3   OH218239   1.583   3.846   1.219
 6078TIP3    H118240   1.507   3.787   1.225
 6078TIP3    H218241   1.565   3.900   1.143
 6079TIP3   OH218242   3.386   5.678   2.933
 6079TIP3    H118243   3.291   5.667   2.940
 6079TIP3    H218244   3.408   5.744   2.999
 6080TIP3   OH218245   5.619   0.748   4.786
 6080TIP3    H118246   5.600   0.838   4.759
 6080TIP3    H218247   5.547   0.696   4.750
 6081TIP3   OH218248   2.297   3.973   3.307
 6081TIP3    H118249   2.382   3.966   3.264
 6081TIP3    H218250   2.309   4.042   3.373
 6082TIP3   OH218251   2.473   0.327   0.526
 6082TIP3    H118252   2.489   0.401   0.585
 6082TIP3    H218253   2.398   0.282   0.564
 6083TIP3   OH218254   2.095   0.517   2.814
 6083TIP3    H118255   2.071   0.547   2.902
 6083TIP3    H218256   2.103   0.422   2.822
 6084TIP3   OH218257   1.364   2.731   4.565
 6084TIP3    H118258   1.450   2.694   4.546
 6084TIP3    H218259   1.305   2.687   4.503
 6085TIP3   OH218260   5.444   2.398   0.008
 6085TIP3    H118261   5.527   2.428   0.046
 6085TIP3    H218262   5.426   2.461  -0.061
 6086TIP3   OH218263   4.936   4.371   4.425
 6086TIP3    H118264   4.933   4.346   4.332
 6086TIP3    H218265   5.018   4.419   4.434
 6087TIP3   OH218266   2.641   4.260   3.468
 6087TIP3    H118267   2.720   4.246   3.415
 6087TIP3    H218268   2.674   4.295   3.551
 6088TIP3   OH218269   5.332   3.570   2.340
 6088TIP3    H118270   5.424   3.544   2.345
 6088TIP3    H218271   5.306   3.550   2.250
 6089TIP3   OH218272   4.971   5.114   2.949
 6089TIP3    H118273   4.994   5.172   2.877
 6089TIP3    H218274   5.000   5.027   2.920
 6090TIP3   OH218275   3.391   4.461   4.648
 6090TIP3    H118276   3.312   4.510   4.626
 6090TIP3    H218277   3.381   4.438   4.740
 6091TIP3   OH218278   1.442   2.724   0.857
 6091TIP3    H118279   1.414   2.800   0.908
 6091TIP3    H218280   1.538   2.727   0.858
 6092TIP3   OH218281   3.408   2.958   1.176
 6092TIP3    H118282   3.480   2.970   1.114
 6092TIP3    H218283   3.433   3.011   1.252
 6093TIP3   OH218284   5.878   5.039   1.440
 6093TIP3    H118285   5.833   5.097   1.502
 6093TIP3    H218286   5.964   5.079   1.428
 6094TIP3   OH218287   4.813   3.061   4.956
 6094TIP3    H118288   4.836   3.004   5.029
 6094TIP3    H218289   4.808   3.003   4.880
 6095TIP3   OH218290   5.751   5.865   4.641
 6095TIP3    H118291   5.808   5.867   4.564
 6095TIP3    H218292   5.806   5.829   4.711
 6096TIP3   OH218293   6.196   5.382   4.008
 6096TIP3    H118294   6.114   5.361   3.963
 6096TIP3    H218295   6.203   5.316   4.078
 6097TIP3   OH218296   4.652   0.110   4.208
 6097TIP3    H118297   4.706   0.086   4.133
 6097TIP3    H218298   4.654   0.206   4.208
 6098TIP3   OH218299   3.029   3.902   1.523
 6098TIP3    H118300   2.957   3.881   1.465
 6098TIP3    H218301   3.066   3.983   1.488
 6099TIP3   OH218302   6.230   2.724   2.346
 6099TIP3    H118303   6.245   2.795   2.284
 6099TIP3    H218304   6.310   2.722   2.400
 6100TIP3   OH218305   4.257   1.680   3.047
 6100TIP3    H118306   4.310   1.719   3.117
 6100TIP3    H218307   4.222   1.755   2.999
 6101TIP3   OH218308   3.409   2.134   4.600
 6101TIP3    H118309   3.318   2.135   4.571
 6101TIP3    H218310   3.459   2.118   4.520
 6102TIP3   OH218311   2.397   4.714   1.416
 6102TIP3    H118312   2.432   4.714   1.327
 6102TIP3    H218313   2.344   4.794   1.421
 6103TIP3   OH218314   1.235   1.543   3.709
 6103TIP3    H118315   1.192   1.597   3.643
 6103TIP3    H218316   1.319   1.586   3.724
 6104TIP3   OH218317   0.128   3.388   2.532
 6104TIP3    H118318   0.164   3.397   2.444
 6104TIP3    H218319   0.204   3.385   2.590
 6105TIP3   OH218320   2.506   3.575   3.486
 6105TIP3    H118321   2.452   3.647   3.520
 6105TIP3    H218322   2.467   3.496   3.524
 6106TIP3   OH218323   5.062   4.775   1.635
 6106TIP3    H118324   5.009   4.722   1.695
 6106TIP3    H218325   5.099   4.711   1.574
 6107TIP3   OH218326   6.106   1.628   3.477
 6107TIP3    H118327   6.066   1.706   3.440
 6107TIP3    H218328   6.032   1.570   3.496
 6108TIP3   OH218329   5.547   4.981   0.630
 6108TIP3    H118330   5.618   5.045   0.628
 6108TIP3    H218331   5.584   4.902   0.592
 6109TIP3   OH218332   2.452   0.964   1.406
 6109TIP3    H118333   2.463   1.053   1.440
 6109TIP3    H218334   2.500   0.965   1.323
 6110TIP3   OH218335   0.587   5.609   1.893
 6110TIP3    H118336   0.651   5.667   1.852
 6110TIP3    H218337   0.514   5.667   1.916
 6111TIP3   OH218338   4.001   1.533   3.764
 6111TIP3    H118339   3.941   1.595   3.723
 6111TIP3    H218340   4.088   1.563   3.739
 6112TIP3   OH218341   4.910   0.438   0.592
 6112TIP3    H118342   4.922   0.499   0.664
 6112TIP3    H218343   4.876   0.491   0.520
 6113TIP3   OH218344   3.576   2.666   1.405
 6113TIP3    H118345   3.595   2.760   1.407
 6113TIP3    H218346   3.572   2.644   1.311
 6114TIP3   OH218347   1.154   0.254   1.677
 6114TIP3    H118348   1.224   0.291   1.623
 6114TIP3    H218349   1.139   0.320   1.745
 6115TIP3   OH218350   2.655   0.827   2.815
 6115TIP3    H118351   2.732   0.877   2.844
 6115TIP3    H218352   2.626   0.872   2.735
 6116TIP3   OH218353   4.617   2.462   3.442
 6116TIP3    H118354   4.625   2.373   3.475
 6116TIP3    H218355   4.692   2.508   3.480
 6117TIP3   OH218356   1.981   0.804   1.810
 6117TIP3    H118357   1.979   0.754   1.892
 6117TIP3    H218358   1.897   0.851   1.810
 6118TIP3   OH218359   3.391   2.062   1.943
 6118TIP3    H118360   3.381   2.100   2.030
 6118TIP3    H218361   3.311   2.086   1.897
 6119TIP3   OH218362   5.978   1.019   0.586
 6119TIP3    H118363   6.042   0.950   0.605
 6119TIP3    H218364   6.023   1.101   0.605
 6120TIP3   OH218365   2.921   2.428   2.825
 6120TIP3    H118366   2.853   2.489   2.794
 6120TIP3    H218367   2.875   2.371   2.886
 6121TIP3   OH218368   1.012   1.629   0.880
 6121TIP3    H118369   1.077   1.683   0.925
 6121TIP3    H218370   1.054   1.605   0.797
 6122TIP3   OH218371   4.730   3.761   0.162
 6122TIP3    H118372   4.781   3.692   0.204
 6122TIP3    H218373   4.642   3.725   0.156
 6123TIP3   OH218374   1.123   1.255   0.383
 6123TIP3    H118375   1.085   1.267   0.470
 6123TIP3    H218376   1.065   1.192   0.341
 6124TIP3   OH218377   0.225   3.024   3.120
 6124TIP3    H118378   0.194   3.111   3.095
 6124TIP3    H218379   0.151   2.966   3.102
 6125TIP3   OH218380   2.673   1.212   2.835
 6125TIP3    H118381   2.736   1.191   2.903
 6125TIP3    H218382   2.674   1.307   2.829
 6126TIP3   OH218383   2.779   5.617   2.923
 6126TIP3    H118384   2.741   5.556   2.986
 6126TIP3    H218385   2.708   5.639   2.863
 6127TIP3   OH218386   1.022   4.941   3.692
 6127TIP3    H118387   1.110   4.912   3.668
 6127TIP3    H218388   0.986   4.870   3.745
 6128TIP3   OH218389   1.864   4.464   2.662
 6128TIP3    H118390   1.836   4.513   2.584
 6128TIP3    H218391   1.891   4.532   2.724
 6129TIP3   OH218392   2.854   3.720   1.392
 6129TIP3    H118393   2.919   3.663   1.434
 6129TIP3    H218394   2.820   3.667   1.319
 6130TIP3   OH218395   6.250   5.587   0.194
 6130TIP3    H118396   6.231   5.678   0.175
 6130TIP3    H218397   6.286   5.552   0.112
 6131TIP3   OH218398   3.467   2.246   3.662
 6131TIP3    H118399   3.490   2.286   3.746
 6131TIP3    H218400   3.511   2.302   3.597
 6132TIP3   OH218401   2.750   1.132   1.872
 6132TIP3    H118402   2.800   1.156   1.950
 6132TIP3    H218403   2.736   1.214   1.826
 6133TIP3   OH218404   3.176   3.505   2.696
 6133TIP3    H118405   3.108   3.438   2.703
 6133TIP3    H218406   3.258   3.456   2.693
 6134TIP3   OH218407   5.300   0.322   3.827
 6134TIP3    H118408   5.304   0.414   3.801
 6134TIP3    H218409   5.380   0.307   3.877
 6135TIP3   OH218410   4.375   2.513   1.645
 6135TIP3    H118411   4.305   2.452   1.620
 6135TIP3    H218412   4.391   2.496   1.738
 6136TIP3   OH218413   4.957   4.054   2.179
 6136TIP3    H118414   4.908   4.136   2.188
 6136TIP3    H218415   5.048   4.078   2.199
 6137TIP3   OH218416   4.532   1.192   0.410
 6137TIP3    H118417   4.515   1.181   0.317
 6137TIP3    H218418   4.627   1.177   0.419
 6138TIP3   OH218419   4.018   3.434   3.473
 6138TIP3    H118420   4.032   3.431   3.378
 6138TIP3    H218421   3.981   3.520   3.489
 6139TIP3   OH218422   0.028   1.831   1.370
 6139TIP3    H118423   0.011   1.790   1.285
 6139TIP3    H218424   0.053   1.921   1.349
 6140TIP3   OH218425   0.288   1.070   3.508
 6140TIP3    H118426   0.370   1.090   3.464
 6140TIP3    H218427   0.223   1.127   3.466
 6141TIP3   OH218428   5.490   4.470   4.448
 6141TIP3    H118429   5.445   4.409   4.390
 6141TIP3    H218430   5.439   4.468   4.529
 6142TIP3   OH218431   4.582   3.808   1.404
 6142TIP3    H118432   4.544   3.730   1.362
 6142TIP3    H218433   4.581   3.875   1.335
 6143TIP3   OH218434   2.179   0.735   4.623
 6143TIP3    H118435   2.236   0.796   4.671
 6143TIP3    H218436   2.182   0.766   4.533
 6144TIP3   OH218437   0.299   1.114   0.334
 6144TIP3    H118438   0.263   1.033   0.371
 6144TIP3    H218439   0.276   1.109   0.241
 6145TIP3   OH218440   2.198   2.644   4.208
 6145TIP3    H118441   2.167   2.716   4.152
 6145TIP3    H218442   2.140   2.571   4.187
 6146TIP3   OH218443   0.922   0.073   1.046
 6146TIP3    H118444   0.978   0.033   0.979
 6146TIP3    H218445   0.976   0.141   1.085
 6147TIP3   OH218446   3.793   3.864   4.971
 6147TIP3    H118447   3.736   3.934   4.940
 6147TIP3    H218448   3.745   3.784   4.952
 6148TIP3   OH218449   3.590   5.829   0.190
 6148TIP3    H118450   3.564   5.800   0.103
 6148TIP3    H218451   3.603   5.923   0.182
 6149TIP3   OH218452   0.597   3.201   4.830
 6149TIP3    H118453   0.623   3.153   4.752
 6149TIP3    H218454   0.516   3.246   4.805
 6150TIP3   OH218455   4.345   1.436   0.457
 6150TIP3    H118456   4.403   1.508   0.485
 6150TIP3    H218457   4.403   1.360   0.449
 6151TIP3   OH218458   5.352   4.089   3.908
 6151TIP3    H118459   5.380   4.136   3.988
 6151TIP3    H218460   5.406   4.127   3.839
 6152TIP3   OH218461   4.910   2.662   1.826
 6152TIP3    H118462   4.839   2.689   1.884
 6152TIP3    H218463   4.990   2.695   1.868
 6153TIP3   OH218464   6.239   4.391   0.925
 6153TIP3    H118465   6.204   4.477   0.951
 6153TIP3    H218466   6.303   4.412   0.857
 6154TIP3   OH218467   3.148   2.160   1.810
 6154TIP3    H118468   3.058   2.129   1.819
 6154TIP3    H218469   3.162   2.170   1.716
 6155TIP3   OH218470   0.801   4.640   1.488
 6155TIP3    H118471   0.844   4.695   1.422
 6155TIP3    H218472   0.872   4.588   1.526
 6156TIP3   OH218473   0.332   3.385   1.724
 6156TIP3    H118474   0.259   3.431   1.682
 6156TIP3    H218475   0.311   3.386   1.817
 6157TIP3   OH218476   0.293   2.218   4.120
 6157TIP3    H118477   0.325   2.174   4.199
 6157TIP3    H218478   0.370   2.263   4.086
 6158TIP3   OH218479   4.872   4.409   1.327
 6158TIP3    H118480   4.932   4.459   1.272
 6158TIP3    H218481   4.901   4.428   1.416
 6159TIP3   OH218482   1.710   5.157   3.520
 6159TIP3    H118483   1.722   5.070   3.559
 6159TIP3    H218484   1.693   5.140   3.428
 6160TIP3   OH218485   1.515   0.099   1.563
 6160TIP3    H118486   1.506   0.125   1.655
 6160TIP3    H218487   1.606   0.069   1.556
 6161TIP3   OH218488   4.878   0.982   2.959
 6161TIP3    H118489   4.884   0.902   3.011
 6161TIP3    H218490   4.807   1.032   3.000
 6162TIP3   OH218491   6.337   1.554   4.423
 6162TIP3    H118492   6.270   1.489   4.444
 6162TIP3    H218493   6.290   1.620   4.371
 6163TIP3   OH218494   3.532   1.838   0.208
 6163TIP3    H118495   3.515   1.898   0.280
 6163TIP3    H218496   3.447   1.826   0.166
 6164TIP3   OH218497   1.751   0.122   3.932
 6164TIP3    H118498   1.843   0.094   3.933
 6164TIP3    H218499   1.734   0.147   3.841
 6165TIP3   OH218500   0.293   3.895   1.390
 6165TIP3    H118501   0.292   3.962   1.322
 6165TIP3    H218502   0.375   3.848   1.377
 6166TIP3   OH218503   1.487   5.170   1.165
 6166TIP3    H118504   1.513   5.081   1.185
 6166TIP3    H218505   1.503   5.219   1.246
 6167TIP3   OH218506   5.937   0.066   0.758
 6167TIP3    H118507   5.930  -0.026   0.786
 6167TIP3    H218508   5.848   0.090   0.734
 6168TIP3   OH218509   0.114   4.594   4.147
 6168TIP3    H118510   0.109   4.605   4.242
 6168TIP3    H218511   0.041   4.645   4.112
 6169TIP3   OH218512   3.955   3.845   2.144
 6169TIP3    H118513   3.926   3.765   2.102
 6169TIP3    H218514   4.045   3.827   2.170
 6170TIP3   OH218515   1.788   0.698   4.947
 6170TIP3    H118516   1.766   0.727   4.859
 6170TIP3    H218517   1.873   0.654   4.938
 6171TIP3   OH218518   2.705   4.132   1.355
 6171TIP3    H118519   2.647   4.062   1.385
 6171TIP3    H218520   2.771   4.088   1.302
 6172TIP3   OH218521   3.210   0.518   4.366
 6172TIP3    H118522   3.247   0.584   4.424
 6172TIP3    H218523   3.200   0.441   4.421
 6173TIP3   OH218524   1.099   1.437   2.128
 6173TIP3    H118525   1.141   1.447   2.043
 6173TIP3    H218526   1.172   1.424   2.189
 6174TIP3   OH218527   1.272   4.463   0.573
 6174TIP3    H118528   1.337   4.437   0.639
 6174TIP3    H218529   1.295   4.554   0.552
 6175TIP3   OH218530   1.661   4.676   1.250
 6175TIP3    H118531   1.604   4.688   1.175
 6175TIP3    H218532   1.606   4.632   1.315
 6176TIP3   OH218533   4.635   2.249   3.242
 6176TIP3    H118534   4.586   2.322   3.281
 6176TIP3    H218535   4.724   2.282   3.233
 6177TIP3   OH218536   4.950   3.987   3.028
 6177TIP3    H118537   4.900   4.044   2.969
 6177TIP3    H218538   4.985   4.047   3.094
 6178TIP3   OH218539   4.322   0.565   3.669
 6178TIP3    H118540   4.232   0.591   3.649
 6178TIP3    H218541   4.342   0.498   3.604
 6179TIP3   OH218542   4.337   2.887   3.335
 6179TIP3    H118543   4.427   2.913   3.315
 6179TIP3    H218544   4.295   2.874   3.250
 6180TIP3   OH218545   4.920   0.756   4.701
 6180TIP3    H118546   4.894   0.733   4.790
 6180TIP3    H218547   4.985   0.690   4.676
 6181TIP3   OH218548   1.213   0.799   5.002
 6181TIP3    H118549   1.148   0.767   4.939
 6181TIP3    H218550   1.297   0.779   4.961
 6182TIP3   OH218551   3.606   3.963   1.043
 6182TIP3    H118552   3.638   4.030   1.104
 6182TIP3    H218553   3.685   3.926   1.004
 6183TIP3   OH218554   5.539   5.744   4.072
 6183TIP3    H118555   5.497   5.830   4.086
 6183TIP3    H218556   5.498   5.710   3.993
 6184TIP3   OH218557   0.425   3.872   4.059
 6184TIP3    H118558   0.436   3.777   4.069
 6184TIP3    H218559   0.449   3.889   3.968
 6185TIP3   OH218560   2.902   2.155   3.242
 6185TIP3    H118561   2.900   2.210   3.320
 6185TIP3    H218562   2.978   2.098   3.254
 6186TIP3   OH218563   1.084   0.288   1.177
 6186TIP3    H118564   1.146   0.215   1.171
 6186TIP3    H218565   1.138   0.366   1.163
 6187TIP3   OH218566   2.714   3.853   3.553
 6187TIP3    H118567   2.804   3.874   3.578
 6187TIP3    H218568   2.675   3.815   3.631
 6188TIP3   OH218569   0.957   0.576   0.191
 6188TIP3    H118570   0.873   0.532   0.178
 6188TIP3    H218571   0.981   0.558   0.282
 6189TIP3   OH218572   2.083   3.075   4.405
 6189TIP3    H118573   2.160   3.031   4.442
 6189TIP3    H218574   2.011   3.050   4.463
 6190TIP3   OH218575   0.149   0.753   1.400
 6190TIP3    H118576   0.204   0.831   1.411
 6190TIP3    H218577   0.062   0.781   1.427
 6191TIP3   OH218578   1.003   1.152   0.021
 6191TIP3    H118579   0.973   1.234   0.060
 6191TIP3    H218580   0.987   1.086   0.089
 6192TIP3   OH218581   1.725   2.165   4.909
 6192TIP3    H118582   1.763   2.253   4.908
 6192TIP3    H218583   1.750   2.127   4.826
 6193TIP3   OH218584   6.118   1.517   1.130
 6193TIP3    H118585   6.089   1.483   1.215
 6193TIP3    H218586   6.039   1.551   1.089
 6194TIP3   OH218587   4.650   4.495   4.136
 6194TIP3    H118588   4.678   4.456   4.053
 6194TIP3    H218589   4.660   4.590   4.121
 6195TIP3   OH218590   1.681  -0.018   4.415
 6195TIP3    H118591   1.665   0.073   4.390
 6195TIP3    H218592   1.776  -0.025   4.420
 6196TIP3   OH218593   5.127   0.575   4.618
 6196TIP3    H118594   5.223   0.573   4.615
 6196TIP3    H218595   5.102   0.483   4.631
 6197TIP3   OH218596   6.182   4.155   4.349
 6197TIP3    H118597   6.161   4.154   4.443
 6197TIP3    H218598   6.105   4.193   4.307
 6198TIP3   OH218599   3.177   1.464   1.274
 6198TIP3    H118600   3.139   1.380   1.298
 6198TIP3    H218601   3.191   1.458   1.179
 6199TIP3   OH218602   3.385   0.077   3.410
 6199TIP3    H118603   3.425   0.058   3.495
 6199TIP3    H218604   3.298   0.037   3.415
 6200TIP3   OH218605   5.724   2.685   3.028
 6200TIP3    H118606   5.742   2.632   2.950
 6200TIP3    H218607   5.628   2.686   3.035
 6201TIP3   OH218608   0.855   1.523   2.179
 6201TIP3    H118609   0.810   1.481   2.105
 6201TIP3    H218610   0.947   1.501   2.165
 6202TIP3   OH218611   5.758   5.130   0.590
 6202TIP3    H118612   5.786   5.082   0.512
 6202TIP3    H218613   5.831   5.123   0.651
 6203TIP3   OH218614   5.949   4.813   4.464
 6203TIP3    H118615   5.923   4.837   4.375
 6203TIP3    H218616   5.879   4.846   4.520
 6204TIP3   OH218617   2.357   2.693   0.805
 6204TIP3    H118618   2.390   2.645   0.881
 6204TIP3    H218619   2.263   2.673   0.803
 6205TIP3   OH218620   1.647   5.471   3.097
 6205TIP3    H118621   1.720   5.508   3.048
 6205TIP3    H218622   1.613   5.544   3.149
 6206TIP3   OH218623   3.301   5.764   4.033
 6206TIP3    H118624   3.238   5.830   4.064
 6206TIP3    H218625   3.254   5.681   4.040
 6207TIP3   OH218626   3.826   5.336   3.023
 6207TIP3    H118627   3.785   5.413   3.062
 6207TIP3    H218628   3.850   5.281   3.098
 6208TIP3   OH218629   3.141   2.918   2.309
 6208TIP3    H118630   3.161   3.003   2.272
 6208TIP3    H218631   3.177   2.855   2.246
 6209TIP3   OH218632   3.964   2.492   1.343
 6209TIP3    H118633   3.876   2.457   1.361
 6209TIP3    H218634   3.973   2.485   1.248
 6210TIP3   OH218635   4.970   5.908   4.279
 6210TIP3    H118636   4.916   5.841   4.320
 6210TIP3    H218637   4.950   5.901   4.186
 6211TIP3   OH218638   1.225   3.477   5.065
 6211TIP3    H118639   1.158   3.435   5.118
 6211TIP3    H218640   1.306   3.466   5.115
 6212TIP3   OH218641   4.868   4.646   1.080
 6212TIP3    H118642   4.907   4.568   1.040
 6212TIP3    H218643   4.837   4.698   1.007
 6213TIP3   OH218644   1.949   5.273   4.047
 6213TIP3    H118645   1.919   5.195   4.002
 6213TIP3    H218646   1.881   5.290   4.113
 6214TIP3   OH218647   6.067   5.865   4.134
 6214TIP3    H118648   6.085   5.912   4.052
 6214TIP3    H218649   5.978   5.891   4.158
 6215TIP3   OH218650   0.051   3.171   3.685
 6215TIP3    H118651   0.118   3.130   3.739
 6215TIP3    H218652   0.072   3.143   3.596
 6216TIP3   OH218653   5.260   1.735   2.935
 6216TIP3    H118654   5.256   1.752   3.029
 6216TIP3    H218655   5.176   1.693   2.915
 6217TIP3   OH218656   6.172   4.651   0.702
 6217TIP3    H118657   6.094   4.688   0.661
 6217TIP3    H218658   6.238   4.720   0.693
 6218TIP3   OH218659   3.260   5.801   3.390
 6218TIP3    H118660   3.340   5.763   3.426
 6218TIP3    H218661   3.200   5.727   3.380
 6219TIP3   OH218662   4.637   0.236   0.753
 6219TIP3    H118663   4.710   0.182   0.784
 6219TIP3    H218664   4.647   0.236   0.657
 6220TIP3   OH218665   1.736   2.478   4.960
 6220TIP3    H118666   1.781   2.533   4.896
 6220TIP3    H218667   1.648   2.464   4.923
 6221TIP3   OH218668   6.102   2.108   0.373
 6221TIP3    H118669   6.098   2.018   0.405
 6221TIP3    H218670   6.082   2.161   0.450
 6222TIP3   OH218671   1.805   3.931   4.739
 6222TIP3    H118672   1.721   3.978   4.735
 6222TIP3    H218673   1.870   3.996   4.711
 6223TIP3   OH218674   0.230   1.912   2.416
 6223TIP3    H118675   0.246   1.818   2.417
 6223TIP3    H218676   0.210   1.934   2.507
 6224TIP3   OH218677   3.788   0.350   3.279
 6224TIP3    H118678   3.874   0.311   3.293
 6224TIP3    H218679   3.727   0.288   3.320
 6225TIP3   OH218680   5.675   0.217   2.629
 6225TIP3    H118681   5.742   0.151   2.612
 6225TIP3    H218682   5.652   0.206   2.721
 6226TIP3   OH218683   4.002   2.942   4.718
 6226TIP3    H118684   3.914   2.977   4.732
 6226TIP3    H218685   3.988   2.847   4.711
 6227TIP3   OH218686   2.369   4.091   4.737
 6227TIP3    H118687   2.376   4.002   4.771
 6227TIP3    H218688   2.300   4.131   4.789
 6228TIP3   OH218689   4.071   1.254   1.959
 6228TIP3    H118690   4.090   1.347   1.948
 6228TIP3    H218691   3.979   1.246   1.936
 6229TIP3   OH218692   5.006   1.067   5.093
 6229TIP3    H118693   4.947   1.133   5.057
 6229TIP3    H218694   4.961   0.984   5.079
 6230TIP3   OH218695   4.255   0.912   0.088
 6230TIP3    H118696   4.234   0.887  -0.002
 6230TIP3    H218697   4.273   0.830   0.133
 6231TIP3   OH218698   2.029   1.783   5.054
 6231TIP3    H118699   2.112   1.790   5.007
 6231TIP3    H218700   1.973   1.848   5.014
 6232TIP3   OH218701   0.745   3.645   2.328
 6232TIP3    H118702   0.729   3.659   2.421
 6232TIP3    H218703   0.667   3.598   2.298
 6233TIP3   OH218704   2.600   0.860   4.552
 6233TIP3    H118705   2.642   0.944   4.535
 6233TIP3    H218706   2.672   0.798   4.558
 6234TIP3   OH218707   5.994   3.681   3.574
 6234TIP3    H118708   6.030   3.742   3.638
 6234TIP3    H218709   5.900   3.697   3.577
 6235TIP3   OH218710   3.618   2.403   2.278
 6235TIP3    H118711   3.663   2.463   2.219
 6235TIP3    H218712   3.606   2.452   2.359
 6236TIP3   OH218713   0.668   1.651   4.989
 6236TIP3    H118714   0.736   1.715   5.009
 6236TIP3    H218715   0.703   1.568   5.020
 6237TIP3   OH218716   5.028   2.232   3.439
 6237TIP3    H118717   5.114   2.220   3.397
 6237TIP3    H218718   4.973   2.269   3.370
 6238TIP3   OH218719   5.155   2.012   4.872
 6238TIP3    H118720   5.143   2.088   4.815
 6238TIP3    H218721   5.157   2.048   4.960
 6239TIP3   OH218722   3.244   1.103   1.707
 6239TIP3    H118723   3.290   1.024   1.678
 6239TIP3    H218724   3.288   1.174   1.661
 6240TIP3   OH218725   4.552   5.626   0.204
 6240TIP3    H118726   4.605   5.670   0.271
 6240TIP3    H218727   4.552   5.687   0.130
 6241TIP3   OH218728   0.633   3.098   2.157
 6241TIP3    H118729   0.728   3.104   2.154
 6241TIP3    H218730   0.603   3.182   2.122
 6242TIP3   OH218731   1.553   2.890   3.335
 6242TIP3    H118732   1.489   2.819   3.326
 6242TIP3    H218733   1.541   2.942   3.255
 6243TIP3   OH218734   5.328   0.078   3.442
 6243TIP3    H118735   5.368  -0.008   3.427
 6243TIP3    H218736   5.292   0.104   3.357
 6244TIP3   OH218737   0.257   4.583   0.563
 6244TIP3    H118738   0.351   4.576   0.551
 6244TIP3    H218739   0.246   4.645   0.635
 6245TIP3   OH218740   4.707   4.835   2.788
 6245TIP3    H118741   4.727   4.826   2.695
 6245TIP3    H218742   4.779   4.792   2.833
 6246TIP3   OH218743   4.356   4.149   4.616
 6246TIP3    H118744   4.389   4.201   4.543
 6246TIP3    H218745   4.316   4.072   4.574
 6247TIP3   OH218746   2.052   5.591   4.196
 6247TIP3    H118747   2.026   5.633   4.114
 6247TIP3    H218748   2.119   5.527   4.170
 6248TIP3   OH218749   1.537   4.420   1.910
 6248TIP3    H118750   1.445   4.398   1.924
 6248TIP3    H218751   1.574   4.343   1.867
 6249TIP3   OH218752   2.356   3.766   3.662
 6249TIP3    H118753   2.349   3.855   3.628
 6249TIP3    H218754   2.349   3.777   3.757
 6250TIP3   OH218755   4.897   2.367   3.231
 6250TIP3    H118756   4.971   2.357   3.171
 6250TIP3    H218757   4.874   2.460   3.225
 6251TIP3   OH218758   5.892   4.624   3.400
 6251TIP3    H118759   5.798   4.610   3.418
 6251TIP3    H218760   5.933   4.620   3.487
 6252TIP3   OH218761   1.641   5.917   1.565
 6252TIP3    H118762   1.726   5.875   1.551
 6252TIP3    H218763   1.617   5.895   1.655
 6253TIP3   OH218764   2.369   0.000   4.385
 6253TIP3    H118765   2.348   0.045   4.303
 6253TIP3    H218766   2.451   0.040   4.414
 6254TIP3   OH218767   4.173   0.279   2.353
 6254TIP3    H118768   4.180   0.221   2.277
 6254TIP3    H218769   4.213   0.361   2.324
 6255TIP3   OH218770   2.360   3.748   1.054
 6255TIP3    H118771   2.448   3.781   1.038
 6255TIP3    H218772   2.302   3.808   1.007
 6256TIP3   OH218773   4.117   1.918   2.648
 6256TIP3    H118774   4.182   1.913   2.717
 6256TIP3    H218775   4.106   2.012   2.632
 6257TIP3   OH218776   5.310   3.536   0.399
 6257TIP3    H118777   5.331   3.595   0.327
 6257TIP3    H218778   5.381   3.471   0.399
 6258TIP3   OH218779   6.089   4.416   0.595
 6258TIP3    H118780   6.120   4.482   0.657
 6258TIP3    H218781   6.167   4.364   0.575
 6259TIP3   OH218782   3.706   4.286   2.854
 6259TIP3    H118783   3.637   4.220   2.850
 6259TIP3    H218784   3.660   4.368   2.871
 6260TIP3   OH218785   3.024   0.363   0.792
 6260TIP3    H118786   3.065   0.279   0.810
 6260TIP3    H218787   3.091   0.413   0.745
 6261TIP3   OH218788   4.447   2.755   2.587
 6261TIP3    H118789   4.426   2.848   2.586
 6261TIP3    H218790   4.415   2.722   2.503
 6262TIP3   OH218791   2.036   2.255   1.333
 6262TIP3    H118792   1.978   2.183   1.355
 6262TIP3    H218793   2.017   2.322   1.399
 6263TIP3   OH218794   5.296   5.512   3.101
 6263TIP3    H118795   5.281   5.571   3.027
 6263TIP3    H218796   5.249   5.432   3.077
 6264TIP3   OH218797   0.719   3.420   0.343
 6264TIP3    H118798   0.814   3.408   0.344
 6264TIP3    H218799   0.685   3.343   0.388
 6265TIP3   OH218800   5.499   3.182   3.967
 6265TIP3    H118801   5.521   3.130   3.889
 6265TIP3    H218802   5.458   3.119   4.026
 6266TIP3   OH218803   4.347   2.795   2.950
 6266TIP3    H118804   4.265   2.818   2.992
 6266TIP3    H218805   4.333   2.706   2.918
 6267TIP3   OH218806   4.903   3.390   1.177
 6267TIP3    H118807   4.823   3.441   1.163
 6267TIP3    H218808   4.880   3.330   1.248
 6268TIP3   OH218809   1.764   0.291   3.387
 6268TIP3    H118810   1.823   0.362   3.412
 6268TIP3    H218811   1.693   0.335   3.340
 6269TIP3   OH218812   3.311   2.428   2.873
 6269TIP3    H118813   3.277   2.363   2.935
 6269TIP3    H218814   3.268   2.510   2.898
 6270TIP3   OH218815   0.782   3.287   5.044
 6270TIP3    H118816   0.728   3.352   5.089
 6270TIP3    H218817   0.727   3.254   4.974
 6271TIP3   OH218818   2.608   5.127   1.265
 6271TIP3    H118819   2.646   5.162   1.346
 6271TIP3    H218820   2.643   5.039   1.257
 6272TIP3   OH218821   5.610   3.244   2.938
 6272TIP3    H118822   5.621   3.152   2.914
 6272TIP3    H218823   5.595   3.289   2.856
 6273TIP3   OH218824   0.165   0.898   1.630
 6273TIP3    H118825   0.207   0.937   1.554
 6273TIP3    H218826   0.202   0.946   1.705
 6274TIP3   OH218827   4.530   3.550   0.669
 6274TIP3    H118828   4.589   3.529   0.741
 6274TIP3    H218829   4.447   3.572   0.711
 6275TIP3   OH218830   2.432   4.579   1.655
 6275TIP3    H118831   2.492   4.516   1.615
 6275TIP3    H218832   2.403   4.634   1.582
 6276TIP3   OH218833   4.846   4.252   0.055
 6276TIP3    H118834   4.872   4.164   0.083
 6276TIP3    H218835   4.755   4.259   0.082
 6277TIP3   OH218836   1.465   3.010   3.088
 6277TIP3    H118837   1.425   2.984   3.005
 6277TIP3    H218838   1.408   3.079   3.121
 6278TIP3   OH218839   4.910   3.375   1.955
 6278TIP3    H118840   4.824   3.335   1.972
 6278TIP3    H218841   4.896   3.428   1.876
 6279TIP3   OH218842   0.369   5.166   1.077
 6279TIP3    H118843   0.355   5.260   1.088
 6279TIP3    H218844   0.432   5.159   1.005
 6280TIP3   OH218845   3.186   5.039   5.086
 6280TIP3    H118846   3.253   5.004   5.027
 6280TIP3    H218847   3.114   4.976   5.082
 6281TIP3   OH218848   5.310   4.464   3.687
 6281TIP3    H118849   5.352   4.387   3.725
 6281TIP3    H218850   5.310   4.447   3.592
 6282TIP3   OH218851   4.732   2.924   0.544
 6282TIP3    H118852   4.814   2.878   0.528
 6282TIP3    H218853   4.730   2.938   0.639
 6283TIP3   OH218854   0.517   5.153   2.386
 6283TIP3    H118855   0.426   5.125   2.394
 6283TIP3    H218856   0.550   5.104   2.310
 6284TIP3   OH218857   4.570   5.588   1.459
 6284TIP3    H118858   4.485   5.553   1.433
 6284TIP3    H218859   4.633   5.542   1.403
 6285TIP3   OH218860   4.138   3.396   1.980
 6285TIP3    H118861   4.179   3.318   1.944
 6285TIP3    H218862   4.046   3.388   1.955
 6286TIP3   OH218863   4.936   5.022   1.670
 6286TIP3    H118864   4.959   4.975   1.590
 6286TIP3    H218865   4.890   4.957   1.724
 6287TIP3   OH218866   5.492   4.962   0.291
 6287TIP3    H118867   5.452   4.937   0.207
 6287TIP3    H218868   5.484   4.884   0.345
 6288TIP3   OH218869   2.393   3.514   0.077
 6288TIP3    H118870   2.392   3.512  -0.018
 6288TIP3    H218871   2.424   3.428   0.104
 6289TIP3   OH218872   2.643   4.358   0.082
 6289TIP3    H118873   2.577   4.402   0.028
 6289TIP3    H218874   2.607   4.270   0.097
 6290TIP3   OH218875   3.412   4.895   2.132
 6290TIP3    H118876   3.428   4.984   2.163
 6290TIP3    H218877   3.498   4.855   2.131
 6291TIP3   OH218878   0.181   3.114   2.428
 6291TIP3    H118879   0.152   3.174   2.496
 6291TIP3    H218880   0.167   3.027   2.465
 6292TIP3   OH218881   1.244   4.375   4.652
 6292TIP3    H118882   1.223   4.323   4.574
 6292TIP3    H218883   1.160   4.394   4.692
 6293TIP3   OH218884   1.411   5.322   4.125
 6293TIP3    H118885   1.329   5.335   4.078
 6293TIP3    H218886   1.476   5.306   4.057
 6294TIP3   OH218887   5.100   4.177   2.801
 6294TIP3    H118888   5.150   4.143   2.726
 6294TIP3    H218889   5.089   4.102   2.859
 6295TIP3   OH218890   3.552   3.757   2.817
 6295TIP3    H118891   3.561   3.812   2.740
 6295TIP3    H218892   3.594   3.807   2.888
 6296TIP3   OH218893   0.069   4.191   0.026
 6296TIP3    H118894   0.009   4.211  -0.045
 6296TIP3    H218895   0.014   4.193   0.105
 6297TIP3   OH218896   4.861   2.796   1.373
 6297TIP3    H118897   4.936   2.854   1.364
 6297TIP3    H218898   4.889   2.730   1.437
 6298TIP3   OH218899   2.371   4.087   2.285
 6298TIP3    H118900   2.384   4.127   2.199
 6298TIP3    H218901   2.449   4.109   2.335
 6299TIP3   OH218902   3.161   2.205   2.373
 6299TIP3    H118903   3.080   2.195   2.424
 6299TIP3    H218904   3.164   2.298   2.351
 6300TIP3   OH218905   0.258   1.261   2.019
 6300TIP3    H118906   0.187   1.197   2.026
 6300TIP3    H218907   0.219   1.344   2.048
 6301TIP3   OH218908   2.831   0.794   3.175
 6301TIP3    H118909   2.881   0.797   3.094
 6301TIP3    H218910   2.873   0.725   3.227
 6302TIP3   OH218911   2.907   3.004   2.084
 6302TIP3    H118912   2.863   3.033   2.164
 6302TIP3    H218913   2.838   2.964   2.031
 6303TIP3   OH218914   2.856   1.559   2.115
 6303TIP3    H118915   2.796   1.629   2.090
 6303TIP3    H218916   2.813   1.516   2.190
 6304TIP3   OH218917   5.943   4.974   2.969
 6304TIP3    H118918   5.930   5.069   2.972
 6304TIP3    H218919   5.893   4.941   3.043
 6305TIP3   OH218920   5.469   2.702   4.804
 6305TIP3    H118921   5.397   2.701   4.867
 6305TIP3    H218922   5.548   2.700   4.858
 6306TIP3   OH218923   5.245   5.003   0.485
 6306TIP3    H118924   5.304   4.929   0.498
 6306TIP3    H218925   5.298   5.066   0.436
 6307TIP3   OH218926   0.296   2.903   1.762
 6307TIP3    H118927   0.347   2.909   1.843
 6307TIP3    H218928   0.352   2.940   1.694
 6308TIP3   OH218929   1.803   5.503   5.067
 6308TIP3    H118930   1.881   5.558   5.071
 6308TIP3    H218931   1.732   5.562   5.045
 6309TIP3   OH218932   1.409   5.769   2.622
 6309TIP3    H118933   1.496   5.732   2.635
 6309TIP3    H218934   1.349   5.699   2.649
 6310TIP3   OH218935   2.228   3.468   1.316
 6310TIP3    H118936   2.142   3.504   1.297
 6310TIP3    H218937   2.211   3.391   1.370
 6311TIP3   OH218938   0.789   5.787   1.871
 6311TIP3    H118939   0.842   5.786   1.791
 6311TIP3    H218940   0.821   5.862   1.920
 6312TIP3   OH218941   6.158   1.385   4.554
 6312TIP3    H118942   6.201   1.322   4.612
 6312TIP3    H218943   6.069   1.393   4.588
 6313TIP3   OH218944   2.971   0.924   5.117
 6313TIP3    H118945   3.052   0.937   5.168
 6313TIP3    H218946   2.990   0.847   5.063
 6314TIP3   OH218947   5.740   4.218   3.849
 6314TIP3    H118948   5.827   4.241   3.816
 6314TIP3    H218949   5.743   4.123   3.862
 6315TIP3   OH218950   5.442   2.743   2.889
 6315TIP3    H118951   5.387   2.777   2.818
 6315TIP3    H218952   5.406   2.658   2.909
 6316TIP3   OH218953   6.303   1.718   1.144
 6316TIP3    H118954   6.353   1.715   1.063
 6316TIP3    H218955   6.247   1.640   1.142
 6317TIP3   OH218956   4.816   0.676   1.858
 6317TIP3    H118957   4.780   0.748   1.909
 6317TIP3    H218958   4.742   0.642   1.808
 6318TIP3   OH218959   0.494   5.127   3.140
 6318TIP3    H118960   0.413   5.079   3.122
 6318TIP3    H218961   0.542   5.125   3.057
 6319TIP3   OH218962   2.983   4.914   3.609
 6319TIP3    H118963   2.951   4.836   3.563
 6319TIP3    H218964   2.904   4.956   3.643
 6320TIP3   OH218965   4.570   0.726   0.691
 6320TIP3    H118966   4.535   0.676   0.617
 6320TIP3    H218967   4.494   0.773   0.726
 6321TIP3   OH218968   6.102   4.457   0.245
 6321TIP3    H118969   6.163   4.384   0.248
 6321TIP3    H218970   6.138   4.515   0.177
 6322TIP3   OH218971   1.159   4.548   1.079
 6322TIP3    H118972   1.152   4.579   1.169
 6322TIP3    H218973   1.071   4.514   1.059
 6323TIP3   OH218974   1.981   5.024   1.340
 6323TIP3    H118975   1.894   5.021   1.300
 6323TIP3    H218976   2.011   4.933   1.339
 6324TIP3   OH218977   3.255   4.520   1.869
 6324TIP3    H118978   3.226   4.484   1.953
 6324TIP3    H218979   3.218   4.608   1.867
 6325TIP3   OH218980   2.323   2.182   4.520
 6325TIP3    H118981   2.296   2.251   4.580
 6325TIP3    H218982   2.372   2.120   4.575
 6326TIP3   OH218983   1.839   0.711   1.373
 6326TIP3    H118984   1.817   0.664   1.454
 6326TIP3    H218985   1.762   0.763   1.353
 6327TIP3   OH218986   4.149   1.438   0.249
 6327TIP3    H118987   4.216   1.403   0.308
 6327TIP3    H218988   4.106   1.361   0.213
 6328TIP3   OH218989   4.203   4.181   4.971
 6328TIP3    H118990   4.279   4.210   4.921
 6328TIP3    H218991   4.237   4.114   5.030
 6329TIP3   OH218992   1.809   0.546   3.534
 6329TIP3    H118993   1.815   0.610   3.464
 6329TIP3    H218994   1.723   0.561   3.572
 6330TIP3   OH218995   5.882   5.181   4.262
 6330TIP3    H118996   5.966   5.175   4.216
 6330TIP3    H218997   5.905   5.211   4.350
 6331TIP3   OH218998   1.662   0.951   3.505
 6331TIP3    H118999   1.582   0.944   3.453
 6331TIP3    H219000   1.641   1.015   3.573
 6332TIP3   OH219001   3.795   0.489   3.661
 6332TIP3    H119002   3.871   0.431   3.660
 6332TIP3    H219003   3.805   0.542   3.582
 6333TIP3   OH219004   3.683   1.902   4.597
 6333TIP3    H119005   3.712   1.982   4.552
 6333TIP3    H219006   3.763   1.852   4.611
 6334TIP3   OH219007   3.023   5.814   2.419
 6334TIP3    H119008   3.064   5.828   2.505
 6334TIP3    H219009   2.934   5.846   2.430
 6335TIP3   OH219010   5.529   4.675   4.206
 6335TIP3    H119011   5.535   4.622   4.285
 6335TIP3    H219012   5.449   4.644   4.163
 6336TIP3   OH219013   4.290   1.784   3.293
 6336TIP3    H119014   4.221   1.719   3.287
 6336TIP3    H219015   4.253   1.854   3.347
 6337TIP3   OH219016   1.738   2.411   0.774
 6337TIP3    H119017   1.742   2.480   0.841
 6337TIP3    H219018   1.767   2.454   0.694
 6338TIP3   OH219019   5.620   3.556   1.208
 6338TIP3    H119020   5.560   3.486   1.232
 6338TIP3    H219021   5.701   3.511   1.185
 6339TIP3   OH219022   6.061   2.265   0.615
 6339TIP3    H119023   5.975   2.306   0.616
 6339TIP3    H219024   6.120   2.331   0.651
 6340TIP3   OH219025   4.992   3.582   1.536
 6340TIP3    H119026   5.053   3.553   1.469
 6340TIP3    H219027   4.981   3.676   1.519
 6341TIP3   OH219028   4.553   3.588   2.302
 6341TIP3    H119029   4.482   3.585   2.367
 6341TIP3    H219030   4.509   3.567   2.219
 6342TIP3   OH219031   4.430   1.288   2.105
 6342TIP3    H119032   4.515   1.255   2.077
 6342TIP3    H219033   4.380   1.210   2.129
 6343TIP3   OH219034   1.620   1.531   3.434
 6343TIP3    H119035   1.590   1.517   3.344
 6343TIP3    H219036   1.670   1.453   3.455
 6344TIP3   OH219037   3.827   3.155   3.385
 6344TIP3    H119038   3.846   3.159   3.479
 6344TIP3    H219039   3.904   3.114   3.346
 6345TIP3   OH219040   1.824   1.780   4.323
 6345TIP3    H119041   1.771   1.719   4.271
 6345TIP3    H219042   1.835   1.856   4.266
 6346TIP3   OH219043   5.472   1.409   0.795
 6346TIP3    H119044   5.484   1.494   0.753
 6346TIP3    H219045   5.467   1.346   0.723
 6347TIP3   OH219046   4.124   1.224   2.233
 6347TIP3    H119047   4.090   1.225   2.143
 6347TIP3    H219048   4.166   1.309   2.244
 6348TIP3   OH219049   1.649   3.487   2.902
 6348TIP3    H119050   1.708   3.506   2.975
 6348TIP3    H219051   1.602   3.569   2.887
 6349TIP3   OH219052   4.324   2.617   1.310
 6349TIP3    H119053   4.386   2.557   1.352
 6349TIP3    H219054   4.289   2.567   1.236
 6350TIP3   OH219055   4.162   5.136   3.260
 6350TIP3    H119056   4.115   5.106   3.182
 6350TIP3    H219057   4.191   5.055   3.302
 6351TIP3   OH219058   2.170   0.542   0.251
 6351TIP3    H119059   2.163   0.621   0.305
 6351TIP3    H219060   2.088   0.495   0.266
 6352TIP3   OH219061   3.197   1.329   4.136
 6352TIP3    H119062   3.125   1.348   4.195
 6352TIP3    H219063   3.240   1.253   4.174
 6353TIP3   OH219064   4.760   5.596   4.112
 6353TIP3    H119065   4.796   5.519   4.156
 6353TIP3    H219066   4.826   5.619   4.046
 6354TIP3   OH219067   4.655   0.598   5.099
 6354TIP3    H119068   4.589   0.559   5.040
 6354TIP3    H219069   4.723   0.531   5.105
 6355TIP3   OH219070   5.513   1.757   1.240
 6355TIP3    H119071   5.458   1.737   1.165
 6355TIP3    H219072   5.530   1.850   1.233
 6356TIP3   OH219073   5.544   5.438   3.048
 6356TIP3    H119074   5.456   5.466   3.073
 6356TIP3    H219075   5.535   5.345   3.027
 6357TIP3   OH219076   5.733   5.639   1.163
 6357TIP3    H119077   5.701   5.727   1.146
 6357TIP3    H219078   5.678   5.582   1.108
 6358TIP3   OH219079   4.873   4.876   4.425
 6358TIP3    H119080   4.836   4.788   4.424
 6358TIP3    H219081   4.945   4.873   4.362
 6359TIP3   OH219082   0.149   0.754   4.951
 6359TIP3    H119083   0.151   0.715   4.863
 6359TIP3    H219084   0.083   0.704   4.998
 6360TIP3   OH219085   0.599   4.219   1.135
 6360TIP3    H119086   0.625   4.149   1.195
 6360TIP3    H219087   0.618   4.300   1.183
 6361TIP3   OH219088   1.128   3.245   0.837
 6361TIP3    H119089   1.121   3.292   0.754
 6361TIP3    H219090   1.142   3.154   0.811
 6362TIP3   OH219091   1.355   3.807   3.860
 6362TIP3    H119092   1.402   3.890   3.872
 6362TIP3    H219093   1.416   3.741   3.894
 6363TIP3   OH219094   3.543   0.057   2.025
 6363TIP3    H119095   3.556  -0.019   2.082
 6363TIP3    H219096   3.452   0.081   2.038
 6364TIP3   OH219097   0.484   2.615   1.752
 6364TIP3    H119098   0.527   2.659   1.678
 6364TIP3    H219099   0.390   2.622   1.732
 6365TIP3   OH219100   3.751   5.262   5.091
 6365TIP3    H119101   3.807   5.331   5.055
 6365TIP3    H219102   3.763   5.269   5.186
 6366TIP3   OH219103   2.728   4.634   3.038
 6366TIP3    H119104   2.771   4.566   2.987
 6366TIP3    H219105   2.635   4.610   3.036
 6367TIP3   OH219106   4.093   4.739   3.599
 6367TIP3    H119107   4.132   4.788   3.527
 6367TIP3    H219108   4.090   4.801   3.672
 6368TIP3   OH219109   1.900   4.686   5.079
 6368TIP3    H119110   1.859   4.610   5.119
 6368TIP3    H219111   1.840   4.758   5.096
 6369TIP3   OH219112   4.710   2.336   4.571
 6369TIP3    H119113   4.656   2.412   4.548
 6369TIP3    H219114   4.798   2.371   4.583
 6370TIP3   OH219115   5.630   3.325   4.365
 6370TIP3    H119116   5.638   3.236   4.331
 6370TIP3    H219117   5.537   3.345   4.361
 6371TIP3   OH219118   4.245   4.271   0.754
 6371TIP3    H119119   4.202   4.327   0.690
 6371TIP3    H219120   4.223   4.311   0.839
 6372TIP3   OH219121   6.244   4.664   2.702
 6372TIP3    H119122   6.224   4.751   2.737
 6372TIP3    H219123   6.224   4.671   2.608
 6373TIP3   OH219124   4.395   1.608   0.756
 6373TIP3    H119125   4.470   1.555   0.783
 6373TIP3    H219126   4.378   1.665   0.831
 6374TIP3   OH219127   6.039   0.583   2.932
 6374TIP3    H119128   5.978   0.511   2.952
 6374TIP3    H219129   5.987   0.662   2.943
 6375TIP3   OH219130   5.304   5.458   4.793
 6375TIP3    H119131   5.335   5.445   4.703
 6375TIP3    H219132   5.242   5.531   4.786
 6376TIP3   OH219133   2.220   1.216   4.316
 6376TIP3    H119134   2.219   1.156   4.242
 6376TIP3    H219135   2.141   1.270   4.306
 6377TIP3   OH219136   4.175   2.534   4.017
 6377TIP3    H119137   4.095   2.584   4.028
 6377TIP3    H219138   4.243   2.599   4.001
 6378TIP3   OH219139   2.448   5.920   3.724
 6378TIP3    H119140   2.537   5.923   3.758
 6378TIP3    H219141   2.392   5.920   3.802
 6379TIP3   OH219142   4.569   0.437   3.728
 6379TIP3    H119143   4.582   0.382   3.804
 6379TIP3    H219144   4.480   0.471   3.738
 6380TIP3   OH219145   6.241   5.405   2.635
 6380TIP3    H119146   6.150   5.407   2.605
 6380TIP3    H219147   6.257   5.492   2.670
 6381TIP3   OH219148   1.972   5.985   0.785
 6381TIP3    H119149   1.943   5.910   0.838
 6381TIP3    H219150   2.044   6.024   0.835
 6382TIP3   OH219151   1.881   5.302   3.163
 6382TIP3    H119152   1.798   5.345   3.146
 6382TIP3    H219153   1.858   5.210   3.177
 6383TIP3   OH219154   6.210   3.281   2.555
 6383TIP3    H119155   6.238   3.266   2.645
 6383TIP3    H219156   6.138   3.220   2.542
 6384TIP3   OH219157   3.470   2.674   4.276
 6384TIP3    H119158   3.486   2.592   4.323
 6384TIP3    H219159   3.380   2.697   4.296
 6385TIP3   OH219160   4.400   2.349   5.003
 6385TIP3    H119161   4.476   2.343   4.944
 6385TIP3    H219162   4.436   2.389   5.083
 6386TIP3   OH219163   4.416   2.674   3.845
 6386TIP3    H119164   4.499   2.722   3.837
 6386TIP3    H219165   4.397   2.643   3.757
 6387TIP3   OH219166   4.093   2.616   3.084
 6387TIP3    H119167   4.066   2.706   3.104
 6387TIP3    H219168   4.016   2.563   3.103
 6388TIP3   OH219169   2.407   5.637   3.217
 6388TIP3    H119170   2.448   5.572   3.161
 6388TIP3    H219171   2.352   5.688   3.158
 6389TIP3   OH219172   4.382   4.208   3.153
 6389TIP3    H119173   4.449   4.155   3.195
 6389TIP3    H219174   4.373   4.285   3.209
 6390TIP3   OH219175   6.058   4.953   0.324
 6390TIP3    H119176   6.069   5.025   0.386
 6390TIP3    H219177   6.024   4.881   0.377
 6391TIP3   OH219178   4.922   1.431   0.697
 6391TIP3    H119179   4.974   1.510   0.687
 6391TIP3    H219180   4.832   1.460   0.687
 6392TIP3   OH219181   6.111   0.384   0.706
 6392TIP3    H119182   6.137   0.296   0.732
 6392TIP3    H219183   6.161   0.402   0.627
 6393TIP3   OH219184   4.561   3.131   0.494
 6393TIP3    H119185   4.483   3.126   0.548
 6393TIP3    H219186   4.610   3.051   0.514
 6394TIP3   OH219187   3.032   3.468   4.681
 6394TIP3    H119188   3.023   3.386   4.730
 6394TIP3    H219189   2.948   3.478   4.637
 6395TIP3   OH219190   5.475   0.188   2.188
 6395TIP3    H119191   5.568   0.181   2.211
 6395TIP3    H219192   5.440   0.100   2.204
 6396TIP3   OH219193   5.029   0.589   0.770
 6396TIP3    H119194   5.123   0.584   0.751
 6396TIP3    H219195   5.019   0.669   0.821
 6397TIP3   OH219196   2.975   1.754   4.536
 6397TIP3    H119197   2.902   1.692   4.538
 6397TIP3    H219198   2.935   1.838   4.562
 6398TIP3   OH219199  -0.003   2.858   2.141
 6398TIP3    H119200   0.047   2.777   2.130
 6398TIP3    H219201  -0.016   2.891   2.052
 6399TIP3   OH219202   3.995   4.413   0.740
 6399TIP3    H119203   3.908   4.439   0.709
 6399TIP3    H219204   3.979   4.339   0.797
 6400TIP3   OH219205   2.855   1.951   2.208
 6400TIP3    H119206   2.834   2.045   2.208
 6400TIP3    H219207   2.904   1.937   2.289
 6401TIP3   OH219208   0.047   4.248   4.227
 6401TIP3    H119209  -0.022   4.218   4.287
 6401TIP3    H219210   0.109   4.294   4.283
 6402TIP3   OH219211   6.218   4.926   4.643
 6402TIP3    H119212   6.150   4.867   4.674
 6402TIP3    H219213   6.237   4.982   4.718
 6403TIP3   OH219214   3.826   1.161   1.840
 6403TIP3    H119215   3.817   1.100   1.913
 6403TIP3    H219216   3.790   1.114   1.765
 6404TIP3   OH219217   5.373   2.017   1.513
 6404TIP3    H119218   5.354   2.111   1.512
 6404TIP3    H219219   5.465   2.011   1.539
 6405TIP3   OH219220   0.635   4.022   3.547
 6405TIP3    H119221   0.586   4.101   3.523
 6405TIP3    H219222   0.684   3.999   3.468
 6406TIP3   OH219223   5.680   1.036   3.319
 6406TIP3    H119224   5.625   1.054   3.243
 6406TIP3    H219225   5.750   1.101   3.315
 6407TIP3   OH219226   6.258   2.372   4.866
 6407TIP3    H119227   6.171   2.400   4.896
 6407TIP3    H219228   6.275   2.291   4.912
 6408TIP3   OH219229   3.175   4.792   1.554
 6408TIP3    H119230   3.266   4.786   1.582
 6408TIP3    H219231   3.128   4.826   1.630
 6409TIP3   OH219232   0.197   3.084   2.125
 6409TIP3    H119233   0.142   3.006   2.133
 6409TIP3    H219234   0.204   3.118   2.214
 6410TIP3   OH219235   2.426   3.697   3.217
 6410TIP3    H119236   2.432   3.751   3.297
 6410TIP3    H219237   2.515   3.668   3.201
 6411TIP3   OH219238   2.757   1.532   4.757
 6411TIP3    H119239   2.680   1.587   4.744
 6411TIP3    H219240   2.728   1.464   4.818
 6412TIP3   OH219241   1.001   4.481   4.358
 6412TIP3    H119242   1.087   4.501   4.321
 6412TIP3    H219243   0.997   4.534   4.438
 6413TIP3   OH219244   5.727   4.001   3.333
 6413TIP3    H119245   5.751   4.031   3.245
 6413TIP3    H219246   5.783   4.053   3.391
 6414TIP3   OH219247   4.050   2.847   2.798
 6414TIP3    H119248   3.984   2.894   2.749
 6414TIP3    H219249   4.027   2.754   2.788
 6415TIP3   OH219250   5.668   0.564   4.989
 6415TIP3    H119251   5.603   0.543   5.056
 6415TIP3    H219252   5.660   0.658   4.976
 6416TIP3   OH219253   4.195   5.375   5.101
 6416TIP3    H119254   4.135   5.392   5.029
 6416TIP3    H219255   4.200   5.458   5.148
 6417TIP3   OH219256   0.038   0.941   0.991
 6417TIP3    H119257   0.046   0.849   0.969
 6417TIP3    H219258   0.006   0.942   1.081
 6418TIP3   OH219259   0.215   0.469   4.902
 6418TIP3    H119260   0.221   0.544   4.842
 6418TIP3    H219261   0.138   0.487   4.955
 6419TIP3   OH219262   3.010   5.829   1.013
 6419TIP3    H119263   2.945   5.837   0.943
 6419TIP3    H219264   2.973   5.878   1.086
 6420TIP3   OH219265   4.428   3.673   2.545
 6420TIP3    H119266   4.478   3.647   2.622
 6420TIP3    H219267   4.471   3.753   2.514
 6421TIP3   OH219268   3.437   2.808   3.025
 6421TIP3    H119269   3.466   2.811   2.934
 6421TIP3    H219270   3.397   2.893   3.041
 6422TIP3   OH219271   5.796   3.629   4.712
 6422TIP3    H119272   5.869   3.594   4.762
 6422TIP3    H219273   5.768   3.557   4.656
 6423TIP3   OH219274   2.010   0.484   4.114
 6423TIP3    H119275   1.928   0.451   4.078
 6423TIP3    H219276   1.985   0.545   4.183
 6424TIP3   OH219277   1.165   4.863   2.711
 6424TIP3    H119278   1.171   4.869   2.807
 6424TIP3    H219279   1.075   4.835   2.695
 6425TIP3   OH219280   5.245   3.769   2.514
 6425TIP3    H119281   5.267   3.744   2.425
 6425TIP3    H219282   5.180   3.839   2.503
 6426TIP3   OH219283   0.645   5.141   2.095
 6426TIP3    H119284   0.687   5.135   2.009
 6426TIP3    H219285   0.613   5.231   2.100
 6427TIP3   OH219286   6.058   4.955   3.963
 6427TIP3    H119287   6.047   5.049   3.946
 6427TIP3    H219288   5.995   4.912   3.905
 6428TIP3   OH219289   0.598   5.971   3.439
 6428TIP3    H119290   0.677   6.024   3.430
 6428TIP3    H219291   0.603   5.908   3.368
 6429TIP3   OH219292   3.202   5.527   4.350
 6429TIP3    H119293   3.226   5.465   4.281
 6429TIP3    H219294   3.272   5.518   4.415
 6430TIP3   OH219295   3.318   5.791   1.816
 6430TIP3    H119296   3.295   5.815   1.726
 6430TIP3    H219297   3.373   5.863   1.847
 6431TIP3   OH219298   6.241   0.178   0.047
 6431TIP3    H119299   6.312   0.232   0.012
 6431TIP3    H219300   6.285   0.097   0.076
 6432TIP3   OH219301   3.223   0.173   1.145
 6432TIP3    H119302   3.187   0.095   1.187
 6432TIP3    H219303   3.157   0.241   1.160
 6433TIP3   OH219304   4.936   3.641   0.768
 6433TIP3    H119305   4.961   3.653   0.860
 6433TIP3    H219306   5.017   3.617   0.724
 6434TIP3   OH219307   4.111   4.402   1.826
 6434TIP3    H119308   4.168   4.428   1.753
 6434TIP3    H219309   4.037   4.463   1.820
 6435TIP3   OH219310   4.131   5.129   0.086
 6435TIP3    H119311   4.226   5.116   0.091
 6435TIP3    H219312   4.120   5.224   0.090
 6436TIP3   OH219313   2.300   0.601   2.193
 6436TIP3    H119314   2.383   0.610   2.240
 6436TIP3    H219315   2.238   0.572   2.259
 6437TIP3   OH219316   6.230   5.463   2.321
 6437TIP3    H119317   6.222   5.497   2.232
 6437TIP3    H219318   6.142   5.433   2.344
 6438TIP3   OH219319   3.555   4.033   1.901
 6438TIP3    H119320   3.472   4.058   1.943
 6438TIP3    H219321   3.547   3.939   1.886
 6439TIP3   OH219322   0.016   0.375   4.253
 6439TIP3    H119323   0.051   0.390   4.165
 6439TIP3    H219324   0.085   0.324   4.296
 6440TIP3   OH219325   4.243   4.782   4.123
 6440TIP3    H119326   4.253   4.783   4.218
 6440TIP3    H219327   4.310   4.721   4.092
 6441TIP3   OH219328   5.082   1.360   2.173
 6441TIP3    H119329   5.009   1.298   2.173
 6441TIP3    H219330   5.044   1.440   2.137
 6442TIP3   OH219331   5.739   4.341   2.298
 6442TIP3    H119332   5.646   4.322   2.308
 6442TIP3    H219333   5.773   4.265   2.250
 6443TIP3   OH219334   1.639   5.743   0.582
 6443TIP3    H119335   1.720   5.777   0.543
 6443TIP3    H219336   1.571   5.765   0.519
 6444TIP3   OH219337   1.120   1.024   4.204
 6444TIP3    H119338   1.050   1.013   4.140
 6444TIP3    H219339   1.199   1.033   4.151
 6445TIP3   OH219340   2.912   0.816   0.352
 6445TIP3    H119341   2.901   0.734   0.400
 6445TIP3    H219342   2.882   0.795   0.263
 6446TIP3   OH219343   2.564   3.261   4.650
 6446TIP3    H119344   2.533   3.174   4.672
 6446TIP3    H219345   2.501   3.320   4.690
 6447TIP3   OH219346   0.118   3.114   3.434
 6447TIP3    H119347   0.185   3.054   3.400
 6447TIP3    H219348   0.150   3.201   3.410
 6448TIP3   OH219349   4.081   1.168   4.153
 6448TIP3    H119350   4.050   1.157   4.243
 6448TIP3    H219351   4.098   1.262   4.145
 6449TIP3   OH219352   3.967   4.403   1.060
 6449TIP3    H119353   3.935   4.324   1.016
 6449TIP3    H219354   3.951   4.388   1.153
 6450TIP3   OH219355   5.733   4.927   3.628
 6450TIP3    H119356   5.772   4.864   3.689
 6450TIP3    H219357   5.640   4.928   3.650
 6451TIP3   OH219358   3.004   4.062   3.525
 6451TIP3    H119359   3.042   4.075   3.438
 6451TIP3    H219360   2.917   4.103   3.519
 6452TIP3   OH219361   5.585   1.376   1.997
 6452TIP3    H119362   5.641   1.308   1.960
 6452TIP3    H219363   5.499   1.360   1.958
 6453TIP3   OH219364   6.279   5.100   1.609
 6453TIP3    H119365   6.363   5.123   1.570
 6453TIP3    H219366   6.295   5.015   1.650
 6454TIP3   OH219367   5.550   1.522   2.330
 6454TIP3    H119368   5.501   1.487   2.255
 6454TIP3    H219369   5.486   1.574   2.378
 6455TIP3   OH219370   0.118   3.324   1.384
 6455TIP3    H119371   0.105   3.249   1.442
 6455TIP3    H219372   0.098   3.400   1.437
 6456TIP3   OH219373   4.429   2.605   3.264
 6456TIP3    H119374   4.373   2.662   3.316
 6456TIP3    H219375   4.494   2.572   3.326
 6457TIP3   OH219376   0.497   2.997   1.350
 6457TIP3    H119377   0.404   2.976   1.341
 6457TIP3    H219378   0.541   2.913   1.342
 6458TIP3   OH219379   4.738   5.014   0.315
 6458TIP3    H119380   4.817   4.994   0.366
 6458TIP3    H219381   4.705   4.929   0.287
 6459TIP3   OH219382   2.968   2.503   1.384
 6459TIP3    H119383   3.023   2.437   1.343
 6459TIP3    H219384   3.019   2.584   1.378
 6460TIP3   OH219385   0.405   4.583   3.604
 6460TIP3    H119386   0.369   4.599   3.692
 6460TIP3    H219387   0.490   4.543   3.620
 6461TIP3   OH219388   2.183   3.620   2.432
 6461TIP3    H119389   2.230   3.618   2.349
 6461TIP3    H219390   2.251   3.607   2.498
 6462TIP3   OH219391   3.969   4.954   1.495
 6462TIP3    H119392   4.049   4.992   1.534
 6462TIP3    H219393   3.990   4.946   1.402
 6463TIP3   OH219394   5.219   5.228   1.002
 6463TIP3    H119395   5.284   5.185   0.946
 6463TIP3    H219396   5.202   5.312   0.958
 6464TIP3   OH219397   0.056   4.696   0.409
 6464TIP3    H119398   0.032   4.771   0.463
 6464TIP3    H219399   0.134   4.660   0.450
 6465TIP3   OH219400   6.193   2.228   1.201
 6465TIP3    H119401   6.164   2.316   1.178
 6465TIP3    H219402   6.134   2.170   1.151
 6466TIP3   OH219403   5.759   2.382   1.793
 6466TIP3    H119404   5.811   2.342   1.722
 6466TIP3    H219405   5.779   2.475   1.788
 6467TIP3   OH219406   1.991   4.669   4.800
 6467TIP3    H119407   2.028   4.754   4.775
 6467TIP3    H219408   1.961   4.681   4.890
 6468TIP3   OH219409   4.647   2.235   3.631
 6468TIP3    H119410   4.554   2.222   3.612
 6468TIP3    H219411   4.663   2.189   3.713
 6469TIP3   OH219412   6.207   1.517   4.985
 6469TIP3    H119413   6.144   1.471   5.041
 6469TIP3    H219414   6.272   1.451   4.962
 6470TIP3   OH219415   1.214   1.213   5.191
 6470TIP3    H119416   1.212   1.130   5.144
 6470TIP3    H219417   1.208   1.279   5.122
 6471TIP3   OH219418   2.082   1.062   1.985
 6471TIP3    H119419   2.009   1.001   1.984
 6471TIP3    H219420   2.156   1.013   1.951
 6472TIP3   OH219421   4.288   2.971   4.320
 6472TIP3    H119422   4.359   2.926   4.274
 6472TIP3    H219423   4.209   2.946   4.272
 6473TIP3   OH219424   3.789   5.560   3.170
 6473TIP3    H119425   3.827   5.556   3.258
 6473TIP3    H219426   3.839   5.628   3.125
 6474TIP3   OH219427   3.674   1.363   0.828
 6474TIP3    H119428   3.761   1.402   0.840
 6474TIP3    H219429   3.617   1.413   0.885
 6475TIP3   OH219430   5.264   3.031   0.081
 6475TIP3    H119431   5.336   3.005   0.023
 6475TIP3    H219432   5.241   3.120   0.054
 6476TIP3   OH219433   2.202   3.339   5.084
 6476TIP3    H119434   2.233   3.385   5.162
 6476TIP3    H219435   2.204   3.406   5.015
 6477TIP3   OH219436   3.494   4.657   4.461
 6477TIP3    H119437   3.503   4.565   4.484
 6477TIP3    H219438   3.554   4.703   4.520
 6478TIP3   OH219439   0.112   3.493   1.590
 6478TIP3    H119440   0.177   3.562   1.602
 6478TIP3    H219441   0.033   3.528   1.631
 6479TIP3   OH219442   3.637   2.938   1.527
 6479TIP3    H119443   3.646   2.896   1.613
 6479TIP3    H219444   3.727   2.950   1.496
 6480TIP3   OH219445   1.406   5.499   2.172
 6480TIP3    H119446   1.493   5.531   2.198
 6480TIP3    H219447   1.365   5.471   2.254
 6481TIP3   OH219448   2.158   0.858   3.053
 6481TIP3    H119449   2.106   0.936   3.071
 6481TIP3    H219450   2.094   0.786   3.050
 6482TIP3   OH219451   5.257   4.268   4.358
 6482TIP3    H119452   5.213   4.353   4.366
 6482TIP3    H219453   5.201   4.217   4.301
 6483TIP3   OH219454   2.994   5.790   1.449
 6483TIP3    H119455   3.065   5.729   1.432
 6483TIP3    H219456   2.927   5.738   1.493
 6484TIP3   OH219457   2.531   1.267   4.699
 6484TIP3    H119458   2.543   1.315   4.617
 6484TIP3    H219459   2.438   1.277   4.719
 6485TIP3   OH219460   3.885   4.402   0.368
 6485TIP3    H119461   3.880   4.351   0.288
 6485TIP3    H219462   3.938   4.478   0.346
 6486TIP3   OH219463   6.196   0.500   3.555
 6486TIP3    H119464   6.215   0.548   3.474
 6486TIP3    H219465   6.135   0.431   3.528
 6487TIP3   OH219466   1.606   5.090   2.365
 6487TIP3    H119467   1.528   5.034   2.361
 6487TIP3    H219468   1.660   5.061   2.292
 6488TIP3   OH219469   4.130   0.736   4.827
 6488TIP3    H119470   4.150   0.810   4.769
 6488TIP3    H219471   4.097   0.668   4.769
 6489TIP3   OH219472   2.930   0.771   4.441
 6489TIP3    H119473   2.973   0.837   4.387
 6489TIP3    H219474   2.920   0.695   4.384
 6490TIP3   OH219475   1.342   5.007   3.898
 6490TIP3    H119476   1.375   4.966   3.818
 6490TIP3    H219477   1.278   5.071   3.867
 6491TIP3   OH219478   5.240   5.350   5.078
 6491TIP3    H119479   5.150   5.367   5.107
 6491TIP3    H219480   5.283   5.435   5.081
 6492TIP3   OH219481   2.614   0.483   4.289
 6492TIP3    H119482   2.703   0.504   4.261
 6492TIP3    H219483   2.586   0.414   4.228
 6493TIP3   OH219484   5.205   2.736   0.694
 6493TIP3    H119485   5.268   2.667   0.714
 6493TIP3    H219486   5.181   2.771   0.780
 6494TIP3   OH219487   3.701   2.215   1.468
 6494TIP3    H119488   3.619   2.180   1.433
 6494TIP3    H219489   3.679   2.245   1.556
 6495TIP3   OH219490   5.386   1.730   0.972
 6495TIP3    H119491   5.301   1.712   0.932
 6495TIP3    H219492   5.403   1.822   0.952
 6496TIP3   OH219493   3.956   4.079   0.483
 6496TIP3    H119494   3.869   4.105   0.451
 6496TIP3    H219495   3.940   3.999   0.533
 6497TIP3   OH219496   4.437   5.134   3.555
 6497TIP3    H119497   4.377   5.204   3.532
 6497TIP3    H219498   4.381   5.063   3.587
 6498TIP3   OH219499   2.390   3.894   3.030
 6498TIP3    H119500   2.383   3.817   3.087
 6498TIP3    H219501   2.481   3.923   3.041
 6499TIP3   OH219502   4.704   4.232   4.939
 6499TIP3    H119503   4.636   4.294   4.911
 6499TIP3    H219504   4.764   4.285   4.991
 6500TIP3   OH219505   5.991   1.538   3.134
 6500TIP3    H119506   6.052   1.590   3.187
 6500TIP3    H219507   5.904   1.558   3.170
 6501TIP3   OH219508   0.958   3.752   0.707
 6501TIP3    H119509   1.028   3.735   0.643
 6501TIP3    H219510   0.991   3.823   0.761
 6502TIP3   OH219511   0.655   4.668   1.964
 6502TIP3    H119512   0.663   4.573   1.963
 6502TIP3    H219513   0.644   4.693   1.872
 6503TIP3   OH219514   5.954   5.511   1.688
 6503TIP3    H119515   5.877   5.491   1.741
 6503TIP3    H219516   6.015   5.439   1.705
 6504TIP3   OH219517   3.725   2.562   3.170
 6504TIP3    H119518   3.722   2.468   3.184
 6504TIP3    H219519   3.659   2.597   3.229
 6505TIP3   OH219520   3.975   1.033   4.820
 6505TIP3    H119521   3.953   0.957   4.767
 6505TIP3    H219522   4.040   1.081   4.768
 6506TIP3   OH219523   4.279   4.041   2.092
 6506TIP3    H119524   4.372   4.034   2.068
 6506TIP3    H219525   4.233   4.039   2.009
 6507TIP3   OH219526   2.212   5.802   1.297
 6507TIP3    H119527   2.218   5.792   1.392
 6507TIP3    H219528   2.298   5.776   1.264
 6508TIP3   OH219529   5.333   2.076   2.339
 6508TIP3    H119530   5.238   2.063   2.341
 6508TIP3    H219531   5.361   2.033   2.258
 6509TIP3   OH219532   6.200   0.891   1.258
 6509TIP3    H119533   6.155   0.822   1.210
 6509TIP3    H219534   6.274   0.847   1.300
 6510TIP3   OH219535   2.839   4.561   1.728
 6510TIP3    H119536   2.749   4.565   1.696
 6510TIP3    H219537   2.865   4.469   1.716
 6511TIP3   OH219538   5.505   2.712   4.064
 6511TIP3    H119539   5.434   2.777   4.067
 6511TIP3    H219540   5.582   2.762   4.038
 6512TIP3   OH219541   4.538   5.470   3.263
 6512TIP3    H119542   4.448   5.437   3.266
 6512TIP3    H219543   4.537   5.550   3.315
 6513TIP3   OH219544   0.089   3.954   0.978
 6513TIP3    H119545   0.173   3.956   1.023
 6513TIP3    H219546   0.050   4.039   0.996
 6514TIP3   OH219547   3.895   4.598   1.756
 6514TIP3    H119548   3.889   4.681   1.804
 6514TIP3    H219549   3.833   4.540   1.802
 6515TIP3   OH219550   2.192   3.803   0.637
 6515TIP3    H119551   2.253   3.788   0.565
 6515TIP3    H219552   2.111   3.760   0.609
 6516TIP3   OH219553   0.858   2.495   2.091
 6516TIP3    H119554   0.770   2.499   2.055
 6516TIP3    H219555   0.903   2.571   2.053
 6517TIP3   OH219556   1.956   5.598   1.740
 6517TIP3    H119557   1.935   5.666   1.676
 6517TIP3    H219558   2.037   5.559   1.708
 6518TIP3   OH219559   3.662   5.303   4.357
 6518TIP3    H119560   3.660   5.333   4.448
 6518TIP3    H219561   3.740   5.248   4.351
 6519TIP3   OH219562   4.930   2.951   1.691
 6519TIP3    H119563   4.996   3.015   1.664
 6519TIP3    H219564   4.952   2.872   1.641
 6520TIP3   OH219565   3.140   1.291   2.445
 6520TIP3    H119566   3.050   1.289   2.478
 6520TIP3    H219567   3.146   1.213   2.389
 6521TIP3   OH219568   1.428   2.618   0.613
 6521TIP3    H119569   1.435   2.652   0.702
 6521TIP3    H219570   1.378   2.684   0.566
 6522TIP3   OH219571   3.008   2.618   0.520
 6522TIP3    H119572   2.914   2.640   0.523
 6522TIP3    H219573   3.012   2.528   0.553
 6523TIP3   OH219574   4.103   2.676   1.506
 6523TIP3    H119575   4.180   2.664   1.451
 6523TIP3    H219576   4.038   2.616   1.469
 6524TIP3   OH219577   1.659   3.599   0.155
 6524TIP3    H119578   1.685   3.558   0.238
 6524TIP3    H219579   1.565   3.582   0.148
 6525TIP3   OH219580   5.450   3.018   1.183
 6525TIP3    H119581   5.513   2.959   1.224
 6525TIP3    H219582   5.501   3.065   1.117
 6526TIP3   OH219583   4.273   0.709   4.153
 6526TIP3    H119584   4.316   0.639   4.103
 6526TIP3    H219585   4.181   0.682   4.155
 6527TIP3   OH219586   2.295   2.902   1.412
 6527TIP3    H119587   2.380   2.917   1.370
 6527TIP3    H219588   2.239   2.870   1.341
 6528TIP3   OH219589   1.558   0.158   3.121
 6528TIP3    H119590   1.480   0.118   3.083
 6528TIP3    H219591   1.541   0.159   3.215
 6529TIP3   OH219592   0.068   4.716   4.401
 6529TIP3    H119593   0.083   4.809   4.386
 6529TIP3    H219594   0.088   4.703   4.494
 6530TIP3   OH219595   0.254   4.413   3.461
 6530TIP3    H119596   0.326   4.474   3.445
 6530TIP3    H219597   0.175   4.463   3.440
 6531TIP3   OH219598   6.068   1.091   3.410
 6531TIP3    H119599   6.058   0.998   3.388
 6531TIP3    H219600   6.023   1.137   3.339
 6532TIP3   OH219601   1.688   4.175   0.261
 6532TIP3    H119602   1.679   4.087   0.224
 6532TIP3    H219603   1.665   4.233   0.188
 6533TIP3   OH219604   5.981   5.455   0.675
 6533TIP3    H119605   5.978   5.546   0.703
 6533TIP3    H219606   6.069   5.425   0.701
 6534TIP3   OH219607   2.974   5.181   1.201
 6534TIP3    H119608   2.982   5.126   1.123
 6534TIP3    H219609   3.059   5.224   1.209
 6535TIP3   OH219610   5.604   0.878   2.094
 6535TIP3    H119611   5.545   0.945   2.128
 6535TIP3    H219612   5.547   0.821   2.041
 6536TIP3   OH219613   0.363   4.806   2.828
 6536TIP3    H119614   0.304   4.736   2.801
 6536TIP3    H219615   0.450   4.767   2.825
 6537TIP3   OH219616   1.167   2.103   3.134
 6537TIP3    H119617   1.114   2.151   3.198
 6537TIP3    H219618   1.190   2.169   3.069
 6538TIP3   OH219619   4.586   0.016   4.457
 6538TIP3    H119620   4.497   0.050   4.470
 6538TIP3    H219621   4.612   0.049   4.371
 6539TIP3   OH219622   0.556   4.630   2.458
 6539TIP3    H119623   0.570   4.601   2.367
 6539TIP3    H219624   0.476   4.585   2.485
 6540TIP3   OH219625   3.759   2.141   3.743
 6540TIP3    H119626   3.833   2.120   3.687
 6540TIP3    H219627   3.698   2.187   3.685
 6541TIP3   OH219628   4.109   4.128   2.279
 6541TIP3    H119629   4.147   4.117   2.192
 6541TIP3    H219630   4.033   4.184   2.265
 6542TIP3   OH219631   4.193   2.143   3.787
 6542TIP3    H119632   4.255   2.145   3.859
 6542TIP3    H219633   4.149   2.228   3.791
 6543TIP3   OH219634   0.718   5.153   4.155
 6543TIP3    H119635   0.672   5.229   4.122
 6543TIP3    H219636   0.674   5.078   4.114
 6544TIP3   OH219637  -0.008   1.097   4.988
 6544TIP3    H119638   0.075   1.085   4.941
 6544TIP3    H219639  -0.026   1.011   5.027
 6545TIP3   OH219640   4.504   2.295   0.815
 6545TIP3    H119641   4.540   2.267   0.900
 6545TIP3    H219642   4.564   2.363   0.785
 6546TIP3   OH219643   2.488   5.703   0.119
 6546TIP3    H119644   2.406   5.725   0.162
 6546TIP3    H219645   2.478   5.611   0.094
 6547TIP3   OH219646   2.394   3.613   2.227
 6547TIP3    H119647   2.444   3.540   2.264
 6547TIP3    H219648   2.460   3.676   2.198
 6548TIP3   OH219649   6.154   5.845   4.993
 6548TIP3    H119650   6.107   5.925   4.970
 6548TIP3    H219651   6.104   5.807   5.064
 6549TIP3   OH219652   1.810   2.240   1.038
 6549TIP3    H119653   1.727   2.254   0.992
 6549TIP3    H219654   1.794   2.165   1.094
 6550TIP3   OH219655   3.409   5.096   3.326
 6550TIP3    H119656   3.336   5.078   3.385
 6550TIP3    H219657   3.397   5.187   3.299
 6551TIP3   OH219658   1.653   1.127  -0.003
 6551TIP3    H119659   1.680   1.209   0.038
 6551TIP3    H219660   1.561   1.117   0.022
 6552TIP3   OH219661   1.950   0.647   4.361
 6552TIP3    H119662   1.984   0.736   4.368
 6552TIP3    H219663   1.991   0.601   4.434
 6553TIP3   OH219664   3.334   3.970   1.639
 6553TIP3    H119665   3.403   4.021   1.596
 6553TIP3    H219666   3.370   3.882   1.647
 6554TIP3   OH219667   5.618   2.179   4.075
 6554TIP3    H119668   5.548   2.169   4.139
 6554TIP3    H219669   5.608   2.104   4.016
 6555TIP3   OH219670   0.540   5.161   1.527
 6555TIP3    H119671   0.486   5.223   1.479
 6555TIP3    H219672   0.479   5.116   1.585
 6556TIP3   OH219673   1.257   5.592   1.968
 6556TIP3    H119674   1.235   5.684   1.984
 6556TIP3    H219675   1.311   5.567   2.044
 6557TIP3   OH219676   1.105   2.858   2.613
 6557TIP3    H119677   1.020   2.847   2.571
 6557TIP3    H219678   1.133   2.769   2.635
 6558TIP3   OH219679   0.853   5.646   4.436
 6558TIP3    H119680   0.880   5.738   4.433
 6558TIP3    H219681   0.760   5.648   4.415
 6559TIP3   OH219682   5.260   1.410   0.000
 6559TIP3    H119683   5.193   1.474  -0.024
 6559TIP3    H219684   5.309   1.395  -0.081
 6560TIP3   OH219685   5.721   0.568   1.753
 6560TIP3    H119686   5.787   0.638   1.757
 6560TIP3    H219687   5.747   0.508   1.823
 6561TIP3   OH219688   4.552   5.029   4.045
 6561TIP3    H119689   4.609   5.105   4.056
 6561TIP3    H219690   4.596   4.975   3.980
 6562TIP3   OH219691   3.176   0.702   0.584
 6562TIP3    H119692   3.164   0.627   0.643
 6562TIP3    H219693   3.107   0.763   0.608
 6563TIP3   OH219694   6.227   2.718   0.191
 6563TIP3    H119695   6.245   2.728   0.097
 6563TIP3    H219696   6.136   2.747   0.201
 6564TIP3   OH219697   1.644   4.249   5.051
 6564TIP3    H119698   1.575   4.306   5.018
 6564TIP3    H219699   1.604   4.162   5.056
 6565TIP3   OH219700   5.114   4.098   4.838
 6565TIP3    H119701   5.023   4.075   4.819
 6565TIP3    H219702   5.147   4.135   4.756
 6566TIP3   OH219703   5.071   1.660   0.644
 6566TIP3    H119704   5.157   1.648   0.603
 6566TIP3    H219705   5.067   1.753   0.664
 6567TIP3   OH219706   6.256   2.697   4.999
 6567TIP3    H119707   6.160   2.697   4.991
 6567TIP3    H219708   6.286   2.758   4.932
 6568TIP3   OH219709   0.162   5.937   0.358
 6568TIP3    H119710   0.113   6.004   0.311
 6568TIP3    H219711   0.106   5.913   0.432
 6569TIP3   OH219712   3.417   0.739   0.440
 6569TIP3    H119713   3.462   0.815   0.478
 6569TIP3    H219714   3.331   0.739   0.482
 6570TIP3   OH219715   6.189   1.189   4.330
 6570TIP3    H119716   6.126   1.124   4.360
 6570TIP3    H219717   6.197   1.250   4.402
 6571TIP3   OH219718   3.192   0.357   4.927
 6571TIP3    H119719   3.169   0.389   5.014
 6571TIP3    H219720   3.112   0.370   4.875
 6572TIP3   OH219721   1.509   2.344   3.340
 6572TIP3    H119722   1.458   2.263   3.333
 6572TIP3    H219723   1.600   2.315   3.336
 6573TIP3   OH219724   0.597   2.312   0.123
 6573TIP3    H119725   0.537   2.322   0.196
 6573TIP3    H219726   0.668   2.373   0.142
 6574TIP3   OH219727   4.214   3.759   2.219
 6574TIP3    H119728   4.268   3.824   2.174
 6574TIP3    H219729   4.248   3.675   2.190
 6575TIP3   OH219730   3.005   3.004   2.866
 6575TIP3    H119731   3.100   3.007   2.867
 6575TIP3    H219732   2.984   2.925   2.815
 6576TIP3   OH219733   5.568   5.419   0.500
 6576TIP3    H119734   5.512   5.495   0.485
 6576TIP3    H219735   5.657   5.455   0.505
 6577TIP3   OH219736   1.671   4.479   1.514
 6577TIP3    H119737   1.590   4.429   1.504
 6577TIP3    H219738   1.740   4.414   1.502
 6578TIP3   OH219739   3.099   1.806   2.516
 6578TIP3    H119740   3.158   1.818   2.590
 6578TIP3    H219741   3.015   1.783   2.555
 6579TIP3   OH219742   2.443   4.065   0.556
 6579TIP3    H119743   2.503   4.107   0.618
 6579TIP3    H219744   2.357   4.071   0.598
 6580TIP3   OH219745   2.036   2.112   4.399
 6580TIP3    H119746   1.998   2.196   4.423
 6580TIP3    H219747   2.081   2.083   4.479
 6581TIP3   OH219748   5.909   4.840   2.068
 6581TIP3    H119749   5.894   4.751   2.099
 6581TIP3    H219750   5.904   4.894   2.146
 6582TIP3   OH219751   4.124   1.295   4.663
 6582TIP3    H119752   4.086   1.379   4.688
 6582TIP3    H219753   4.157   1.309   4.574
 6583TIP3   OH219754   0.183   3.512   3.144
 6583TIP3    H119755   0.155   3.487   3.231
 6583TIP3    H219756   0.102   3.537   3.099
 6584TIP3   OH219757   0.585   4.485   1.019
 6584TIP3    H119758   0.568   4.394   1.044
 6584TIP3    H219759   0.619   4.526   1.098
 6585TIP3   OH219760   3.709   5.678   1.353
 6585TIP3    H119761   3.615   5.661   1.362
 6585TIP3    H219762   3.718   5.772   1.371
 6586TIP3   OH219763   4.940   5.932   3.093
 6586TIP3    H119764   5.000   5.996   3.053
 6586TIP3    H219765   4.862   5.983   3.115
 6587TIP3   OH219766   2.127   5.567   0.375
 6587TIP3    H119767   2.126   5.491   0.317
 6587TIP3    H219768   2.207   5.557   0.426
 6588TIP3   OH219769   6.173   1.343   1.358
 6588TIP3    H119770   6.267   1.328   1.374
 6588TIP3    H219771   6.146   1.270   1.303
 6589TIP3   OH219772   4.321   3.412   2.412
 6589TIP3    H119773   4.346   3.427   2.503
 6589TIP3    H219774   4.235   3.369   2.418
 6590TIP3   OH219775   4.627   3.934   5.163
 6590TIP3    H119776   4.625   3.963   5.254
 6590TIP3    H219777   4.631   4.015   5.112
 6591TIP3   OH219778   4.595   3.963   3.541
 6591TIP3    H119779   4.654   3.888   3.534
 6591TIP3    H219780   4.613   4.015   3.463
 6592TIP3   OH219781   3.168   2.232   3.843
 6592TIP3    H119782   3.261   2.211   3.836
 6592TIP3    H219783   3.165   2.310   3.899
 6593TIP3   OH219784   1.175   4.437   2.785
 6593TIP3    H119785   1.109   4.368   2.786
 6593TIP3    H219786   1.180   4.464   2.693
 6594TIP3   OH219787   1.174   1.568   0.124
 6594TIP3    H119788   1.086   1.539   0.146
 6594TIP3    H219789   1.199   1.625   0.196
 6595TIP3   OH219790   3.429   2.168   1.336
 6595TIP3    H119791   3.344   2.213   1.337
 6595TIP3    H219792   3.428   2.116   1.256
 6596TIP3   OH219793   4.619   3.433   4.817
 6596TIP3    H119794   4.626   3.367   4.885
 6596TIP3    H219795   4.543   3.486   4.842
 6597TIP3   OH219796   0.564   4.626   2.877
 6597TIP3    H119797   0.542   4.579   2.796
 6597TIP3    H219798   0.659   4.613   2.887
 6598TIP3   OH219799   4.908   5.249   0.524
 6598TIP3    H119800   4.822   5.283   0.550
 6598TIP3    H219801   4.889   5.187   0.454
 6599TIP3   OH219802   2.288   0.973   1.794
 6599TIP3    H119803   2.277   1.049   1.737
 6599TIP3    H219804   2.383   0.960   1.798
 6600TIP3   OH219805   2.429   2.042   2.192
 6600TIP3    H119806   2.341   2.079   2.184
 6600TIP3    H219807   2.464   2.043   2.102
 6601TIP3   OH219808   5.388   2.965   4.406
 6601TIP3    H119809   5.431   2.957   4.491
 6601TIP3    H219810   5.322   2.895   4.406
 6602TIP3   OH219811   3.802   0.349   1.318
 6602TIP3    H119812   3.859   0.426   1.312
 6602TIP3    H219813   3.801   0.313   1.230
 6603TIP3   OH219814   5.192   5.879   0.712
 6603TIP3    H119815   5.118   5.856   0.656
 6603TIP3    H219816   5.202   5.804   0.771
 6604TIP3   OH219817   5.804   4.435   0.098
 6604TIP3    H119818   5.886   4.392   0.122
 6604TIP3    H219819   5.830   4.502   0.035
 6605TIP3   OH219820   3.299   4.859   3.685
 6605TIP3    H119821   3.224   4.902   3.645
 6605TIP3    H219822   3.260   4.793   3.743
 6606TIP3   OH219823   2.938   4.472   5.037
 6606TIP3    H119824   2.906   4.435   5.120
 6606TIP3    H219825   2.916   4.565   5.042
 6607TIP3   OH219826   4.826   5.794   1.022
 6607TIP3    H119827   4.884   5.738   1.073
 6607TIP3    H219828   4.765   5.733   0.980
 6608TIP3   OH219829   5.010   0.454   1.987
 6608TIP3    H119830   5.104   0.472   2.000
 6608TIP3    H219831   4.966   0.534   2.015
 6609TIP3   OH219832   1.615   3.984   4.417
 6609TIP3    H119833   1.536   4.031   4.441
 6609TIP3    H219834   1.588   3.927   4.345
 6610TIP3   OH219835   5.925   2.019   2.512
 6610TIP3    H119836   5.876   2.014   2.429
 6610TIP3    H219837   5.934   2.113   2.528
 6611TIP3   OH219838   1.716   2.840   2.340
 6611TIP3    H119839   1.660   2.799   2.406
 6611TIP3    H219840   1.675   2.817   2.257
 6612TIP3   OH219841   5.611   3.660   4.339
 6612TIP3    H119842   5.541   3.711   4.381
 6612TIP3    H219843   5.587   3.569   4.356
 6613TIP3   OH219844   0.179   3.388   2.033
 6613TIP3    H119845   0.204   3.299   2.056
 6613TIP3    H219846   0.089   3.396   2.064
 6614TIP3   OH219847   2.125   2.261   1.818
 6614TIP3    H119848   2.158   2.348   1.798
 6614TIP3    H219849   2.128   2.256   1.914
 6615TIP3   OH219850   0.307   5.892   1.109
 6615TIP3    H119851   0.353   5.916   1.189
 6615TIP3    H219852   0.362   5.825   1.068
 6616TIP3   OH219853   2.387   3.823   4.785
 6616TIP3    H119854   2.297   3.819   4.819
 6616TIP3    H219855   2.390   3.758   4.715
 6617TIP3   OH219856   2.222   0.918   2.516
 6617TIP3    H119857   2.188   0.830   2.504
 6617TIP3    H219858   2.234   0.927   2.611
 6618TIP3   OH219859   2.248   1.704   3.111
 6618TIP3    H119860   2.212   1.713   3.023
 6618TIP3    H219861   2.171   1.700   3.168
 6619TIP3   OH219862   1.427   4.635   2.195
 6619TIP3    H119863   1.447   4.706   2.133
 6619TIP3    H219864   1.332   4.636   2.202
 6620TIP3   OH219865   1.421   4.426   2.913
 6620TIP3    H119866   1.344   4.415   2.859
 6620TIP3    H219867   1.392   4.404   3.002
 6621TIP3   OH219868   4.904   4.250   2.632
 6621TIP3    H119869   4.955   4.226   2.709
 6621TIP3    H219870   4.821   4.205   2.643
 6622TIP3   OH219871   1.660   3.261   1.851
 6622TIP3    H119872   1.713   3.270   1.930
 6622TIP3    H219873   1.710   3.306   1.783
 6623TIP3   OH219874   2.077   0.083   4.195
 6623TIP3    H119875   2.048  -0.001   4.230
 6623TIP3    H219876   2.098   0.065   4.104
 6624TIP3   OH219877   3.898   5.533   4.577
 6624TIP3    H119878   3.831   5.469   4.603
 6624TIP3    H219879   3.861   5.617   4.601
 6625TIP3   OH219880   3.029   1.046   3.109
 6625TIP3    H119881   2.952   1.099   3.089
 6625TIP3    H219882   3.033   1.045   3.205
 6626TIP3   OH219883   1.516   0.136   0.540
 6626TIP3    H119884   1.536   0.070   0.474
 6626TIP3    H219885   1.494   0.214   0.489
 6627TIP3   OH219886   3.454   3.685   5.003
 6627TIP3    H119887   3.482   3.687   5.095
 6627TIP3    H219888   3.375   3.631   5.003
 6628TIP3   OH219889   2.986   2.696   2.123
 6628TIP3    H119890   2.898   2.734   2.129
 6628TIP3    H219891   3.039   2.765   2.084
 6629TIP3   OH219892   0.087   5.427   4.739
 6629TIP3    H119893   0.123   5.403   4.825
 6629TIP3    H219894   0.125   5.513   4.720
 6630TIP3   OH219895   3.314   4.820   3.261
 6630TIP3    H119896   3.348   4.802   3.173
 6630TIP3    H219897   3.356   4.903   3.286
 6631TIP3   OH219898   5.093   0.970   4.326
 6631TIP3    H119899   5.160   0.906   4.303
 6631TIP3    H219900   5.136   1.055   4.315
 6632TIP3   OH219901   2.595   5.204   1.550
 6632TIP3    H119902   2.585   5.286   1.598
 6632TIP3    H219903   2.687   5.201   1.526
 6633TIP3   OH219904   6.372   4.607   1.204
 6633TIP3    H119905   6.340   4.576   1.289
 6633TIP3    H219906   6.298   4.593   1.144
 6634TIP3   OH219907   3.878   3.983   4.307
 6634TIP3    H119908   3.894   3.990   4.213
 6634TIP3    H219909   3.903   3.894   4.330
 6635TIP3   OH219910   0.434   0.445   3.425
 6635TIP3    H119911   0.387   0.518   3.384
 6635TIP3    H219912   0.397   0.439   3.513
 6636TIP3   OH219913   3.096   2.014   3.502
 6636TIP3    H119914   3.013   2.060   3.514
 6636TIP3    H219915   3.083   1.929   3.543
 6637TIP3   OH219916   3.227   3.468   3.278
 6637TIP3    H119917   3.218   3.561   3.254
 6637TIP3    H219918   3.139   3.433   3.270
 6638TIP3   OH219919   1.103   1.889   0.188
 6638TIP3    H119920   1.126   1.904   0.280
 6638TIP3    H219921   1.165   1.942   0.138
 6639TIP3   OH219922   0.811   0.813   0.218
 6639TIP3    H119923   0.740   0.804   0.154
 6639TIP3    H219924   0.868   0.737   0.201
 6640TIP3   OH219925   4.314   3.164   1.866
 6640TIP3    H119926   4.359   3.119   1.795
 6640TIP3    H219927   4.368   3.146   1.943
 6641TIP3   OH219928   5.506   3.341   2.043
 6641TIP3    H119929   5.433   3.356   2.104
 6641TIP3    H219930   5.488   3.254   2.007
 6642TIP3   OH219931   0.804   5.633   3.451
 6642TIP3    H119932   0.735   5.647   3.387
 6642TIP3    H219933   0.829   5.541   3.440
 6643TIP3   OH219934   1.901   1.794   2.578
 6643TIP3    H119935   1.937   1.879   2.603
 6643TIP3    H219936   1.827   1.815   2.522
 6644TIP3   OH219937   3.491   5.772   4.651
 6644TIP3    H119938   3.464   5.704   4.588
 6644TIP3    H219939   3.462   5.739   4.736
 6645TIP3   OH219940   5.633   3.501   3.388
 6645TIP3    H119941   5.630   3.581   3.336
 6645TIP3    H219942   5.705   3.513   3.449
   6.34406   5.98124   5.17991   0.00000   0.00000  -2.11469   0.00000  -2.11469  -2.99062
