Title t= 320.00000 step= 160000
19927
    1ASP      N    1   1.004   0.445   2.108
    1ASP    HT1    2   1.042   0.417   2.200
    1ASP    HT2    3   0.925   0.382   2.082
    1ASP    HT3    4   0.967   0.542   2.114
    1ASP     CA    5   1.116   0.442   2.008
    1ASP     HA    6   1.155   0.342   2.023
    1ASP     CB    7   1.056   0.464   1.870
    1ASP    HB1    8   1.022   0.568   1.856
    1ASP    HB2    9   0.967   0.399   1.853
    1ASP     CG   10   1.150   0.437   1.759
    1ASP    OD1   11   1.219   0.334   1.765
    1ASP    OD2   12   1.162   0.524   1.670
    1ASP      C   13   1.224   0.538   2.047
    1ASP      O   14   1.298   0.503   2.139
    2ALA      N   15   1.243   0.652   1.980
    2ALA     HN   16   1.192   0.686   1.902
    2ALA     CA   17   1.359   0.736   2.003
    2ALA     HA   18   1.442   0.668   1.999
    2ALA     CB   19   1.391   0.818   1.880
    2ALA    HB1   20   1.379   0.756   1.788
    2ALA    HB2   21   1.496   0.852   1.887
    2ALA    HB3   22   1.327   0.909   1.880
    2ALA      C   23   1.375   0.810   2.129
    2ALA      O   24   1.284   0.821   2.211
    3ASP      N   25   1.500   0.852   2.160
    3ASP     HN   26   1.578   0.825   2.105
    3ASP     CA   27   1.531   0.951   2.261
    3ASP     HA   28   1.517   0.907   2.358
    3ASP     CB   29   1.687   0.989   2.249
    3ASP    HB1   30   1.722   1.054   2.332
    3ASP    HB2   31   1.708   1.038   2.152
    3ASP     CG   32   1.764   0.864   2.278
    3ASP    OD1   33   1.751   0.794   2.384
    3ASP    OD2   34   1.833   0.812   2.185
    3ASP      C   35   1.443   1.077   2.259
    3ASP      O   36   1.381   1.115   2.163
    4GLY      N   37   1.433   1.132   2.376
    4GLY     HN   38   1.448   1.077   2.458
    4GLY     CA   39   1.349   1.256   2.392
    4GLY    HA1   40   1.352   1.276   2.498
    4GLY    HA2   41   1.251   1.230   2.355
    4GLY      C   42   1.387   1.381   2.319
    4GLY      O   43   1.498   1.386   2.261
    5PRO      N   44   1.314   1.491   2.322
    5PRO     CD   45   1.219   1.520   2.425
    5PRO    HD1   46   1.251   1.493   2.528
    5PRO    HD2   47   1.126   1.460   2.408
    5PRO     CA   48   1.334   1.605   2.229
    5PRO     HA   49   1.323   1.579   2.125
    5PRO     CB   50   1.221   1.702   2.272
    5PRO    HB1   51   1.143   1.668   2.201
    5PRO    HB2   52   1.242   1.811   2.266
    5PRO     CG   53   1.184   1.662   2.415
    5PRO    HG1   54   1.253   1.721   2.479
    5PRO    HG2   55   1.078   1.685   2.434
    5PRO      C   56   1.472   1.669   2.250
    5PRO      O   57   1.537   1.709   2.153
    6GLY      N   58   1.520   1.690   2.376
    6GLY     HN   59   1.473   1.647   2.453
    6GLY     CA   60   1.651   1.755   2.382
    6GLY    HA1   61   1.726   1.712   2.317
    6GLY    HA2   62   1.690   1.737   2.481
    6GLY      C   63   1.657   1.899   2.359
    6GLY      O   64   1.759   1.939   2.301
    7ASP      N   65   1.559   1.973   2.411
    7ASP     HN   66   1.482   1.919   2.444
    7ASP     CA   67   1.553   2.118   2.437
    7ASP     HA   68   1.556   2.171   2.343
    7ASP     CB   69   1.420   2.155   2.506
    7ASP    HB1   70   1.428   2.263   2.530
    7ASP    HB2   71   1.406   2.114   2.608
    7ASP     CG   72   1.294   2.133   2.421
    7ASP    OD1   73   1.292   2.092   2.303
    7ASP    OD2   74   1.183   2.158   2.476
    7ASP      C   75   1.666   2.162   2.527
    7ASP      O   76   1.704   2.088   2.616
    8PRO      N   77   1.730   2.281   2.508
    8PRO     CD   78   1.687   2.375   2.399
    8PRO    HD1   79   1.581   2.367   2.368
    8PRO    HD2   80   1.739   2.344   2.306
    8PRO     CA   81   1.800   2.348   2.614
    8PRO     HA   82   1.890   2.297   2.642
    8PRO     CB   83   1.836   2.484   2.553
    8PRO    HB1   84   1.932   2.454   2.506
    8PRO    HB2   85   1.853   2.568   2.623
    8PRO     CG   86   1.725   2.512   2.447
    8PRO    HG1   87   1.642   2.567   2.497
    8PRO    HG2   88   1.777   2.576   2.374
    8PRO      C   89   1.711   2.368   2.740
    8PRO      O   90   1.585   2.368   2.735
    9ASP      N   91   1.775   2.376   2.862
    9ASP     HN   92   1.875   2.381   2.863
    9ASP     CA   93   1.714   2.383   2.992
    9ASP     HA   94   1.694   2.282   3.024
    9ASP     CB   95   1.805   2.454   3.099
    9ASP    HB1   96   1.741   2.484   3.184
    9ASP    HB2   97   1.840   2.552   3.061
    9ASP     CG   98   1.918   2.355   3.143
    9ASP    OD1   99   1.888   2.234   3.168
    9ASP    OD2  100   2.035   2.402   3.159
    9ASP      C  101   1.582   2.463   3.002
    9ASP      O  102   1.569   2.567   2.940
   10ALA      N  103   1.485   2.412   3.077
   10ALA     HN  104   1.491   2.328   3.131
   10ALA     CA  105   1.351   2.461   3.079
   10ALA     HA  106   1.321   2.456   2.976
   10ALA     CB  107   1.261   2.362   3.155
   10ALA    HB1  108   1.299   2.347   3.258
   10ALA    HB2  109   1.253   2.262   3.106
   10ALA    HB3  110   1.152   2.384   3.160
   10ALA      C  111   1.335   2.596   3.145
   10ALA      O  112   1.400   2.642   3.242
   11GLY      N  113   1.233   2.661   3.091
   11GLY     HN  114   1.191   2.633   3.005
   11GLY     CA  115   1.178   2.791   3.147
   11GLY    HA1  116   1.156   2.854   3.062
   11GLY    HA2  117   1.256   2.854   3.189
   11GLY      C  118   1.058   2.785   3.234
   11GLY    OT1  119   1.059   2.855   3.345
   11GLY    OT2  120   0.955   2.716   3.197
   12SOD    SOD  121   4.744   2.501   3.195
   13SOD    SOD  122   4.887   2.669   4.953
   14SOD    SOD  123   4.468   4.437   2.105
   15SOD    SOD  124   5.899   1.570   0.157
   16SOD    SOD  125   0.233   3.471   2.966
   17SOD    SOD  126   2.470   3.154   4.639
   18SOD    SOD  127   0.348   3.258   0.195
   19SOD    SOD  128   2.115   2.055   0.525
   20SOD    SOD  129   2.146   4.748   3.235
   21SOD    SOD  130   3.736   4.867   1.987
   22SOD    SOD  131   5.101   3.275   2.444
   23SOD    SOD  132   1.767   2.973   3.234
   24SOD    SOD  133   3.193   0.311   2.371
   25SOD    SOD  134   3.678   5.910   1.926
   26SOD    SOD  135   0.621   4.369   2.417
   27SOD    SOD  136   5.378   2.431   2.139
   28SOD    SOD  137   5.473   3.680   0.260
   29SOD    SOD  138   5.522   0.784   4.493
   30SOD    SOD  139   3.403   3.143   4.441
   31SOD    SOD  140   3.277   3.992   1.424
   32SOD    SOD  141   0.610   5.237   4.543
   33SOD    SOD  142   6.090   1.362   3.201
   34CLA    CLA  143   5.189   1.809   0.063
   35CLA    CLA  144   1.367   4.583   4.638
   36CLA    CLA  145   0.762   0.257   2.086
   37CLA    CLA  146   2.873   4.620   2.568
   38CLA    CLA  147   4.484   2.229   4.540
   39CLA    CLA  148   4.193   0.067   2.111
   40CLA    CLA  149   3.451   2.527   0.551
   41CLA    CLA  150   5.857   5.440   1.068
   42CLA    CLA  151   3.155   1.062   4.676
   43CLA    CLA  152   3.839   4.327   2.287
   44CLA    CLA  153   0.489   3.611   3.256
   45CLA    CLA  154   5.657   1.798   1.874
   46CLA    CLA  155   1.161   5.966   0.431
   47CLA    CLA  156   1.920   1.227   1.067
   48CLA    CLA  157   3.199   1.517   3.596
   49CLA    CLA  158   0.764   3.835   1.327
   50CLA    CLA  159   4.430   5.980   3.558
   51CLA    CLA  160   2.869   3.521   4.834
   52TIP3   OH2  161   0.036   5.336   0.481
   52TIP3    H1  162   0.111   5.280   0.461
   52TIP3    H2  163   0.010   5.311   0.570
   53TIP3   OH2  164   0.608   1.605   4.437
   53TIP3    H1  165   0.677   1.539   4.440
   53TIP3    H2  166   0.629   1.659   4.361
   54TIP3   OH2  167   5.087   5.341   3.119
   54TIP3    H1  168   5.107   5.273   3.054
   54TIP3    H2  169   5.166   5.345   3.174
   55TIP3   OH2  170   4.789   5.155   0.409
   55TIP3    H1  171   4.788   5.158   0.505
   55TIP3    H2  172   4.732   5.228   0.382
   56TIP3   OH2  173   4.942   4.505   0.259
   56TIP3    H1  174   4.954   4.568   0.188
   56TIP3    H2  175   4.857   4.527   0.297
   57TIP3   OH2  176   4.020   2.439   0.946
   57TIP3    H1  177   4.017   2.487   1.029
   57TIP3    H2  178   4.048   2.351   0.970
   58TIP3   OH2  179   5.321   0.771   2.837
   58TIP3    H1  180   5.312   0.758   2.743
   58TIP3    H2  181   5.400   0.723   2.861
   59TIP3   OH2  182   4.327   0.427   1.792
   59TIP3    H1  183   4.384   0.352   1.777
   59TIP3    H2  184   4.376   0.484   1.851
   60TIP3   OH2  185   5.927   1.916   1.212
   60TIP3    H1  186   6.008   1.967   1.216
   60TIP3    H2  187   5.925   1.869   1.295
   61TIP3   OH2  188   0.359   5.757   1.602
   61TIP3    H1  189   0.309   5.688   1.647
   61TIP3    H2  190   0.357   5.731   1.510
   62TIP3   OH2  191   2.542   5.434   4.300
   62TIP3    H1  192   2.542   5.340   4.317
   62TIP3    H2  193   2.453   5.462   4.322
   63TIP3   OH2  194   3.732   4.584   0.969
   63TIP3    H1  195   3.674   4.599   1.044
   63TIP3    H2  196   3.814   4.625   0.994
   64TIP3   OH2  197   0.973   2.918   2.603
   64TIP3    H1  198   0.909   2.962   2.548
   64TIP3    H2  199   1.007   2.847   2.549
   65TIP3   OH2  200   4.648   5.037   3.617
   65TIP3    H1  201   4.554   5.055   3.625
   65TIP3    H2  202   4.670   5.065   3.528
   66TIP3   OH2  203   5.001   3.470   4.205
   66TIP3    H1  204   4.921   3.522   4.222
   66TIP3    H2  205   5.072   3.533   4.213
   67TIP3   OH2  206   3.270   1.100   2.218
   67TIP3    H1  207   3.279   1.142   2.133
   67TIP3    H2  208   3.319   1.018   2.209
   68TIP3   OH2  209   2.258   3.195   4.025
   68TIP3    H1  210   2.334   3.241   3.990
   68TIP3    H2  211   2.190   3.262   4.029
   69TIP3   OH2  212   0.142   5.925   0.380
   69TIP3    H1  213   0.234   5.950   0.378
   69TIP3    H2  214   0.112   5.951   0.467
   70TIP3   OH2  215   1.691   3.003   4.702
   70TIP3    H1  216   1.615   3.012   4.759
   70TIP3    H2  217   1.730   3.091   4.700
   71TIP3   OH2  218   4.689   1.999   0.046
   71TIP3    H1  219   4.784   2.010   0.054
   71TIP3    H2  220   4.675   1.966  -0.043
   72TIP3   OH2  221   5.233   4.579   0.258
   72TIP3    H1  222   5.276   4.523   0.193
   72TIP3    H2  223   5.140   4.573   0.238
   73TIP3   OH2  224   0.441   3.054   0.202
   73TIP3    H1  225   0.490   3.020   0.277
   73TIP3    H2  226   0.425   2.977   0.147
   74TIP3   OH2  227   1.401   5.430   4.233
   74TIP3    H1  228   1.448   5.510   4.208
   74TIP3    H2  229   1.341   5.458   4.302
   75TIP3   OH2  230   2.471   3.983   4.282
   75TIP3    H1  231   2.531   3.940   4.221
   75TIP3    H2  232   2.385   3.976   4.241
   76TIP3   OH2  233   4.320   3.022   1.046
   76TIP3    H1  234   4.272   2.986   1.120
   76TIP3    H2  235   4.256   3.077   1.000
   77TIP3   OH2  236   0.566   5.154   4.033
   77TIP3    H1  237   0.547   5.218   3.964
   77TIP3    H2  238   0.497   5.089   4.025
   78TIP3   OH2  239   4.525   3.638   2.539
   78TIP3    H1  240   4.500   3.566   2.596
   78TIP3    H2  241   4.523   3.600   2.451
   79TIP3   OH2  242   4.772   5.581   2.338
   79TIP3    H1  243   4.807   5.547   2.420
   79TIP3    H2  244   4.775   5.507   2.277
   80TIP3   OH2  245   1.858   2.767   1.227
   80TIP3    H1  246   1.867   2.717   1.308
   80TIP3    H2  247   1.906   2.717   1.162
   81TIP3   OH2  248   0.945   0.224   1.410
   81TIP3    H1  249   0.872   0.245   1.353
   81TIP3    H2  250   0.998   0.304   1.413
   82TIP3   OH2  251   0.979   5.165   2.610
   82TIP3    H1  252   1.035   5.101   2.653
   82TIP3    H2  253   0.907   5.180   2.671
   83TIP3   OH2  254   1.715   3.768   3.331
   83TIP3    H1  255   1.644   3.821   3.297
   83TIP3    H2  256   1.776   3.758   3.258
   84TIP3   OH2  257   3.998   0.587   1.451
   84TIP3    H1  258   3.905   0.562   1.448
   84TIP3    H2  259   4.026   0.565   1.539
   85TIP3   OH2  260   2.743   0.566   3.505
   85TIP3    H1  261   2.783   0.578   3.419
   85TIP3    H2  262   2.713   0.654   3.529
   86TIP3   OH2  263   6.359   2.298   4.978
   86TIP3    H1  264   6.317   2.333   4.900
   86TIP3    H2  265   6.318   2.212   4.991
   87TIP3   OH2  266   2.100   1.818   4.735
   87TIP3    H1  267   2.106   1.723   4.737
   87TIP3    H2  268   2.103   1.844   4.827
   88TIP3   OH2  269   1.259   2.542   0.319
   88TIP3    H1  270   1.209   2.461   0.305
   88TIP3    H2  271   1.323   2.518   0.386
   89TIP3   OH2  272   1.592   4.364   3.749
   89TIP3    H1  273   1.524   4.351   3.683
   89TIP3    H2  274   1.560   4.318   3.826
   90TIP3   OH2  275   4.929   4.420   0.850
   90TIP3    H1  276   4.870   4.480   0.804
   90TIP3    H2  277   4.900   4.333   0.824
   91TIP3   OH2  278   4.712   1.676   4.963
   91TIP3    H1  279   4.663   1.751   4.996
   91TIP3    H2  280   4.786   1.668   5.023
   92TIP3   OH2  281   3.749   1.491   5.126
   92TIP3    H1  282   3.758   1.567   5.184
   92TIP3    H2  283   3.775   1.525   5.040
   93TIP3   OH2  284   1.920   0.619   0.745
   93TIP3    H1  285   1.925   0.613   0.650
   93TIP3    H2  286   1.999   0.667   0.770
   94TIP3   OH2  287   1.654   0.206   3.492
   94TIP3    H1  288   1.681   0.275   3.431
   94TIP3    H2  289   1.706   0.130   3.468
   95TIP3   OH2  290   6.254   1.608   4.881
   95TIP3    H1  291   6.179   1.667   4.877
   95TIP3    H2  292   6.235   1.541   4.816
   96TIP3   OH2  293   1.516   1.480   4.586
   96TIP3    H1  294   1.516   1.501   4.679
   96TIP3    H2  295   1.466   1.398   4.579
   97TIP3   OH2  296   6.361   4.159   4.868
   97TIP3    H1  297   6.282   4.166   4.814
   97TIP3    H2  298   6.328   4.154   4.958
   98TIP3   OH2  299   1.339   3.407   1.210
   98TIP3    H1  300   1.283   3.342   1.251
   98TIP3    H2  301   1.279   3.476   1.181
   99TIP3   OH2  302   5.787   1.282   2.091
   99TIP3    H1  303   5.839   1.255   2.015
   99TIP3    H2  304   5.844   1.265   2.166
  100TIP3   OH2  305   2.352   5.137   0.401
  100TIP3    H1  306   2.417   5.187   0.450
  100TIP3    H2  307   2.364   5.165   0.310
  101TIP3   OH2  308   3.875   1.839   1.464
  101TIP3    H1  309   3.955   1.801   1.499
  101TIP3    H2  310   3.894   1.932   1.453
  102TIP3   OH2  311   1.006   0.688   1.075
  102TIP3    H1  312   1.032   0.753   1.140
  102TIP3    H2  313   1.086   0.638   1.058
  103TIP3   OH2  314   0.177   4.730   4.102
  103TIP3    H1  315   0.141   4.661   4.157
  103TIP3    H2  316   0.154   4.811   4.148
  104TIP3   OH2  317   2.906   5.205   0.466
  104TIP3    H1  318   2.930   5.203   0.559
  104TIP3    H2  319   2.914   5.298   0.442
  105TIP3   OH2  320   0.611   0.262   0.925
  105TIP3    H1  321   0.668   0.270   0.849
  105TIP3    H2  322   0.668   0.278   1.000
  106TIP3   OH2  323   2.847   4.780   1.320
  106TIP3    H1  324   2.789   4.829   1.262
  106TIP3    H2  325   2.871   4.842   1.389
  107TIP3   OH2  326   0.076   2.447   0.201
  107TIP3    H1  327   0.153   2.443   0.145
  107TIP3    H2  328   0.090   2.378   0.266
  108TIP3   OH2  329   4.090   3.630   2.343
  108TIP3    H1  330   4.127   3.594   2.424
  108TIP3    H2  331   4.028   3.696   2.373
  109TIP3   OH2  332   2.660   2.259   3.471
  109TIP3    H1  333   2.716   2.335   3.486
  109TIP3    H2  334   2.647   2.258   3.376
  110TIP3   OH2  335   0.076   2.578   4.269
  110TIP3    H1  336   0.040   2.649   4.216
  110TIP3    H2  337   0.023   2.502   4.245
  111TIP3   OH2  338   2.238   1.873   0.622
  111TIP3    H1  339   2.227   1.779   0.605
  111TIP3    H2  340   2.293   1.877   0.700
  112TIP3   OH2  341   5.393   2.839   3.680
  112TIP3    H1  342   5.442   2.834   3.598
  112TIP3    H2  343   5.432   2.771   3.736
  113TIP3   OH2  344   3.745   2.469   4.703
  113TIP3    H1  345   3.689   2.407   4.749
  113TIP3    H2  346   3.711   2.555   4.727
  114TIP3   OH2  347   0.828   1.555   2.289
  114TIP3    H1  348   0.848   1.486   2.352
  114TIP3    H2  349   0.743   1.588   2.316
  115TIP3   OH2  350   4.991   3.242   1.851
  115TIP3    H1  351   4.950   3.176   1.907
  115TIP3    H2  352   4.989   3.322   1.904
  116TIP3   OH2  353   0.383   0.123   5.017
  116TIP3    H1  354   0.312   0.063   4.994
  116TIP3    H2  355   0.386   0.186   4.945
  117TIP3   OH2  356   0.566   2.923   3.650
  117TIP3    H1  357   0.654   2.911   3.684
  117TIP3    H2  358   0.560   3.017   3.631
  118TIP3   OH2  359   2.326   0.699   4.082
  118TIP3    H1  360   2.401   0.750   4.110
  118TIP3    H2  361   2.314   0.722   3.990
  119TIP3   OH2  362   3.434   3.969   3.265
  119TIP3    H1  363   3.509   3.936   3.315
  119TIP3    H2  364   3.472   4.028   3.201
  120TIP3   OH2  365   3.618   2.044   3.385
  120TIP3    H1  366   3.527   2.023   3.366
  120TIP3    H2  367   3.666   2.016   3.307
  121TIP3   OH2  368   4.572   0.225   5.146
  121TIP3    H1  369   4.625   0.286   5.095
  121TIP3    H2  370   4.488   0.222   5.101
  122TIP3   OH2  371   0.708   2.189   3.526
  122TIP3    H1  372   0.621   2.201   3.488
  122TIP3    H2  373   0.765   2.248   3.476
  123TIP3   OH2  374   4.520   3.250   4.586
  123TIP3    H1  375   4.442   3.281   4.541
  123TIP3    H2  376   4.533   3.161   4.553
  124TIP3   OH2  377   3.647   5.824   2.127
  124TIP3    H1  378   3.648   5.729   2.136
  124TIP3    H2  379   3.588   5.854   2.196
  125TIP3   OH2  380   4.033   3.975   1.902
  125TIP3    H1  381   3.957   3.964   1.845
  125TIP3    H2  382   4.003   4.036   1.970
  126TIP3   OH2  383   1.241   3.519   2.138
  126TIP3    H1  384   1.330   3.549   2.155
  126TIP3    H2  385   1.206   3.494   2.224
  127TIP3   OH2  386   4.052   2.501   2.652
  127TIP3    H1  387   3.986   2.511   2.720
  127TIP3    H2  388   4.090   2.414   2.667
  128TIP3   OH2  389   6.197   1.851   0.734
  128TIP3    H1  390   6.151   1.902   0.667
  128TIP3    H2  391   6.135   1.848   0.807
  129TIP3   OH2  392   3.179   4.083   3.897
  129TIP3    H1  393   3.232   4.014   3.858
  129TIP3    H2  394   3.089   4.052   3.887
  130TIP3   OH2  395   2.094   3.065   3.524
  130TIP3    H1  396   2.116   3.150   3.563
  130TIP3    H2  397   2.117   3.002   3.592
  131TIP3   OH2  398   1.736   1.979   3.788
  131TIP3    H1  399   1.644   2.004   3.784
  131TIP3    H2  400   1.766   2.014   3.872
  132TIP3   OH2  401   4.797   5.370   3.909
  132TIP3    H1  402   4.783   5.379   4.003
  132TIP3    H2  403   4.737   5.435   3.870
  133TIP3   OH2  404   4.795   1.642   0.805
  133TIP3    H1  405   4.785   1.692   0.886
  133TIP3    H2  406   4.706   1.615   0.782
  134TIP3   OH2  407   1.762   2.788   3.586
  134TIP3    H1  408   1.691   2.732   3.554
  134TIP3    H2  409   1.719   2.850   3.645
  135TIP3   OH2  410   5.758   4.978   3.730
  135TIP3    H1  411   5.805   4.907   3.687
  135TIP3    H2  412   5.825   5.022   3.782
  136TIP3   OH2  413   0.819   0.866   1.538
  136TIP3    H1  414   0.901   0.898   1.500
  136TIP3    H2  415   0.842   0.783   1.580
  137TIP3   OH2  416   4.743   1.998   0.733
  137TIP3    H1  417   4.675   2.007   0.666
  137TIP3    H2  418   4.813   1.948   0.691
  138TIP3   OH2  419   3.555   3.916   1.104
  138TIP3    H1  420   3.649   3.897   1.102
  138TIP3    H2  421   3.531   3.905   1.196
  139TIP3   OH2  422   2.725   4.362   2.548
  139TIP3    H1  423   2.784   4.292   2.577
  139TIP3    H2  424   2.780   4.440   2.542
  140TIP3   OH2  425   6.287   3.242   1.075
  140TIP3    H1  426   6.206   3.195   1.098
  140TIP3    H2  427   6.355   3.199   1.126
  141TIP3   OH2  428   5.113   2.644   4.911
  141TIP3    H1  429   5.170   2.640   4.988
  141TIP3    H2  430   5.171   2.627   4.837
  142TIP3   OH2  431   4.135   2.961   0.135
  142TIP3    H1  432   4.103   2.913   0.212
  142TIP3    H2  433   4.138   2.896   0.065
  143TIP3   OH2  434   3.469   3.605   2.438
  143TIP3    H1  435   3.400   3.620   2.374
  143TIP3    H2  436   3.515   3.689   2.444
  144TIP3   OH2  437   0.212   2.851   4.002
  144TIP3    H1  438   0.199   2.763   3.965
  144TIP3    H2  439   0.281   2.839   4.067
  145TIP3   OH2  440   2.041   5.411   3.437
  145TIP3    H1  441   2.123   5.406   3.486
  145TIP3    H2  442   1.985   5.344   3.478
  146TIP3   OH2  443   1.551   0.848   4.848
  146TIP3    H1  444   1.579   0.911   4.914
  146TIP3    H2  445   1.618   0.780   4.849
  147TIP3   OH2  446   3.537   2.756   4.166
  147TIP3    H1  447   3.617   2.767   4.217
  147TIP3    H2  448   3.532   2.663   4.147
  148TIP3   OH2  449   0.211   5.734   3.958
  148TIP3    H1  450   0.273   5.762   4.026
  148TIP3    H2  451   0.256   5.663   3.912
  149TIP3   OH2  452   4.908   5.726   0.063
  149TIP3    H1  453   4.892   5.634   0.043
  149TIP3    H2  454   4.988   5.725   0.116
  150TIP3   OH2  455   0.718   0.911   4.042
  150TIP3    H1  456   0.699   0.928   4.134
  150TIP3    H2  457   0.649   0.958   3.994
  151TIP3   OH2  458   5.774   1.373   4.052
  151TIP3    H1  459   5.750   1.317   4.126
  151TIP3    H2  460   5.775   1.314   3.977
  152TIP3   OH2  461   0.691   1.453   4.167
  152TIP3    H1  462   0.663   1.452   4.076
  152TIP3    H2  463   0.650   1.531   4.204
  153TIP3   OH2  464   2.139   0.124   3.028
  153TIP3    H1  465   2.117   0.094   2.940
  153TIP3    H2  466   2.233   0.105   3.036
  154TIP3   OH2  467   3.127   2.373   0.857
  154TIP3    H1  468   3.036   2.348   0.841
  154TIP3    H2  469   3.172   2.352   0.775
  155TIP3   OH2  470   4.208   4.273   1.394
  155TIP3    H1  471   4.293   4.275   1.349
  155TIP3    H2  472   4.208   4.189   1.441
  156TIP3   OH2  473   3.559   3.943   2.118
  156TIP3    H1  474   3.484   3.921   2.173
  156TIP3    H2  475   3.628   3.882   2.147
  157TIP3   OH2  476   2.279   1.992   2.478
  157TIP3    H1  477   2.189   2.010   2.450
  157TIP3    H2  478   2.270   1.943   2.559
  158TIP3   OH2  479   3.688   2.206   2.975
  158TIP3    H1  480   3.695   2.206   2.880
  158TIP3    H2  481   3.750   2.139   3.004
  159TIP3   OH2  482   3.845   1.705   0.302
  159TIP3    H1  483   3.933   1.672   0.289
  159TIP3    H2  484   3.843   1.732   0.394
  160TIP3   OH2  485   6.081   2.230   1.652
  160TIP3    H1  486   6.046   2.145   1.682
  160TIP3    H2  487   6.035   2.295   1.706
  161TIP3   OH2  488   2.152   4.416   2.829
  161TIP3    H1  489   2.215   4.398   2.759
  161TIP3    H2  490   2.156   4.511   2.841
  162TIP3   OH2  491   3.293   5.428   1.714
  162TIP3    H1  492   3.255   5.512   1.687
  162TIP3    H2  493   3.386   5.437   1.694
  163TIP3   OH2  494   4.866   0.766   2.489
  163TIP3    H1  495   4.799   0.729   2.547
  163TIP3    H2  496   4.849   0.860   2.491
  164TIP3   OH2  497   6.292   1.011   2.694
  164TIP3    H1  498   6.299   0.971   2.607
  164TIP3    H2  499   6.200   1.000   2.718
  165TIP3   OH2  500   2.687   1.403   5.127
  165TIP3    H1  501   2.637   1.352   5.062
  165TIP3    H2  502   2.744   1.338   5.170
  166TIP3   OH2  503   1.333   5.648   3.186
  166TIP3    H1  504   1.284   5.566   3.190
  166TIP3    H2  505   1.382   5.650   3.268
  167TIP3   OH2  506   5.745   3.834   1.540
  167TIP3    H1  507   5.661   3.790   1.551
  167TIP3    H2  508   5.779   3.802   1.456
  168TIP3   OH2  509   0.589   5.296   3.807
  168TIP3    H1  510   0.543   5.361   3.754
  168TIP3    H2  511   0.618   5.230   3.744
  169TIP3   OH2  512   1.034   1.596   4.925
  169TIP3    H1  513   0.976   1.519   4.922
  169TIP3    H2  514   0.979   1.668   4.894
  170TIP3   OH2  515   5.893   1.589   1.881
  170TIP3    H1  516   5.816   1.645   1.874
  170TIP3    H2  517   5.877   1.518   1.819
  171TIP3   OH2  518   3.250   4.347   0.078
  171TIP3    H1  519   3.155   4.350   0.091
  171TIP3    H2  520   3.278   4.270   0.127
  172TIP3   OH2  521   5.943   5.703   1.595
  172TIP3    H1  522   5.920   5.650   1.671
  172TIP3    H2  523   5.858   5.726   1.556
  173TIP3   OH2  524   2.901   1.040   4.862
  173TIP3    H1  525   2.952   1.070   4.937
  173TIP3    H2  526   2.966   1.034   4.791
  174TIP3   OH2  527   4.564   1.028   0.036
  174TIP3    H1  528   4.518   1.063  -0.040
  174TIP3    H2  529   4.641   1.084   0.045
  175TIP3   OH2  530   6.303   5.324   0.753
  175TIP3    H1  531   6.387   5.287   0.781
  175TIP3    H2  532   6.289   5.399   0.810
  176TIP3   OH2  533   5.815   5.642   2.148
  176TIP3    H1  534   5.771   5.681   2.223
  176TIP3    H2  535   5.852   5.716   2.100
  177TIP3   OH2  536   5.164   3.917   2.558
  177TIP3    H1  537   5.249   3.948   2.589
  177TIP3    H2  538   5.134   3.856   2.625
  178TIP3   OH2  539   5.368   1.699   2.312
  178TIP3    H1  540   5.384   1.787   2.280
  178TIP3    H2  541   5.340   1.650   2.234
  179TIP3   OH2  542   5.113   5.780   3.413
  179TIP3    H1  543   5.165   5.842   3.465
  179TIP3    H2  544   5.032   5.827   3.394
  180TIP3   OH2  545   0.613   3.935   0.365
  180TIP3    H1  546   0.556   3.991   0.418
  180TIP3    H2  547   0.554   3.898   0.299
  181TIP3   OH2  548   2.532   5.951   4.902
  181TIP3    H1  549   2.609   5.901   4.874
  181TIP3    H2  550   2.458   5.906   4.861
  182TIP3   OH2  551   4.796   1.196   0.054
  182TIP3    H1  552   4.805   1.256   0.128
  182TIP3    H2  553   4.854   1.232  -0.013
  183TIP3   OH2  554   5.636   2.726   1.215
  183TIP3    H1  555   5.624   2.776   1.296
  183TIP3    H2  556   5.573   2.765   1.154
  184TIP3   OH2  557   5.504   4.040   1.395
  184TIP3    H1  558   5.489   3.987   1.473
  184TIP3    H2  559   5.485   4.130   1.422
  185TIP3   OH2  560   6.214   3.519   0.348
  185TIP3    H1  561   6.182   3.555   0.431
  185TIP3    H2  562   6.175   3.431   0.344
  186TIP3   OH2  563   5.602   4.565   0.326
  186TIP3    H1  564   5.682   4.613   0.348
  186TIP3    H2  565   5.533   4.631   0.332
  187TIP3   OH2  566   1.977   2.536   4.241
  187TIP3    H1  567   2.024   2.493   4.169
  187TIP3    H2  568   2.031   2.519   4.318
  188TIP3   OH2  569   4.975   4.114   1.839
  188TIP3    H1  570   4.942   4.122   1.749
  188TIP3    H2  571   5.021   4.031   1.840
  189TIP3   OH2  572   4.001   0.631   3.707
  189TIP3    H1  573   3.998   0.631   3.803
  189TIP3    H2  574   4.004   0.723   3.683
  190TIP3   OH2  575   5.821   1.376   0.266
  190TIP3    H1  576   5.756   1.316   0.230
  190TIP3    H2  577   5.865   1.326   0.335
  191TIP3   OH2  578   0.406   1.424   3.417
  191TIP3    H1  579   0.359   1.502   3.388
  191TIP3    H2  580   0.405   1.429   3.512
  192TIP3   OH2  581   3.831   3.016   0.236
  192TIP3    H1  582   3.914   3.058   0.261
  192TIP3    H2  583   3.766   3.086   0.244
  193TIP3   OH2  584   2.481   3.536   0.205
  193TIP3    H1  585   2.410   3.569   0.259
  193TIP3    H2  586   2.437   3.493   0.131
  194TIP3   OH2  587   0.394   5.361   0.966
  194TIP3    H1  588   0.479   5.317   0.962
  194TIP3    H2  589   0.332   5.292   0.988
  195TIP3   OH2  590   3.886   2.204   0.912
  195TIP3    H1  591   3.876   2.298   0.900
  195TIP3    H2  592   3.864   2.189   1.004
  196TIP3   OH2  593   1.818   4.722   0.063
  196TIP3    H1  594   1.751   4.710   0.130
  196TIP3    H2  595   1.900   4.695   0.106
  197TIP3   OH2  596   3.602   3.375   2.325
  197TIP3    H1  597   3.546   3.357   2.251
  197TIP3    H2  598   3.551   3.434   2.380
  198TIP3   OH2  599   3.005   2.064   2.772
  198TIP3    H1  600   2.913   2.050   2.795
  198TIP3    H2  601   3.007   2.063   2.677
  199TIP3   OH2  602   0.467   4.670   4.145
  199TIP3    H1  603   0.480   4.586   4.188
  199TIP3    H2  604   0.391   4.657   4.088
  200TIP3   OH2  605   0.017   2.073   0.136
  200TIP3    H1  606   0.045   2.092   0.047
  200TIP3    H2  607   0.084   2.114   0.191
  201TIP3   OH2  608   4.781   2.887   0.051
  201TIP3    H1  609   4.774   2.824   0.123
  201TIP3    H2  610   4.704   2.942   0.061
  202TIP3   OH2  611   3.825   5.204   4.624
  202TIP3    H1  612   3.785   5.285   4.592
  202TIP3    H2  613   3.752   5.153   4.660
  203TIP3   OH2  614   5.196   5.798   0.930
  203TIP3    H1  615   5.271   5.808   0.988
  203TIP3    H2  616   5.212   5.715   0.884
  204TIP3   OH2  617   3.583   2.424   3.343
  204TIP3    H1  618   3.599   2.505   3.392
  204TIP3    H2  619   3.514   2.380   3.392
  205TIP3   OH2  620   0.034   2.249   2.762
  205TIP3    H1  621  -0.031   2.229   2.830
  205TIP3    H2  622   0.090   2.172   2.759
  206TIP3   OH2  623   4.052   5.331   3.172
  206TIP3    H1  624   3.957   5.339   3.178
  206TIP3    H2  625   4.085   5.418   3.196
  207TIP3   OH2  626   3.730   2.454   1.807
  207TIP3    H1  627   3.677   2.484   1.881
  207TIP3    H2  628   3.729   2.527   1.746
  208TIP3   OH2  629   1.262   1.128   1.306
  208TIP3    H1  630   1.335   1.189   1.315
  208TIP3    H2  631   1.299   1.042   1.324
  209TIP3   OH2  632   5.921   0.608   4.780
  209TIP3    H1  633   5.924   0.589   4.686
  209TIP3    H2  634   5.970   0.689   4.790
  210TIP3   OH2  635   5.978   4.594   2.814
  210TIP3    H1  636   6.001   4.665   2.753
  210TIP3    H2  637   5.973   4.637   2.899
  211TIP3   OH2  638   5.982   1.059   0.229
  211TIP3    H1  639   5.921   1.101   0.168
  211TIP3    H2  640   6.028   0.994   0.176
  212TIP3   OH2  641   4.532   2.582   2.491
  212TIP3    H1  642   4.440   2.609   2.485
  212TIP3    H2  643   4.533   2.515   2.560
  213TIP3   OH2  644   2.151   4.610   3.973
  213TIP3    H1  645   2.082   4.545   3.981
  213TIP3    H2  646   2.153   4.653   4.058
  214TIP3   OH2  647   2.972   5.813   0.021
  214TIP3    H1  648   3.028   5.828   0.097
  214TIP3    H2  649   2.913   5.888   0.020
  215TIP3   OH2  650   6.070   1.124   4.379
  215TIP3    H1  651   6.113   1.045   4.348
  215TIP3    H2  652   6.129   1.195   4.355
  216TIP3   OH2  653   3.315   0.150   4.462
  216TIP3    H1  654   3.245   0.216   4.458
  216TIP3    H2  655   3.362   0.161   4.379
  217TIP3   OH2  656   5.387   4.742   0.046
  217TIP3    H1  657   5.338   4.660   0.041
  217TIP3    H2  658   5.340   4.802  -0.011
  218TIP3   OH2  659   5.424   1.456   2.964
  218TIP3    H1  660   5.351   1.454   3.025
  218TIP3    H2  661   5.457   1.546   2.969
  219TIP3   OH2  662   3.462   5.030   4.050
  219TIP3    H1  663   3.540   5.042   4.103
  219TIP3    H2  664   3.482   5.073   3.967
  220TIP3   OH2  665   6.241   3.637   1.848
  220TIP3    H1  666   6.200   3.721   1.825
  220TIP3    H2  667   6.174   3.592   1.901
  221TIP3   OH2  668   4.698   0.108   3.843
  221TIP3    H1  669   4.741   0.029   3.812
  221TIP3    H2  670   4.713   0.107   3.938
  222TIP3   OH2  671   3.603   2.793   0.469
  222TIP3    H1  672   3.554   2.721   0.509
  222TIP3    H2  673   3.694   2.763   0.470
  223TIP3   OH2  674   3.324   3.134   2.043
  223TIP3    H1  675   3.361   3.054   2.081
  223TIP3    H2  676   3.310   3.112   1.951
  224TIP3   OH2  677   0.911   5.624   3.257
  224TIP3    H1  678   0.994   5.670   3.271
  224TIP3    H2  679   0.896   5.631   3.163
  225TIP3   OH2  680   0.234   2.503   3.097
  225TIP3    H1  681   0.311   2.506   3.154
  225TIP3    H2  682   0.251   2.568   3.030
  226TIP3   OH2  683   2.764   4.838   3.112
  226TIP3    H1  684   2.768   4.884   3.196
  226TIP3    H2  685   2.759   4.908   3.047
  227TIP3   OH2  686   2.093   0.526   0.172
  227TIP3    H1  687   2.066   0.577   0.096
  227TIP3    H2  688   2.011   0.498   0.212
  228TIP3   OH2  689   5.374   1.519   0.751
  228TIP3    H1  690   5.364   1.443   0.693
  228TIP3    H2  691   5.467   1.518   0.775
  229TIP3   OH2  692   4.693   0.084   2.010
  229TIP3    H1  693   4.638   0.160   2.028
  229TIP3    H2  694   4.771   0.097   2.064
  230TIP3   OH2  695   4.308   4.766   3.650
  230TIP3    H1  696   4.351   4.846   3.621
  230TIP3    H2  697   4.222   4.768   3.607
  231TIP3   OH2  698   0.050   0.048   4.730
  231TIP3    H1  699  -0.022   0.068   4.671
  231TIP3    H2  700   0.013   0.062   4.818
  232TIP3   OH2  701   4.730   2.505   3.514
  232TIP3    H1  702   4.712   2.411   3.512
  232TIP3    H2  703   4.653   2.543   3.557
  233TIP3   OH2  704   2.133   0.132   4.226
  233TIP3    H1  705   2.069   0.169   4.164
  233TIP3    H2  706   2.122   0.037   4.217
  234TIP3   OH2  707   4.920   1.377   1.746
  234TIP3    H1  708   4.946   1.435   1.674
  234TIP3    H2  709   4.827   1.396   1.759
  235TIP3   OH2  710   5.732   3.328   4.819
  235TIP3    H1  711   5.647   3.348   4.778
  235TIP3    H2  712   5.774   3.413   4.830
  236TIP3   OH2  713   6.245   3.539   3.906
  236TIP3    H1  714   6.250   3.558   3.812
  236TIP3    H2  715   6.177   3.471   3.913
  237TIP3   OH2  716   2.293   5.905   2.837
  237TIP3    H1  717   2.385   5.899   2.862
  237TIP3    H2  718   2.291   5.877   2.746
  238TIP3   OH2  719   1.832   5.781   0.075
  238TIP3    H1  720   1.812   5.874   0.072
  238TIP3    H2  721   1.927   5.778   0.089
  239TIP3   OH2  722   5.557   5.930   3.215
  239TIP3    H1  723   5.471   5.889   3.205
  239TIP3    H2  724   5.599   5.920   3.130
  240TIP3   OH2  725   5.030   1.244   3.937
  240TIP3    H1  726   4.937   1.260   3.920
  240TIP3    H2  727   5.040   1.149   3.932
  241TIP3   OH2  728   5.726   1.591   5.157
  241TIP3    H1  729   5.659   1.655   5.136
  241TIP3    H2  730   5.789   1.639   5.211
  242TIP3   OH2  731   4.616   4.911   4.371
  242TIP3    H1  732   4.640   4.818   4.374
  242TIP3    H2  733   4.604   4.929   4.278
  243TIP3   OH2  734   3.892   1.420   4.293
  243TIP3    H1  735   3.869   1.364   4.219
  243TIP3    H2  736   3.937   1.361   4.355
  244TIP3   OH2  737   3.679   5.032   3.492
  244TIP3    H1  738   3.652   5.109   3.443
  244TIP3    H2  739   3.611   4.967   3.471
  245TIP3   OH2  740   5.312   0.607   2.625
  245TIP3    H1  741   5.249   0.631   2.556
  245TIP3    H2  742   5.266   0.542   2.678
  246TIP3   OH2  743   3.512   0.212   3.848
  246TIP3    H1  744   3.429   0.231   3.805
  246TIP3    H2  745   3.565   0.290   3.834
  247TIP3   OH2  746   4.472   5.171   2.047
  247TIP3    H1  747   4.403   5.237   2.051
  247TIP3    H2  748   4.471   5.140   1.957
  248TIP3   OH2  749   1.869   5.001   4.063
  248TIP3    H1  750   1.936   4.989   3.995
  248TIP3    H2  751   1.816   4.921   4.058
  249TIP3   OH2  752   1.379   1.567   1.194
  249TIP3    H1  753   1.447   1.624   1.158
  249TIP3    H2  754   1.361   1.505   1.123
  250TIP3   OH2  755   0.883   3.562   2.902
  250TIP3    H1  756   0.846   3.480   2.871
  250TIP3    H2  757   0.906   3.610   2.822
  251TIP3   OH2  758   2.741   3.450   3.797
  251TIP3    H1  759   2.731   3.524   3.857
  251TIP3    H2  760   2.827   3.462   3.758
  252TIP3   OH2  761   0.782   3.954   4.552
  252TIP3    H1  762   0.800   4.046   4.533
  252TIP3    H2  763   0.687   3.946   4.546
  253TIP3   OH2  764   1.211   0.739   3.960
  253TIP3    H1  765   1.116   0.731   3.969
  253TIP3    H2  766   1.223   0.785   3.877
  254TIP3   OH2  767   0.830   2.918   1.985
  254TIP3    H1  768   0.905   2.925   2.044
  254TIP3    H2  769   0.761   2.970   2.028
  255TIP3   OH2  770   0.028   0.798   5.117
  255TIP3    H1  771   0.101   0.852   5.149
  255TIP3    H2  772   0.030   0.810   5.022
  256TIP3   OH2  773   3.016   4.007   4.849
  256TIP3    H1  774   2.925   4.029   4.828
  256TIP3    H2  775   3.064   4.088   4.832
  257TIP3   OH2  776   2.998   2.057   0.340
  257TIP3    H1  777   3.062   1.992   0.370
  257TIP3    H2  778   2.951   2.013   0.269
  258TIP3   OH2  779   4.389   5.856   4.517
  258TIP3    H1  780   4.401   5.775   4.566
  258TIP3    H2  781   4.364   5.921   4.583
  259TIP3   OH2  782   3.678   1.518   0.163
  259TIP3    H1  783   3.714   1.599   0.199
  259TIP3    H2  784   3.745   1.487   0.103
  260TIP3   OH2  785   1.349   4.340   2.845
  260TIP3    H1  786   1.362   4.261   2.792
  260TIP3    H2  787   1.344   4.308   2.935
  261TIP3   OH2  788   3.443   4.761   3.829
  261TIP3    H1  789   3.501   4.837   3.814
  261TIP3    H2  790   3.409   4.739   3.742
  262TIP3   OH2  791   2.931   4.520   1.361
  262TIP3    H1  792   2.869   4.579   1.319
  262TIP3    H2  793   2.946   4.560   1.447
  263TIP3   OH2  794   3.303   4.982   4.970
  263TIP3    H1  795   3.344   5.065   4.947
  263TIP3    H2  796   3.316   4.974   5.065
  264TIP3   OH2  797   0.092   5.642   4.659
  264TIP3    H1  798   0.113   5.685   4.577
  264TIP3    H2  799   0.084   5.549   4.636
  265TIP3   OH2  800   3.124   3.859   0.431
  265TIP3    H1  801   3.184   3.877   0.503
  265TIP3    H2  802   3.140   3.768   0.408
  266TIP3   OH2  803   2.679   5.047   4.918
  266TIP3    H1  804   2.698   4.972   4.974
  266TIP3    H2  805   2.765   5.084   4.899
  267TIP3   OH2  806   4.564   2.402   5.008
  267TIP3    H1  807   4.566   2.421   4.914
  267TIP3    H2  808   4.650   2.431   5.039
  268TIP3   OH2  809   1.652   5.463   3.572
  268TIP3    H1  810   1.666   5.398   3.503
  268TIP3    H2  811   1.561   5.451   3.598
  269TIP3   OH2  812   0.844   2.028   2.249
  269TIP3    H1  813   0.788   2.002   2.175
  269TIP3    H2  814   0.932   2.031   2.212
  270TIP3   OH2  815   1.145   4.937   2.505
  270TIP3    H1  816   1.224   4.917   2.456
  270TIP3    H2  817   1.117   5.023   2.472
  271TIP3   OH2  818   1.242   4.505   2.439
  271TIP3    H1  819   1.309   4.563   2.404
  271TIP3    H2  820   1.163   4.559   2.442
  272TIP3   OH2  821   6.285   5.940   0.571
  272TIP3    H1  822   6.244   5.854   0.584
  272TIP3    H2  823   6.328   5.959   0.654
  273TIP3   OH2  824   2.919   2.465   4.602
  273TIP3    H1  825   2.854   2.522   4.643
  273TIP3    H2  826   2.997   2.519   4.594
  274TIP3   OH2  827   1.391   3.828   2.594
  274TIP3    H1  828   1.374   3.736   2.570
  274TIP3    H2  829   1.446   3.861   2.522
  275TIP3   OH2  830   2.748   2.751   2.367
  275TIP3    H1  831   2.782   2.662   2.372
  275TIP3    H2  832   2.653   2.742   2.379
  276TIP3   OH2  833   1.211   0.106   2.060
  276TIP3    H1  834   1.300   0.126   2.030
  276TIP3    H2  835   1.168   0.065   1.985
  277TIP3   OH2  836   2.526   0.521   2.777
  277TIP3    H1  837   2.605   0.478   2.744
  277TIP3    H2  838   2.550   0.613   2.784
  278TIP3   OH2  839   5.776   3.424   2.867
  278TIP3    H1  840   5.834   3.500   2.866
  278TIP3    H2  841   5.688   3.462   2.859
  279TIP3   OH2  842   2.770   1.403   1.801
  279TIP3    H1  843   2.775   1.495   1.773
  279TIP3    H2  844   2.861   1.373   1.801
  280TIP3   OH2  845   2.413   0.595   3.145
  280TIP3    H1  846   2.456   0.521   3.188
  280TIP3    H2  847   2.417   0.666   3.209
  281TIP3   OH2  848   0.280   1.472   2.823
  281TIP3    H1  849   0.260   1.494   2.914
  281TIP3    H2  850   0.356   1.527   2.802
  282TIP3   OH2  851   4.556   4.991   2.526
  282TIP3    H1  852   4.584   5.081   2.541
  282TIP3    H2  853   4.632   4.948   2.487
  283TIP3   OH2  854   0.260   0.639   0.690
  283TIP3    H1  855   0.238   0.713   0.747
  283TIP3    H2  856   0.355   0.645   0.679
  284TIP3   OH2  857   1.021   0.960   4.407
  284TIP3    H1  858   1.097   0.967   4.464
  284TIP3    H2  859   0.946   0.975   4.465
  285TIP3   OH2  860   2.382   0.822   2.561
  285TIP3    H1  861   2.306   0.835   2.503
  285TIP3    H2  862   2.409   0.911   2.584
  286TIP3   OH2  863   3.755   0.044   3.846
  286TIP3    H1  864   3.679   0.067   3.793
  286TIP3    H2  865   3.732   0.073   3.934
  287TIP3   OH2  866   0.598   0.751   2.071
  287TIP3    H1  867   0.640   0.799   2.000
  287TIP3    H2  868   0.535   0.813   2.108
  288TIP3   OH2  869   2.944   4.810   3.741
  288TIP3    H1  870   2.945   4.716   3.726
  288TIP3    H2  871   2.976   4.821   3.830
  289TIP3   OH2  872   4.496   4.255   2.695
  289TIP3    H1  873   4.451   4.302   2.766
  289TIP3    H2  874   4.447   4.174   2.685
  290TIP3   OH2  875   3.305   5.095   2.858
  290TIP3    H1  876   3.302   4.999   2.856
  290TIP3    H2  877   3.223   5.123   2.818
  291TIP3   OH2  878   2.535   3.438   3.212
  291TIP3    H1  879   2.548   3.524   3.172
  291TIP3    H2  880   2.572   3.377   3.148
  292TIP3   OH2  881   4.957   4.603   2.962
  292TIP3    H1  882   4.895   4.548   2.914
  292TIP3    H2  883   5.042   4.564   2.944
  293TIP3   OH2  884   5.391   1.970   2.290
  293TIP3    H1  885   5.478   2.002   2.265
  293TIP3    H2  886   5.394   1.963   2.385
  294TIP3   OH2  887   0.844   0.912   1.032
  294TIP3    H1  888   0.918   0.855   1.011
  294TIP3    H2  889   0.795   0.865   1.100
  295TIP3   OH2  890   4.127   0.752   4.546
  295TIP3    H1  891   4.102   0.768   4.637
  295TIP3    H2  892   4.045   0.732   4.501
  296TIP3   OH2  893   4.127   1.786   1.554
  296TIP3    H1  894   4.087   1.836   1.625
  296TIP3    H2  895   4.212   1.828   1.539
  297TIP3   OH2  896   5.929   5.179   3.556
  297TIP3    H1  897   5.908   5.246   3.621
  297TIP3    H2  898   5.847   5.162   3.511
  298TIP3   OH2  899   3.504   3.608   2.134
  298TIP3    H1  900   3.450   3.532   2.114
  298TIP3    H2  901   3.527   3.597   2.227
  299TIP3   OH2  902   3.356   1.318   1.671
  299TIP3    H1  903   3.440   1.363   1.680
  299TIP3    H2  904   3.377   1.226   1.687
  300TIP3   OH2  905   5.203   2.600   2.471
  300TIP3    H1  906   5.212   2.609   2.566
  300TIP3    H2  907   5.271   2.538   2.446
  301TIP3   OH2  908   3.783   0.865   3.528
  301TIP3    H1  909   3.702   0.874   3.578
  301TIP3    H2  910   3.832   0.945   3.548
  302TIP3   OH2  911   0.551   1.653   3.596
  302TIP3    H1  912   0.503   1.731   3.570
  302TIP3    H2  913   0.643   1.674   3.577
  303TIP3   OH2  914   3.419   3.963   4.300
  303TIP3    H1  915   3.471   3.916   4.235
  303TIP3    H2  916   3.372   4.030   4.249
  304TIP3   OH2  917   2.100   5.244   0.935
  304TIP3    H1  918   2.058   5.158   0.934
  304TIP3    H2  919   2.043   5.299   0.881
  305TIP3   OH2  920   5.883   1.337   3.101
  305TIP3    H1  921   5.819   1.405   3.121
  305TIP3    H2  922   5.851   1.296   3.021
  306TIP3   OH2  923   3.479   5.661   3.611
  306TIP3    H1  924   3.427   5.740   3.629
  306TIP3    H2  925   3.538   5.688   3.541
  307TIP3   OH2  926   1.329   5.668   0.074
  307TIP3    H1  927   1.384   5.598   0.039
  307TIP3    H2  928   1.290   5.709  -0.003
  308TIP3   OH2  929   5.951   1.525   2.846
  308TIP3    H1  930   5.919   1.606   2.885
  308TIP3    H2  931   5.973   1.550   2.756
  309TIP3   OH2  932   0.325   3.777   4.692
  309TIP3    H1  933   0.271   3.856   4.692
  309TIP3    H2  934   0.307   3.736   4.776
  310TIP3   OH2  935   0.243   3.910   3.764
  310TIP3    H1  936   0.295   3.844   3.809
  310TIP3    H2  937   0.258   3.893   3.671
  311TIP3   OH2  938   3.078   0.512   3.889
  311TIP3    H1  939   3.137   0.453   3.936
  311TIP3    H2  940   3.124   0.532   3.807
  312TIP3   OH2  941   3.115   0.580   4.282
  312TIP3    H1  942   3.108   0.675   4.274
  312TIP3    H2  943   3.208   0.564   4.299
  313TIP3   OH2  944   1.529   1.364   0.302
  313TIP3    H1  945   1.568   1.376   0.215
  313TIP3    H2  946   1.442   1.328   0.285
  314TIP3   OH2  947   5.804   4.929   4.639
  314TIP3    H1  948   5.760   4.999   4.687
  314TIP3    H2  949   5.745   4.911   4.565
  315TIP3   OH2  950   1.896   3.969   4.934
  315TIP3    H1  951   1.986   3.972   4.904
  315TIP3    H2  952   1.872   4.060   4.950
  316TIP3   OH2  953   6.218   5.740   3.385
  316TIP3    H1  954   6.274   5.746   3.462
  316TIP3    H2  955   6.161   5.665   3.403
  317TIP3   OH2  956   0.992   4.123   2.251
  317TIP3    H1  957   0.967   4.099   2.162
  317TIP3    H2  958   0.909   4.147   2.293
  318TIP3   OH2  959   2.343   3.852   5.150
  318TIP3    H1  960   2.424   3.876   5.104
  318TIP3    H2  961   2.367   3.774   5.200
  319TIP3   OH2  962   3.071   2.315   3.324
  319TIP3    H1  963   3.061   2.341   3.233
  319TIP3    H2  964   3.078   2.398   3.372
  320TIP3   OH2  965   4.209   0.121   4.723
  320TIP3    H1  966   4.155   0.138   4.800
  320TIP3    H2  967   4.268   0.196   4.717
  321TIP3   OH2  968   5.689   0.118   4.211
  321TIP3    H1  969   5.781   0.143   4.220
  321TIP3    H2  970   5.692   0.033   4.167
  322TIP3   OH2  971   4.836   0.065   4.328
  322TIP3    H1  972   4.808   0.011   4.402
  322TIP3    H2  973   4.928   0.084   4.346
  323TIP3   OH2  974   1.930   5.381   1.191
  323TIP3    H1  975   1.998   5.365   1.257
  323TIP3    H2  976   1.942   5.311   1.127
  324TIP3   OH2  977   4.174   0.761   0.049
  324TIP3    H1  978   4.205   0.806   0.127
  324TIP3    H2  979   4.220   0.804  -0.023
  325TIP3   OH2  980   2.674   1.961   4.957
  325TIP3    H1  981   2.766   1.938   4.945
  325TIP3    H2  982   2.654   2.019   4.884
  326TIP3   OH2  983   1.977   5.343   4.058
  326TIP3    H1  984   1.923   5.302   4.126
  326TIP3    H2  985   2.055   5.287   4.052
  327TIP3   OH2  986   1.413   0.512   4.446
  327TIP3    H1  987   1.473   0.569   4.494
  327TIP3    H2  988   1.333   0.564   4.437
  328TIP3   OH2  989   2.609   0.860   1.435
  328TIP3    H1  990   2.559   0.825   1.509
  328TIP3    H2  991   2.591   0.954   1.436
  329TIP3   OH2  992   1.436   1.510   3.049
  329TIP3    H1  993   1.380   1.513   3.127
  329TIP3    H2  994   1.475   1.597   3.044
  330TIP3   OH2  995   1.967   3.589   4.828
  330TIP3    H1  996   2.027   3.609   4.900
  330TIP3    H2  997   2.014   3.616   4.749
  331TIP3   OH2  998   2.677   4.586   0.687
  331TIP3    H1  999   2.630   4.529   0.749
  331TIP3    H2 1000   2.712   4.656   0.742
  332TIP3   OH2 1001   4.847   1.591   3.717
  332TIP3    H1 1002   4.934   1.569   3.684
  332TIP3    H2 1003   4.836   1.683   3.693
  333TIP3   OH2 1004   2.273   4.903   5.036
  333TIP3    H1 1005   2.315   4.980   5.075
  333TIP3    H2 1006   2.338   4.868   4.975
  334TIP3   OH2 1007   5.665   0.705   3.676
  334TIP3    H1 1008   5.651   0.737   3.765
  334TIP3    H2 1009   5.637   0.777   3.620
  335TIP3   OH2 1010   5.127   3.794   5.099
  335TIP3    H1 1011   5.068   3.839   5.160
  335TIP3    H2 1012   5.155   3.861   5.038
  336TIP3   OH2 1013   4.855   1.965   2.399
  336TIP3    H1 1014   4.883   1.900   2.335
  336TIP3    H2 1015   4.922   2.033   2.396
  337TIP3   OH2 1016   1.648   2.620   4.507
  337TIP3    H1 1017   1.564   2.573   4.507
  337TIP3    H2 1018   1.700   2.576   4.574
  338TIP3   OH2 1019   1.646   3.311   0.065
  338TIP3    H1 1020   1.612   3.350  -0.015
  338TIP3    H2 1021   1.680   3.386   0.115
  339TIP3   OH2 1022   0.074   3.695   4.451
  339TIP3    H1 1023   0.133   3.720   4.380
  339TIP3    H2 1024   0.120   3.625   4.497
  340TIP3   OH2 1025   1.484   3.697   2.181
  340TIP3    H1 1026   1.525   3.613   2.160
  340TIP3    H2 1027   1.517   3.758   2.116
  341TIP3   OH2 1028   2.710   1.538   4.837
  341TIP3    H1 1029   2.783   1.567   4.891
  341TIP3    H2 1030   2.734   1.449   4.809
  342TIP3   OH2 1031   2.706   4.907   3.652
  342TIP3    H1 1032   2.713   5.002   3.646
  342TIP3    H2 1033   2.794   4.878   3.677
  343TIP3   OH2 1034   0.702   1.245   5.079
  343TIP3    H1 1035   0.773   1.272   5.138
  343TIP3    H2 1036   0.653   1.180   5.130
  344TIP3   OH2 1037   3.105   4.853   4.386
  344TIP3    H1 1038   3.030   4.906   4.358
  344TIP3    H2 1039   3.163   4.852   4.310
  345TIP3   OH2 1040   1.923   4.007   4.478
  345TIP3    H1 1041   1.879   3.924   4.499
  345TIP3    H2 1042   1.859   4.055   4.425
  346TIP3   OH2 1043   5.149   1.315   0.052
  346TIP3    H1 1044   5.078   1.283  -0.003
  346TIP3    H2 1045   5.148   1.410   0.041
  347TIP3   OH2 1046   1.240   4.946   4.768
  347TIP3    H1 1047   1.330   4.917   4.784
  347TIP3    H2 1048   1.202   4.956   4.856
  348TIP3   OH2 1049   5.232   3.820   1.571
  348TIP3    H1 1050   5.175   3.829   1.495
  348TIP3    H2 1051   5.245   3.910   1.602
  349TIP3   OH2 1052   4.243   5.036   2.308
  349TIP3    H1 1053   4.311   4.998   2.252
  349TIP3    H2 1054   4.257   4.997   2.394
  350TIP3   OH2 1055   4.013   5.804   0.548
  350TIP3    H1 1056   3.999   5.806   0.453
  350TIP3    H2 1057   4.108   5.809   0.559
  351TIP3   OH2 1058   0.159   2.497   2.384
  351TIP3    H1 1059   0.142   2.514   2.477
  351TIP3    H2 1060   0.254   2.506   2.376
  352TIP3   OH2 1061   0.905   5.404   2.446
  352TIP3    H1 1062   0.858   5.456   2.511
  352TIP3    H2 1063   0.939   5.328   2.494
  353TIP3   OH2 1064   5.435   3.203   4.984
  353TIP3    H1 1065   5.498   3.131   4.977
  353TIP3    H2 1066   5.375   3.175   5.054
  354TIP3   OH2 1067   3.069   3.079   0.746
  354TIP3    H1 1068   3.031   3.094   0.833
  354TIP3    H2 1069   3.080   2.984   0.740
  355TIP3   OH2 1070   3.354   3.398   1.497
  355TIP3    H1 1071   3.308   3.316   1.513
  355TIP3    H2 1072   3.296   3.447   1.439
  356TIP3   OH2 1073   0.821   4.099   3.738
  356TIP3    H1 1074   0.785   4.128   3.655
  356TIP3    H2 1075   0.915   4.107   3.728
  357TIP3   OH2 1076   1.536   5.012   3.065
  357TIP3    H1 1077   1.524   5.001   2.970
  357TIP3    H2 1078   1.492   4.936   3.103
  358TIP3   OH2 1079   1.300   2.602   2.141
  358TIP3    H1 1080   1.289   2.676   2.080
  358TIP3    H2 1081   1.247   2.627   2.218
  359TIP3   OH2 1082   0.007   1.448   1.420
  359TIP3    H1 1083  -0.003   1.484   1.332
  359TIP3    H2 1084   0.014   1.353   1.406
  360TIP3   OH2 1085   4.709   4.031   3.115
  360TIP3    H1 1086   4.644   3.968   3.146
  360TIP3    H2 1087   4.714   4.017   3.021
  361TIP3   OH2 1088   0.104   4.987   4.192
  361TIP3    H1 1089   0.031   5.036   4.154
  361TIP3    H2 1090   0.182   5.035   4.162
  362TIP3   OH2 1091   1.981   4.904   2.602
  362TIP3    H1 1092   2.037   4.886   2.527
  362TIP3    H2 1093   1.910   4.840   2.596
  363TIP3   OH2 1094   0.888   1.148   1.956
  363TIP3    H1 1095   0.915   1.216   1.894
  363TIP3    H2 1096   0.918   1.181   2.041
  364TIP3   OH2 1097   6.090   0.951   1.991
  364TIP3    H1 1098   6.129   0.865   1.975
  364TIP3    H2 1099   6.151   1.013   1.951
  365TIP3   OH2 1100   1.180   3.223   2.522
  365TIP3    H1 1101   1.181   3.229   2.618
  365TIP3    H2 1102   1.088   3.206   2.501
  366TIP3   OH2 1103   1.639   1.125   3.762
  366TIP3    H1 1104   1.624   1.190   3.694
  366TIP3    H2 1105   1.695   1.059   3.721
  367TIP3   OH2 1106   5.636   3.713   2.614
  367TIP3    H1 1107   5.544   3.695   2.632
  367TIP3    H2 1108   5.666   3.761   2.691
  368TIP3   OH2 1109   4.929   4.788   0.783
  368TIP3    H1 1110   4.944   4.834   0.866
  368TIP3    H2 1111   5.014   4.747   0.764
  369TIP3   OH2 1112   5.725   3.751   3.080
  369TIP3    H1 1113   5.692   3.668   3.114
  369TIP3    H2 1114   5.813   3.730   3.047
  370TIP3   OH2 1115   5.645   5.392   4.464
  370TIP3    H1 1116   5.622   5.483   4.484
  370TIP3    H2 1117   5.574   5.341   4.502
  371TIP3   OH2 1118   2.429   3.368   4.259
  371TIP3    H1 1119   2.371   3.294   4.278
  371TIP3    H2 1120   2.370   3.443   4.248
  372TIP3   OH2 1121   5.586   2.332   2.160
  372TIP3    H1 1122   5.634   2.266   2.111
  372TIP3    H2 1123   5.600   2.310   2.252
  373TIP3   OH2 1124   3.558   2.117   3.640
  373TIP3    H1 1125   3.551   2.114   3.544
  373TIP3    H2 1126   3.473   2.151   3.668
  374TIP3   OH2 1127   3.566   0.460   3.320
  374TIP3    H1 1128   3.545   0.525   3.253
  374TIP3    H2 1129   3.638   0.498   3.370
  375TIP3   OH2 1130   1.719   3.864   0.674
  375TIP3    H1 1131   1.794   3.907   0.716
  375TIP3    H2 1132   1.704   3.785   0.726
  376TIP3   OH2 1133   2.449   0.451   4.935
  376TIP3    H1 1134   2.442   0.546   4.928
  376TIP3    H2 1135   2.421   0.419   4.850
  377TIP3   OH2 1136   4.012   3.586   4.612
  377TIP3    H1 1137   4.016   3.671   4.570
  377TIP3    H2 1138   3.949   3.535   4.560
  378TIP3   OH2 1139   1.213   1.942   0.053
  378TIP3    H1 1140   1.162   1.969   0.129
  378TIP3    H2 1141   1.248   1.856   0.077
  379TIP3   OH2 1142   0.521   2.518   0.238
  379TIP3    H1 1143   0.426   2.532   0.237
  379TIP3    H2 1144   0.558   2.603   0.215
  380TIP3   OH2 1145   0.275   0.349   1.548
  380TIP3    H1 1146   0.216   0.417   1.517
  380TIP3    H2 1147   0.316   0.386   1.626
  381TIP3   OH2 1148   4.735   5.277   4.655
  381TIP3    H1 1149   4.743   5.369   4.679
  381TIP3    H2 1150   4.641   5.264   4.640
  382TIP3   OH2 1151   5.473   2.725   0.702
  382TIP3    H1 1152   5.436   2.774   0.628
  382TIP3    H2 1153   5.436   2.637   0.694
  383TIP3   OH2 1154   4.501   4.158   0.260
  383TIP3    H1 1155   4.416   4.197   0.281
  383TIP3    H2 1156   4.521   4.191   0.173
  384TIP3   OH2 1157   1.589   0.043   0.207
  384TIP3    H1 1158   1.519   0.080   0.261
  384TIP3    H2 1159   1.629  -0.024   0.262
  385TIP3   OH2 1160   0.888   1.371   2.773
  385TIP3    H1 1161   0.821   1.411   2.717
  385TIP3    H2 1162   0.842   1.348   2.854
  386TIP3   OH2 1163   1.742   0.631   0.218
  386TIP3    H1 1164   1.778   0.635   0.129
  386TIP3    H2 1165   1.754   0.720   0.252
  387TIP3   OH2 1166   0.812   2.216   4.351
  387TIP3    H1 1167   0.905   2.210   4.372
  387TIP3    H2 1168   0.805   2.291   4.292
  388TIP3   OH2 1169   0.040   1.331   3.752
  388TIP3    H1 1170   0.108   1.301   3.691
  388TIP3    H2 1171  -0.042   1.323   3.703
  389TIP3   OH2 1172   4.758   1.018   3.088
  389TIP3    H1 1173   4.734   1.109   3.108
  389TIP3    H2 1174   4.742   1.009   2.995
  390TIP3   OH2 1175   4.116   2.300   3.803
  390TIP3    H1 1176   4.169   2.222   3.788
  390TIP3    H2 1177   4.141   2.330   3.891
  391TIP3   OH2 1178   5.645   1.525   0.766
  391TIP3    H1 1179   5.653   1.488   0.678
  391TIP3    H2 1180   5.715   1.484   0.816
  392TIP3   OH2 1181   2.025   1.438   1.270
  392TIP3    H1 1182   1.954   1.493   1.301
  392TIP3    H2 1183   1.985   1.378   1.207
  393TIP3   OH2 1184   1.805   0.688   4.250
  393TIP3    H1 1185   1.731   0.646   4.206
  393TIP3    H2 1186   1.876   0.684   4.185
  394TIP3   OH2 1187   1.561   3.017   0.302
  394TIP3    H1 1188   1.592   3.063   0.379
  394TIP3    H2 1189   1.565   2.924   0.325
  395TIP3   OH2 1190   2.588   4.658   3.011
  395TIP3    H1 1191   2.562   4.604   3.085
  395TIP3    H2 1192   2.650   4.721   3.048
  396TIP3   OH2 1193   1.851   3.902   2.154
  396TIP3    H1 1194   1.844   3.982   2.102
  396TIP3    H2 1195   1.902   3.927   2.231
  397TIP3   OH2 1196   0.287   2.288   1.783
  397TIP3    H1 1197   0.331   2.361   1.828
  397TIP3    H2 1198   0.197   2.317   1.771
  398TIP3   OH2 1199   5.420   4.002   0.570
  398TIP3    H1 1200   5.514   4.007   0.586
  398TIP3    H2 1201   5.380   4.026   0.654
  399TIP3   OH2 1202   1.052   4.939   4.004
  399TIP3    H1 1203   0.966   4.928   4.045
  399TIP3    H2 1204   1.110   4.880   4.053
  400TIP3   OH2 1205   0.752   2.300   2.745
  400TIP3    H1 1206   0.716   2.354   2.675
  400TIP3    H2 1207   0.767   2.215   2.704
  401TIP3   OH2 1208   2.884   2.302   5.135
  401TIP3    H1 1209   2.831   2.225   5.156
  401TIP3    H2 1210   2.829   2.354   5.077
  402TIP3   OH2 1211   5.560   3.576   0.765
  402TIP3    H1 1212   5.518   3.594   0.849
  402TIP3    H2 1213   5.653   3.568   0.786
  403TIP3   OH2 1214   5.681   2.501   0.913
  403TIP3    H1 1215   5.725   2.571   0.865
  403TIP3    H2 1216   5.642   2.447   0.844
  404TIP3   OH2 1217   4.762   1.320   1.293
  404TIP3    H1 1218   4.684   1.325   1.238
  404TIP3    H2 1219   4.753   1.394   1.354
  405TIP3   OH2 1220   4.038   3.495   0.723
  405TIP3    H1 1221   3.960   3.467   0.676
  405TIP3    H2 1222   4.022   3.588   0.743
  406TIP3   OH2 1223   0.303   5.310   2.802
  406TIP3    H1 1224   0.252   5.318   2.722
  406TIP3    H2 1225   0.392   5.291   2.772
  407TIP3   OH2 1226   1.455   1.822   0.577
  407TIP3    H1 1227   1.367   1.830   0.540
  407TIP3    H2 1228   1.458   1.732   0.610
  408TIP3   OH2 1229   1.182   2.295   0.166
  408TIP3    H1 1230   1.184   2.203   0.195
  408TIP3    H2 1231   1.089   2.318   0.164
  409TIP3   OH2 1232   2.052   0.391   2.449
  409TIP3    H1 1233   2.143   0.420   2.436
  409TIP3    H2 1234   2.002   0.472   2.456
  410TIP3   OH2 1235   4.076   3.110   0.388
  410TIP3    H1 1236   4.136   3.151   0.326
  410TIP3    H2 1237   4.080   3.167   0.465
  411TIP3   OH2 1238   6.343   3.046   4.543
  411TIP3    H1 1239   6.355   3.033   4.637
  411TIP3    H2 1240   6.265   3.101   4.535
  412TIP3   OH2 1241   6.130   2.812   3.105
  412TIP3    H1 1242   6.218   2.792   3.075
  412TIP3    H2 1243   6.075   2.742   3.070
  413TIP3   OH2 1244   5.447   3.679   3.296
  413TIP3    H1 1245   5.492   3.598   3.274
  413TIP3    H2 1246   5.354   3.656   3.295
  414TIP3   OH2 1247   3.458   5.591   2.024
  414TIP3    H1 1248   3.437   5.557   2.111
  414TIP3    H2 1249   3.375   5.624   1.990
  415TIP3   OH2 1250   0.599   0.088   1.580
  415TIP3    H1 1251   0.691   0.093   1.606
  415TIP3    H2 1252   0.600   0.100   1.485
  416TIP3   OH2 1253   1.548   0.007   2.479
  416TIP3    H1 1254   1.571   0.073   2.545
  416TIP3    H2 1255   1.537   0.057   2.398
  417TIP3   OH2 1256   3.253   5.720   0.761
  417TIP3    H1 1257   3.167   5.750   0.730
  417TIP3    H2 1258   3.304   5.707   0.682
  418TIP3   OH2 1259   3.820   2.797   1.053
  418TIP3    H1 1260   3.755   2.741   1.012
  418TIP3    H2 1261   3.854   2.851   0.981
  419TIP3   OH2 1262   4.646   3.498   4.525
  419TIP3    H1 1263   4.604   3.412   4.525
  419TIP3    H2 1264   4.597   3.548   4.590
  420TIP3   OH2 1265   0.958   0.786   3.975
  420TIP3    H1 1266   0.949   0.778   3.880
  420TIP3    H2 1267   0.877   0.829   4.003
  421TIP3   OH2 1268   3.014   2.104   4.141
  421TIP3    H1 1269   2.922   2.083   4.123
  421TIP3    H2 1270   3.058   2.091   4.057
  422TIP3   OH2 1271   4.818   3.900   4.649
  422TIP3    H1 1272   4.788   3.963   4.714
  422TIP3    H2 1273   4.745   3.893   4.587
  423TIP3   OH2 1274   3.339   2.232   5.068
  423TIP3    H1 1275   3.300   2.219   4.982
  423TIP3    H2 1276   3.267   2.216   5.129
  424TIP3   OH2 1277   0.995   1.833   4.231
  424TIP3    H1 1278   0.979   1.740   4.214
  424TIP3    H2 1279   1.084   1.836   4.265
  425TIP3   OH2 1280   5.916   0.968   1.182
  425TIP3    H1 1281   5.916   0.945   1.275
  425TIP3    H2 1282   5.947   0.889   1.138
  426TIP3   OH2 1283   3.122   1.002   5.146
  426TIP3    H1 1284   3.163   0.945   5.081
  426TIP3    H2 1285   3.192   1.062   5.171
  427TIP3   OH2 1286   0.733   4.184   3.471
  427TIP3    H1 1287   0.657   4.212   3.421
  427TIP3    H2 1288   0.762   4.103   3.429
  428TIP3   OH2 1289   1.408   0.515   1.598
  428TIP3    H1 1290   1.442   0.495   1.686
  428TIP3    H2 1291   1.313   0.513   1.608
  429TIP3   OH2 1292   0.047   5.131   3.481
  429TIP3    H1 1293   0.077   5.180   3.404
  429TIP3    H2 1294   0.042   5.197   3.550
  430TIP3   OH2 1295   3.296   4.656   1.882
  430TIP3    H1 1296   3.283   4.618   1.795
  430TIP3    H2 1297   3.212   4.698   1.902
  431TIP3   OH2 1298   4.389   1.168   0.856
  431TIP3    H1 1299   4.484   1.170   0.843
  431TIP3    H2 1300   4.366   1.256   0.883
  432TIP3   OH2 1301   1.645   5.196   1.360
  432TIP3    H1 1302   1.641   5.291   1.345
  432TIP3    H2 1303   1.554   5.167   1.351
  433TIP3   OH2 1304   4.801   2.714   3.277
  433TIP3    H1 1305   4.734   2.782   3.288
  433TIP3    H2 1306   4.884   2.761   3.284
  434TIP3   OH2 1307   0.228   0.363   0.069
  434TIP3    H1 1308   0.301   0.402   0.021
  434TIP3    H2 1309   0.228   0.271   0.041
  435TIP3   OH2 1310   1.998   0.204   2.235
  435TIP3    H1 1311   2.090   0.181   2.249
  435TIP3    H2 1312   1.990   0.292   2.272
  436TIP3   OH2 1313   5.116   1.453   1.526
  436TIP3    H1 1314   5.032   1.496   1.508
  436TIP3    H2 1315   5.147   1.424   1.441
  437TIP3   OH2 1316   2.538   5.546   0.056
  437TIP3    H1 1317   2.610   5.533  -0.005
  437TIP3    H2 1318   2.511   5.637   0.044
  438TIP3   OH2 1319   5.803   1.085   4.742
  438TIP3    H1 1320   5.856   1.046   4.813
  438TIP3    H2 1321   5.867   1.119   4.680
  439TIP3   OH2 1322   2.229   4.906   1.780
  439TIP3    H1 1323   2.176   4.908   1.860
  439TIP3    H2 1324   2.315   4.878   1.810
  440TIP3   OH2 1325   1.532   1.017   4.524
  440TIP3    H1 1326   1.572   1.096   4.486
  440TIP3    H2 1327   1.571   1.011   4.612
  441TIP3   OH2 1328   1.549   1.787   1.646
  441TIP3    H1 1329   1.607   1.765   1.574
  441TIP3    H2 1330   1.484   1.846   1.608
  442TIP3   OH2 1331   2.476   1.452   1.783
  442TIP3    H1 1332   2.457   1.360   1.761
  442TIP3    H2 1333   2.572   1.455   1.790
  443TIP3   OH2 1334   4.454   5.757   3.313
  443TIP3    H1 1335   4.428   5.820   3.380
  443TIP3    H2 1336   4.550   5.757   3.316
  444TIP3   OH2 1337   3.164   0.809   3.748
  444TIP3    H1 1338   3.235   0.810   3.684
  444TIP3    H2 1339   3.085   0.800   3.695
  445TIP3   OH2 1340   0.314   1.588   4.994
  445TIP3    H1 1341   0.289   1.605   4.903
  445TIP3    H2 1342   0.274   1.504   5.015
  446TIP3   OH2 1343   4.544   1.882   1.281
  446TIP3    H1 1344   4.512   1.970   1.264
  446TIP3    H2 1345   4.637   1.886   1.261
  447TIP3   OH2 1346   2.898   5.919   4.063
  447TIP3    H1 1347   2.878   5.999   4.112
  447TIP3    H2 1348   2.845   5.925   3.984
  448TIP3   OH2 1349   3.588   4.154   4.670
  448TIP3    H1 1350   3.501   4.145   4.632
  448TIP3    H2 1351   3.621   4.238   4.637
  449TIP3   OH2 1352   5.095   0.080   2.684
  449TIP3    H1 1353   5.062   0.046   2.601
  449TIP3    H2 1354   5.169   0.023   2.706
  450TIP3   OH2 1355   3.658   0.913   3.934
  450TIP3    H1 1356   3.602   0.836   3.920
  450TIP3    H2 1357   3.605   0.972   3.988
  451TIP3   OH2 1358   6.252   0.132   1.936
  451TIP3    H1 1359   6.337   0.091   1.922
  451TIP3    H2 1360   6.273   0.217   1.975
  452TIP3   OH2 1361   3.804   0.263   2.740
  452TIP3    H1 1362   3.808   0.359   2.734
  452TIP3    H2 1363   3.802   0.246   2.834
  453TIP3   OH2 1364   0.950   3.041   1.152
  453TIP3    H1 1365   0.919   3.106   1.089
  453TIP3    H2 1366   0.878   3.031   1.214
  454TIP3   OH2 1367   2.617   3.399   2.845
  454TIP3    H1 1368   2.665   3.373   2.767
  454TIP3    H2 1369   2.655   3.483   2.870
  455TIP3   OH2 1370   4.859   2.998   2.897
  455TIP3    H1 1371   4.786   2.998   2.835
  455TIP3    H2 1372   4.927   3.050   2.854
  456TIP3   OH2 1373   3.161   1.811   3.226
  456TIP3    H1 1374   3.073   1.835   3.200
  456TIP3    H2 1375   3.217   1.879   3.188
  457TIP3   OH2 1376   5.998   2.144   2.004
  457TIP3    H1 1377   5.988   2.099   1.920
  457TIP3    H2 1378   6.079   2.194   1.994
  458TIP3   OH2 1379   5.950   3.602   2.733
  458TIP3    H1 1380   6.021   3.600   2.797
  458TIP3    H2 1381   5.949   3.693   2.702
  459TIP3   OH2 1382   2.323   2.160   4.990
  459TIP3    H1 1383   2.383   2.096   5.028
  459TIP3    H2 1384   2.241   2.149   5.039
  460TIP3   OH2 1385   3.524   4.514   3.946
  460TIP3    H1 1386   3.475   4.588   3.910
  460TIP3    H2 1387   3.485   4.437   3.904
  461TIP3   OH2 1388   1.000   3.352   1.589
  461TIP3    H1 1389   0.934   3.350   1.658
  461TIP3    H2 1390   1.044   3.436   1.600
  462TIP3   OH2 1391   0.809   3.780   2.019
  462TIP3    H1 1392   0.759   3.706   2.054
  462TIP3    H2 1393   0.901   3.754   2.029
  463TIP3   OH2 1394   4.350   5.503   4.980
  463TIP3    H1 1395   4.278   5.440   4.977
  463TIP3    H2 1396   4.425   5.452   5.008
  464TIP3   OH2 1397   3.017   4.310   2.588
  464TIP3    H1 1398   3.000   4.392   2.634
  464TIP3    H2 1399   3.076   4.261   2.647
  465TIP3   OH2 1400   5.528   1.291   3.245
  465TIP3    H1 1401   5.475   1.308   3.323
  465TIP3    H2 1402   5.505   1.203   3.219
  466TIP3   OH2 1403   5.566   3.614   2.266
  466TIP3    H1 1404   5.560   3.702   2.304
  466TIP3    H2 1405   5.544   3.625   2.174
  467TIP3   OH2 1406   3.232   3.549   4.583
  467TIP3    H1 1407   3.192   3.607   4.518
  467TIP3    H2 1408   3.319   3.586   4.597
  468TIP3   OH2 1409   4.434   3.016   0.354
  468TIP3    H1 1410   4.442   2.929   0.393
  468TIP3    H2 1411   4.480   3.073   0.415
  469TIP3   OH2 1412   4.969   1.061   2.675
  469TIP3    H1 1413   5.009   0.996   2.732
  469TIP3    H2 1414   5.041   1.096   2.623
  470TIP3   OH2 1415   3.764   4.606   1.457
  470TIP3    H1 1416   3.774   4.535   1.520
  470TIP3    H2 1417   3.697   4.663   1.495
  471TIP3   OH2 1418   2.746   4.844   4.646
  471TIP3    H1 1419   2.732   4.936   4.621
  471TIP3    H2 1420   2.739   4.796   4.563
  472TIP3   OH2 1421   4.240   3.715   4.884
  472TIP3    H1 1422   4.145   3.705   4.892
  472TIP3    H2 1423   4.275   3.631   4.912
  473TIP3   OH2 1424   0.534   0.096   0.217
  473TIP3    H1 1425   0.580   0.173   0.250
  473TIP3    H2 1426   0.587   0.022   0.247
  474TIP3   OH2 1427   1.811   1.891   0.242
  474TIP3    H1 1428   1.779   1.837   0.170
  474TIP3    H2 1429   1.768   1.976   0.228
  475TIP3   OH2 1430   0.735   5.962   2.092
  475TIP3    H1 1431   0.684   6.043   2.097
  475TIP3    H2 1432   0.719   5.920   2.177
  476TIP3   OH2 1433   4.539   1.398   2.517
  476TIP3    H1 1434   4.454   1.355   2.524
  476TIP3    H2 1435   4.534   1.472   2.578
  477TIP3   OH2 1436   0.472   4.172   0.847
  477TIP3    H1 1437   0.487   4.266   0.835
  477TIP3    H2 1438   0.377   4.162   0.844
  478TIP3   OH2 1439   2.217   4.989   0.607
  478TIP3    H1 1440   2.133   5.035   0.597
  478TIP3    H2 1441   2.280   5.045   0.562
  479TIP3   OH2 1442   2.934   0.161   1.808
  479TIP3    H1 1443   2.983   0.163   1.891
  479TIP3    H2 1444   2.995   0.124   1.745
  480TIP3   OH2 1445   3.445   1.428   1.318
  480TIP3    H1 1446   3.416   1.496   1.379
  480TIP3    H2 1447   3.496   1.368   1.372
  481TIP3   OH2 1448   2.044   4.247   4.978
  481TIP3    H1 1449   2.115   4.228   5.040
  481TIP3    H2 1450   2.069   4.330   4.938
  482TIP3   OH2 1451   1.421   0.367   3.036
  482TIP3    H1 1452   1.449   0.454   3.065
  482TIP3    H2 1453   1.403   0.378   2.942
  483TIP3   OH2 1454   3.896   3.212   4.308
  483TIP3    H1 1455   3.893   3.304   4.332
  483TIP3    H2 1456   3.981   3.181   4.339
  484TIP3   OH2 1457   4.302   1.477   1.412
  484TIP3    H1 1458   4.350   1.559   1.420
  484TIP3    H2 1459   4.350   1.415   1.467
  485TIP3   OH2 1460   2.038   3.590   3.790
  485TIP3    H1 1461   1.947   3.559   3.793
  485TIP3    H2 1462   2.075   3.564   3.874
  486TIP3   OH2 1463   0.892   5.618   1.769
  486TIP3    H1 1464   0.966   5.558   1.760
  486TIP3    H2 1465   0.872   5.619   1.863
  487TIP3   OH2 1466   5.798   3.965   3.922
  487TIP3    H1 1467   5.800   3.882   3.970
  487TIP3    H2 1468   5.726   3.955   3.859
  488TIP3   OH2 1469   2.001   5.559   1.788
  488TIP3    H1 1470   2.083   5.594   1.823
  488TIP3    H2 1471   2.016   5.465   1.780
  489TIP3   OH2 1472   0.985   2.071   3.268
  489TIP3    H1 1473   1.066   2.101   3.310
  489TIP3    H2 1474   0.946   2.010   3.331
  490TIP3   OH2 1475   3.952   3.715   2.593
  490TIP3    H1 1476   3.947   3.709   2.689
  490TIP3    H2 1477   3.903   3.639   2.562
  491TIP3   OH2 1478   0.191   4.032   4.616
  491TIP3    H1 1479   0.155   4.120   4.603
  491TIP3    H2 1480   0.278   4.047   4.653
  492TIP3   OH2 1481   3.881   1.180   4.060
  492TIP3    H1 1482   3.968   1.207   4.088
  492TIP3    H2 1483   3.892   1.155   3.968
  493TIP3   OH2 1484   3.595   3.006   2.554
  493TIP3    H1 1485   3.557   3.087   2.588
  493TIP3    H2 1486   3.683   3.003   2.591
  494TIP3   OH2 1487   0.353   1.486   4.325
  494TIP3    H1 1488   0.427   1.529   4.368
  494TIP3    H2 1489   0.367   1.501   4.232
  495TIP3   OH2 1490   5.952   3.315   2.553
  495TIP3    H1 1491   6.044   3.331   2.535
  495TIP3    H2 1492   5.926   3.385   2.613
  496TIP3   OH2 1493   0.582   3.323   0.264
  496TIP3    H1 1494   0.655   3.286   0.314
  496TIP3    H2 1495   0.614   3.407   0.232
  497TIP3   OH2 1496   4.855   5.254   2.516
  497TIP3    H1 1497   4.930   5.295   2.559
  497TIP3    H2 1498   4.792   5.325   2.504
  498TIP3   OH2 1499   5.450   3.959   3.662
  498TIP3    H1 1500   5.480   4.029   3.604
  498TIP3    H2 1501   5.355   3.972   3.668
  499TIP3   OH2 1502   2.495   3.526   2.198
  499TIP3    H1 1503   2.436   3.512   2.124
  499TIP3    H2 1504   2.559   3.590   2.166
  500TIP3   OH2 1505   0.809   0.055   2.344
  500TIP3    H1 1506   0.790  -0.007   2.273
  500TIP3    H2 1507   0.842   0.133   2.300
  501TIP3   OH2 1508   5.967   3.729   3.398
  501TIP3    H1 1509   5.912   3.808   3.396
  501TIP3    H2 1510   5.992   3.720   3.490
  502TIP3   OH2 1511   3.933   5.879   2.255
  502TIP3    H1 1512   3.913   5.932   2.178
  502TIP3    H2 1513   3.962   5.795   2.220
  503TIP3   OH2 1514   2.221   1.119   3.248
  503TIP3    H1 1515   2.307   1.106   3.289
  503TIP3    H2 1516   2.160   1.075   3.306
  504TIP3   OH2 1517   3.774   2.709   1.644
  504TIP3    H1 1518   3.779   2.786   1.701
  504TIP3    H2 1519   3.852   2.714   1.589
  505TIP3   OH2 1520   3.782   0.584   3.459
  505TIP3    H1 1521   3.783   0.672   3.497
  505TIP3    H2 1522   3.871   0.571   3.426
  506TIP3   OH2 1523   1.271   3.345   3.116
  506TIP3    H1 1524   1.328   3.408   3.071
  506TIP3    H2 1525   1.293   3.260   3.078
  507TIP3   OH2 1526   3.124   5.516   3.769
  507TIP3    H1 1527   3.123   5.611   3.769
  507TIP3    H2 1528   3.197   5.492   3.826
  508TIP3   OH2 1529   5.144   2.216   4.909
  508TIP3    H1 1530   5.060   2.195   4.868
  508TIP3    H2 1531   5.135   2.307   4.936
  509TIP3   OH2 1532   2.782   4.931   0.096
  509TIP3    H1 1533   2.705   4.905   0.147
  509TIP3    H2 1534   2.851   4.945   0.162
  510TIP3   OH2 1535   2.846   5.687   1.934
  510TIP3    H1 1536   2.897   5.762   1.964
  510TIP3    H2 1537   2.861   5.685   1.839
  511TIP3   OH2 1538   5.283   0.751   1.262
  511TIP3    H1 1539   5.279   0.679   1.325
  511TIP3    H2 1540   5.279   0.830   1.315
  512TIP3   OH2 1541   1.938   5.177   5.110
  512TIP3    H1 1542   1.887   5.224   5.177
  512TIP3    H2 1543   2.006   5.240   5.085
  513TIP3   OH2 1544   2.046   1.948   4.983
  513TIP3    H1 1545   2.058   1.863   5.025
  513TIP3    H2 1546   2.074   2.011   5.048
  514TIP3   OH2 1547   1.972   1.668   0.962
  514TIP3    H1 1548   2.002   1.756   0.986
  514TIP3    H2 1549   2.033   1.610   1.007
  515TIP3   OH2 1550   2.105   3.979   0.494
  515TIP3    H1 1551   2.146   3.909   0.545
  515TIP3    H2 1552   2.112   4.057   0.550
  516TIP3   OH2 1553   4.871   5.200   1.704
  516TIP3    H1 1554   4.939   5.264   1.679
  516TIP3    H2 1555   4.791   5.235   1.665
  517TIP3   OH2 1556   4.149   0.946   5.107
  517TIP3    H1 1557   4.197   0.906   5.179
  517TIP3    H2 1558   4.084   1.003   5.150
  518TIP3   OH2 1559   1.807   2.266   1.071
  518TIP3    H1 1560   1.714   2.274   1.092
  518TIP3    H2 1561   1.847   2.238   1.153
  519TIP3   OH2 1562   4.179   5.076   1.457
  519TIP3    H1 1563   4.095   5.112   1.485
  519TIP3    H2 1564   4.158   5.023   1.380
  520TIP3   OH2 1565   2.240   3.278   0.379
  520TIP3    H1 1566   2.154   3.304   0.410
  520TIP3    H2 1567   2.229   3.188   0.348
  521TIP3   OH2 1568   0.135   2.452   0.591
  521TIP3    H1 1569   0.098   2.421   0.674
  521TIP3    H2 1570   0.188   2.528   0.616
  522TIP3   OH2 1571   2.356   0.878   0.522
  522TIP3    H1 1572   2.264   0.890   0.546
  522TIP3    H2 1573   2.375   0.952   0.464
  523TIP3   OH2 1574   4.044   0.813   1.184
  523TIP3    H1 1575   4.102   0.761   1.240
  523TIP3    H2 1576   4.088   0.813   1.099
  524TIP3   OH2 1577   4.314   0.466   3.904
  524TIP3    H1 1578   4.249   0.449   3.972
  524TIP3    H2 1579   4.391   0.417   3.932
  525TIP3   OH2 1580   0.092   5.265   2.972
  525TIP3    H1 1581   0.156   5.299   2.909
  525TIP3    H2 1582   0.007   5.280   2.930
  526TIP3   OH2 1583   2.108   0.942   4.311
  526TIP3    H1 1584   2.114   1.013   4.246
  526TIP3    H2 1585   2.089   0.864   4.259
  527TIP3   OH2 1586   5.457   5.903   1.473
  527TIP3    H1 1587   5.476   5.985   1.519
  527TIP3    H2 1588   5.402   5.930   1.399
  528TIP3   OH2 1589   2.957   3.936   4.573
  528TIP3    H1 1590   2.977   3.913   4.663
  528TIP3    H2 1591   3.037   3.914   4.524
  529TIP3   OH2 1592   4.154   2.629   3.718
  529TIP3    H1 1593   4.083   2.576   3.683
  529TIP3    H2 1594   4.218   2.634   3.646
  530TIP3   OH2 1595   5.499   3.494   2.934
  530TIP3    H1 1596   5.444   3.431   2.888
  530TIP3    H2 1597   5.449   3.575   2.932
  531TIP3   OH2 1598   3.622   4.229   1.506
  531TIP3    H1 1599   3.637   4.321   1.529
  531TIP3    H2 1600   3.641   4.224   1.413
  532TIP3   OH2 1601   0.127   1.068   4.427
  532TIP3    H1 1602   0.222   1.069   4.423
  532TIP3    H2 1603   0.106   1.000   4.492
  533TIP3   OH2 1604   6.275   2.538   3.681
  533TIP3    H1 1605   6.209   2.607   3.689
  533TIP3    H2 1606   6.302   2.541   3.589
  534TIP3   OH2 1607   5.238   2.634   0.945
  534TIP3    H1 1608   5.164   2.645   0.885
  534TIP3    H2 1609   5.256   2.540   0.943
  535TIP3   OH2 1610   1.053   4.792   0.492
  535TIP3    H1 1611   1.149   4.781   0.490
  535TIP3    H2 1612   1.038   4.874   0.445
  536TIP3   OH2 1613   3.527   4.960   3.019
  536TIP3    H1 1614   3.514   4.903   2.943
  536TIP3    H2 1615   3.501   5.047   2.989
  537TIP3   OH2 1616   4.062   5.248   2.593
  537TIP3    H1 1617   3.982   5.243   2.540
  537TIP3    H2 1618   4.097   5.335   2.574
  538TIP3   OH2 1619   2.235   2.029   3.602
  538TIP3    H1 1620   2.222   2.123   3.589
  538TIP3    H2 1621   2.288   2.003   3.527
  539TIP3   OH2 1622   3.354   1.399   0.547
  539TIP3    H1 1623   3.424   1.347   0.587
  539TIP3    H2 1624   3.374   1.489   0.570
  540TIP3   OH2 1625   5.517   2.205   2.835
  540TIP3    H1 1626   5.453   2.275   2.846
  540TIP3    H2 1627   5.586   2.225   2.898
  541TIP3   OH2 1628   0.469   5.679   4.747
  541TIP3    H1 1629   0.435   5.736   4.678
  541TIP3    H2 1630   0.424   5.707   4.826
  542TIP3   OH2 1631   0.259   3.576   0.868
  542TIP3    H1 1632   0.234   3.629   0.943
  542TIP3    H2 1633   0.292   3.639   0.804
  543TIP3   OH2 1634   4.751   3.787   2.599
  543TIP3    H1 1635   4.826   3.743   2.559
  543TIP3    H2 1636   4.675   3.735   2.571
  544TIP3   OH2 1637   1.164   3.341   0.578
  544TIP3    H1 1638   1.205   3.417   0.620
  544TIP3    H2 1639   1.236   3.279   0.565
  545TIP3   OH2 1640   3.943   4.083   2.127
  545TIP3    H1 1641   3.928   4.166   2.171
  545TIP3    H2 1642   4.028   4.053   2.160
  546TIP3   OH2 1643   1.778   1.005   0.675
  546TIP3    H1 1644   1.786   1.007   0.580
  546TIP3    H2 1645   1.773   1.097   0.701
  547TIP3   OH2 1646   4.951   1.015   4.596
  547TIP3    H1 1647   4.943   1.062   4.513
  547TIP3    H2 1648   4.860   0.999   4.623
  548TIP3   OH2 1649   4.834   3.142   2.044
  548TIP3    H1 1650   4.819   3.057   2.003
  548TIP3    H2 1651   4.760   3.154   2.104
  549TIP3   OH2 1652   2.174   3.679   4.984
  549TIP3    H1 1653   2.216   3.739   5.045
  549TIP3    H2 1654   2.227   3.599   4.987
  550TIP3   OH2 1655   4.686   2.912   1.161
  550TIP3    H1 1656   4.612   2.880   1.109
  550TIP3    H2 1657   4.657   2.904   1.251
  551TIP3   OH2 1658   2.601   0.737   3.746
  551TIP3    H1 1659   2.510   0.733   3.715
  551TIP3    H2 1660   2.640   0.808   3.694
  552TIP3   OH2 1661   3.468   1.650   4.152
  552TIP3    H1 1662   3.553   1.645   4.194
  552TIP3    H2 1663   3.408   1.606   4.213
  553TIP3   OH2 1664   1.651   4.519   3.114
  553TIP3    H1 1665   1.638   4.526   3.209
  553TIP3    H2 1666   1.594   4.586   3.077
  554TIP3   OH2 1667   1.119   0.431   1.424
  554TIP3    H1 1668   1.195   0.469   1.379
  554TIP3    H2 1669   1.131   0.454   1.516
  555TIP3   OH2 1670   3.119   5.162   2.668
  555TIP3    H1 1671   3.028   5.140   2.648
  555TIP3    H2 1672   3.171   5.107   2.610
  556TIP3   OH2 1673   0.383   3.612   1.258
  556TIP3    H1 1674   0.448   3.669   1.218
  556TIP3    H2 1675   0.300   3.638   1.219
  557TIP3   OH2 1676   5.873   2.093   3.643
  557TIP3    H1 1677   5.820   2.158   3.689
  557TIP3    H2 1678   5.952   2.085   3.696
  558TIP3   OH2 1679   1.217   5.054   4.524
  558TIP3    H1 1680   1.247   4.989   4.460
  558TIP3    H2 1681   1.215   5.006   4.607
  559TIP3   OH2 1682   6.141   5.702   1.962
  559TIP3    H1 1683   6.148   5.735   1.872
  559TIP3    H2 1684   6.067   5.750   1.999
  560TIP3   OH2 1685   5.459   1.358   4.294
  560TIP3    H1 1686   5.375   1.389   4.260
  560TIP3    H2 1687   5.497   1.433   4.338
  561TIP3   OH2 1688   5.712   0.690   4.969
  561TIP3    H1 1689   5.781   0.650   4.917
  561TIP3    H2 1690   5.632   0.644   4.944
  562TIP3   OH2 1691   2.691   0.537   4.491
  562TIP3    H1 1692   2.741   0.570   4.417
  562TIP3    H2 1693   2.602   0.568   4.476
  563TIP3   OH2 1694   2.874   4.675   2.886
  563TIP3    H1 1695   2.862   4.671   2.791
  563TIP3    H2 1696   2.794   4.715   2.918
  564TIP3   OH2 1697   3.347   5.202   3.128
  564TIP3    H1 1698   3.282   5.228   3.193
  564TIP3    H2 1699   3.296   5.166   3.055
  565TIP3   OH2 1700   2.654   4.619   1.522
  565TIP3    H1 1701   2.729   4.589   1.574
  565TIP3    H2 1702   2.647   4.555   1.451
  566TIP3   OH2 1703   3.474   5.919   4.860
  566TIP3    H1 1704   3.407   5.960   4.806
  566TIP3    H2 1705   3.434   5.911   4.947
  567TIP3   OH2 1706   2.495   0.663   0.988
  567TIP3    H1 1707   2.400   0.671   0.988
  567TIP3    H2 1708   2.524   0.722   1.058
  568TIP3   OH2 1709   3.185   0.434   4.902
  568TIP3    H1 1710   3.251   0.409   4.967
  568TIP3    H2 1711   3.235   0.467   4.828
  569TIP3   OH2 1712   4.419   4.193   2.075
  569TIP3    H1 1713   4.329   4.225   2.083
  569TIP3    H2 1714   4.410   4.103   2.045
  570TIP3   OH2 1715   5.896   0.079   0.952
  570TIP3    H1 1716   5.903   0.015   0.880
  570TIP3    H2 1717   5.860   0.029   1.025
  571TIP3   OH2 1718   6.222   2.173   0.921
  571TIP3    H1 1719   6.154   2.211   0.976
  571TIP3    H2 1720   6.295   2.155   0.981
  572TIP3   OH2 1721   5.370   5.675   2.807
  572TIP3    H1 1722   5.431   5.624   2.753
  572TIP3    H2 1723   5.302   5.613   2.832
  573TIP3   OH2 1724   6.026   3.676   1.624
  573TIP3    H1 1725   5.947   3.725   1.597
  573TIP3    H2 1726   6.092   3.700   1.559
  574TIP3   OH2 1727   5.946   3.246   2.039
  574TIP3    H1 1728   5.902   3.318   1.994
  574TIP3    H2 1729   5.876   3.199   2.084
  575TIP3   OH2 1730   3.784   3.938   4.755
  575TIP3    H1 1731   3.738   4.016   4.723
  575TIP3    H2 1732   3.761   3.869   4.693
  576TIP3   OH2 1733   1.664   0.585   0.879
  576TIP3    H1 1734   1.653   0.669   0.924
  576TIP3    H2 1735   1.756   0.585   0.852
  577TIP3   OH2 1736   5.890   5.425   2.307
  577TIP3    H1 1737   5.862   5.515   2.291
  577TIP3    H2 1738   5.915   5.392   2.221
  578TIP3   OH2 1739   0.851   3.105   4.966
  578TIP3    H1 1740   0.901   3.136   4.891
  578TIP3    H2 1741   0.762   3.095   4.933
  579TIP3   OH2 1742   1.791   0.311   1.232
  579TIP3    H1 1743   1.793   0.371   1.307
  579TIP3    H2 1744   1.880   0.315   1.197
  580TIP3   OH2 1745   3.843   3.480   2.435
  580TIP3    H1 1746   3.768   3.456   2.381
  580TIP3    H2 1747   3.892   3.543   2.382
  581TIP3   OH2 1748   0.660   3.799   0.613
  581TIP3    H1 1749   0.661   3.875   0.671
  581TIP3    H2 1750   0.662   3.836   0.525
  582TIP3   OH2 1751   2.459   1.109   0.871
  582TIP3    H1 1752   2.516   1.034   0.887
  582TIP3    H2 1753   2.449   1.111   0.776
  583TIP3   OH2 1754   4.752   3.263   5.098
  583TIP3    H1 1755   4.802   3.290   5.021
  583TIP3    H2 1756   4.789   3.179   5.122
  584TIP3   OH2 1757   1.391   2.253   1.837
  584TIP3    H1 1758   1.311   2.245   1.786
  584TIP3    H2 1759   1.361   2.269   1.926
  585TIP3   OH2 1760   1.874   0.216   2.787
  585TIP3    H1 1761   1.816   0.145   2.760
  585TIP3    H2 1762   1.857   0.227   2.880
  586TIP3   OH2 1763   5.175   5.074   2.997
  586TIP3    H1 1764   5.194   5.037   3.083
  586TIP3    H2 1765   5.156   4.998   2.941
  587TIP3   OH2 1766   2.004   3.153   5.015
  587TIP3    H1 1767   2.099   3.166   5.011
  587TIP3    H2 1768   1.977   3.139   4.925
  588TIP3   OH2 1769   1.876   4.324   0.847
  588TIP3    H1 1770   1.885   4.338   0.753
  588TIP3    H2 1771   1.797   4.371   0.870
  589TIP3   OH2 1772   0.271   0.801   2.763
  589TIP3    H1 1773   0.203   0.749   2.805
  589TIP3    H2 1774   0.288   0.755   2.680
  590TIP3   OH2 1775   0.695   4.026   1.088
  590TIP3    H1 1776   0.667   3.956   1.146
  590TIP3    H2 1777   0.739   4.089   1.145
  591TIP3   OH2 1778   3.771   0.500   3.918
  591TIP3    H1 1779   3.820   0.421   3.940
  591TIP3    H2 1780   3.818   0.570   3.963
  592TIP3   OH2 1781   1.280   3.634   4.750
  592TIP3    H1 1782   1.350   3.636   4.816
  592TIP3    H2 1783   1.200   3.652   4.799
  593TIP3   OH2 1784   3.480   3.153   1.229
  593TIP3    H1 1785   3.566   3.195   1.223
  593TIP3    H2 1786   3.483   3.083   1.163
  594TIP3   OH2 1787   2.954   3.272   3.551
  594TIP3    H1 1788   2.917   3.243   3.634
  594TIP3    H2 1789   2.961   3.193   3.498
  595TIP3   OH2 1790   4.366   4.628   4.961
  595TIP3    H1 1791   4.322   4.546   4.982
  595TIP3    H2 1792   4.454   4.618   4.998
  596TIP3   OH2 1793   5.692   4.962   2.876
  596TIP3    H1 1794   5.645   5.010   2.944
  596TIP3    H2 1795   5.688   5.020   2.799
  597TIP3   OH2 1796   4.081   5.595   4.340
  597TIP3    H1 1797   4.172   5.611   4.315
  597TIP3    H2 1798   4.056   5.672   4.391
  598TIP3   OH2 1799   3.768   4.280   2.902
  598TIP3    H1 1800   3.707   4.349   2.876
  598TIP3    H2 1801   3.731   4.200   2.864
  599TIP3   OH2 1802   2.242   5.222   0.157
  599TIP3    H1 1803   2.156   5.251   0.188
  599TIP3    H2 1804   2.285   5.302   0.127
  600TIP3   OH2 1805   5.265   5.267   1.610
  600TIP3    H1 1806   5.202   5.335   1.587
  600TIP3    H2 1807   5.350   5.305   1.589
  601TIP3   OH2 1808   5.698   1.319   0.583
  601TIP3    H1 1809   5.780   1.272   0.595
  601TIP3    H2 1810   5.640   1.255   0.541
  602TIP3   OH2 1811   0.908   1.867   0.387
  602TIP3    H1 1812   0.882   1.943   0.334
  602TIP3    H2 1813   0.834   1.808   0.384
  603TIP3   OH2 1814   1.965   3.421   4.498
  603TIP3    H1 1815   1.903   3.362   4.457
  603TIP3    H2 1816   1.938   3.508   4.470
  604TIP3   OH2 1817   0.485   4.508   1.937
  604TIP3    H1 1818   0.569   4.478   1.903
  604TIP3    H2 1819   0.421   4.445   1.904
  605TIP3   OH2 1820   6.056   3.725   5.053
  605TIP3    H1 1821   6.140   3.722   5.098
  605TIP3    H2 1822   6.076   3.762   4.967
  606TIP3   OH2 1823   3.081   5.417   3.494
  606TIP3    H1 1824   3.076   5.465   3.577
  606TIP3    H2 1825   3.175   5.419   3.472
  607TIP3   OH2 1826   4.286   0.702   2.568
  607TIP3    H1 1827   4.245   0.621   2.539
  607TIP3    H2 1828   4.339   0.677   2.644
  608TIP3   OH2 1829   5.599   2.306   0.189
  608TIP3    H1 1830   5.519   2.320   0.240
  608TIP3    H2 1831   5.670   2.331   0.249
  609TIP3   OH2 1832   5.597   5.650   4.552
  609TIP3    H1 1833   5.619   5.630   4.643
  609TIP3    H2 1834   5.502   5.661   4.552
  610TIP3   OH2 1835   2.307   0.745   3.775
  610TIP3    H1 1836   2.259   0.682   3.721
  610TIP3    H2 1837   2.241   0.810   3.801
  611TIP3   OH2 1838   1.054   5.934   2.988
  611TIP3    H1 1839   1.103   5.853   3.002
  611TIP3    H2 1840   1.120   6.003   2.990
  612TIP3   OH2 1841   3.162   4.176   1.469
  612TIP3    H1 1842   3.166   4.267   1.441
  612TIP3    H2 1843   3.078   4.168   1.515
  613TIP3   OH2 1844   5.825   1.412   1.677
  613TIP3    H1 1845   5.753   1.432   1.617
  613TIP3    H2 1846   5.904   1.416   1.623
  614TIP3   OH2 1847   6.060   5.917   4.608
  614TIP3    H1 1848   6.097   6.005   4.602
  614TIP3    H2 1849   5.999   5.922   4.681
  615TIP3   OH2 1850   5.131   4.948   1.225
  615TIP3    H1 1851   5.062   4.964   1.289
  615TIP3    H2 1852   5.129   4.853   1.213
  616TIP3   OH2 1853   5.586   0.412   0.930
  616TIP3    H1 1854   5.566   0.432   1.021
  616TIP3    H2 1855   5.526   0.341   0.907
  617TIP3   OH2 1856   2.717   0.888   3.558
  617TIP3    H1 1857   2.682   0.956   3.499
  617TIP3    H2 1858   2.777   0.935   3.615
  618TIP3   OH2 1859   0.007   3.925   3.477
  618TIP3    H1 1860   0.092   3.951   3.514
  618TIP3    H2 1861   0.020   3.931   3.382
  619TIP3   OH2 1862   4.685   5.172   3.374
  619TIP3    H1 1863   4.779   5.165   3.356
  619TIP3    H2 1864   4.643   5.131   3.299
  620TIP3   OH2 1865   5.844   1.736   2.987
  620TIP3    H1 1866   5.846   1.761   3.079
  620TIP3    H2 1867   5.880   1.811   2.941
  621TIP3   OH2 1868   1.668   5.100   0.752
  621TIP3    H1 1869   1.673   5.130   0.843
  621TIP3    H2 1870   1.760   5.086   0.727
  622TIP3   OH2 1871   0.067   5.582   3.239
  622TIP3    H1 1872   0.108   5.635   3.171
  622TIP3    H2 1873  -0.007   5.635   3.270
  623TIP3   OH2 1874   0.225   0.841   1.057
  623TIP3    H1 1875   0.225   0.831   0.961
  623TIP3    H2 1876   0.314   0.818   1.084
  624TIP3   OH2 1877   5.129   5.702   0.269
  624TIP3    H1 1878   5.124   5.644   0.345
  624TIP3    H2 1879   5.194   5.661   0.212
  625TIP3   OH2 1880   3.227   3.862   3.420
  625TIP3    H1 1881   3.197   3.944   3.460
  625TIP3    H2 1882   3.292   3.889   3.355
  626TIP3   OH2 1883   1.962   2.229   3.686
  626TIP3    H1 1884   1.917   2.245   3.602
  626TIP3    H2 1885   1.989   2.137   3.682
  627TIP3   OH2 1886   3.619   4.581   0.672
  627TIP3    H1 1887   3.562   4.566   0.596
  627TIP3    H2 1888   3.660   4.496   0.688
  628TIP3   OH2 1889   5.670   4.113   1.162
  628TIP3    H1 1890   5.753   4.118   1.115
  628TIP3    H2 1891   5.680   4.038   1.221
  629TIP3   OH2 1892   0.436   0.374   3.707
  629TIP3    H1 1893   0.521   0.366   3.665
  629TIP3    H2 1894   0.437   0.461   3.747
  630TIP3   OH2 1895   4.057   1.230   3.801
  630TIP3    H1 1896   4.015   1.307   3.840
  630TIP3    H2 1897   4.005   1.213   3.722
  631TIP3   OH2 1898   0.245   1.655   3.405
  631TIP3    H1 1899   0.185   1.651   3.480
  631TIP3    H2 1900   0.197   1.704   3.338
  632TIP3   OH2 1901   0.719   1.030   3.558
  632TIP3    H1 1902   0.790   1.032   3.494
  632TIP3    H2 1903   0.720   0.941   3.593
  633TIP3   OH2 1904   3.144   4.379   1.756
  633TIP3    H1 1905   3.115   4.448   1.816
  633TIP3    H2 1906   3.063   4.338   1.725
  634TIP3   OH2 1907   5.851   2.560   1.096
  634TIP3    H1 1908   5.837   2.633   1.157
  634TIP3    H2 1909   5.765   2.542   1.059
  635TIP3   OH2 1910   3.607   2.346   1.011
  635TIP3    H1 1911   3.578   2.274   1.067
  635TIP3    H2 1912   3.571   2.325   0.924
  636TIP3   OH2 1913   2.722   3.903   4.425
  636TIP3    H1 1914   2.814   3.891   4.451
  636TIP3    H2 1915   2.725   3.973   4.360
  637TIP3   OH2 1916   0.546   4.963   3.224
  637TIP3    H1 1917   0.490   5.032   3.260
  637TIP3    H2 1918   0.558   4.902   3.296
  638TIP3   OH2 1919   4.299   3.298   0.815
  638TIP3    H1 1920   4.386   3.327   0.788
  638TIP3    H2 1921   4.296   3.205   0.795
  639TIP3   OH2 1922   1.342   4.789   2.371
  639TIP3    H1 1923   1.318   4.799   2.279
  639TIP3    H2 1924   1.434   4.812   2.375
  640TIP3   OH2 1925   0.049   1.379   0.690
  640TIP3    H1 1926   0.043   1.329   0.772
  640TIP3    H2 1927  -0.023   1.346   0.636
  641TIP3   OH2 1928   5.005   0.132   2.444
  641TIP3    H1 1929   5.035   0.223   2.448
  641TIP3    H2 1930   4.910   0.139   2.437
  642TIP3   OH2 1931   1.093   5.153   0.716
  642TIP3    H1 1932   1.002   5.151   0.748
  642TIP3    H2 1933   1.143   5.109   0.785
  643TIP3   OH2 1934   2.377   2.269   0.788
  643TIP3    H1 1935   2.458   2.320   0.785
  643TIP3    H2 1936   2.405   2.178   0.777
  644TIP3   OH2 1937   2.483   4.183   0.064
  644TIP3    H1 1938   2.560   4.141   0.102
  644TIP3    H2 1939   2.467   4.259   0.119
  645TIP3   OH2 1940   3.815   0.530   4.882
  645TIP3    H1 1941   3.812   0.561   4.972
  645TIP3    H2 1942   3.801   0.608   4.829
  646TIP3   OH2 1943   0.819   1.425   4.450
  646TIP3    H1 1944   0.866   1.399   4.371
  646TIP3    H2 1945   0.887   1.456   4.510
  647TIP3   OH2 1946   3.539   3.568   0.246
  647TIP3    H1 1947   3.510   3.478   0.264
  647TIP3    H2 1948   3.634   3.563   0.244
  648TIP3   OH2 1949   3.113   0.417   0.339
  648TIP3    H1 1950   3.120   0.363   0.418
  648TIP3    H2 1951   3.155   0.364   0.270
  649TIP3   OH2 1952   1.798   1.453   3.134
  649TIP3    H1 1953   1.785   1.547   3.129
  649TIP3    H2 1954   1.874   1.443   3.191
  650TIP3   OH2 1955   0.720   2.396   0.830
  650TIP3    H1 1956   0.803   2.400   0.782
  650TIP3    H2 1957   0.655   2.431   0.769
  651TIP3   OH2 1958   0.896   5.586   2.033
  651TIP3    H1 1959   0.986   5.600   2.061
  651TIP3    H2 1960   0.843   5.598   2.112
  652TIP3   OH2 1961   5.242   0.686   3.485
  652TIP3    H1 1962   5.181   0.640   3.427
  652TIP3    H2 1963   5.279   0.617   3.541
  653TIP3   OH2 1964   2.825   2.752   4.681
  653TIP3    H1 1965   2.902   2.785   4.634
  653TIP3    H2 1966   2.759   2.738   4.613
  654TIP3   OH2 1967   5.134   0.376   3.774
  654TIP3    H1 1968   5.121   0.282   3.765
  654TIP3    H2 1969   5.053   0.407   3.816
  655TIP3   OH2 1970   2.939   3.152   0.511
  655TIP3    H1 1971   2.847   3.158   0.539
  655TIP3    H2 1972   2.986   3.127   0.590
  656TIP3   OH2 1973   4.571   2.562   0.692
  656TIP3    H1 1974   4.609   2.641   0.729
  656TIP3    H2 1975   4.588   2.494   0.757
  657TIP3   OH2 1976   1.223   1.859   1.059
  657TIP3    H1 1977   1.310   1.867   1.022
  657TIP3    H2 1978   1.235   1.868   1.153
  658TIP3   OH2 1979   1.443   5.406   0.176
  658TIP3    H1 1980   1.519   5.465   0.181
  658TIP3    H2 1981   1.400   5.416   0.261
  659TIP3   OH2 1982   4.102   0.292   1.893
  659TIP3    H1 1983   4.177   0.320   1.842
  659TIP3    H2 1984   4.139   0.241   1.965
  660TIP3   OH2 1985   3.754   1.649   2.011
  660TIP3    H1 1986   3.812   1.641   2.087
  660TIP3    H2 1987   3.809   1.629   1.936
  661TIP3   OH2 1988   2.669   5.506   2.039
  661TIP3    H1 1989   2.600   5.495   1.974
  661TIP3    H2 1990   2.738   5.554   1.992
  662TIP3   OH2 1991   3.146   0.506   2.485
  662TIP3    H1 1992   3.185   0.557   2.556
  662TIP3    H2 1993   3.052   0.526   2.490
  663TIP3   OH2 1994   1.568   3.820   1.678
  663TIP3    H1 1995   1.602   3.851   1.594
  663TIP3    H2 1996   1.542   3.729   1.662
  664TIP3   OH2 1997   1.959   1.873   1.699
  664TIP3    H1 1998   1.933   1.959   1.732
  664TIP3    H2 1999   1.986   1.889   1.609
  665TIP3   OH2 2000   0.195   3.136   5.149
  665TIP3    H1 2001   0.214   3.226   5.124
  665TIP3    H2 2002   0.103   3.123   5.126
  666TIP3   OH2 2003   5.706   2.396   3.759
  666TIP3    H1 2004   5.630   2.364   3.709
  666TIP3    H2 2005   5.676   2.397   3.850
  667TIP3   OH2 2006   4.898   5.831   0.971
  667TIP3    H1 2007   4.887   5.871   1.057
  667TIP3    H2 2008   4.991   5.838   0.952
  668TIP3   OH2 2009   6.351   2.916   4.317
  668TIP3    H1 2010   6.299   2.967   4.255
  668TIP3    H2 2011   6.344   2.965   4.399
  669TIP3   OH2 2012  -0.008   0.027   0.590
  669TIP3    H1 2013   0.063  -0.029   0.560
  669TIP3    H2 2014   0.019   0.115   0.566
  670TIP3   OH2 2015   1.333   4.362   0.742
  670TIP3    H1 2016   1.421   4.378   0.707
  670TIP3    H2 2017   1.298   4.292   0.688
  671TIP3   OH2 2018   1.102   0.766   4.991
  671TIP3    H1 2019   1.050   0.800   5.063
  671TIP3    H2 2020   1.149   0.842   4.957
  672TIP3   OH2 2021   2.473   2.866   0.923
  672TIP3    H1 2022   2.488   2.905   1.010
  672TIP3    H2 2023   2.477   2.940   0.863
  673TIP3   OH2 2024   4.954   4.507   4.049
  673TIP3    H1 2025   4.921   4.438   4.107
  673TIP3    H2 2026   4.876   4.537   4.001
  674TIP3   OH2 2027   1.963   1.055   2.023
  674TIP3    H1 2028   1.880   1.033   2.066
  674TIP3    H2 2029   1.992   1.136   2.066
  675TIP3   OH2 2030   6.082   5.655   4.867
  675TIP3    H1 2031   6.076   5.747   4.842
  675TIP3    H2 2032   6.021   5.610   4.809
  676TIP3   OH2 2033   4.792   1.283   2.425
  676TIP3    H1 2034   4.850   1.299   2.500
  676TIP3    H2 2035   4.716   1.339   2.441
  677TIP3   OH2 2036   0.845   4.802   4.656
  677TIP3    H1 2037   0.774   4.785   4.595
  677TIP3    H2 2038   0.919   4.752   4.621
  678TIP3   OH2 2039   6.137   5.386   3.992
  678TIP3    H1 2040   6.082   5.423   4.061
  678TIP3    H2 2041   6.170   5.462   3.944
  679TIP3   OH2 2042   3.678   5.601   0.814
  679TIP3    H1 2043   3.616   5.537   0.851
  679TIP3    H2 2044   3.623   5.662   0.765
  680TIP3   OH2 2045   6.145   3.251   2.878
  680TIP3    H1 2046   6.100   3.321   2.925
  680TIP3    H2 2047   6.085   3.176   2.884
  681TIP3   OH2 2048   0.119   1.877   1.553
  681TIP3    H1 2049   0.091   1.790   1.583
  681TIP3    H2 2050   0.082   1.885   1.465
  682TIP3   OH2 2051   1.898   5.879   0.424
  682TIP3    H1 2052   1.818   5.838   0.390
  682TIP3    H2 2053   1.891   5.970   0.396
  683TIP3   OH2 2054   2.109   1.503   4.807
  683TIP3    H1 2055   2.151   1.476   4.888
  683TIP3    H2 2056   2.026   1.542   4.835
  684TIP3   OH2 2057   0.354   4.880   1.941
  684TIP3    H1 2058   0.321   4.965   1.911
  684TIP3    H2 2059   0.431   4.901   1.993
  685TIP3   OH2 2060   3.968   3.517   4.877
  685TIP3    H1 2061   3.874   3.505   4.873
  685TIP3    H2 2062   3.992   3.558   4.794
  686TIP3   OH2 2063   3.987   1.851   1.863
  686TIP3    H1 2064   3.908   1.824   1.910
  686TIP3    H2 2065   3.970   1.941   1.837
  687TIP3   OH2 2066   4.728   2.782   1.569
  687TIP3    H1 2067   4.792   2.756   1.635
  687TIP3    H2 2068   4.742   2.721   1.497
  688TIP3   OH2 2069   4.751   0.411   0.888
  688TIP3    H1 2070   4.753   0.321   0.920
  688TIP3    H2 2071   4.698   0.408   0.808
  689TIP3   OH2 2072   1.918   1.948   0.494
  689TIP3    H1 2073   1.868   1.910   0.566
  689TIP3    H2 2074   1.877   1.914   0.414
  690TIP3   OH2 2075   4.136   2.736   4.666
  690TIP3    H1 2076   4.070   2.678   4.627
  690TIP3    H2 2077   4.113   2.738   4.759
  691TIP3   OH2 2078   1.914   0.052   0.338
  691TIP3    H1 2079   1.824   0.025   0.355
  691TIP3    H2 2080   1.964   0.013   0.409
  692TIP3   OH2 2081   1.692   4.657   0.809
  692TIP3    H1 2082   1.758   4.633   0.744
  692TIP3    H2 2083   1.734   4.724   0.863
  693TIP3   OH2 2084   1.365   3.797   0.925
  693TIP3    H1 2085   1.316   3.803   0.843
  693TIP3    H2 2086   1.449   3.839   0.906
  694TIP3   OH2 2087   1.469   2.953   2.920
  694TIP3    H1 2088   1.515   2.870   2.911
  694TIP3    H2 2089   1.403   2.952   2.851
  695TIP3   OH2 2090   2.962   3.476   4.533
  695TIP3    H1 2091   3.045   3.438   4.564
  695TIP3    H2 2092   2.919   3.506   4.613
  696TIP3   OH2 2093   0.798   3.116   0.117
  696TIP3    H1 2094   0.725   3.084   0.064
  696TIP3    H2 2095   0.757   3.147   0.198
  697TIP3   OH2 2096   1.863   4.441   2.596
  697TIP3    H1 2097   1.912   4.360   2.605
  697TIP3    H2 2098   1.846   4.469   2.686
  698TIP3   OH2 2099   2.523   5.762   3.604
  698TIP3    H1 2100   2.449   5.753   3.544
  698TIP3    H2 2101   2.599   5.777   3.547
  699TIP3   OH2 2102   1.877   3.522   3.259
  699TIP3    H1 2103   1.799   3.472   3.233
  699TIP3    H2 2104   1.865   3.538   3.352
  700TIP3   OH2 2105   0.417   2.297   3.516
  700TIP3    H1 2106   0.396   2.270   3.427
  700TIP3    H2 2107   0.347   2.261   3.570
  701TIP3   OH2 2108   3.889   0.602   0.885
  701TIP3    H1 2109   3.818   0.646   0.840
  701TIP3    H2 2110   3.959   0.596   0.819
  702TIP3   OH2 2111   1.019   3.238   2.117
  702TIP3    H1 2112   1.064   3.298   2.057
  702TIP3    H2 2113   0.929   3.233   2.084
  703TIP3   OH2 2114   3.979   2.424   3.605
  703TIP3    H1 2115   3.992   2.365   3.530
  703TIP3    H2 2116   4.012   2.375   3.680
  704TIP3   OH2 2117   4.518   4.948   5.058
  704TIP3    H1 2118   4.585   4.965   4.992
  704TIP3    H2 2119   4.545   4.866   5.098
  705TIP3   OH2 2120   4.957   4.232   4.164
  705TIP3    H1 2121   5.044   4.221   4.203
  705TIP3    H2 2122   4.897   4.206   4.234
  706TIP3   OH2 2123   0.454   0.989   3.427
  706TIP3    H1 2124   0.475   0.919   3.366
  706TIP3    H2 2125   0.531   0.997   3.483
  707TIP3   OH2 2126   4.258   0.347   1.234
  707TIP3    H1 2127   4.333   0.405   1.243
  707TIP3    H2 2128   4.294   0.259   1.246
  708TIP3   OH2 2129   1.246   4.117   0.912
  708TIP3    H1 2130   1.333   4.155   0.921
  708TIP3    H2 2131   1.225   4.125   0.819
  709TIP3   OH2 2132   3.477   3.471   1.760
  709TIP3    H1 2133   3.390   3.443   1.732
  709TIP3    H2 2134   3.474   3.566   1.756
  710TIP3   OH2 2135   2.127   2.854   0.552
  710TIP3    H1 2136   2.213   2.862   0.594
  710TIP3    H2 2137   2.127   2.766   0.515
  711TIP3   OH2 2138   5.001   0.173   1.150
  711TIP3    H1 2139   4.986   0.122   1.070
  711TIP3    H2 2140   5.081   0.222   1.132
  712TIP3   OH2 2141   2.287   2.417   4.714
  712TIP3    H1 2142   2.280   2.324   4.694
  712TIP3    H2 2143   2.200   2.441   4.746
  713TIP3   OH2 2144   1.197   0.338   3.332
  713TIP3    H1 2145   1.275   0.367   3.285
  713TIP3    H2 2146   1.141   0.300   3.264
  714TIP3   OH2 2147   3.926   5.363   1.900
  714TIP3    H1 2148   3.978   5.356   1.980
  714TIP3    H2 2149   3.839   5.330   1.925
  715TIP3   OH2 2150   0.027   4.175   2.321
  715TIP3    H1 2151  -0.055   4.129   2.339
  715TIP3    H2 2152   0.044   4.157   2.228
  716TIP3   OH2 2153   2.178   3.552   1.354
  716TIP3    H1 2154   2.201   3.464   1.322
  716TIP3    H2 2155   2.101   3.538   1.409
  717TIP3   OH2 2156   4.557   3.018   0.115
  717TIP3    H1 2157   4.524   2.990   0.200
  717TIP3    H2 2158   4.480   3.050   0.069
  718TIP3   OH2 2159   3.007   2.767   3.824
  718TIP3    H1 2160   2.941   2.698   3.829
  718TIP3    H2 2161   3.087   2.722   3.796
  719TIP3   OH2 2162   0.895   3.296   4.508
  719TIP3    H1 2163   0.974   3.297   4.454
  719TIP3    H2 2164   0.841   3.226   4.470
  720TIP3   OH2 2165   0.504   1.279   3.001
  720TIP3    H1 2166   0.454   1.263   3.081
  720TIP3    H2 2167   0.438   1.291   2.933
  721TIP3   OH2 2168   3.059   0.948   1.053
  721TIP3    H1 2169   3.039   0.954   1.147
  721TIP3    H2 2170   3.144   0.991   1.044
  722TIP3   OH2 2171   5.263   2.444   3.911
  722TIP3    H1 2172   5.197   2.418   3.847
  722TIP3    H2 2173   5.254   2.539   3.917
  723TIP3   OH2 2174   6.268   3.676   4.147
  723TIP3    H1 2175   6.266   3.609   4.079
  723TIP3    H2 2176   6.214   3.747   4.112
  724TIP3   OH2 2177   2.607   2.317   0.427
  724TIP3    H1 2178   2.642   2.294   0.340
  724TIP3    H2 2179   2.613   2.235   0.476
  725TIP3   OH2 2180   0.864   1.391   4.891
  725TIP3    H1 2181   0.872   1.315   4.834
  725TIP3    H2 2182   0.796   1.367   4.955
  726TIP3   OH2 2183   2.204   5.269   4.219
  726TIP3    H1 2184   2.238   5.192   4.264
  726TIP3    H2 2185   2.178   5.328   4.290
  727TIP3   OH2 2186   0.650   3.729   4.161
  727TIP3    H1 2187   0.558   3.721   4.133
  727TIP3    H2 2188   0.669   3.822   4.153
  728TIP3   OH2 2189   4.676   0.757   1.822
  728TIP3    H1 2190   4.740   0.725   1.759
  728TIP3    H2 2191   4.654   0.845   1.791
  729TIP3   OH2 2192   1.098   1.282   0.568
  729TIP3    H1 2193   1.102   1.234   0.650
  729TIP3    H2 2194   1.006   1.275   0.541
  730TIP3   OH2 2195   6.293   5.914   1.054
  730TIP3    H1 2196   6.268   5.957   1.136
  730TIP3    H2 2197   6.381   5.880   1.071
  731TIP3   OH2 2198   0.992   2.693   0.288
  731TIP3    H1 2199   1.053   2.621   0.304
  731TIP3    H2 2200   0.999   2.711   0.195
  732TIP3   OH2 2201   5.787   2.753   1.943
  732TIP3    H1 2202   5.832   2.748   2.028
  732TIP3    H2 2203   5.735   2.673   1.940
  733TIP3   OH2 2204   5.375   5.068   2.349
  733TIP3    H1 2205   5.464   5.067   2.313
  733TIP3    H2 2206   5.383   5.117   2.431
  734TIP3   OH2 2207   0.858   0.151   3.530
  734TIP3    H1 2208   0.893   0.072   3.572
  734TIP3    H2 2209   0.936   0.205   3.515
  735TIP3   OH2 2210   0.557   4.710   0.715
  735TIP3    H1 2211   0.566   4.705   0.620
  735TIP3    H2 2212   0.476   4.662   0.735
  736TIP3   OH2 2213   5.762   0.569   2.743
  736TIP3    H1 2214   5.825   0.608   2.682
  736TIP3    H2 2215   5.756   0.632   2.815
  737TIP3   OH2 2216   4.673   5.297   2.817
  737TIP3    H1 2217   4.636   5.320   2.732
  737TIP3    H2 2218   4.658   5.202   2.825
  738TIP3   OH2 2219   1.573   0.704   5.129
  738TIP3    H1 2220   1.478   0.697   5.128
  738TIP3    H2 2221   1.600   0.678   5.041
  739TIP3   OH2 2222  -0.006   0.240   3.792
  739TIP3    H1 2223   0.078   0.200   3.770
  739TIP3    H2 2224  -0.069   0.195   3.736
  740TIP3   OH2 2225   3.924   5.259   3.836
  740TIP3    H1 2226   3.831   5.274   3.819
  740TIP3    H2 2227   3.968   5.280   3.753
  741TIP3   OH2 2228   2.079   3.873   2.932
  741TIP3    H1 2229   2.007   3.833   2.980
  741TIP3    H2 2230   2.038   3.909   2.853
  742TIP3   OH2 2231   4.212   1.282   5.066
  742TIP3    H1 2232   4.254   1.319   5.144
  742TIP3    H2 2233   4.148   1.219   5.101
  743TIP3   OH2 2234   4.771   0.104   3.099
  743TIP3    H1 2235   4.707   0.158   3.144
  743TIP3    H2 2236   4.851   0.112   3.151
  744TIP3   OH2 2237   4.523   5.629   1.603
  744TIP3    H1 2238   4.468   5.673   1.668
  744TIP3    H2 2239   4.598   5.686   1.592
  745TIP3   OH2 2240   1.173   1.091   0.792
  745TIP3    H1 2241   1.221   1.071   0.872
  745TIP3    H2 2242   1.184   1.013   0.737
  746TIP3   OH2 2243   0.201   5.837   1.063
  746TIP3    H1 2244   0.292   5.850   1.033
  746TIP3    H2 2245   0.189   5.742   1.060
  747TIP3   OH2 2246   4.718   5.718   3.279
  747TIP3    H1 2247   4.765   5.636   3.262
  747TIP3    H2 2248   4.668   5.734   3.199
  748TIP3   OH2 2249   2.112   1.293   2.956
  748TIP3    H1 2250   2.091   1.217   3.010
  748TIP3    H2 2251   2.032   1.310   2.906
  749TIP3   OH2 2252   0.245   5.145   1.091
  749TIP3    H1 2253   0.186   5.084   1.047
  749TIP3    H2 2254   0.333   5.116   1.066
  750TIP3   OH2 2255   4.784   1.427   2.836
  750TIP3    H1 2256   4.698   1.462   2.860
  750TIP3    H2 2257   4.833   1.427   2.918
  751TIP3   OH2 2258   2.403   1.247   1.114
  751TIP3    H1 2259   2.361   1.209   1.037
  751TIP3    H2 2260   2.497   1.243   1.095
  752TIP3   OH2 2261   5.379   4.531   3.466
  752TIP3    H1 2262   5.285   4.517   3.465
  752TIP3    H2 2263   5.398   4.562   3.555
  753TIP3   OH2 2264   2.547   2.425   2.354
  753TIP3    H1 2265   2.584   2.379   2.279
  753TIP3    H2 2266   2.489   2.360   2.396
  754TIP3   OH2 2267   3.172   4.448   4.859
  754TIP3    H1 2268   3.264   4.470   4.845
  754TIP3    H2 2269   3.149   4.391   4.786
  755TIP3   OH2 2270   6.094   1.377   1.554
  755TIP3    H1 2271   6.160   1.313   1.584
  755TIP3    H2 2272   6.123   1.402   1.467
  756TIP3   OH2 2273   2.346   4.172   3.095
  756TIP3    H1 2274   2.345   4.134   3.008
  756TIP3    H2 2275   2.254   4.173   3.122
  757TIP3   OH2 2276   1.239   4.238   2.294
  757TIP3    H1 2277   1.218   4.327   2.322
  757TIP3    H2 2278   1.154   4.193   2.291
  758TIP3   OH2 2279   1.260   4.511   0.955
  758TIP3    H1 2280   1.288   4.464   0.876
  758TIP3    H2 2281   1.304   4.596   0.949
  759TIP3   OH2 2282   5.204   4.682   1.196
  759TIP3    H1 2283   5.177   4.607   1.143
  759TIP3    H2 2284   5.275   4.722   1.146
  760TIP3   OH2 2285   1.803   3.449   4.984
  760TIP3    H1 2286   1.724   3.494   4.953
  760TIP3    H2 2287   1.868   3.463   4.916
  761TIP3   OH2 2288   5.385   2.056   3.623
  761TIP3    H1 2289   5.415   2.085   3.709
  761TIP3    H2 2290   5.441   2.102   3.561
  762TIP3   OH2 2291   0.411   0.774   4.793
  762TIP3    H1 2292   0.355   0.763   4.716
  762TIP3    H2 2293   0.383   0.706   4.853
  763TIP3   OH2 2294   3.852   2.953  -0.018
  763TIP3    H1 2295   3.834   3.005   0.060
  763TIP3    H2 2296   3.818   2.866   0.002
  764TIP3   OH2 2297   5.196   1.175   4.657
  764TIP3    H1 2298   5.113   1.130   4.644
  764TIP3    H2 2299   5.258   1.105   4.679
  765TIP3   OH2 2300   5.360   0.032   2.407
  765TIP3    H1 2301   5.293   0.003   2.469
  765TIP3    H2 2302   5.397   0.111   2.447
  766TIP3   OH2 2303   4.162   2.923   3.767
  766TIP3    H1 2304   4.101   2.854   3.742
  766TIP3    H2 2305   4.245   2.878   3.783
  767TIP3   OH2 2306   4.884   1.891   3.692
  767TIP3    H1 2307   4.895   1.981   3.664
  767TIP3    H2 2308   4.893   1.895   3.788
  768TIP3   OH2 2309   3.952   5.006   4.300
  768TIP3    H1 2310   3.941   4.927   4.353
  768TIP3    H2 2311   4.035   5.044   4.331
  769TIP3   OH2 2312   3.114   2.901   2.438
  769TIP3    H1 2313   3.047   2.913   2.370
  769TIP3    H2 2314   3.163   2.824   2.409
  770TIP3   OH2 2315   1.227   2.538   1.596
  770TIP3    H1 2316   1.149   2.535   1.652
  770TIP3    H2 2317   1.300   2.546   1.657
  771TIP3   OH2 2318   0.343   4.300   3.147
  771TIP3    H1 2319   0.278   4.366   3.123
  771TIP3    H2 2320   0.382   4.274   3.064
  772TIP3   OH2 2321   4.099   1.595   3.261
  772TIP3    H1 2322   4.187   1.603   3.225
  772TIP3    H2 2323   4.081   1.501   3.259
  773TIP3   OH2 2324   1.989   3.473   1.590
  773TIP3    H1 2325   1.917   3.414   1.569
  773TIP3    H2 2326   1.960   3.559   1.560
  774TIP3   OH2 2327   1.042   1.446   0.128
  774TIP3    H1 2328   0.981   1.441   0.202
  774TIP3    H2 2329   1.030   1.534   0.093
  775TIP3   OH2 2330   5.665   1.972   1.349
  775TIP3    H1 2331   5.642   2.060   1.317
  775TIP3    H2 2332   5.758   1.963   1.326
  776TIP3   OH2 2333   0.690   5.443   0.753
  776TIP3    H1 2334   0.605   5.465   0.714
  776TIP3    H2 2335   0.754   5.492   0.702
  777TIP3   OH2 2336   4.908   0.643   2.233
  777TIP3    H1 2337   4.902   0.679   2.321
  777TIP3    H2 2338   4.850   0.697   2.180
  778TIP3   OH2 2339   4.847   5.198   2.047
  778TIP3    H1 2340   4.847   5.162   2.135
  778TIP3    H2 2341   4.805   5.131   1.993
  779TIP3   OH2 2342   1.229   5.900   0.927
  779TIP3    H1 2343   1.267   5.837   0.989
  779TIP3    H2 2344   1.266   5.984   0.952
  780TIP3   OH2 2345   4.912   2.237   0.632
  780TIP3    H1 2346   4.916   2.284   0.715
  780TIP3    H2 2347   4.861   2.159   0.651
  781TIP3   OH2 2348   1.278   3.277   4.081
  781TIP3    H1 2349   1.283   3.197   4.028
  781TIP3    H2 2350   1.244   3.343   4.022
  782TIP3   OH2 2351   3.127   1.683   2.607
  782TIP3    H1 2352   3.132   1.593   2.575
  782TIP3    H2 2353   3.116   1.736   2.528
  783TIP3   OH2 2354   2.381   4.388   4.248
  783TIP3    H1 2355   2.452   4.355   4.304
  783TIP3    H2 2356   2.423   4.407   4.165
  784TIP3   OH2 2357   2.891   3.736   2.443
  784TIP3    H1 2358   2.880   3.821   2.400
  784TIP3    H2 2359   2.803   3.698   2.444
  785TIP3   OH2 2360   0.403   1.138   3.710
  785TIP3    H1 2361   0.339   1.120   3.641
  785TIP3    H2 2362   0.436   1.225   3.691
  786TIP3   OH2 2363   6.130   4.346   4.432
  786TIP3    H1 2364   6.183   4.304   4.365
  786TIP3    H2 2365   6.180   4.423   4.457
  787TIP3   OH2 2366   5.807   0.956   1.950
  787TIP3    H1 2367   5.835   1.038   1.910
  787TIP3    H2 2368   5.886   0.902   1.952
  788TIP3   OH2 2369   3.655   0.551   0.353
  788TIP3    H1 2370   3.586   0.486   0.335
  788TIP3    H2 2371   3.724   0.531   0.291
  789TIP3   OH2 2372   2.650   1.016   2.892
  789TIP3    H1 2373   2.649   0.937   2.838
  789TIP3    H2 2374   2.572   1.008   2.946
  790TIP3   OH2 2375   6.216   3.313   2.610
  790TIP3    H1 2376   6.229   3.307   2.705
  790TIP3    H2 2377   6.283   3.255   2.573
  791TIP3   OH2 2378   1.446   1.260   1.474
  791TIP3    H1 2379   1.431   1.354   1.485
  791TIP3    H2 2380   1.490   1.233   1.554
  792TIP3   OH2 2381   1.106   2.160   1.362
  792TIP3    H1 2382   1.149   2.178   1.278
  792TIP3    H2 2383   1.056   2.080   1.348
  793TIP3   OH2 2384   3.857   3.975   1.204
  793TIP3    H1 2385   3.946   3.945   1.186
  793TIP3    H2 2386   3.848   3.964   1.299
  794TIP3   OH2 2387   4.288   5.691   5.198
  794TIP3    H1 2388   4.202   5.650   5.213
  794TIP3    H2 2389   4.323   5.646   5.121
  795TIP3   OH2 2390   3.319   4.529   4.335
  795TIP3    H1 2391   3.379   4.592   4.295
  795TIP3    H2 2392   3.335   4.536   4.429
  796TIP3   OH2 2393   1.983   5.752   3.794
  796TIP3    H1 2394   2.055   5.717   3.742
  796TIP3    H2 2395   1.948   5.677   3.841
  797TIP3   OH2 2396   0.518   4.408   4.224
  797TIP3    H1 2397   0.602   4.363   4.226
  797TIP3    H2 2398   0.503   4.429   4.132
  798TIP3   OH2 2399   3.857   2.945   0.568
  798TIP3    H1 2400   3.844   3.018   0.508
  798TIP3    H2 2401   3.874   2.870   0.511
  799TIP3   OH2 2402   6.063   3.377   4.153
  799TIP3    H1 2403   6.031   3.406   4.068
  799TIP3    H2 2404   6.042   3.283   4.155
  800TIP3   OH2 2405   2.933   5.382   1.716
  800TIP3    H1 2406   2.942   5.452   1.651
  800TIP3    H2 2407   2.867   5.324   1.680
  801TIP3   OH2 2408   1.356   3.691   1.406
  801TIP3    H1 2409   1.429   3.706   1.346
  801TIP3    H2 2410   1.292   3.759   1.383
  802TIP3   OH2 2411   5.683   3.445   0.504
  802TIP3    H1 2412   5.761   3.406   0.465
  802TIP3    H2 2413   5.609   3.407   0.456
  803TIP3   OH2 2414   0.329   4.898   4.689
  803TIP3    H1 2415   0.329   4.836   4.615
  803TIP3    H2 2416   0.268   4.859   4.751
  804TIP3   OH2 2417   3.130   1.651   1.874
  804TIP3    H1 2418   3.202   1.679   1.818
  804TIP3    H2 2419   3.102   1.567   1.837
  805TIP3   OH2 2420   1.961   0.571   1.296
  805TIP3    H1 2421   1.968   0.636   1.366
  805TIP3    H2 2422   1.982   0.488   1.339
  806TIP3   OH2 2423   4.717   0.367   1.870
  806TIP3    H1 2424   4.631   0.344   1.905
  806TIP3    H2 2425   4.775   0.366   1.946
  807TIP3   OH2 2426   0.300   4.530   0.914
  807TIP3    H1 2427   0.256   4.506   0.833
  807TIP3    H2 2428   0.287   4.625   0.922
  808TIP3   OH2 2429   0.339   3.425   1.740
  808TIP3    H1 2430   0.244   3.410   1.735
  808TIP3    H2 2431   0.356   3.492   1.674
  809TIP3   OH2 2432   3.847   4.735   4.471
  809TIP3    H1 2433   3.866   4.751   4.564
  809TIP3    H2 2434   3.909   4.666   4.446
  810TIP3   OH2 2435   0.551   1.548   4.794
  810TIP3    H1 2436   0.537   1.620   4.855
  810TIP3    H2 2437   0.643   1.557   4.768
  811TIP3   OH2 2438   0.169   0.747   1.351
  811TIP3    H1 2439   0.148   0.735   1.258
  811TIP3    H2 2440   0.228   0.823   1.352
  812TIP3   OH2 2441   4.822   0.356   1.283
  812TIP3    H1 2442   4.854   0.446   1.289
  812TIP3    H2 2443   4.902   0.303   1.277
  813TIP3   OH2 2444   5.674   5.633   3.863
  813TIP3    H1 2445   5.725   5.693   3.809
  813TIP3    H2 2446   5.629   5.689   3.926
  814TIP3   OH2 2447   5.183   0.718   0.103
  814TIP3    H1 2448   5.102   0.766   0.120
  814TIP3    H2 2449   5.252   0.772   0.142
  815TIP3   OH2 2450   1.259   3.077   2.285
  815TIP3    H1 2451   1.249   3.106   2.376
  815TIP3    H2 2452   1.190   3.123   2.238
  816TIP3   OH2 2453   6.034   0.228   4.910
  816TIP3    H1 2454   6.068   0.192   4.829
  816TIP3    H2 2455   6.111   0.255   4.960
  817TIP3   OH2 2456   4.702   2.534   0.128
  817TIP3    H1 2457   4.701   2.568   0.039
  817TIP3    H2 2458   4.682   2.441   0.119
  818TIP3   OH2 2459   5.108   4.959   0.075
  818TIP3    H1 2460   5.133   5.042   0.116
  818TIP3    H2 2461   5.020   4.975   0.039
  819TIP3   OH2 2462   4.835   0.692   1.617
  819TIP3    H1 2463   4.931   0.694   1.610
  819TIP3    H2 2464   4.813   0.599   1.615
  820TIP3   OH2 2465   0.587   2.367   2.213
  820TIP3    H1 2466   0.548   2.281   2.203
  820TIP3    H2 2467   0.624   2.387   2.127
  821TIP3   OH2 2468   1.925   2.161   4.436
  821TIP3    H1 2469   1.943   2.067   4.427
  821TIP3    H2 2470   2.005   2.197   4.475
  822TIP3   OH2 2471   2.317   3.686   1.581
  822TIP3    H1 2472   2.352   3.749   1.644
  822TIP3    H2 2473   2.264   3.738   1.521
  823TIP3   OH2 2474   5.905   1.939   4.590
  823TIP3    H1 2475   5.874   1.912   4.676
  823TIP3    H2 2476   5.996   1.965   4.605
  824TIP3   OH2 2477   5.699   5.153   4.753
  824TIP3    H1 2478   5.772   5.210   4.727
  824TIP3    H2 2479   5.627   5.214   4.772
  825TIP3   OH2 2480   0.749   5.093   0.278
  825TIP3    H1 2481   0.680   5.053   0.331
  825TIP3    H2 2482   0.780   5.166   0.332
  826TIP3   OH2 2483   4.818   2.151   4.195
  826TIP3    H1 2484   4.785   2.218   4.135
  826TIP3    H2 2485   4.767   2.073   4.174
  827TIP3   OH2 2486   5.561   5.909   3.819
  827TIP3    H1 2487   5.582   5.959   3.897
  827TIP3    H2 2488   5.615   5.948   3.750
  828TIP3   OH2 2489   3.581   4.323   5.159
  828TIP3    H1 2490   3.558   4.258   5.092
  828TIP3    H2 2491   3.513   4.314   5.225
  829TIP3   OH2 2492   4.629   4.278   1.130
  829TIP3    H1 2493   4.717   4.315   1.137
  829TIP3    H2 2494   4.591   4.320   1.054
  830TIP3   OH2 2495   4.343   5.266   1.029
  830TIP3    H1 2496   4.285   5.277   1.105
  830TIP3    H2 2497   4.290   5.216   0.966
  831TIP3   OH2 2498   0.648   5.826   0.456
  831TIP3    H1 2499   0.709   5.892   0.490
  831TIP3    H2 2500   0.571   5.876   0.429
  832TIP3   OH2 2501   2.224   4.925   0.256
  832TIP3    H1 2502   2.258   4.991   0.317
  832TIP3    H2 2503   2.232   4.966   0.170
  833TIP3   OH2 2504   2.659   3.895   0.711
  833TIP3    H1 2505   2.676   3.891   0.617
  833TIP3    H2 2506   2.735   3.851   0.751
  834TIP3   OH2 2507   1.539   1.257   0.776
  834TIP3    H1 2508   1.594   1.335   0.778
  834TIP3    H2 2509   1.474   1.275   0.708
  835TIP3   OH2 2510   5.486   3.505   4.997
  835TIP3    H1 2511   5.417   3.524   5.061
  835TIP3    H2 2512   5.468   3.416   4.969
  836TIP3   OH2 2513   5.534   5.379   1.559
  836TIP3    H1 2514   5.593   5.396   1.632
  836TIP3    H2 2515   5.512   5.466   1.525
  837TIP3   OH2 2516   3.975   5.343   0.216
  837TIP3    H1 2517   3.885   5.331   0.184
  837TIP3    H2 2518   4.011   5.255   0.221
  838TIP3   OH2 2519   5.567   5.743   2.976
  838TIP3    H1 2520   5.633   5.787   2.922
  838TIP3    H2 2521   5.516   5.692   2.913
  839TIP3   OH2 2522   2.289   5.812   3.438
  839TIP3    H1 2523   2.319   5.853   3.357
  839TIP3    H2 2524   2.213   5.864   3.464
  840TIP3   OH2 2525   0.425   3.074   4.259
  840TIP3    H1 2526   0.476   2.995   4.274
  840TIP3    H2 2527   0.426   3.087   4.164
  841TIP3   OH2 2528   3.829   5.590   3.857
  841TIP3    H1 2529   3.852   5.570   3.767
  841TIP3    H2 2530   3.908   5.569   3.907
  842TIP3   OH2 2531   0.056   5.721   2.593
  842TIP3    H1 2532   0.018   5.634   2.599
  842TIP3    H2 2533   0.003   5.774   2.654
  843TIP3   OH2 2534   0.554   2.633   1.356
  843TIP3    H1 2535   0.635   2.629   1.405
  843TIP3    H2 2536   0.577   2.676   1.274
  844TIP3   OH2 2537   4.880   2.174   4.791
  844TIP3    H1 2538   4.860   2.142   4.703
  844TIP3    H2 2539   4.815   2.131   4.847
  845TIP3   OH2 2540   2.367   4.667   4.252
  845TIP3    H1 2541   2.363   4.575   4.225
  845TIP3    H2 2542   2.278   4.686   4.282
  846TIP3   OH2 2543   6.110   2.057   4.173
  846TIP3    H1 2544   6.044   2.000   4.132
  846TIP3    H2 2545   6.093   2.143   4.134
  847TIP3   OH2 2546   5.451   2.774   4.361
  847TIP3    H1 2547   5.527   2.777   4.419
  847TIP3    H2 2548   5.385   2.827   4.406
  848TIP3   OH2 2549   1.335   1.582   0.613
  848TIP3    H1 2550   1.249   1.605   0.647
  848TIP3    H2 2551   1.366   1.513   0.672
  849TIP3   OH2 2552   0.491   4.457   3.948
  849TIP3    H1 2553   0.545   4.417   3.879
  849TIP3    H2 2554   0.450   4.532   3.906
  850TIP3   OH2 2555   0.606   4.434   0.916
  850TIP3    H1 2556   0.554   4.507   0.884
  850TIP3    H2 2557   0.679   4.429   0.855
  851TIP3   OH2 2558   1.529   3.415   2.131
  851TIP3    H1 2559   1.537   3.401   2.226
  851TIP3    H2 2560   1.485   3.336   2.099
  852TIP3   OH2 2561   5.487   0.357   3.428
  852TIP3    H1 2562   5.427   0.430   3.444
  852TIP3    H2 2563   5.574   0.396   3.438
  853TIP3   OH2 2564   3.028   5.661   4.427
  853TIP3    H1 2565   2.947   5.613   4.411
  853TIP3    H2 2566   3.051   5.699   4.342
  854TIP3   OH2 2567   3.746   3.091   2.218
  854TIP3    H1 2568   3.708   3.092   2.131
  854TIP3    H2 2569   3.707   3.167   2.263
  855TIP3   OH2 2570   2.549   5.379   2.512
  855TIP3    H1 2571   2.552   5.394   2.418
  855TIP3    H2 2572   2.605   5.303   2.526
  856TIP3   OH2 2573   3.477   1.256   1.051
  856TIP3    H1 2574   3.531   1.297   1.118
  856TIP3    H2 2575   3.500   1.303   0.970
  857TIP3   OH2 2576   3.613   3.128   4.345
  857TIP3    H1 2577   3.656   3.043   4.354
  857TIP3    H2 2578   3.685   3.189   4.332
  858TIP3   OH2 2579   2.124   5.626   2.779
  858TIP3    H1 2580   2.173   5.679   2.715
  858TIP3    H2 2581   2.039   5.669   2.786
  859TIP3   OH2 2582   3.964   3.827   4.517
  859TIP3    H1 2583   4.001   3.890   4.578
  859TIP3    H2 2584   3.970   3.870   4.431
  860TIP3   OH2 2585   0.221   5.322   0.086
  860TIP3    H1 2586   0.175   5.243   0.059
  860TIP3    H2 2587   0.285   5.337   0.016
  861TIP3   OH2 2588   1.842   5.687   1.616
  861TIP3    H1 2589   1.888   5.632   1.680
  861TIP3    H2 2590   1.911   5.716   1.556
  862TIP3   OH2 2591   0.914   0.048   5.129
  862TIP3    H1 2592   0.935   0.137   5.102
  862TIP3    H2 2593   0.819   0.041   5.114
  863TIP3   OH2 2594   2.169   3.997   0.219
  863TIP3    H1 2595   2.092   3.971   0.169
  863TIP3    H2 2596   2.139   4.003   0.309
  864TIP3   OH2 2597   3.098   2.543   1.922
  864TIP3    H1 2598   3.150   2.568   1.846
  864TIP3    H2 2599   3.111   2.449   1.930
  865TIP3   OH2 2600   5.505   0.531   2.399
  865TIP3    H1 2601   5.475   0.584   2.473
  865TIP3    H2 2602   5.484   0.584   2.322
  866TIP3   OH2 2603   5.546   5.012   2.590
  866TIP3    H1 2604   5.542   4.926   2.549
  866TIP3    H2 2605   5.456   5.031   2.616
  867TIP3   OH2 2606   0.649   1.446   3.904
  867TIP3    H1 2607   0.732   1.460   3.858
  867TIP3    H2 2608   0.587   1.422   3.835
  868TIP3   OH2 2609   1.405   0.770   0.121
  868TIP3    H1 2610   1.371   0.822   0.049
  868TIP3    H2 2611   1.333   0.712   0.146
  869TIP3   OH2 2612   0.527   2.345   1.538
  869TIP3    H1 2613   0.486   2.268   1.580
  869TIP3    H2 2614   0.453   2.393   1.500
  870TIP3   OH2 2615   3.083   4.826   3.998
  870TIP3    H1 2616   3.164   4.838   4.047
  870TIP3    H2 2617   3.017   4.875   4.048
  871TIP3   OH2 2618   5.009   4.242   2.728
  871TIP3    H1 2619   5.023   4.217   2.819
  871TIP3    H2 2620   4.992   4.160   2.682
  872TIP3   OH2 2621   2.725   1.121   1.314
  872TIP3    H1 2622   2.740   1.137   1.221
  872TIP3    H2 2623   2.766   1.036   1.331
  873TIP3   OH2 2624   5.486   2.607   3.075
  873TIP3    H1 2625   5.478   2.587   2.981
  873TIP3    H2 2626   5.575   2.642   3.084
  874TIP3   OH2 2627   2.863   0.847   1.301
  874TIP3    H1 2628   2.890   0.770   1.252
  874TIP3    H2 2629   2.801   0.814   1.366
  875TIP3   OH2 2630   2.052   4.346   0.399
  875TIP3    H1 2631   2.122   4.336   0.464
  875TIP3    H2 2632   2.095   4.335   0.315
  876TIP3   OH2 2633   5.297   2.216   2.147
  876TIP3    H1 2634   5.328   2.136   2.190
  876TIP3    H2 2635   5.250   2.185   2.070
  877TIP3   OH2 2636   6.179   4.808   2.372
  877TIP3    H1 2637   6.236   4.731   2.378
  877TIP3    H2 2638   6.215   4.860   2.301
  878TIP3   OH2 2639   5.778   0.515   1.124
  878TIP3    H1 2640   5.792   0.551   1.212
  878TIP3    H2 2641   5.758   0.423   1.139
  879TIP3   OH2 2642   3.778   0.633   3.131
  879TIP3    H1 2643   3.691   0.641   3.092
  879TIP3    H2 2644   3.826   0.577   3.070
  880TIP3   OH2 2645   5.393   2.275   4.501
  880TIP3    H1 2646   5.368   2.288   4.409
  880TIP3    H2 2647   5.325   2.218   4.537
  881TIP3   OH2 2648   0.447   2.324   2.530
  881TIP3    H1 2649   0.425   2.232   2.545
  881TIP3    H2 2650   0.481   2.327   2.441
  882TIP3   OH2 2651   0.858   0.621   2.822
  882TIP3    H1 2652   0.812   0.538   2.825
  882TIP3    H2 2653   0.925   0.614   2.890
  883TIP3   OH2 2654   3.670   0.968   0.642
  883TIP3    H1 2655   3.702   0.915   0.569
  883TIP3    H2 2656   3.631   1.045   0.602
  884TIP3   OH2 2657   4.434   2.108   4.820
  884TIP3    H1 2658   4.344   2.124   4.847
  884TIP3    H2 2659   4.439   2.144   4.732
  885TIP3   OH2 2660   4.031   0.813   4.783
  885TIP3    H1 2661   3.949   0.774   4.755
  885TIP3    H2 2662   4.064   0.754   4.851
  886TIP3   OH2 2663   3.398   0.764   0.985
  886TIP3    H1 2664   3.403   0.708   1.062
  886TIP3    H2 2665   3.369   0.849   1.019
  887TIP3   OH2 2666   5.901   2.113   2.254
  887TIP3    H1 2667   5.969   2.163   2.299
  887TIP3    H2 2668   5.921   2.123   2.161
  888TIP3   OH2 2669   3.394   5.452   3.938
  888TIP3    H1 2670   3.458   5.512   3.976
  888TIP3    H2 2671   3.321   5.454   4.000
  889TIP3   OH2 2672   1.971   0.433   1.797
  889TIP3    H1 2673   1.986   0.339   1.790
  889TIP3    H2 2674   2.040   0.465   1.855
  890TIP3   OH2 2675   0.105   3.431   2.198
  890TIP3    H1 2676   0.033   3.490   2.222
  890TIP3    H2 2677   0.149   3.412   2.281
  891TIP3   OH2 2678   2.896   0.987   3.786
  891TIP3    H1 2679   2.964   0.952   3.843
  891TIP3    H2 2680   2.928   1.073   3.760
  892TIP3   OH2 2681   2.613   0.215   3.758
  892TIP3    H1 2682   2.620   0.121   3.776
  892TIP3    H2 2683   2.688   0.235   3.702
  893TIP3   OH2 2684   1.501   2.088   2.870
  893TIP3    H1 2685   1.521   2.174   2.833
  893TIP3    H2 2686   1.586   2.053   2.896
  894TIP3   OH2 2687   1.821   5.637   2.274
  894TIP3    H1 2688   1.862   5.667   2.193
  894TIP3    H2 2689   1.758   5.571   2.246
  895TIP3   OH2 2690   0.126   5.433   3.959
  895TIP3    H1 2691   0.201   5.450   4.015
  895TIP3    H2 2692   0.062   5.500   3.984
  896TIP3   OH2 2693   2.378   2.629   1.157
  896TIP3    H1 2694   2.403   2.653   1.246
  896TIP3    H2 2695   2.305   2.687   1.136
  897TIP3   OH2 2696   2.395   1.985   2.778
  897TIP3    H1 2697   2.471   2.014   2.829
  897TIP3    H2 2698   2.433   1.933   2.707
  898TIP3   OH2 2699   0.080   5.777   4.891
  898TIP3    H1 2700   0.024   5.738   4.959
  898TIP3    H2 2701   0.090   5.708   4.826
  899TIP3   OH2 2702   3.207   3.508   2.172
  899TIP3    H1 2703   3.163   3.529   2.254
  899TIP3    H2 2704   3.184   3.417   2.155
  900TIP3   OH2 2705   0.462   4.009   0.112
  900TIP3    H1 2706   0.379   4.031   0.071
  900TIP3    H2 2707   0.480   3.920   0.084
  901TIP3   OH2 2708   1.378   2.575   5.002
  901TIP3    H1 2709   1.458   2.525   4.987
  901TIP3    H2 2710   1.314   2.509   5.029
  902TIP3   OH2 2711   0.598   0.972   2.950
  902TIP3    H1 2712   0.550   1.053   2.933
  902TIP3    H2 2713   0.570   0.945   3.037
  903TIP3   OH2 2714   3.796   4.162   3.957
  903TIP3    H1 2715   3.760   4.222   4.023
  903TIP3    H2 2716   3.739   4.173   3.881
  904TIP3   OH2 2717   2.474   3.278   3.853
  904TIP3    H1 2718   2.504   3.367   3.834
  904TIP3    H2 2719   2.544   3.221   3.821
  905TIP3   OH2 2720   4.151   1.140   1.243
  905TIP3    H1 2721   4.157   1.093   1.160
  905TIP3    H2 2722   4.197   1.085   1.306
  906TIP3   OH2 2723   3.797   3.976   1.792
  906TIP3    H1 2724   3.766   4.051   1.842
  906TIP3    H2 2725   3.717   3.926   1.773
  907TIP3   OH2 2726   4.211   2.742   4.390
  907TIP3    H1 2727   4.248   2.654   4.380
  907TIP3    H2 2728   4.225   2.764   4.482
  908TIP3   OH2 2729   3.941   5.916   3.305
  908TIP3    H1 2730   3.998   5.922   3.381
  908TIP3    H2 2731   3.999   5.893   3.233
  909TIP3   OH2 2732   0.149   4.410   1.274
  909TIP3    H1 2733   0.168   4.366   1.357
  909TIP3    H2 2734   0.206   4.487   1.275
  910TIP3   OH2 2735   2.341   3.969  -0.013
  910TIP3    H1 2736   2.303   3.965   0.075
  910TIP3    H2 2737   2.380   4.056  -0.018
  911TIP3   OH2 2738   3.798   5.903   4.047
  911TIP3    H1 2739   3.826   5.893   4.138
  911TIP3    H2 2740   3.796   5.814   4.013
  912TIP3   OH2 2741   3.580   3.310   3.177
  912TIP3    H1 2742   3.561   3.397   3.141
  912TIP3    H2 2743   3.598   3.256   3.101
  913TIP3   OH2 2744   0.267   5.402   1.737
  913TIP3    H1 2745   0.266   5.491   1.771
  913TIP3    H2 2746   0.263   5.412   1.642
  914TIP3   OH2 2747   4.341   4.058   2.708
  914TIP3    H1 2748   4.287   4.045   2.785
  914TIP3    H2 2749   4.337   3.975   2.661
  915TIP3   OH2 2750   1.093   4.322   1.025
  915TIP3    H1 2751   1.154   4.390   0.998
  915TIP3    H2 2752   1.136   4.239   1.002
  916TIP3   OH2 2753   0.334   4.784   2.674
  916TIP3    H1 2754   0.324   4.689   2.681
  916TIP3    H2 2755   0.323   4.802   2.581
  917TIP3   OH2 2756   3.095   4.700   1.045
  917TIP3    H1 2757   3.017   4.646   1.054
  917TIP3    H2 2758   3.085   4.743   0.960
  918TIP3   OH2 2759   3.536   5.803   0.644
  918TIP3    H1 2760   3.615   5.787   0.591
  918TIP3    H2 2761   3.544   5.893   0.674
  919TIP3   OH2 2762   1.272   0.202   1.526
  919TIP3    H1 2763   1.199   0.232   1.472
  919TIP3    H2 2764   1.273   0.262   1.601
  920TIP3   OH2 2765   1.718   3.607   2.956
  920TIP3    H1 2766   1.650   3.668   2.930
  920TIP3    H2 2767   1.778   3.605   2.882
  921TIP3   OH2 2768   4.754   5.443   2.121
  921TIP3    H1 2769   4.795   5.363   2.087
  921TIP3    H2 2770   4.691   5.468   2.054
  922TIP3   OH2 2771   3.377   3.354   2.973
  922TIP3    H1 2772   3.326   3.396   2.903
  922TIP3    H2 2773   3.436   3.423   3.005
  923TIP3   OH2 2774   5.104   2.880   3.285
  923TIP3    H1 2775   5.180   2.935   3.301
  923TIP3    H2 2776   5.140   2.795   3.260
  924TIP3   OH2 2777   3.917   3.410   3.005
  924TIP3    H1 2778   3.865   3.343   2.960
  924TIP3    H2 2779   3.865   3.490   2.997
  925TIP3   OH2 2780   5.301   2.125   0.678
  925TIP3    H1 2781   5.286   2.119   0.583
  925TIP3    H2 2782   5.245   2.058   0.716
  926TIP3   OH2 2783   4.170   0.624   4.905
  926TIP3    H1 2784   4.170   0.600   4.997
  926TIP3    H2 2785   4.146   0.544   4.859
  927TIP3   OH2 2786   3.557   5.760   1.796
  927TIP3    H1 2787   3.560   5.681   1.849
  927TIP3    H2 2788   3.475   5.753   1.746
  928TIP3   OH2 2789   5.039   4.234   3.011
  928TIP3    H1 2790   5.016   4.228   3.104
  928TIP3    H2 2791   5.132   4.259   3.012
  929TIP3   OH2 2792   0.261   5.249   4.226
  929TIP3    H1 2793   0.356   5.254   4.237
  929TIP3    H2 2794   0.226   5.313   4.288
  930TIP3   OH2 2795   5.832   2.656   3.670
  930TIP3    H1 2796   5.817   2.646   3.576
  930TIP3    H2 2797   5.781   2.587   3.711
  931TIP3   OH2 2798   1.456   1.697   2.663
  931TIP3    H1 2799   1.390   1.688   2.732
  931TIP3    H2 2800   1.523   1.755   2.701
  932TIP3   OH2 2801   2.066   3.072   2.521
  932TIP3    H1 2802   2.147   3.117   2.498
  932TIP3    H2 2803   2.087   2.979   2.515
  933TIP3   OH2 2804   0.133   5.656   1.761
  933TIP3    H1 2805   0.127   5.631   1.853
  933TIP3    H2 2806   0.045   5.641   1.726
  934TIP3   OH2 2807   4.493   1.061   3.708
  934TIP3    H1 2808   4.549   0.990   3.741
  934TIP3    H2 2809   4.412   1.052   3.758
  935TIP3   OH2 2810   2.022   4.995   0.912
  935TIP3    H1 2811   2.074   4.921   0.880
  935TIP3    H2 2812   2.000   4.972   1.002
  936TIP3   OH2 2813   4.876   2.663   1.785
  936TIP3    H1 2814   4.969   2.679   1.802
  936TIP3    H2 2815   4.875   2.588   1.725
  937TIP3   OH2 2816   4.630   4.792   3.494
  937TIP3    H1 2817   4.663   4.858   3.554
  937TIP3    H2 2818   4.657   4.708   3.532
  938TIP3   OH2 2819   1.540   1.058   1.306
  938TIP3    H1 2820   1.563   1.092   1.220
  938TIP3    H2 2821   1.508   1.135   1.354
  939TIP3   OH2 2822   3.743   0.251   0.458
  939TIP3    H1 2823   3.732   0.279   0.549
  939TIP3    H2 2824   3.653   0.248   0.424
  940TIP3   OH2 2825   2.522   1.156   5.013
  940TIP3    H1 2826   2.441   1.111   4.990
  940TIP3    H2 2827   2.581   1.086   5.041
  941TIP3   OH2 2828   3.772   2.200   4.308
  941TIP3    H1 2829   3.864   2.176   4.308
  941TIP3    H2 2830   3.769   2.284   4.354
  942TIP3   OH2 2831   5.502   0.712   3.111
  942TIP3    H1 2832   5.450   0.739   3.187
  942TIP3    H2 2833   5.456   0.635   3.077
  943TIP3   OH2 2834   4.530   3.197   1.117
  943TIP3    H1 2835   4.593   3.201   1.045
  943TIP3    H2 2836   4.457   3.146   1.082
  944TIP3   OH2 2837   3.619   4.941   0.394
  944TIP3    H1 2838   3.541   4.964   0.444
  944TIP3    H2 2839   3.682   4.913   0.460
  945TIP3   OH2 2840   2.559   1.889   0.450
  945TIP3    H1 2841   2.558   1.968   0.396
  945TIP3    H2 2842   2.469   1.880   0.481
  946TIP3   OH2 2843   0.899   0.622   4.590
  946TIP3    H1 2844   0.923   0.530   4.586
  946TIP3    H2 2845   0.983   0.668   4.602
  947TIP3   OH2 2846   5.734   0.561   2.098
  947TIP3    H1 2847   5.802   0.497   2.121
  947TIP3    H2 2848   5.671   0.555   2.170
  948TIP3   OH2 2849   0.487   4.148   2.954
  948TIP3    H1 2850   0.576   4.142   2.918
  948TIP3    H2 2851   0.479   4.071   3.010
  949TIP3   OH2 2852   1.374   2.531   0.607
  949TIP3    H1 2853   1.355   2.453   0.658
  949TIP3    H2 2854   1.464   2.518   0.575
  950TIP3   OH2 2855   4.652   4.399   3.796
  950TIP3    H1 2856   4.567   4.364   3.772
  950TIP3    H2 2857   4.695   4.327   3.842
  951TIP3   OH2 2858   1.229   5.554   3.974
  951TIP3    H1 2859   1.187   5.474   3.942
  951TIP3    H2 2860   1.320   5.546   3.945
  952TIP3   OH2 2861   1.941   2.448   4.997
  952TIP3    H1 2862   1.911   2.358   5.004
  952TIP3    H2 2863   1.893   2.484   4.923
  953TIP3   OH2 2864   2.424   4.497   2.071
  953TIP3    H1 2865   2.427   4.450   2.154
  953TIP3    H2 2866   2.515   4.520   2.053
  954TIP3   OH2 2867   6.340   1.556   1.164
  954TIP3    H1 2868   6.393   1.630   1.133
  954TIP3    H2 2869   6.277   1.541   1.094
  955TIP3   OH2 2870   3.600   2.707   4.699
  955TIP3    H1 2871   3.529   2.756   4.741
  955TIP3    H2 2872   3.675   2.766   4.702
  956TIP3   OH2 2873   1.644   0.095   1.901
  956TIP3    H1 2874   1.694   0.165   1.944
  956TIP3    H2 2875   1.552   0.119   1.915
  957TIP3   OH2 2876   5.302   2.395   2.847
  957TIP3    H1 2877   5.241   2.407   2.921
  957TIP3    H2 2878   5.298   2.478   2.799
  958TIP3   OH2 2879   0.101   5.308   3.267
  958TIP3    H1 2880   0.091   5.403   3.273
  958TIP3    H2 2881   0.124   5.292   3.175
  959TIP3   OH2 2882   0.176   4.701   0.450
  959TIP3    H1 2883   0.265   4.674   0.428
  959TIP3    H2 2884   0.121   4.628   0.423
  960TIP3   OH2 2885   0.346   2.691   0.909
  960TIP3    H1 2886   0.440   2.700   0.922
  960TIP3    H2 2887   0.334   2.698   0.815
  961TIP3   OH2 2888   3.613   5.110   0.022
  961TIP3    H1 2889   3.538   5.058  -0.009
  961TIP3    H2 2890   3.688   5.051   0.013
  962TIP3   OH2 2891   1.400   3.987   2.299
  962TIP3    H1 2892   1.386   3.985   2.204
  962TIP3    H2 2893   1.495   3.990   2.309
  963TIP3   OH2 2894   6.059   0.839   3.673
  963TIP3    H1 2895   6.122   0.908   3.691
  963TIP3    H2 2896   6.037   0.850   3.580
  964TIP3   OH2 2897   4.223   4.912   0.964
  964TIP3    H1 2898   4.195   4.998   0.933
  964TIP3    H2 2899   4.244   4.925   1.057
  965TIP3   OH2 2900   4.650   4.920   4.752
  965TIP3    H1 2901   4.573   4.867   4.731
  965TIP3    H2 2902   4.725   4.862   4.736
  966TIP3   OH2 2903   0.780   0.224   4.319
  966TIP3    H1 2904   0.716   0.181   4.262
  966TIP3    H2 2905   0.840   0.267   4.259
  967TIP3   OH2 2906   4.652   3.228   3.356
  967TIP3    H1 2907   4.673   3.288   3.285
  967TIP3    H2 2908   4.610   3.283   3.422
  968TIP3   OH2 2909   4.062   3.094   3.944
  968TIP3    H1 2910   3.986   3.037   3.958
  968TIP3    H2 2911   4.106   3.056   3.868
  969TIP3   OH2 2912   3.583   2.563   3.655
  969TIP3    H1 2913   3.525   2.510   3.709
  969TIP3    H2 2914   3.525   2.620   3.606
  970TIP3   OH2 2915   3.244   1.559   4.293
  970TIP3    H1 2916   3.222   1.628   4.355
  970TIP3    H2 2917   3.273   1.486   4.348
  971TIP3   OH2 2918   4.972   5.446   0.185
  971TIP3    H1 2919   5.001   5.424   0.097
  971TIP3    H2 2920   5.006   5.375   0.239
  972TIP3   OH2 2921   5.905   4.878   2.361
  972TIP3    H1 2922   5.886   4.887   2.454
  972TIP3    H2 2923   6.000   4.874   2.356
  973TIP3   OH2 2924   5.467   1.672   4.556
  973TIP3    H1 2925   5.452   1.762   4.528
  973TIP3    H2 2926   5.531   1.638   4.493
  974TIP3   OH2 2927   2.089   5.888   2.355
  974TIP3    H1 2928   2.039   5.946   2.412
  974TIP3    H2 2929   2.104   5.939   2.275
  975TIP3   OH2 2930   3.265   0.324   1.846
  975TIP3    H1 2931   3.354   0.293   1.857
  975TIP3    H2 2932   3.242   0.362   1.931
  976TIP3   OH2 2933   2.537   5.296   4.821
  976TIP3    H1 2934   2.581   5.352   4.886
  976TIP3    H2 2935   2.574   5.209   4.835
  977TIP3   OH2 2936   2.535   4.501   2.395
  977TIP3    H1 2937   2.488   4.428   2.354
  977TIP3    H2 2938   2.591   4.460   2.461
  978TIP3   OH2 2939   5.064   4.685   5.082
  978TIP3    H1 2940   5.037   4.760   5.029
  978TIP3    H2 2941   5.147   4.658   5.044
  979TIP3   OH2 2942   0.436   3.131   0.689
  979TIP3    H1 2943   0.464   3.101   0.776
  979TIP3    H2 2944   0.409   3.222   0.703
  980TIP3   OH2 2945   2.457   0.231   0.149
  980TIP3    H1 2946   2.527   0.231   0.084
  980TIP3    H2 2947   2.387   0.179   0.110
  981TIP3   OH2 2948   5.809   2.829   4.765
  981TIP3    H1 2949   5.887   2.878   4.741
  981TIP3    H2 2950   5.805   2.836   4.861
  982TIP3   OH2 2951   3.074   3.840   3.111
  982TIP3    H1 2952   3.079   3.872   3.021
  982TIP3    H2 2953   3.027   3.758   3.105
  983TIP3   OH2 2954   2.016   5.445   0.751
  983TIP3    H1 2955   1.949   5.506   0.719
  983TIP3    H2 2956   2.076   5.435   0.677
  984TIP3   OH2 2957   0.590   3.879   4.798
  984TIP3    H1 2958   0.532   3.813   4.760
  984TIP3    H2 2959   0.543   3.962   4.785
  985TIP3   OH2 2960   0.697   3.070   3.975
  985TIP3    H1 2961   0.752   3.011   3.924
  985TIP3    H2 2962   0.608   3.047   3.950
  986TIP3   OH2 2963   6.053   0.693   2.956
  986TIP3    H1 2964   5.990   0.754   2.918
  986TIP3    H2 2965   6.056   0.717   3.048
  987TIP3   OH2 2966   6.138   2.688   4.671
  987TIP3    H1 2967   6.111   2.772   4.709
  987TIP3    H2 2968   6.229   2.703   4.643
  988TIP3   OH2 2969   4.329   2.853   3.221
  988TIP3    H1 2970   4.401   2.912   3.245
  988TIP3    H2 2971   4.272   2.854   3.297
  989TIP3   OH2 2972   1.131   1.488   1.313
  989TIP3    H1 2973   1.080   1.494   1.232
  989TIP3    H2 2974   1.220   1.513   1.287
  990TIP3   OH2 2975   5.439   1.269   3.514
  990TIP3    H1 2976   5.416   1.344   3.568
  990TIP3    H2 2977   5.431   1.193   3.573
  991TIP3   OH2 2978   1.531   5.494   0.514
  991TIP3    H1 2979   1.529   5.407   0.553
  991TIP3    H2 2980   1.459   5.493   0.451
  992TIP3   OH2 2981   5.246   4.230   3.291
  992TIP3    H1 2982   5.322   4.239   3.349
  992TIP3    H2 2983   5.173   4.265   3.342
  993TIP3   OH2 2984   0.589   0.026   1.202
  993TIP3    H1 2985   0.638   0.108   1.210
  993TIP3    H2 2986   0.497   0.053   1.195
  994TIP3   OH2 2987   5.336   2.888   2.716
  994TIP3    H1 2988   5.341   2.952   2.645
  994TIP3    H2 2989   5.419   2.898   2.763
  995TIP3   OH2 2990   4.431   2.382   3.495
  995TIP3    H1 2991   4.498   2.337   3.547
  995TIP3    H2 2992   4.353   2.327   3.504
  996TIP3   OH2 2993   4.469   0.819   0.803
  996TIP3    H1 2994   4.493   0.832   0.711
  996TIP3    H2 2995   4.552   0.794   0.845
  997TIP3   OH2 2996   1.021   5.026   1.624
  997TIP3    H1 2997   0.998   5.014   1.532
  997TIP3    H2 2998   1.017   5.121   1.637
  998TIP3   OH2 2999   3.189   0.166   3.263
  998TIP3    H1 3000   3.158   0.254   3.241
  998TIP3    H2 3001   3.259   0.149   3.201
  999TIP3   OH2 3002   1.582   5.561   2.011
  999TIP3    H1 3003   1.563   5.558   1.917
  999TIP3    H2 3004   1.662   5.613   2.018
 1000TIP3   OH2 3005   4.610   3.955   1.392
 1000TIP3    H1 3006   4.699   3.931   1.419
 1000TIP3    H2 3007   4.588   3.893   1.323
 1001TIP3   OH2 3008   2.870   1.433   0.678
 1001TIP3    H1 3009   2.944   1.472   0.632
 1001TIP3    H2 3010   2.818   1.508   0.708
 1002TIP3   OH2 3011   5.470   2.973   0.238
 1002TIP3    H1 3012   5.440   2.974   0.147
 1002TIP3    H2 3013   5.404   3.023   0.286
 1003TIP3   OH2 3014   6.336   5.710   1.331
 1003TIP3    H1 3015   6.356   5.772   1.401
 1003TIP3    H2 3016   6.252   5.670   1.358
 1004TIP3   OH2 3017   4.528   5.317   5.059
 1004TIP3    H1 3018   4.614   5.304   5.098
 1004TIP3    H2 3019   4.530   5.266   4.978
 1005TIP3   OH2 3020   1.369   5.521   3.700
 1005TIP3    H1 3021   1.286   5.544   3.658
 1005TIP3    H2 3022   1.418   5.603   3.702
 1006TIP3   OH2 3023   0.124   1.808   4.555
 1006TIP3    H1 3024   0.029   1.796   4.554
 1006TIP3    H2 3025   0.159   1.719   4.564
 1007TIP3   OH2 3026   2.369   0.354   0.859
 1007TIP3    H1 3027   2.314   0.382   0.933
 1007TIP3    H2 3028   2.336   0.403   0.784
 1008TIP3   OH2 3029   6.271   3.873   2.482
 1008TIP3    H1 3030   6.240   3.944   2.426
 1008TIP3    H2 3031   6.365   3.868   2.463
 1009TIP3   OH2 3032   5.453   1.506   1.094
 1009TIP3    H1 3033   5.484   1.585   1.049
 1009TIP3    H2 3034   5.533   1.455   1.110
 1010TIP3   OH2 3035   5.511   4.522   3.785
 1010TIP3    H1 3036   5.416   4.528   3.775
 1010TIP3    H2 3037   5.533   4.588   3.850
 1011TIP3   OH2 3038   0.190   0.082   2.288
 1011TIP3    H1 3039   0.100   0.103   2.312
 1011TIP3    H2 3040   0.192  -0.014   2.285
 1012TIP3   OH2 3041   6.134   4.763   2.652
 1012TIP3    H1 3042   6.141   4.786   2.560
 1012TIP3    H2 3043   6.143   4.846   2.699
 1013TIP3   OH2 3044   1.108   5.504   3.546
 1013TIP3    H1 3045   1.024   5.467   3.571
 1013TIP3    H2 3046   1.090   5.597   3.530
 1014TIP3   OH2 3047   6.145   0.182   4.677
 1014TIP3    H1 3048   6.200   0.240   4.625
 1014TIP3    H2 3049   6.075   0.155   4.618
 1015TIP3   OH2 3050   2.895   2.898   0.410
 1015TIP3    H1 3051   2.819   2.905   0.352
 1015TIP3    H2 3052   2.931   2.986   0.414
 1016TIP3   OH2 3053   5.238   0.642   4.032
 1016TIP3    H1 3054   5.161   0.646   3.975
 1016TIP3    H2 3055   5.257   0.549   4.040
 1017TIP3   OH2 3056   2.659   2.475   1.516
 1017TIP3    H1 3057   2.723   2.407   1.494
 1017TIP3    H2 3058   2.706   2.533   1.577
 1018TIP3   OH2 3059   3.623   1.866   0.384
 1018TIP3    H1 3060   3.693   1.858   0.447
 1018TIP3    H2 3061   3.603   1.776   0.358
 1019TIP3   OH2 3062   5.914   5.563   4.056
 1019TIP3    H1 3063   5.926   5.631   3.989
 1019TIP3    H2 3064   5.862   5.607   4.124
 1020TIP3   OH2 3065   2.447   3.649   1.308
 1020TIP3    H1 3066   2.372   3.609   1.351
 1020TIP3    H2 3067   2.409   3.710   1.245
 1021TIP3   OH2 3068   3.727   1.993   4.862
 1021TIP3    H1 3069   3.761   1.922   4.918
 1021TIP3    H2 3070   3.794   2.004   4.794
 1022TIP3   OH2 3071   6.024   1.987   1.771
 1022TIP3    H1 3072   5.961   1.961   1.703
 1022TIP3    H2 3073   6.069   1.905   1.794
 1023TIP3   OH2 3074   6.019   2.586   4.444
 1023TIP3    H1 3075   6.046   2.496   4.428
 1023TIP3    H2 3076   6.055   2.608   4.529
 1024TIP3   OH2 3077   0.420   3.903   3.100
 1024TIP3    H1 3078   0.418   3.840   3.028
 1024TIP3    H2 3079   0.452   3.853   3.174
 1025TIP3   OH2 3080   2.047   2.241   1.525
 1025TIP3    H1 3081   2.109   2.314   1.527
 1025TIP3    H2 3082   1.961   2.283   1.523
 1026TIP3   OH2 3083   1.729   4.834   1.767
 1026TIP3    H1 3084   1.809   4.848   1.717
 1026TIP3    H2 3085   1.663   4.885   1.719
 1027TIP3   OH2 3086   3.759   2.474   0.668
 1027TIP3    H1 3087   3.769   2.406   0.602
 1027TIP3    H2 3088   3.681   2.523   0.640
 1028TIP3   OH2 3089   2.560   2.072   0.671
 1028TIP3    H1 3090   2.529   1.985   0.699
 1028TIP3    H2 3091   2.648   2.055   0.636
 1029TIP3   OH2 3092   0.180   5.408   4.474
 1029TIP3    H1 3093   0.175   5.370   4.561
 1029TIP3    H2 3094   0.094   5.392   4.435
 1030TIP3   OH2 3095   2.131   5.766   4.248
 1030TIP3    H1 3096   2.151   5.756   4.155
 1030TIP3    H2 3097   2.064   5.699   4.265
 1031TIP3   OH2 3098   5.158   2.520   2.157
 1031TIP3    H1 3099   5.151   2.615   2.155
 1031TIP3    H2 3100   5.068   2.489   2.161
 1032TIP3   OH2 3101   4.834   1.650   3.981
 1032TIP3    H1 3102   4.816   1.613   3.894
 1032TIP3    H2 3103   4.828   1.575   4.041
 1033TIP3   OH2 3104   2.057   5.377   2.875
 1033TIP3    H1 3105   2.100   5.461   2.859
 1033TIP3    H2 3106   1.983   5.398   2.932
 1034TIP3   OH2 3107   3.182   5.665   1.662
 1034TIP3    H1 3108   3.219   5.753   1.664
 1034TIP3    H2 3109   3.105   5.673   1.604
 1035TIP3   OH2 3110   2.536   0.407   1.650
 1035TIP3    H1 3111   2.469   0.439   1.710
 1035TIP3    H2 3112   2.618   0.413   1.699
 1036TIP3   OH2 3113   5.395   2.041   0.140
 1036TIP3    H1 3114   5.327   1.975   0.124
 1036TIP3    H2 3115   5.471   2.010   0.091
 1037TIP3   OH2 3116   2.180   0.018   0.805
 1037TIP3    H1 3117   2.274   0.028   0.818
 1037TIP3    H2 3118   2.145   0.004   0.893
 1038TIP3   OH2 3119   0.821   3.690   4.806
 1038TIP3    H1 3120   0.768   3.770   4.796
 1038TIP3    H2 3121   0.773   3.624   4.756
 1039TIP3   OH2 3122   2.026   3.703   2.487
 1039TIP3    H1 3123   1.940   3.745   2.477
 1039TIP3    H2 3124   2.010   3.611   2.467
 1040TIP3   OH2 3125   2.832   2.628   1.684
 1040TIP3    H1 3126   2.791   2.640   1.769
 1040TIP3    H2 3127   2.894   2.701   1.676
 1041TIP3   OH2 3128   4.353   1.919   2.903
 1041TIP3    H1 3129   4.384   1.911   2.813
 1041TIP3    H2 3130   4.427   1.892   2.957
 1042TIP3   OH2 3131   3.518   3.653   4.603
 1042TIP3    H1 3132   3.554   3.724   4.550
 1042TIP3    H2 3133   3.533   3.679   4.693
 1043TIP3   OH2 3134   1.043   2.789   4.669
 1043TIP3    H1 3135   1.004   2.786   4.757
 1043TIP3    H2 3136   0.985   2.848   4.620
 1044TIP3   OH2 3137   2.528   5.757   4.429
 1044TIP3    H1 3138   2.510   5.686   4.368
 1044TIP3    H2 3139   2.617   5.786   4.407
 1045TIP3   OH2 3140   5.942   2.591   0.219
 1045TIP3    H1 3141   5.958   2.564   0.310
 1045TIP3    H2 3142   5.848   2.602   0.213
 1046TIP3   OH2 3143   1.773   3.605   1.812
 1046TIP3    H1 3144   1.713   3.534   1.791
 1046TIP3    H2 3145   1.769   3.664   1.736
 1047TIP3   OH2 3146   1.713   1.681   1.434
 1047TIP3    H1 3147   1.725   1.587   1.449
 1047TIP3    H2 3148   1.663   1.686   1.353
 1048TIP3   OH2 3149   4.875   4.493   2.733
 1048TIP3    H1 3150   4.919   4.408   2.734
 1048TIP3    H2 3151   4.911   4.537   2.655
 1049TIP3   OH2 3152   1.718   4.968   2.012
 1049TIP3    H1 3153   1.735   5.052   1.970
 1049TIP3    H2 3154   1.741   4.903   1.945
 1050TIP3   OH2 3155   3.110   4.079   1.823
 1050TIP3    H1 3156   3.087   4.161   1.780
 1050TIP3    H2 3157   3.176   4.040   1.766
 1051TIP3   OH2 3158   5.982   2.046   3.252
 1051TIP3    H1 3159   5.989   1.953   3.273
 1051TIP3    H2 3160   5.911   2.078   3.307
 1052TIP3   OH2 3161   0.829   5.966   4.135
 1052TIP3    H1 3162   0.910   5.966   4.186
 1052TIP3    H2 3163   0.822   5.877   4.101
 1053TIP3   OH2 3164   2.183   1.712   1.823
 1053TIP3    H1 3165   2.237   1.790   1.834
 1053TIP3    H2 3166   2.094   1.746   1.815
 1054TIP3   OH2 3167   2.464   2.524   3.017
 1054TIP3    H1 3168   2.451   2.619   3.012
 1054TIP3    H2 3169   2.382   2.487   2.984
 1055TIP3   OH2 3170   4.696   3.107   1.545
 1055TIP3    H1 3171   4.682   3.136   1.635
 1055TIP3    H2 3172   4.790   3.088   1.541
 1056TIP3   OH2 3173   2.614   5.216   0.449
 1056TIP3    H1 3174   2.588   5.238   0.360
 1056TIP3    H2 3175   2.708   5.197   0.443
 1057TIP3   OH2 3176   0.989   4.063   0.686
 1057TIP3    H1 3177   0.917   4.062   0.623
 1057TIP3    H2 3178   0.949   4.095   0.768
 1058TIP3   OH2 3179   3.762   3.476   0.602
 1058TIP3    H1 3180   3.793   3.393   0.565
 1058TIP3    H2 3181   3.667   3.468   0.600
 1059TIP3   OH2 3182   2.686   1.408   0.472
 1059TIP3    H1 3183   2.740   1.405   0.552
 1059TIP3    H2 3184   2.661   1.317   0.456
 1060TIP3   OH2 3185   2.915   2.404   0.119
 1060TIP3    H1 3186   3.005   2.371   0.112
 1060TIP3    H2 3187   2.923   2.480   0.177
 1061TIP3   OH2 3188   1.281   4.086   5.168
 1061TIP3    H1 3189   1.285   4.096   5.073
 1061TIP3    H2 3190   1.365   4.122   5.199
 1062TIP3   OH2 3191   0.733   3.777   3.056
 1062TIP3    H1 3192   0.687   3.715   3.114
 1062TIP3    H2 3193   0.785   3.721   2.998
 1063TIP3   OH2 3194   2.245   2.315   3.534
 1063TIP3    H1 3195   2.189   2.267   3.473
 1063TIP3    H2 3196   2.198   2.396   3.552
 1064TIP3   OH2 3197   1.332   3.326   1.683
 1064TIP3    H1 3198   1.248   3.333   1.729
 1064TIP3    H2 3199   1.338   3.235   1.656
 1065TIP3   OH2 3200   5.138   1.797   3.895
 1065TIP3    H1 3201   5.182   1.734   3.952
 1065TIP3    H2 3202   5.179   1.881   3.916
 1066TIP3   OH2 3203   0.678   0.375   0.032
 1066TIP3    H1 3204   0.691   0.430  -0.045
 1066TIP3    H2 3205   0.583   0.366   0.040
 1067TIP3   OH2 3206   3.424   3.644   0.004
 1067TIP3    H1 3207   3.414   3.562  -0.045
 1067TIP3    H2 3208   3.489   3.624   0.072
 1068TIP3   OH2 3209   6.038   0.209   3.357
 1068TIP3    H1 3210   6.122   0.255   3.370
 1068TIP3    H2 3211   6.062   0.127   3.315
 1069TIP3   OH2 3212   3.778   1.634   2.774
 1069TIP3    H1 3213   3.817   1.556   2.735
 1069TIP3    H2 3214   3.786   1.701   2.706
 1070TIP3   OH2 3215   2.954   3.602   1.386
 1070TIP3    H1 3216   2.933   3.574   1.475
 1070TIP3    H2 3217   2.994   3.526   1.346
 1071TIP3   OH2 3218   4.107   2.275   0.378
 1071TIP3    H1 3219   4.192   2.283   0.335
 1071TIP3    H2 3220   4.123   2.217   0.452
 1072TIP3   OH2 3221   1.938   4.675   4.746
 1072TIP3    H1 3222   2.009   4.615   4.722
 1072TIP3    H2 3223   1.974   4.728   4.817
 1073TIP3   OH2 3224   2.315   2.518   4.314
 1073TIP3    H1 3225   2.320   2.578   4.239
 1073TIP3    H2 3226   2.361   2.439   4.284
 1074TIP3   OH2 3227   1.888   1.060   5.060
 1074TIP3    H1 3228   1.917   1.043   4.971
 1074TIP3    H2 3229   1.838   1.141   5.054
 1075TIP3   OH2 3230   4.333   5.722   4.307
 1075TIP3    H1 3231   4.327   5.773   4.226
 1075TIP3    H2 3232   4.343   5.788   4.376
 1076TIP3   OH2 3233   2.327   0.662   0.224
 1076TIP3    H1 3234   2.244   0.624   0.252
 1076TIP3    H2 3235   2.380   0.587   0.195
 1077TIP3   OH2 3236   4.554   0.819   3.827
 1077TIP3    H1 3237   4.605   0.740   3.846
 1077TIP3    H2 3238   4.473   0.808   3.877
 1078TIP3   OH2 3239   2.271   1.686   2.142
 1078TIP3    H1 3240   2.292   1.739   2.066
 1078TIP3    H2 3241   2.176   1.693   2.152
 1079TIP3   OH2 3242   5.094   0.923   2.867
 1079TIP3    H1 3243   5.176   0.883   2.838
 1079TIP3    H2 3244   5.119   0.979   2.940
 1080TIP3   OH2 3245   2.966   4.345   0.136
 1080TIP3    H1 3246   2.970   4.318   0.228
 1080TIP3    H2 3247   2.889   4.401   0.131
 1081TIP3   OH2 3248   4.174   4.786   4.615
 1081TIP3    H1 3249   4.141   4.791   4.526
 1081TIP3    H2 3250   4.108   4.830   4.668
 1082TIP3   OH2 3251   3.576   0.407   2.591
 1082TIP3    H1 3252   3.591   0.487   2.640
 1082TIP3    H2 3253   3.663   0.369   2.580
 1083TIP3   OH2 3254   6.065   0.834   4.755
 1083TIP3    H1 3255   6.160   0.822   4.758
 1083TIP3    H2 3256   6.043   0.868   4.842
 1084TIP3   OH2 3257   4.739   0.720   5.182
 1084TIP3    H1 3258   4.662   0.769   5.154
 1084TIP3    H2 3259   4.759   0.663   5.108
 1085TIP3   OH2 3260   3.166   1.460   0.851
 1085TIP3    H1 3261   3.177   1.502   0.766
 1085TIP3    H2 3262   3.117   1.523   0.904
 1086TIP3   OH2 3263   2.658   3.231   3.062
 1086TIP3    H1 3264   2.745   3.199   3.037
 1086TIP3    H2 3265   2.626   3.275   2.983
 1087TIP3   OH2 3266   2.787   1.865   1.305
 1087TIP3    H1 3267   2.784   1.795   1.239
 1087TIP3    H2 3268   2.695   1.882   1.324
 1088TIP3   OH2 3269   0.974   4.118   2.876
 1088TIP3    H1 3270   1.037   4.116   2.948
 1088TIP3    H2 3271   1.005   4.190   2.820
 1089TIP3   OH2 3272   3.418   0.726   1.723
 1089TIP3    H1 3273   3.440   0.752   1.812
 1089TIP3    H2 3274   3.324   0.745   1.715
 1090TIP3   OH2 3275   1.876   0.038   0.049
 1090TIP3    H1 3276   1.888  -0.054   0.071
 1090TIP3    H2 3277   1.904   0.085   0.128
 1091TIP3   OH2 3278   0.819   1.412   0.589
 1091TIP3    H1 3279   0.838   1.452   0.673
 1091TIP3    H2 3280   0.723   1.406   0.587
 1092TIP3   OH2 3281   1.113   3.217   0.819
 1092TIP3    H1 3282   1.138   3.271   0.744
 1092TIP3    H2 3283   1.041   3.265   0.860
 1093TIP3   OH2 3284   3.435   0.880   0.054
 1093TIP3    H1 3285   3.511   0.829   0.027
 1093TIP3    H2 3286   3.445   0.890   0.149
 1094TIP3   OH2 3287   1.191   4.512   3.013
 1094TIP3    H1 3288   1.115   4.460   2.987
 1094TIP3    H2 3289   1.199   4.579   2.944
 1095TIP3   OH2 3290   0.781   2.366   4.702
 1095TIP3    H1 3291   0.763   2.310   4.778
 1095TIP3    H2 3292   0.732   2.446   4.719
 1096TIP3   OH2 3293   5.594   3.225   0.933
 1096TIP3    H1 3294   5.507   3.265   0.942
 1096TIP3    H2 3295   5.647   3.294   0.894
 1097TIP3   OH2 3296   1.512   0.369   0.902
 1097TIP3    H1 3297   1.496   0.389   0.994
 1097TIP3    H2 3298   1.572   0.437   0.872
 1098TIP3   OH2 3299   2.138   0.899   1.232
 1098TIP3    H1 3300   2.154   0.989   1.260
 1098TIP3    H2 3301   2.195   0.886   1.156
 1099TIP3   OH2 3302   4.159   3.028   4.767
 1099TIP3    H1 3303   4.253   3.008   4.766
 1099TIP3    H2 3304   4.146   3.074   4.850
 1100TIP3   OH2 3305   6.018   0.877   2.255
 1100TIP3    H1 3306   6.037   0.929   2.176
 1100TIP3    H2 3307   6.066   0.795   2.241
 1101TIP3   OH2 3308   2.205   1.642   5.039
 1101TIP3    H1 3309   2.231   1.702   5.109
 1101TIP3    H2 3310   2.279   1.641   4.978
 1102TIP3   OH2 3311   1.702   4.129   0.562
 1102TIP3    H1 3312   1.703   4.034   0.572
 1102TIP3    H2 3313   1.756   4.146   0.485
 1103TIP3   OH2 3314   0.875   1.500   3.758
 1103TIP3    H1 3315   0.969   1.517   3.756
 1103TIP3    H2 3316   0.863   1.424   3.701
 1104TIP3   OH2 3317   1.757   4.292   1.779
 1104TIP3    H1 3318   1.749   4.387   1.769
 1104TIP3    H2 3319   1.765   4.260   1.689
 1105TIP3   OH2 3320   5.054   1.044   1.106
 1105TIP3    H1 3321   5.101   1.126   1.091
 1105TIP3    H2 3322   5.097   0.980   1.050
 1106TIP3   OH2 3323   2.231   3.946   4.125
 1106TIP3    H1 3324   2.147   3.901   4.137
 1106TIP3    H2 3325   2.275   3.897   4.055
 1107TIP3   OH2 3326   3.831   1.157   2.094
 1107TIP3    H1 3327   3.922   1.184   2.088
 1107TIP3    H2 3328   3.825   1.113   2.179
 1108TIP3   OH2 3329   5.965   5.469   0.565
 1108TIP3    H1 3330   5.971   5.519   0.646
 1108TIP3    H2 3331   5.993   5.381   0.590
 1109TIP3   OH2 3332   3.222   0.854   4.901
 1109TIP3    H1 3333   3.302   0.808   4.876
 1109TIP3    H2 3334   3.206   0.916   4.830
 1110TIP3   OH2 3335   1.633   5.866   1.691
 1110TIP3    H1 3336   1.718   5.833   1.663
 1110TIP3    H2 3337   1.592   5.792   1.736
 1111TIP3   OH2 3338   0.802   0.794   0.759
 1111TIP3    H1 3339   0.875   0.741   0.791
 1111TIP3    H2 3340   0.765   0.834   0.839
 1112TIP3   OH2 3341   3.367   0.392   2.206
 1112TIP3    H1 3342   3.462   0.389   2.192
 1112TIP3    H2 3343   3.339   0.474   2.165
 1113TIP3   OH2 3344   5.954   5.669   2.972
 1113TIP3    H1 3345   5.927   5.636   3.057
 1113TIP3    H2 3346   5.943   5.595   2.912
 1114TIP3   OH2 3347   0.843   4.244   0.516
 1114TIP3    H1 3348   0.857   4.186   0.441
 1114TIP3    H2 3349   0.841   4.332   0.477
 1115TIP3   OH2 3350   5.700   0.257   1.172
 1115TIP3    H1 3351   5.701   0.217   1.259
 1115TIP3    H2 3352   5.727   0.186   1.113
 1116TIP3   OH2 3353   0.781   1.305   3.005
 1116TIP3    H1 3354   0.687   1.301   2.984
 1116TIP3    H2 3355   0.789   1.259   3.089
 1117TIP3   OH2 3356   4.012   4.386   1.583
 1117TIP3    H1 3357   4.059   4.370   1.501
 1117TIP3    H2 3358   4.046   4.321   1.644
 1118TIP3   OH2 3359   1.098   3.933   3.455
 1118TIP3    H1 3360   1.176   3.881   3.474
 1118TIP3    H2 3361   1.126   4.024   3.469
 1119TIP3   OH2 3362   2.014   3.739   1.926
 1119TIP3    H1 3363   1.996   3.647   1.906
 1119TIP3    H2 3364   1.936   3.786   1.895
 1120TIP3   OH2 3365   4.608   3.471   0.182
 1120TIP3    H1 3366   4.560   3.411   0.125
 1120TIP3    H2 3367   4.699   3.467   0.151
 1121TIP3   OH2 3368   5.340   5.763   3.772
 1121TIP3    H1 3369   5.421   5.800   3.806
 1121TIP3    H2 3370   5.327   5.683   3.822
 1122TIP3   OH2 3371   2.190   0.933   2.873
 1122TIP3    H1 3372   2.261   0.888   2.920
 1122TIP3    H2 3373   2.133   0.862   2.843
 1123TIP3   OH2 3374   4.877   3.539   0.156
 1123TIP3    H1 3375   4.899   3.629   0.130
 1123TIP3    H2 3376   4.958   3.490   0.143
 1124TIP3   OH2 3377   5.438   4.538   4.186
 1124TIP3    H1 3378   5.497   4.595   4.138
 1124TIP3    H2 3379   5.350   4.569   4.163
 1125TIP3   OH2 3380   4.835   5.818   2.202
 1125TIP3    H1 3381   4.807   5.727   2.206
 1125TIP3    H2 3382   4.928   5.813   2.179
 1126TIP3   OH2 3383   4.227   2.059   3.777
 1126TIP3    H1 3384   4.171   1.982   3.773
 1126TIP3    H2 3385   4.316   2.023   3.785
 1127TIP3   OH2 3386   2.898   0.984   3.012
 1127TIP3    H1 3387   2.907   1.033   3.093
 1127TIP3    H2 3388   2.823   1.024   2.967
 1128TIP3   OH2 3389   0.942   3.857   4.311
 1128TIP3    H1 3390   0.924   3.885   4.400
 1128TIP3    H2 3391   0.871   3.894   4.259
 1129TIP3   OH2 3392   5.650   4.937   3.250
 1129TIP3    H1 3393   5.663   4.982   3.334
 1129TIP3    H2 3394   5.622   5.007   3.190
 1130TIP3   OH2 3395   0.864   5.701   4.067
 1130TIP3    H1 3396   0.913   5.691   3.985
 1130TIP3    H2 3397   0.808   5.623   4.070
 1131TIP3   OH2 3398   0.207   0.836   3.142
 1131TIP3    H1 3399   0.289   0.842   3.094
 1131TIP3    H2 3400   0.188   0.742   3.147
 1132TIP3   OH2 3401   0.764   4.848   3.809
 1132TIP3    H1 3402   0.804   4.933   3.789
 1132TIP3    H2 3403   0.690   4.842   3.750
 1133TIP3   OH2 3404   6.353   1.425   3.998
 1133TIP3    H1 3405   6.350   1.348   4.055
 1133TIP3    H2 3406   6.327   1.392   3.912
 1134TIP3   OH2 3407   5.382   3.375   0.956
 1134TIP3    H1 3408   5.306   3.387   0.900
 1134TIP3    H2 3409   5.396   3.462   0.996
 1135TIP3   OH2 3410   5.025   2.854   2.093
 1135TIP3    H1 3411   5.086   2.849   2.166
 1135TIP3    H2 3412   5.053   2.932   2.044
 1136TIP3   OH2 3413   0.051   2.722   2.923
 1136TIP3    H1 3414   0.064   2.745   2.831
 1136TIP3    H2 3415   0.116   2.774   2.971
 1137TIP3   OH2 3416   6.217   3.224   0.063
 1137TIP3    H1 3417   6.189   3.212   0.154
 1137TIP3    H2 3418   6.173   3.154   0.015
 1138TIP3   OH2 3419   2.175   4.492   4.770
 1138TIP3    H1 3420   2.148   4.416   4.719
 1138TIP3    H2 3421   2.248   4.530   4.720
 1139TIP3   OH2 3422   1.585   3.229   0.484
 1139TIP3    H1 3423   1.505   3.207   0.532
 1139TIP3    H2 3424   1.584   3.324   0.478
 1140TIP3   OH2 3425   0.561   5.339   4.247
 1140TIP3    H1 3426   0.560   5.267   4.185
 1140TIP3    H2 3427   0.646   5.331   4.292
 1141TIP3   OH2 3428   2.240   3.187   2.358
 1141TIP3    H1 3429   2.256   3.281   2.350
 1141TIP3    H2 3430   2.326   3.147   2.352
 1142TIP3   OH2 3431   2.810   0.502   1.302
 1142TIP3    H1 3432   2.881   0.534   1.247
 1142TIP3    H2 3433   2.854   0.461   1.377
 1143TIP3   OH2 3434   4.104   1.311   0.721
 1143TIP3    H1 3435   4.152   1.245   0.671
 1143TIP3    H2 3436   4.039   1.260   0.770
 1144TIP3   OH2 3437   1.004   4.515   5.074
 1144TIP3    H1 3438   1.072   4.552   5.017
 1144TIP3    H2 3439   0.951   4.590   5.101
 1145TIP3   OH2 3440   1.466   3.162   0.843
 1145TIP3    H1 3441   1.544   3.188   0.893
 1145TIP3    H2 3442   1.394   3.207   0.887
 1146TIP3   OH2 3443   3.183   0.211   2.581
 1146TIP3    H1 3444   3.204   0.280   2.644
 1146TIP3    H2 3445   3.237   0.136   2.609
 1147TIP3   OH2 3446   0.344   5.714   2.668
 1147TIP3    H1 3447   0.385   5.800   2.665
 1147TIP3    H2 3448   0.251   5.732   2.654
 1148TIP3   OH2 3449   3.893   2.492   5.095
 1148TIP3    H1 3450   3.976   2.474   5.139
 1148TIP3    H2 3451   3.829   2.439   5.142
 1149TIP3   OH2 3452   3.208   2.594   3.727
 1149TIP3    H1 3453   3.162   2.548   3.656
 1149TIP3    H2 3454   3.249   2.525   3.778
 1150TIP3   OH2 3455   5.465   1.937   4.497
 1150TIP3    H1 3456   5.494   1.923   4.407
 1150TIP3    H2 3457   5.523   2.005   4.531
 1151TIP3   OH2 3458   0.951   1.144   1.024
 1151TIP3    H1 3459   0.899   1.065   1.009
 1151TIP3    H2 3460   1.021   1.140   0.959
 1152TIP3   OH2 3461   3.851   5.388   1.155
 1152TIP3    H1 3462   3.797   5.467   1.159
 1152TIP3    H2 3463   3.934   5.418   1.118
 1153TIP3   OH2 3464   0.483   3.929   1.363
 1153TIP3    H1 3465   0.576   3.909   1.358
 1153TIP3    H2 3466   0.463   3.927   1.457
 1154TIP3   OH2 3467   3.608   3.813   2.409
 1154TIP3    H1 3468   3.686   3.785   2.360
 1154TIP3    H2 3469   3.617   3.908   2.416
 1155TIP3   OH2 3470   0.903   3.009   3.527
 1155TIP3    H1 3471   0.905   2.964   3.443
 1155TIP3    H2 3472   0.836   3.076   3.517
 1156TIP3   OH2 3473   2.558   1.559   2.696
 1156TIP3    H1 3474   2.485   1.513   2.737
 1156TIP3    H2 3475   2.565   1.519   2.609
 1157TIP3   OH2 3476   6.171   0.285   0.077
 1157TIP3    H1 3477   6.205   0.254  -0.007
 1157TIP3    H2 3478   6.076   0.273   0.071
 1158TIP3   OH2 3479   0.088   3.157   1.440
 1158TIP3    H1 3480   0.133   3.225   1.389
 1158TIP3    H2 3481   0.067   3.089   1.376
 1159TIP3   OH2 3482   5.911   1.474   4.552
 1159TIP3    H1 3483   5.993   1.466   4.601
 1159TIP3    H2 3484   5.843   1.477   4.620
 1160TIP3   OH2 3485   4.728   0.787   2.087
 1160TIP3    H1 3486   4.711   0.765   1.996
 1160TIP3    H2 3487   4.650   0.834   2.116
 1161TIP3   OH2 3488   3.096   0.413   3.175
 1161TIP3    H1 3489   3.139   0.498   3.179
 1161TIP3    H2 3490   3.033   0.422   3.103
 1162TIP3   OH2 3491   3.564   4.432   2.251
 1162TIP3    H1 3492   3.516   4.363   2.295
 1162TIP3    H2 3493   3.656   4.406   2.260
 1163TIP3   OH2 3494   1.412   5.898   0.647
 1163TIP3    H1 3495   1.376   5.976   0.689
 1163TIP3    H2 3496   1.379   5.901   0.557
 1164TIP3   OH2 3497   3.047   0.959   1.947
 1164TIP3    H1 3498   3.005   1.002   1.873
 1164TIP3    H2 3499   3.126   0.919   1.910
 1165TIP3   OH2 3500   2.305   2.219   4.116
 1165TIP3    H1 3501   2.380   2.266   4.151
 1165TIP3    H2 3502   2.337   2.130   4.101
 1166TIP3   OH2 3503   2.964   1.930   3.081
 1166TIP3    H1 3504   2.993   2.018   3.058
 1166TIP3    H2 3505   2.959   1.883   2.997
 1167TIP3   OH2 3506   3.844   3.371   1.363
 1167TIP3    H1 3507   3.819   3.426   1.289
 1167TIP3    H2 3508   3.761   3.350   1.406
 1168TIP3   OH2 3509   5.951   1.706   0.831
 1168TIP3    H1 3510   5.896   1.778   0.801
 1168TIP3    H2 3511   5.896   1.658   0.893
 1169TIP3   OH2 3512   1.074   0.851   1.279
 1169TIP3    H1 3513   1.022   0.926   1.309
 1169TIP3    H2 3514   1.163   0.872   1.306
 1170TIP3   OH2 3515   2.751   4.267   1.445
 1170TIP3    H1 3516   2.671   4.233   1.486
 1170TIP3    H2 3517   2.719   4.322   1.373
 1171TIP3   OH2 3518   2.242   1.413   4.549
 1171TIP3    H1 3519   2.177   1.423   4.619
 1171TIP3    H2 3520   2.246   1.318   4.533
 1172TIP3   OH2 3521   5.886   5.456   1.970
 1172TIP3    H1 3522   5.976   5.440   1.998
 1172TIP3    H2 3523   5.856   5.527   2.027
 1173TIP3   OH2 3524   3.014   4.523   1.951
 1173TIP3    H1 3525   3.029   4.439   1.995
 1173TIP3    H2 3526   3.041   4.589   2.016
 1174TIP3   OH2 3527   0.639   5.637   3.817
 1174TIP3    H1 3528   0.549   5.637   3.784
 1174TIP3    H2 3529   0.633   5.677   3.904
 1175TIP3   OH2 3530   3.408   1.065   5.107
 1175TIP3    H1 3531   3.395   0.974   5.131
 1175TIP3    H2 3532   3.489   1.066   5.056
 1176TIP3   OH2 3533   3.489   1.528   5.012
 1176TIP3    H1 3534   3.562   1.477   4.976
 1176TIP3    H2 3535   3.528   1.577   5.085
 1177TIP3   OH2 3536   1.089   5.016   2.885
 1177TIP3    H1 3537   1.153   5.087   2.876
 1177TIP3    H2 3538   1.142   4.938   2.901
 1178TIP3   OH2 3539   1.851   4.639   4.134
 1178TIP3    H1 3540   1.810   4.563   4.174
 1178TIP3    H2 3541   1.801   4.655   4.054
 1179TIP3   OH2 3542   4.655   3.409   1.971
 1179TIP3    H1 3543   4.742   3.445   1.990
 1179TIP3    H2 3544   4.594   3.479   1.995
 1180TIP3   OH2 3545   5.937   1.917   0.361
 1180TIP3    H1 3546   5.889   1.988   0.318
 1180TIP3    H2 3547   5.983   1.960   0.433
 1181TIP3   OH2 3548   5.609   3.842   3.446
 1181TIP3    H1 3549   5.568   3.871   3.528
 1181TIP3    H2 3550   5.538   3.802   3.396
 1182TIP3   OH2 3551   2.838   2.122   1.911
 1182TIP3    H1 3552   2.864   2.165   1.829
 1182TIP3    H2 3553   2.775   2.055   1.883
 1183TIP3   OH2 3554   6.025   3.379   3.860
 1183TIP3    H1 3555   5.986   3.296   3.885
 1183TIP3    H2 3556   5.970   3.410   3.787
 1184TIP3   OH2 3557   4.266   2.585   1.913
 1184TIP3    H1 3558   4.344   2.628   1.948
 1184TIP3    H2 3559   4.207   2.657   1.892
 1185TIP3   OH2 3560   3.205   4.567   3.933
 1185TIP3    H1 3561   3.145   4.640   3.948
 1185TIP3    H2 3562   3.280   4.605   3.887
 1186TIP3   OH2 3563   1.919   1.374   3.580
 1186TIP3    H1 3564   1.982   1.364   3.509
 1186TIP3    H2 3565   1.874   1.457   3.560
 1187TIP3   OH2 3566   0.655   3.351   1.404
 1187TIP3    H1 3567   0.652   3.304   1.487
 1187TIP3    H2 3568   0.658   3.444   1.430
 1188TIP3   OH2 3569   4.035   4.548   3.898
 1188TIP3    H1 3570   3.943   4.564   3.920
 1188TIP3    H2 3571   4.033   4.512   3.809
 1189TIP3   OH2 3572   0.750   2.072   0.662
 1189TIP3    H1 3573   0.761   1.977   0.663
 1189TIP3    H2 3574   0.838   2.107   0.647
 1190TIP3   OH2 3575   0.733   4.428   1.839
 1190TIP3    H1 3576   0.781   4.488   1.783
 1190TIP3    H2 3577   0.793   4.408   1.911
 1191TIP3   OH2 3578   4.955   0.965   0.102
 1191TIP3    H1 3579   4.900   1.042   0.092
 1191TIP3    H2 3580   5.034   0.985   0.052
 1192TIP3   OH2 3581   3.812   3.202   1.135
 1192TIP3    H1 3582   3.860   3.266   1.187
 1192TIP3    H2 3583   3.825   3.119   1.180
 1193TIP3   OH2 3584   5.580   5.202   2.805
 1193TIP3    H1 3585   5.508   5.245   2.851
 1193TIP3    H2 3586   5.540   5.166   2.726
 1194TIP3   OH2 3587   0.390   5.141   4.557
 1194TIP3    H1 3588   0.362   5.049   4.553
 1194TIP3    H2 3589   0.345   5.176   4.634
 1195TIP3   OH2 3590   0.937   0.271   0.326
 1195TIP3    H1 3591   1.007   0.205   0.330
 1195TIP3    H2 3592   0.971   0.345   0.377
 1196TIP3   OH2 3593   6.297   5.227   2.085
 1196TIP3    H1 3594   6.271   5.254   1.997
 1196TIP3    H2 3595   6.286   5.132   2.085
 1197TIP3   OH2 3596   3.493   2.224   4.535
 1197TIP3    H1 3597   3.529   2.222   4.624
 1197TIP3    H2 3598   3.404   2.259   4.546
 1198TIP3   OH2 3599   0.059   3.427   1.741
 1198TIP3    H1 3600   0.059   3.454   1.649
 1198TIP3    H2 3601   0.013   3.498   1.787
 1199TIP3   OH2 3602   2.867   3.496   2.109
 1199TIP3    H1 3603   2.934   3.465   2.169
 1199TIP3    H2 3604   2.809   3.420   2.097
 1200TIP3   OH2 3605   2.822   0.486   3.248
 1200TIP3    H1 3606   2.774   0.409   3.279
 1200TIP3    H2 3607   2.908   0.452   3.225
 1201TIP3   OH2 3608   3.769   3.656   3.161
 1201TIP3    H1 3609   3.794   3.727   3.102
 1201TIP3    H2 3610   3.831   3.663   3.234
 1202TIP3   OH2 3611   1.701   1.747   0.894
 1202TIP3    H1 3612   1.625   1.692   0.874
 1202TIP3    H2 3613   1.775   1.700   0.856
 1203TIP3   OH2 3614   0.761   5.832   0.140
 1203TIP3    H1 3615   0.795   5.884   0.213
 1203TIP3    H2 3616   0.838   5.807   0.090
 1204TIP3   OH2 3617   0.968   0.501   3.058
 1204TIP3    H1 3618   0.884   0.455   3.061
 1204TIP3    H2 3619   1.027   0.441   3.013
 1205TIP3   OH2 3620   3.059   5.707   4.148
 1205TIP3    H1 3621   3.006   5.779   4.113
 1205TIP3    H2 3622   3.147   5.743   4.155
 1206TIP3   OH2 3623   4.907   3.401   3.361
 1206TIP3    H1 3624   4.878   3.365   3.277
 1206TIP3    H2 3625   4.958   3.330   3.401
 1207TIP3   OH2 3626   5.838   3.618   3.732
 1207TIP3    H1 3627   5.834   3.621   3.828
 1207TIP3    H2 3628   5.888   3.696   3.708
 1208TIP3   OH2 3629   2.949   1.256   0.893
 1208TIP3    H1 3630   3.035   1.299   0.890
 1208TIP3    H2 3631   2.894   1.309   0.835
 1209TIP3   OH2 3632   2.483   5.459   2.773
 1209TIP3    H1 3633   2.513   5.422   2.690
 1209TIP3    H2 3634   2.434   5.388   2.815
 1210TIP3   OH2 3635   0.204   1.888   4.300
 1210TIP3    H1 3636   0.289   1.929   4.317
 1210TIP3    H2 3637   0.174   1.858   4.385
 1211TIP3   OH2 3638   3.440   3.015   0.747
 1211TIP3    H1 3639   3.502   3.036   0.678
 1211TIP3    H2 3640   3.415   2.924   0.731
 1212TIP3   OH2 3641   3.948   2.921   0.840
 1212TIP3    H1 3642   3.985   2.838   0.808
 1212TIP3    H2 3643   3.913   2.964   0.762
 1213TIP3   OH2 3644   3.921   2.551   2.893
 1213TIP3    H1 3645   3.840   2.584   2.856
 1213TIP3    H2 3646   3.894   2.500   2.969
 1214TIP3   OH2 3647   1.673   3.328   5.193
 1214TIP3    H1 3648   1.713   3.391   5.133
 1214TIP3    H2 3649   1.639   3.259   5.136
 1215TIP3   OH2 3650   2.506   2.771   4.202
 1215TIP3    H1 3651   2.418   2.810   4.197
 1215TIP3    H2 3652   2.508   2.708   4.129
 1216TIP3   OH2 3653   0.945   2.396   3.453
 1216TIP3    H1 3654   1.024   2.346   3.433
 1216TIP3    H2 3655   0.977   2.483   3.475
 1217TIP3   OH2 3656   4.846   1.374   4.444
 1217TIP3    H1 3657   4.873   1.291   4.404
 1217TIP3    H2 3658   4.913   1.390   4.511
 1218TIP3   OH2 3659   3.419   0.863   2.258
 1218TIP3    H1 3660   3.452   0.919   2.328
 1218TIP3    H2 3661   3.328   0.847   2.280
 1219TIP3   OH2 3662   1.866   5.128   4.642
 1219TIP3    H1 3663   1.930   5.185   4.685
 1219TIP3    H2 3664   1.909   5.102   4.560
 1220TIP3   OH2 3665   5.501   0.540   3.884
 1220TIP3    H1 3666   5.581   0.487   3.887
 1220TIP3    H2 3667   5.517   0.610   3.947
 1221TIP3   OH2 3668   0.437   2.301   1.201
 1221TIP3    H1 3669   0.382   2.233   1.239
 1221TIP3    H2 3670   0.395   2.383   1.227
 1222TIP3   OH2 3671   3.876   0.508   2.005
 1222TIP3    H1 3672   3.806   0.476   1.947
 1222TIP3    H2 3673   3.941   0.438   2.005
 1223TIP3   OH2 3674   5.170   3.543   1.081
 1223TIP3    H1 3675   5.101   3.605   1.104
 1223TIP3    H2 3676   5.135   3.458   1.106
 1224TIP3   OH2 3677   3.709   5.457   4.514
 1224TIP3    H1 3678   3.741   5.530   4.568
 1224TIP3    H2 3679   3.724   5.487   4.424
 1225TIP3   OH2 3680   0.101   2.709   2.146
 1225TIP3    H1 3681   0.131   2.641   2.207
 1225TIP3    H2 3682   0.152   2.694   2.067
 1226TIP3   OH2 3683   3.476   1.760   3.091
 1226TIP3    H1 3684   3.414   1.829   3.070
 1226TIP3    H2 3685   3.559   1.790   3.056
 1227TIP3   OH2 3686   3.179   0.956   1.377
 1227TIP3    H1 3687   3.114   1.017   1.413
 1227TIP3    H2 3688   3.248   1.013   1.341
 1228TIP3   OH2 3689   5.732   4.997   1.209
 1228TIP3    H1 3690   5.811   4.944   1.219
 1228TIP3    H2 3691   5.729   5.050   1.288
 1229TIP3   OH2 3692   0.815   2.909   3.778
 1229TIP3    H1 3693   0.837   2.816   3.778
 1229TIP3    H2 3694   0.874   2.947   3.713
 1230TIP3   OH2 3695   0.881   2.332   0.014
 1230TIP3    H1 3696   0.907   2.272  -0.056
 1230TIP3    H2 3697   0.800   2.294   0.049
 1231TIP3   OH2 3698   3.520   0.121   1.026
 1231TIP3    H1 3699   3.611   0.117   1.056
 1231TIP3    H2 3700   3.472   0.156   1.101
 1232TIP3   OH2 3701   2.436   3.447   1.107
 1232TIP3    H1 3702   2.450   3.507   1.034
 1232TIP3    H2 3703   2.466   3.495   1.184
 1233TIP3   OH2 3704   1.867   2.200   5.052
 1233TIP3    H1 3705   1.855   2.119   5.003
 1233TIP3    H2 3706   1.852   2.175   5.143
 1234TIP3   OH2 3707   4.736   4.652   0.036
 1234TIP3    H1 3708   4.758   4.561   0.017
 1234TIP3    H2 3709   4.818   4.691   0.066
 1235TIP3   OH2 3710   4.485   4.713   1.696
 1235TIP3    H1 3711   4.488   4.803   1.664
 1235TIP3    H2 3712   4.571   4.677   1.674
 1236TIP3   OH2 3713   4.170   1.091   1.789
 1236TIP3    H1 3714   4.081   1.125   1.780
 1236TIP3    H2 3715   4.181   1.032   1.714
 1237TIP3   OH2 3716   6.239   1.810   0.202
 1237TIP3    H1 3717   6.297   1.794   0.276
 1237TIP3    H2 3718   6.243   1.904   0.187
 1238TIP3   OH2 3719   4.802   1.940   2.682
 1238TIP3    H1 3720   4.849   1.959   2.600
 1238TIP3    H2 3721   4.737   2.010   2.689
 1239TIP3   OH2 3722   2.560   1.231   2.070
 1239TIP3    H1 3723   2.519   1.311   2.103
 1239TIP3    H2 3724   2.519   1.216   1.985
 1240TIP3   OH2 3725   4.549   0.906   2.349
 1240TIP3    H1 3726   4.540   0.943   2.261
 1240TIP3    H2 3727   4.632   0.940   2.380
 1241TIP3   OH2 3728   1.221   1.699   2.828
 1241TIP3    H1 3729   1.216   1.766   2.896
 1241TIP3    H2 3730   1.173   1.737   2.754
 1242TIP3   OH2 3731   0.598   1.007   1.577
 1242TIP3    H1 3732   0.690   0.981   1.571
 1242TIP3    H2 3733   0.550   0.934   1.537
 1243TIP3   OH2 3734   4.402   5.029   0.221
 1243TIP3    H1 3735   4.354   5.007   0.301
 1243TIP3    H2 3736   4.491   4.996   0.236
 1244TIP3   OH2 3737   1.676   2.619   1.520
 1244TIP3    H1 3738   1.631   2.703   1.521
 1244TIP3    H2 3739   1.606   2.554   1.528
 1245TIP3   OH2 3740   4.722   4.514   3.526
 1245TIP3    H1 3741   4.698   4.474   3.609
 1245TIP3    H2 3742   4.770   4.445   3.479
 1246TIP3   OH2 3743   0.109   0.983   3.860
 1246TIP3    H1 3744   0.030   0.964   3.909
 1246TIP3    H2 3745   0.178   0.993   3.926
 1247TIP3   OH2 3746   3.490   4.908   0.655
 1247TIP3    H1 3747   3.454   4.829   0.615
 1247TIP3    H2 3748   3.482   4.894   0.749
 1248TIP3   OH2 3749   2.921   4.266   1.668
 1248TIP3    H1 3750   2.867   4.263   1.590
 1248TIP3    H2 3751   2.861   4.289   1.739
 1249TIP3   OH2 3752   1.601   4.707   0.229
 1249TIP3    H1 3753   1.524   4.667   0.271
 1249TIP3    H2 3754   1.636   4.766   0.294
 1250TIP3   OH2 3755   3.388   1.247   0.033
 1250TIP3    H1 3756   3.467   1.234   0.086
 1250TIP3    H2 3757   3.323   1.189   0.073
 1251TIP3   OH2 3758   4.122   1.266   3.130
 1251TIP3    H1 3759   4.124   1.252   3.035
 1251TIP3    H2 3760   4.196   1.215   3.163
 1252TIP3   OH2 3761   3.623   1.005   1.946
 1252TIP3    H1 3762   3.676   1.031   2.021
 1252TIP3    H2 3763   3.553   0.951   1.984
 1253TIP3   OH2 3764   3.239   0.696   1.293
 1253TIP3    H1 3765   3.329   0.665   1.306
 1253TIP3    H2 3766   3.242   0.789   1.317
 1254TIP3   OH2 3767   0.133   1.817   0.791
 1254TIP3    H1 3768   0.038   1.821   0.776
 1254TIP3    H2 3769   0.164   1.905   0.767
 1255TIP3   OH2 3770   5.013   0.580   0.331
 1255TIP3    H1 3771   5.059   0.663   0.340
 1255TIP3    H2 3772   5.075   0.515   0.364
 1256TIP3   OH2 3773   0.963   5.793   2.701
 1256TIP3    H1 3774   0.966   5.853   2.626
 1256TIP3    H2 3775   1.010   5.839   2.770
 1257TIP3   OH2 3776   1.168   4.208   4.021
 1257TIP3    H1 3777   1.156   4.293   3.979
 1257TIP3    H2 3778   1.081   4.167   4.018
 1258TIP3   OH2 3779   2.294   1.134   1.950
 1258TIP3    H1 3780   2.260   1.220   1.972
 1258TIP3    H2 3781   2.228   1.096   1.891
 1259TIP3   OH2 3782   0.778   1.606   2.619
 1259TIP3    H1 3783   0.812   1.534   2.567
 1259TIP3    H2 3784   0.688   1.580   2.639
 1260TIP3   OH2 3785   2.897   4.686   0.006
 1260TIP3    H1 3786   2.865   4.622   0.070
 1260TIP3    H2 3787   2.820   4.739  -0.014
 1261TIP3   OH2 3788   5.119   5.620   2.546
 1261TIP3    H1 3789   5.161   5.626   2.460
 1261TIP3    H2 3790   5.104   5.710   2.573
 1262TIP3   OH2 3791   2.939   5.177   1.352
 1262TIP3    H1 3792   2.981   5.151   1.270
 1262TIP3    H2 3793   2.959   5.105   1.412
 1263TIP3   OH2 3794   0.428   1.036   2.694
 1263TIP3    H1 3795   0.363   0.967   2.686
 1263TIP3    H2 3796   0.406   1.098   2.625
 1264TIP3   OH2 3797   0.506   4.240   1.126
 1264TIP3    H1 3798   0.550   4.179   1.067
 1264TIP3    H2 3799   0.464   4.304   1.069
 1265TIP3   OH2 3800   0.149   1.541   4.492
 1265TIP3    H1 3801   0.226   1.504   4.449
 1265TIP3    H2 3802   0.096   1.576   4.421
 1266TIP3   OH2 3803   0.061   1.263   0.949
 1266TIP3    H1 3804   0.128   1.250   1.016
 1266TIP3    H2 3805  -0.001   1.324   0.989
 1267TIP3   OH2 3806   1.576   2.953   0.720
 1267TIP3    H1 3807   1.522   2.879   0.747
 1267TIP3    H2 3808   1.532   3.030   0.756
 1268TIP3   OH2 3809   4.895   4.498   2.226
 1268TIP3    H1 3810   4.890   4.406   2.197
 1268TIP3    H2 3811   4.962   4.536   2.169
 1269TIP3   OH2 3812   4.368   3.481   1.024
 1269TIP3    H1 3813   4.439   3.503   0.964
 1269TIP3    H2 3814   4.310   3.424   0.974
 1270TIP3   OH2 3815   2.615   5.641   1.645
 1270TIP3    H1 3816   2.626   5.555   1.605
 1270TIP3    H2 3817   2.542   5.630   1.706
 1271TIP3   OH2 3818   0.400   5.791   4.136
 1271TIP3    H1 3819   0.373   5.880   4.155
 1271TIP3    H2 3820   0.378   5.741   4.214
 1272TIP3   OH2 3821   3.378   2.692   4.529
 1272TIP3    H1 3822   3.434   2.703   4.606
 1272TIP3    H2 3823   3.419   2.621   4.480
 1273TIP3   OH2 3824   1.876   0.937   1.140
 1273TIP3    H1 3825   1.961   0.910   1.175
 1273TIP3    H2 3826   1.887   1.029   1.117
 1274TIP3   OH2 3827   5.851   2.704   2.536
 1274TIP3    H1 3828   5.840   2.782   2.480
 1274TIP3    H2 3829   5.835   2.736   2.625
 1275TIP3   OH2 3830   1.808   0.342   4.225
 1275TIP3    H1 3831   1.800   0.345   4.130
 1275TIP3    H2 3832   1.900   0.323   4.241
 1276TIP3   OH2 3833   4.197   2.699   5.125
 1276TIP3    H1 3834   4.207   2.698   5.220
 1276TIP3    H2 3835   4.103   2.689   5.111
 1277TIP3   OH2 3836   1.873   0.717   3.979
 1277TIP3    H1 3837   1.888   0.793   4.035
 1277TIP3    H2 3838   1.782   0.726   3.951
 1278TIP3   OH2 3839   4.543   2.184   2.930
 1278TIP3    H1 3840   4.484   2.112   2.906
 1278TIP3    H2 3841   4.484   2.252   2.963
 1279TIP3   OH2 3842   3.335   1.336   5.177
 1279TIP3    H1 3843   3.409   1.392   5.155
 1279TIP3    H2 3844   3.346   1.259   5.120
 1280TIP3   OH2 3845   3.470   0.223   0.352
 1280TIP3    H1 3846   3.432   0.138   0.375
 1280TIP3    H2 3847   3.398   0.271   0.311
 1281TIP3   OH2 3848   1.954   3.709   5.166
 1281TIP3    H1 3849   2.025   3.733   5.108
 1281TIP3    H2 3850   1.983   3.627   5.207
 1282TIP3   OH2 3851   2.544   2.112   3.654
 1282TIP3    H1 3852   2.575   2.171   3.585
 1282TIP3    H2 3853   2.497   2.043   3.606
 1283TIP3   OH2 3854   5.693   0.167   2.937
 1283TIP3    H1 3855   5.703   0.226   3.012
 1283TIP3    H2 3856   5.770   0.110   2.942
 1284TIP3   OH2 3857   5.922   4.850   1.372
 1284TIP3    H1 3858   5.872   4.811   1.443
 1284TIP3    H2 3859   5.920   4.783   1.303
 1285TIP3   OH2 3860   0.828   5.984   5.199
 1285TIP3    H1 3861   0.889   5.950   5.134
 1285TIP3    H2 3862   0.764   5.913   5.212
 1286TIP3   OH2 3863   0.332   5.586   3.757
 1286TIP3    H1 3864   0.243   5.586   3.723
 1286TIP3    H2 3865   0.375   5.511   3.715
 1287TIP3   OH2 3866   3.487   0.684   3.962
 1287TIP3    H1 3867   3.468   0.599   4.001
 1287TIP3    H2 3868   3.491   0.667   3.868
 1288TIP3   OH2 3869   4.256   5.529   2.867
 1288TIP3    H1 3870   4.319   5.512   2.938
 1288TIP3    H2 3871   4.188   5.463   2.879
 1289TIP3   OH2 3872   2.491   4.916   4.241
 1289TIP3    H1 3873   2.418   4.855   4.255
 1289TIP3    H2 3874   2.554   4.866   4.189
 1290TIP3   OH2 3875   5.876   5.415   5.040
 1290TIP3    H1 3876   5.854   5.384   4.952
 1290TIP3    H2 3877   5.793   5.413   5.088
 1291TIP3   OH2 3878   5.216   5.324   4.435
 1291TIP3    H1 3879   5.172   5.409   4.441
 1291TIP3    H2 3880   5.146   5.260   4.444
 1292TIP3   OH2 3881   5.116   4.773   3.514
 1292TIP3    H1 3882   5.112   4.709   3.443
 1292TIP3    H2 3883   5.052   4.742   3.578
 1293TIP3   OH2 3884   0.409   0.122   0.639
 1293TIP3    H1 3885   0.337   0.066   0.611
 1293TIP3    H2 3886   0.425   0.095   0.730
 1294TIP3   OH2 3887   3.839   4.922   2.510
 1294TIP3    H1 3888   3.883   4.909   2.426
 1294TIP3    H2 3889   3.900   4.885   2.574
 1295TIP3   OH2 3890   1.137   5.492   1.856
 1295TIP3    H1 3891   1.135   5.587   1.873
 1295TIP3    H2 3892   1.193   5.457   1.926
 1296TIP3   OH2 3893   5.153   0.392   5.113
 1296TIP3    H1 3894   5.185   0.329   5.177
 1296TIP3    H2 3895   5.156   0.476   5.158
 1297TIP3   OH2 3896   6.261   3.043   2.031
 1297TIP3    H1 3897   6.286   3.085   2.113
 1297TIP3    H2 3898   6.173   3.076   2.013
 1298TIP3   OH2 3899   2.057   5.453   3.163
 1298TIP3    H1 3900   2.056   5.466   3.258
 1298TIP3    H2 3901   1.968   5.474   3.135
 1299TIP3   OH2 3902   0.009   3.533   2.562
 1299TIP3    H1 3903   0.075   3.484   2.513
 1299TIP3    H2 3904  -0.060   3.470   2.580
 1300TIP3   OH2 3905   2.160   5.320   1.317
 1300TIP3    H1 3906   2.248   5.360   1.317
 1300TIP3    H2 3907   2.158   5.267   1.396
 1301TIP3   OH2 3908   6.103   5.913   2.535
 1301TIP3    H1 3909   6.118   5.820   2.550
 1301TIP3    H2 3910   6.150   5.957   2.606
 1302TIP3   OH2 3911   5.448   3.918   3.111
 1302TIP3    H1 3912   5.502   3.985   3.153
 1302TIP3    H2 3913   5.436   3.851   3.178
 1303TIP3   OH2 3914   1.204   2.114   4.612
 1303TIP3    H1 3915   1.158   2.185   4.566
 1303TIP3    H2 3916   1.134   2.057   4.644
 1304TIP3   OH2 3917   2.033   1.176   1.523
 1304TIP3    H1 3918   1.957   1.127   1.493
 1304TIP3    H2 3919   2.090   1.182   1.446
 1305TIP3   OH2 3920   4.657   3.163   3.049
 1305TIP3    H1 3921   4.591   3.128   2.990
 1305TIP3    H2 3922   4.737   3.115   3.027
 1306TIP3   OH2 3923   5.524   4.681   4.756
 1306TIP3    H1 3924   5.600   4.727   4.791
 1306TIP3    H2 3925   5.479   4.647   4.834
 1307TIP3   OH2 3926   1.997   5.195   2.570
 1307TIP3    H1 3927   2.092   5.205   2.572
 1307TIP3    H2 3928   1.983   5.101   2.585
 1308TIP3   OH2 3929   1.993   3.443   1.861
 1308TIP3    H1 3930   1.899   3.455   1.850
 1308TIP3    H2 3931   2.029   3.448   1.772
 1309TIP3   OH2 3932   0.150   4.225   1.477
 1309TIP3    H1 3933   0.210   4.193   1.410
 1309TIP3    H2 3934   0.207   4.250   1.550
 1310TIP3   OH2 3935   4.022   0.746   3.990
 1310TIP3    H1 3936   3.996   0.775   4.077
 1310TIP3    H2 3937   4.022   0.825   3.937
 1311TIP3   OH2 3938   1.117   0.177   4.187
 1311TIP3    H1 3939   1.181   0.218   4.245
 1311TIP3    H2 3940   1.079   0.250   4.139
 1312TIP3   OH2 3941   2.804   1.677   0.807
 1312TIP3    H1 3942   2.822   1.753   0.863
 1312TIP3    H2 3943   2.722   1.641   0.841
 1313TIP3   OH2 3944   6.109   3.224   1.654
 1313TIP3    H1 3945   6.046   3.229   1.582
 1313TIP3    H2 3946   6.093   3.304   1.705
 1314TIP3   OH2 3947   0.583   2.006   3.314
 1314TIP3    H1 3948   0.565   1.988   3.406
 1314TIP3    H2 3949   0.651   1.943   3.290
 1315TIP3   OH2 3950   2.204   2.997   0.823
 1315TIP3    H1 3951   2.287   3.036   0.794
 1315TIP3    H2 3952   2.152   2.990   0.744
 1316TIP3   OH2 3953   0.237   2.528   4.491
 1316TIP3    H1 3954   0.187   2.584   4.431
 1316TIP3    H2 3955   0.171   2.483   4.543
 1317TIP3   OH2 3956   2.412   0.511   4.332
 1317TIP3    H1 3957   2.422   0.605   4.318
 1317TIP3    H2 3958   2.392   0.475   4.245
 1318TIP3   OH2 3959   3.768   5.380   4.063
 1318TIP3    H1 3960   3.803   5.291   4.068
 1318TIP3    H2 3961   3.767   5.400   3.969
 1319TIP3   OH2 3962   0.829   2.711   2.336
 1319TIP3    H1 3963   0.896   2.729   2.271
 1319TIP3    H2 3964   0.762   2.778   2.320
 1320TIP3   OH2 3965   5.969   2.976   0.099
 1320TIP3    H1 3966   5.906   2.915   0.059
 1320TIP3    H2 3967   5.916   3.030   0.158
 1321TIP3   OH2 3968   3.989   4.940   2.291
 1321TIP3    H1 3969   3.982   4.920   2.198
 1321TIP3    H2 3970   4.063   5.000   2.297
 1322TIP3   OH2 3971   3.191   0.887   1.708
 1322TIP3    H1 3972   3.110   0.836   1.708
 1322TIP3    H2 3973   3.170   0.968   1.662
 1323TIP3   OH2 3974   5.192   3.563   0.503
 1323TIP3    H1 3975   5.103   3.597   0.509
 1323TIP3    H2 3976   5.227   3.603   0.423
 1324TIP3   OH2 3977   5.518   0.482   0.094
 1324TIP3    H1 3978   5.510   0.400   0.046
 1324TIP3    H2 3979   5.606   0.480   0.131
 1325TIP3   OH2 3980   0.200   3.318   0.904
 1325TIP3    H1 3981   0.282   3.269   0.908
 1325TIP3    H2 3982   0.225   3.404   0.870
 1326TIP3   OH2 3983   3.241   0.048   4.040
 1326TIP3    H1 3984   3.246  -0.009   4.117
 1326TIP3    H2 3985   3.148   0.056   4.023
 1327TIP3   OH2 3986   0.740   1.124   3.833
 1327TIP3    H1 3987   0.670   1.141   3.897
 1327TIP3    H2 3988   0.694   1.103   3.752
 1328TIP3   OH2 3989   6.311   1.200   2.887
 1328TIP3    H1 3990   6.283   1.149   2.811
 1328TIP3    H2 3991   6.403   1.177   2.898
 1329TIP3   OH2 3992   2.081   4.402   1.331
 1329TIP3    H1 3993   2.006   4.356   1.295
 1329TIP3    H2 3994   2.049   4.490   1.350
 1330TIP3   OH2 3995   4.498   1.676   3.299
 1330TIP3    H1 3996   4.427   1.719   3.348
 1330TIP3    H2 3997   4.575   1.686   3.355
 1331TIP3   OH2 3998   5.680   2.238   0.512
 1331TIP3    H1 3999   5.750   2.279   0.461
 1331TIP3    H2 4000   5.671   2.151   0.474
 1332TIP3   OH2 4001   2.066   4.864   2.021
 1332TIP3    H1 4002   2.013   4.842   2.097
 1332TIP3    H2 4003   2.155   4.871   2.054
 1333TIP3   OH2 4004   1.541   5.679   0.743
 1333TIP3    H1 4005   1.545   5.628   0.662
 1333TIP3    H2 4006   1.491   5.757   0.720
 1334TIP3   OH2 4007   2.866   0.346   3.917
 1334TIP3    H1 4008   2.788   0.402   3.918
 1334TIP3    H2 4009   2.929   0.393   3.864
 1335TIP3   OH2 4010   6.231   2.300   2.016
 1335TIP3    H1 4011   6.311   2.248   2.013
 1335TIP3    H2 4012   6.235   2.346   2.100
 1336TIP3   OH2 4013   4.528   1.020   4.457
 1336TIP3    H1 4014   4.475   1.002   4.380
 1336TIP3    H2 4015   4.545   0.933   4.495
 1337TIP3   OH2 4016   1.606   0.236   5.099
 1337TIP3    H1 4017   1.657   0.245   5.179
 1337TIP3    H2 4018   1.598   0.141   5.085
 1338TIP3   OH2 4019   0.162   0.598   3.376
 1338TIP3    H1 4020   0.226   0.573   3.309
 1338TIP3    H2 4021   0.160   0.524   3.436
 1339TIP3   OH2 4022   1.058   1.035   1.695
 1339TIP3    H1 4023   1.128   1.073   1.749
 1339TIP3    H2 4024   1.093   0.952   1.665
 1340TIP3   OH2 4025   3.433   5.805   4.506
 1340TIP3    H1 4026   3.379   5.783   4.430
 1340TIP3    H2 4027   3.437   5.724   4.557
 1341TIP3   OH2 4028   5.454   2.504   1.462
 1341TIP3    H1 4029   5.454   2.441   1.389
 1341TIP3    H2 4030   5.489   2.455   1.536
 1342TIP3   OH2 4031   0.227   0.953   2.122
 1342TIP3    H1 4032   0.248   0.918   2.209
 1342TIP3    H2 4033   0.194   1.041   2.139
 1343TIP3   OH2 4034   2.011   1.874   4.476
 1343TIP3    H1 4035   1.996   1.782   4.452
 1343TIP3    H2 4036   2.024   1.871   4.571
 1344TIP3   OH2 4037   2.909   2.097   3.836
 1344TIP3    H1 4038   2.887   2.041   3.762
 1344TIP3    H2 4039   2.834   2.090   3.895
 1345TIP3   OH2 4040   2.747   0.977   2.550
 1345TIP3    H1 4041   2.659   1.000   2.521
 1345TIP3    H2 4042   2.778   0.913   2.486
 1346TIP3   OH2 4043   1.642   2.699   5.032
 1346TIP3    H1 4044   1.681   2.677   5.117
 1346TIP3    H2 4045   1.574   2.763   5.052
 1347TIP3   OH2 4046   1.448   1.062   0.186
 1347TIP3    H1 4047   1.369   1.112   0.207
 1347TIP3    H2 4048   1.421   0.970   0.195
 1348TIP3   OH2 4049   6.286   4.673   1.328
 1348TIP3    H1 4050   6.376   4.653   1.353
 1348TIP3    H2 4051   6.279   4.768   1.335
 1349TIP3   OH2 4052   2.386   4.320   2.299
 1349TIP3    H1 4053   2.306   4.296   2.347
 1349TIP3    H2 4054   2.421   4.236   2.269
 1350TIP3   OH2 4055   4.115   3.919   1.100
 1350TIP3    H1 4056   4.149   3.839   1.060
 1350TIP3    H2 4057   4.189   3.954   1.149
 1351TIP3   OH2 4058   4.803   3.805   5.025
 1351TIP3    H1 4059   4.773   3.804   5.116
 1351TIP3    H2 4060   4.843   3.720   5.012
 1352TIP3   OH2 4061   2.437   1.910   5.118
 1352TIP3    H1 4062   2.447   1.840   5.184
 1352TIP3    H2 4063   2.518   1.906   5.067
 1353TIP3   OH2 4064   5.009   0.950   3.808
 1353TIP3    H1 4065   5.096   0.962   3.846
 1353TIP3    H2 4066   5.025   0.949   3.713
 1354TIP3   OH2 4067   6.234   1.889   4.337
 1354TIP3    H1 4068   6.189   1.945   4.274
 1354TIP3    H2 4069   6.245   1.944   4.415
 1355TIP3   OH2 4070   1.137   5.863   2.022
 1355TIP3    H1 4071   1.068   5.915   2.064
 1355TIP3    H2 4072   1.137   5.892   1.931
 1356TIP3   OH2 4073   5.672   4.190   2.919
 1356TIP3    H1 4074   5.741   4.231   2.971
 1356TIP3    H2 4075   5.608   4.260   2.905
 1357TIP3   OH2 4076   5.429   2.803   5.023
 1357TIP3    H1 4077   5.479   2.878   4.989
 1357TIP3    H2 4078   5.407   2.752   4.945
 1358TIP3   OH2 4079   2.434   2.424   3.349
 1358TIP3    H1 4080   2.399   2.354   3.404
 1358TIP3    H2 4081   2.461   2.492   3.412
 1359TIP3   OH2 4082   5.094   1.337   0.842
 1359TIP3    H1 4083   5.160   1.390   0.797
 1359TIP3    H2 4084   5.013   1.353   0.794
 1360TIP3   OH2 4085   4.815   0.068   5.115
 1360TIP3    H1 4086   4.733   0.076   5.163
 1360TIP3    H2 4087   4.789   0.039   5.027
 1361TIP3   OH2 4088   0.075   2.988   4.845
 1361TIP3    H1 4089   0.024   3.008   4.923
 1361TIP3    H2 4090   0.118   3.071   4.822
 1362TIP3   OH2 4091   1.863   4.158   4.093
 1362TIP3    H1 4092   1.923   4.090   4.122
 1362TIP3    H2 4093   1.827   4.125   4.011
 1363TIP3   OH2 4094   1.299   5.484   1.499
 1363TIP3    H1 4095   1.305   5.577   1.520
 1363TIP3    H2 4096   1.305   5.481   1.404
 1364TIP3   OH2 4097   3.926   4.969   1.583
 1364TIP3    H1 4098   3.872   4.996   1.509
 1364TIP3    H2 4099   3.969   5.049   1.612
 1365TIP3   OH2 4100   5.830   5.275   0.804
 1365TIP3    H1 4101   5.850   5.338   0.873
 1365TIP3    H2 4102   5.782   5.205   0.848
 1366TIP3   OH2 4103   2.431   2.382   1.400
 1366TIP3    H1 4104   2.511   2.418   1.438
 1366TIP3    H2 4105   2.364   2.448   1.416
 1367TIP3   OH2 4106   6.311   1.706   2.964
 1367TIP3    H1 4107   6.273   1.707   2.876
 1367TIP3    H2 4108   6.301   1.615   2.994
 1368TIP3   OH2 4109   1.140   0.057   2.747
 1368TIP3    H1 4110   1.120   0.017   2.832
 1368TIP3    H2 4111   1.056   0.060   2.701
 1369TIP3   OH2 4112   1.408   5.129   0.181
 1369TIP3    H1 4113   1.395   5.223   0.171
 1369TIP3    H2 4114   1.323   5.091   0.159
 1370TIP3   OH2 4115   2.092   4.700   4.258
 1370TIP3    H1 4116   2.003   4.695   4.222
 1370TIP3    H2 4117   2.078   4.721   4.351
 1371TIP3   OH2 4118   3.317   5.867   5.076
 1371TIP3    H1 4119   3.339   5.783   5.117
 1371TIP3    H2 4120   3.260   5.911   5.140
 1372TIP3   OH2 4121   3.158   3.845   2.461
 1372TIP3    H1 4122   3.076   3.890   2.439
 1372TIP3    H2 4123   3.130   3.766   2.507
 1373TIP3   OH2 4124   1.281   5.253   2.841
 1373TIP3    H1 4125   1.289   5.318   2.771
 1373TIP3    H2 4126   1.215   5.291   2.901
 1374TIP3   OH2 4127   3.246   5.208   0.782
 1374TIP3    H1 4128   3.302   5.214   0.705
 1374TIP3    H2 4129   3.157   5.221   0.749
 1375TIP3   OH2 4130   5.890   5.792   1.271
 1375TIP3    H1 4131   5.975   5.797   1.314
 1375TIP3    H2 4132   5.887   5.871   1.216
 1376TIP3   OH2 4133   6.294   3.847   4.663
 1376TIP3    H1 4134   6.359   3.917   4.656
 1376TIP3    H2 4135   6.307   3.794   4.585
 1377TIP3   OH2 4136   3.017   2.719   3.202
 1377TIP3    H1 4137   2.982   2.743   3.288
 1377TIP3    H2 4138   2.942   2.724   3.143
 1378TIP3   OH2 4139   5.658   3.131   0.650
 1378TIP3    H1 4140   5.611   3.079   0.715
 1378TIP3    H2 4141   5.599   3.203   0.628
 1379TIP3   OH2 4142   3.215   0.888   2.585
 1379TIP3    H1 4143   3.231   0.983   2.588
 1379TIP3    H2 4144   3.125   0.878   2.615
 1380TIP3   OH2 4145   1.900   5.928   1.899
 1380TIP3    H1 4146   1.816   5.971   1.915
 1380TIP3    H2 4147   1.958   5.966   1.965
 1381TIP3   OH2 4148   5.846   2.859   5.064
 1381TIP3    H1 4149   5.878   2.772   5.085
 1381TIP3    H2 4150   5.895   2.917   5.123
 1382TIP3   OH2 4151   5.111   4.013   1.025
 1382TIP3    H1 4152   5.019   3.990   1.037
 1382TIP3    H2 4153   5.132   4.069   1.100
 1383TIP3   OH2 4154   5.552   1.690   2.975
 1383TIP3    H1 4155   5.644   1.688   2.947
 1383TIP3    H2 4156   5.522   1.777   2.949
 1384TIP3   OH2 4157   5.049   3.955   2.853
 1384TIP3    H1 4158   5.137   3.984   2.826
 1384TIP3    H2 4159   5.065   3.894   2.925
 1385TIP3   OH2 4160   3.738   1.778   3.497
 1385TIP3    H1 4161   3.734   1.868   3.530
 1385TIP3    H2 4162   3.649   1.760   3.465
 1386TIP3   OH2 4163   4.302   5.375   2.127
 1386TIP3    H1 4164   4.357   5.383   2.205
 1386TIP3    H2 4165   4.212   5.374   2.161
 1387TIP3   OH2 4166   3.636   1.235   4.422
 1387TIP3    H1 4167   3.652   1.261   4.513
 1387TIP3    H2 4168   3.568   1.294   4.391
 1388TIP3   OH2 4169   1.149   4.461   1.345
 1388TIP3    H1 4170   1.128   4.393   1.409
 1388TIP3    H2 4171   1.144   4.415   1.260
 1389TIP3   OH2 4172   1.948   3.410   0.982
 1389TIP3    H1 4173   1.949   3.395   0.888
 1389TIP3    H2 4174   1.997   3.492   0.994
 1390TIP3   OH2 4175   2.021   3.441   2.392
 1390TIP3    H1 4176   1.981   3.413   2.310
 1390TIP3    H2 4177   2.115   3.446   2.372
 1391TIP3   OH2 4178   5.396   1.450   4.976
 1391TIP3    H1 4179   5.489   1.437   4.957
 1391TIP3    H2 4180   5.358   1.478   4.893
 1392TIP3   OH2 4181   4.475   5.381   3.031
 1392TIP3    H1 4182   4.450   5.308   3.087
 1392TIP3    H2 4183   4.524   5.341   2.959
 1393TIP3   OH2 4184   2.054   4.758   4.963
 1393TIP3    H1 4185   1.987   4.815   5.001
 1393TIP3    H2 4186   2.137   4.802   4.982
 1394TIP3   OH2 4187   5.028   4.396   1.815
 1394TIP3    H1 4188   5.050   4.310   1.850
 1394TIP3    H2 4189   5.007   4.381   1.723
 1395TIP3   OH2 4190   5.134   1.445   2.401
 1395TIP3    H1 4191   5.113   1.527   2.444
 1395TIP3    H2 4192   5.050   1.402   2.387
 1396TIP3   OH2 4193   0.067   4.516   4.236
 1396TIP3    H1 4194   0.051   4.543   4.326
 1396TIP3    H2 4195  -0.020   4.515   4.195
 1397TIP3   OH2 4196   2.871   4.140   3.001
 1397TIP3    H1 4197   2.822   4.086   3.062
 1397TIP3    H2 4198   2.804   4.187   2.950
 1398TIP3   OH2 4199   3.844   1.103   1.124
 1398TIP3    H1 4200   3.926   1.083   1.078
 1398TIP3    H2 4201   3.775   1.080   1.062
 1399TIP3   OH2 4202   3.481   5.223   1.323
 1399TIP3    H1 4203   3.490   5.198   1.231
 1399TIP3    H2 4204   3.442   5.146   1.365
 1400TIP3   OH2 4205   5.367   3.639   2.660
 1400TIP3    H1 4206   5.369   3.679   2.747
 1400TIP3    H2 4207   5.274   3.634   2.638
 1401TIP3   OH2 4208   0.498   1.858   1.230
 1401TIP3    H1 4209   0.452   1.897   1.305
 1401TIP3    H2 4210   0.565   1.922   1.207
 1402TIP3   OH2 4211   3.127   3.068   5.051
 1402TIP3    H1 4212   3.092   3.112   4.974
 1402TIP3    H2 4213   3.061   3.081   5.119
 1403TIP3   OH2 4214   5.780   4.084   1.656
 1403TIP3    H1 4215   5.820   4.134   1.586
 1403TIP3    H2 4216   5.776   3.994   1.623
 1404TIP3   OH2 4217   4.650   1.306   0.733
 1404TIP3    H1 4218   4.565   1.345   0.753
 1404TIP3    H2 4219   4.684   1.279   0.818
 1405TIP3   OH2 4220   4.080   2.457   1.637
 1405TIP3    H1 4221   4.161   2.507   1.628
 1405TIP3    H2 4222   4.037   2.465   1.551
 1406TIP3   OH2 4223   0.727   4.153   2.361
 1406TIP3    H1 4224   0.739   4.134   2.454
 1406TIP3    H2 4225   0.730   4.067   2.318
 1407TIP3   OH2 4226   1.779   3.499   3.802
 1407TIP3    H1 4227   1.721   3.569   3.832
 1407TIP3    H2 4228   1.721   3.430   3.773
 1408TIP3   OH2 4229   5.133   3.324   5.034
 1408TIP3    H1 4230   5.079   3.403   5.030
 1408TIP3    H2 4231   5.117   3.279   4.952
 1409TIP3   OH2 4232   2.290   5.049   4.365
 1409TIP3    H1 4233   2.360   5.012   4.311
 1409TIP3    H2 4234   2.334   5.110   4.424
 1410TIP3   OH2 4235   0.859   2.024   0.173
 1410TIP3    H1 4236   0.916   2.044   0.099
 1410TIP3    H2 4237   0.771   2.017   0.135
 1411TIP3   OH2 4238   0.611   2.791   0.216
 1411TIP3    H1 4239   0.535   2.818   0.164
 1411TIP3    H2 4240   0.685   2.795   0.156
 1412TIP3   OH2 4241   2.836   4.973   0.955
 1412TIP3    H1 4242   2.807   5.048   0.902
 1412TIP3    H2 4243   2.925   4.995   0.981
 1413TIP3   OH2 4244   4.491   4.321   0.041
 1413TIP3    H1 4245   4.408   4.306  -0.005
 1413TIP3    H2 4246   4.557   4.286  -0.018
 1414TIP3   OH2 4247   0.478   0.074   2.091
 1414TIP3    H1 4248   0.562   0.111   2.118
 1414TIP3    H2 4249   0.473  -0.009   2.139
 1415TIP3   OH2 4250   1.964   0.514   3.242
 1415TIP3    H1 4251   1.981   0.538   3.150
 1415TIP3    H2 4252   1.972   0.419   3.244
 1416TIP3   OH2 4253   2.691   2.752   3.870
 1416TIP3    H1 4254   2.606   2.716   3.892
 1416TIP3    H2 4255   2.748   2.676   3.862
 1417TIP3   OH2 4256   4.227   5.623   3.572
 1417TIP3    H1 4257   4.259   5.609   3.483
 1417TIP3    H2 4258   4.219   5.718   3.580
 1418TIP3   OH2 4259   2.419   1.066   3.418
 1418TIP3    H1 4260   2.370   1.125   3.477
 1418TIP3    H2 4261   2.507   1.103   3.416
 1419TIP3   OH2 4262   4.198   4.731   1.254
 1419TIP3    H1 4263   4.141   4.746   1.329
 1419TIP3    H2 4264   4.243   4.814   1.241
 1420TIP3   OH2 4265   0.833   5.569   1.011
 1420TIP3    H1 4266   0.798   5.563   0.922
 1420TIP3    H2 4267   0.861   5.660   1.021
 1421TIP3   OH2 4268   5.805   3.087   3.501
 1421TIP3    H1 4269   5.738   3.146   3.467
 1421TIP3    H2 4270   5.758   3.031   3.563
 1422TIP3   OH2 4271   0.789   1.440   3.485
 1422TIP3    H1 4272   0.771   1.506   3.418
 1422TIP3    H2 4273   0.704   1.401   3.504
 1423TIP3   OH2 4274   5.728   0.375   0.230
 1423TIP3    H1 4275   5.769   0.335   0.154
 1423TIP3    H2 4276   5.798   0.426   0.271
 1424TIP3   OH2 4277   2.084   0.693   4.203
 1424TIP3    H1 4278   2.060   0.602   4.217
 1424TIP3    H2 4279   2.176   0.690   4.176
 1425TIP3   OH2 4280   6.247   2.546   1.122
 1425TIP3    H1 4281   6.214   2.596   1.196
 1425TIP3    H2 4282   6.341   2.561   1.122
 1426TIP3   OH2 4283   1.787   0.623   1.888
 1426TIP3    H1 4284   1.844   0.581   1.823
 1426TIP3    H2 4285   1.815   0.587   1.972
 1427TIP3   OH2 4286   2.946   2.051   1.415
 1427TIP3    H1 4287   2.884   1.983   1.390
 1427TIP3    H2 4288   3.021   2.038   1.356
 1428TIP3   OH2 4289   5.528   3.846   2.397
 1428TIP3    H1 4290   5.486   3.880   2.477
 1428TIP3    H2 4291   5.593   3.784   2.429
 1429TIP3   OH2 4292   5.709   1.575   2.130
 1429TIP3    H1 4293   5.650   1.629   2.077
 1429TIP3    H2 4294   5.783   1.557   2.073
 1430TIP3   OH2 4295   1.484   2.446   1.665
 1430TIP3    H1 4296   1.496   2.399   1.582
 1430TIP3    H2 4297   1.452   2.380   1.726
 1431TIP3   OH2 4298   6.018   0.333   1.476
 1431TIP3    H1 4299   5.981   0.412   1.438
 1431TIP3    H2 4300   6.090   0.309   1.417
 1432TIP3   OH2 4301   5.850   3.144   4.362
 1432TIP3    H1 4302   5.835   3.086   4.287
 1432TIP3    H2 4303   5.944   3.135   4.380
 1433TIP3   OH2 4304   4.734   2.023   4.605
 1433TIP3    H1 4305   4.687   1.959   4.658
 1433TIP3    H2 4306   4.666   2.068   4.556
 1434TIP3   OH2 4307   4.861   5.675   1.916
 1434TIP3    H1 4308   4.776   5.635   1.931
 1434TIP3    H2 4309   4.867   5.745   1.981
 1435TIP3   OH2 4310   1.356   5.225   1.393
 1435TIP3    H1 4311   1.342   5.311   1.433
 1435TIP3    H2 4312   1.301   5.226   1.315
 1436TIP3   OH2 4313   5.883   3.165   3.958
 1436TIP3    H1 4314   5.873   3.106   3.883
 1436TIP3    H2 4315   5.872   3.108   4.034
 1437TIP3   OH2 4316   1.552   1.721   3.868
 1437TIP3    H1 4317   1.565   1.630   3.893
 1437TIP3    H2 4318   1.583   1.771   3.944
 1438TIP3   OH2 4319   1.347   0.697   2.802
 1438TIP3    H1 4320   1.319   0.729   2.716
 1438TIP3    H2 4321   1.440   0.721   2.807
 1439TIP3   OH2 4322   4.162   0.101   3.197
 1439TIP3    H1 4323   4.194   0.015   3.172
 1439TIP3    H2 4324   4.096   0.084   3.264
 1440TIP3   OH2 4325   2.969   4.072   1.009
 1440TIP3    H1 4326   2.947   4.091   1.099
 1440TIP3    H2 4327   3.004   3.983   1.011
 1441TIP3   OH2 4328   6.094   0.258   0.990
 1441TIP3    H1 4329   6.069   0.306   0.911
 1441TIP3    H2 4330   6.040   0.179   0.989
 1442TIP3   OH2 4331   5.348   1.178   0.183
 1442TIP3    H1 4332   5.284   1.238   0.146
 1442TIP3    H2 4333   5.401   1.149   0.108
 1443TIP3   OH2 4334   2.272   4.704   0.811
 1443TIP3    H1 4335   2.348   4.757   0.785
 1443TIP3    H2 4336   2.197   4.751   0.776
 1444TIP3   OH2 4337   2.768   5.857   1.152
 1444TIP3    H1 4338   2.719   5.836   1.072
 1444TIP3    H2 4339   2.818   5.777   1.171
 1445TIP3   OH2 4340   3.212   4.022   1.200
 1445TIP3    H1 4341   3.233   4.089   1.134
 1445TIP3    H2 4342   3.184   3.946   1.149
 1446TIP3   OH2 4343   4.714   2.289   3.131
 1446TIP3    H1 4344   4.780   2.235   3.175
 1446TIP3    H2 4345   4.683   2.233   3.059
 1447TIP3   OH2 4346   0.130   1.130  -0.003
 1447TIP3    H1 4347   0.184   1.051  -0.008
 1447TIP3    H2 4348   0.179   1.190   0.053
 1448TIP3   OH2 4349   6.262   4.590   2.942
 1448TIP3    H1 4350   6.278   4.683   2.929
 1448TIP3    H2 4351   6.231   4.583   3.032
 1449TIP3   OH2 4352   4.702   0.764   3.277
 1449TIP3    H1 4353   4.730   0.814   3.200
 1449TIP3    H2 4354   4.665   0.830   3.336
 1450TIP3   OH2 4355   2.414   2.194   1.792
 1450TIP3    H1 4356   2.479   2.261   1.772
 1450TIP3    H2 4357   2.342   2.242   1.833
 1451TIP3   OH2 4358   5.141   2.842   1.183
 1451TIP3    H1 4359   5.140   2.778   1.254
 1451TIP3    H2 4360   5.230   2.837   1.148
 1452TIP3   OH2 4361   2.104   1.140   2.375
 1452TIP3    H1 4362   2.064   1.157   2.460
 1452TIP3    H2 4363   2.051   1.191   2.313
 1453TIP3   OH2 4364   1.966   5.145   3.612
 1453TIP3    H1 4365   1.905   5.127   3.541
 1453TIP3    H2 4366   1.914   5.190   3.678
 1454TIP3   OH2 4367   2.902   4.823   0.668
 1454TIP3    H1 4368   2.816   4.864   0.664
 1454TIP3    H2 4369   2.940   4.855   0.749
 1455TIP3   OH2 4370   4.823   1.766   1.070
 1455TIP3    H1 4371   4.837   1.798   1.159
 1455TIP3    H2 4372   4.886   1.694   1.061
 1456TIP3   OH2 4373   2.622   2.730   4.460
 1456TIP3    H1 4374   2.557   2.663   4.483
 1456TIP3    H2 4375   2.583   2.779   4.388
 1457TIP3   OH2 4376   3.920   2.021   2.188
 1457TIP3    H1 4377   3.986   1.986   2.247
 1457TIP3    H2 4378   3.968   2.082   2.131
 1458TIP3   OH2 4379   2.563   0.194   1.494
 1458TIP3    H1 4380   2.571   0.225   1.404
 1458TIP3    H2 4381   2.574   0.273   1.548
 1459TIP3   OH2 4382   3.670   0.998   2.345
 1459TIP3    H1 4383   3.693   0.940   2.418
 1459TIP3    H2 4384   3.649   0.939   2.273
 1460TIP3   OH2 4385   2.835   1.413   3.173
 1460TIP3    H1 4386   2.850   1.430   3.080
 1460TIP3    H2 4387   2.883   1.482   3.219
 1461TIP3   OH2 4388   4.461   1.423   0.899
 1461TIP3    H1 4389   4.407   1.496   0.869
 1461TIP3    H2 4390   4.443   1.417   0.993
 1462TIP3   OH2 4391   5.312   3.121   3.693
 1462TIP3    H1 4392   5.331   3.027   3.701
 1462TIP3    H2 4393   5.236   3.125   3.636
 1463TIP3   OH2 4394   3.760   2.439   4.423
 1463TIP3    H1 4395   3.807   2.517   4.394
 1463TIP3    H2 4396   3.733   2.459   4.513
 1464TIP3   OH2 4397   5.098   3.971   4.866
 1464TIP3    H1 4398   5.144   4.014   4.793
 1464TIP3    H2 4399   5.032   3.916   4.824
 1465TIP3   OH2 4400   5.804   4.982   1.871
 1465TIP3    H1 4401   5.853   4.913   1.825
 1465TIP3    H2 4402   5.832   4.974   1.962
 1466TIP3   OH2 4403   5.837   3.720   2.103
 1466TIP3    H1 4404   5.821   3.800   2.054
 1466TIP3    H2 4405   5.873   3.749   2.186
 1467TIP3   OH2 4406   1.628   1.337   3.551
 1467TIP3    H1 4407   1.717   1.369   3.570
 1467TIP3    H2 4408   1.635   1.299   3.464
 1468TIP3   OH2 4409   0.144   4.302   4.571
 1468TIP3    H1 4410   0.190   4.342   4.498
 1468TIP3    H2 4411   0.130   4.373   4.633
 1469TIP3   OH2 4412   5.595   2.593   0.002
 1469TIP3    H1 4413   5.502   2.587  -0.020
 1469TIP3    H2 4414   5.596   2.625   0.092
 1470TIP3   OH2 4415   0.544   5.441   0.159
 1470TIP3    H1 4416   0.609   5.455   0.228
 1470TIP3    H2 4417   0.473   5.501   0.181
 1471TIP3   OH2 4418   0.400   4.298   0.415
 1471TIP3    H1 4419   0.416   4.256   0.331
 1471TIP3    H2 4420   0.402   4.227   0.479
 1472TIP3   OH2 4421   1.107   5.226   1.269
 1472TIP3    H1 4422   1.043   5.227   1.340
 1472TIP3    H2 4423   1.057   5.199   1.192
 1473TIP3   OH2 4424   6.186   0.966   3.993
 1473TIP3    H1 4425   6.139   0.883   4.000
 1473TIP3    H2 4426   6.129   1.021   3.939
 1474TIP3   OH2 4427   1.170   2.046   0.320
 1474TIP3    H1 4428   1.240   2.100   0.357
 1474TIP3    H2 4429   1.171   1.967   0.373
 1475TIP3   OH2 4430   2.056   5.389   4.692
 1475TIP3    H1 4431   2.063   5.480   4.721
 1475TIP3    H2 4432   2.138   5.349   4.719
 1476TIP3   OH2 4433   5.153   0.671   2.059
 1476TIP3    H1 4434   5.071   0.630   2.088
 1476TIP3    H2 4435   5.126   0.758   2.028
 1477TIP3   OH2 4436   1.210   3.768   1.855
 1477TIP3    H1 4437   1.131   3.770   1.801
 1477TIP3    H2 4438   1.265   3.702   1.814
 1478TIP3   OH2 4439   2.392   2.771   0.602
 1478TIP3    H1 4440   2.437   2.832   0.661
 1478TIP3    H2 4441   2.447   2.770   0.523
 1479TIP3   OH2 4442   4.878   1.571   1.513
 1479TIP3    H1 4443   4.799   1.542   1.466
 1479TIP3    H2 4444   4.862   1.664   1.531
 1480TIP3   OH2 4445   4.929   3.095   3.219
 1480TIP3    H1 4446   4.982   3.022   3.251
 1480TIP3    H2 4447   4.843   3.082   3.257
 1481TIP3   OH2 4448   5.199   2.043   2.807
 1481TIP3    H1 4449   5.134   1.980   2.839
 1481TIP3    H2 4450   5.149   2.103   2.751
 1482TIP3   OH2 4451   3.996   2.642   4.892
 1482TIP3    H1 4452   3.956   2.582   4.955
 1482TIP3    H2 4453   3.973   2.729   4.924
 1483TIP3   OH2 4454   2.944   0.864   4.387
 1483TIP3    H1 4455   2.880   0.799   4.357
 1483TIP3    H2 4456   3.017   0.856   4.326
 1484TIP3   OH2 4457   1.893   4.632   1.874
 1484TIP3    H1 4458   1.934   4.620   1.960
 1484TIP3    H2 4459   1.894   4.727   1.861
 1485TIP3   OH2 4460   2.114   0.503   2.961
 1485TIP3    H1 4461   2.176   0.439   2.996
 1485TIP3    H2 4462   2.134   0.507   2.868
 1486TIP3   OH2 4463   2.356   0.453   4.591
 1486TIP3    H1 4464   2.324   0.540   4.568
 1486TIP3    H2 4465   2.391   0.418   4.509
 1487TIP3   OH2 4466   3.922   2.667   3.479
 1487TIP3    H1 4467   3.915   2.583   3.524
 1487TIP3    H2 4468   3.889   2.731   3.542
 1488TIP3   OH2 4469   5.852   4.227   1.449
 1488TIP3    H1 4470   5.853   4.323   1.454
 1488TIP3    H2 4471   5.939   4.204   1.417
 1489TIP3   OH2 4472   0.842   5.212   0.510
 1489TIP3    H1 4473   0.930   5.188   0.538
 1489TIP3    H2 4474   0.843   5.307   0.505
 1490TIP3   OH2 4475   5.934   0.970   2.497
 1490TIP3    H1 4476   5.944   0.915   2.419
 1490TIP3    H2 4477   5.858   1.025   2.477
 1491TIP3   OH2 4478   6.098   4.138   1.396
 1491TIP3    H1 4479   6.134   4.147   1.308
 1491TIP3    H2 4480   6.107   4.045   1.416
 1492TIP3   OH2 4481   2.961   5.705   2.692
 1492TIP3    H1 4482   2.962   5.754   2.609
 1492TIP3    H2 4483   3.005   5.622   2.672
 1493TIP3   OH2 4484   2.510   1.092   2.479
 1493TIP3    H1 4485   2.441   1.080   2.413
 1493TIP3    H2 4486   2.479   1.163   2.535
 1494TIP3   OH2 4487   3.631   0.118   4.787
 1494TIP3    H1 4488   3.659   0.195   4.738
 1494TIP3    H2 4489   3.570   0.072   4.728
 1495TIP3   OH2 4490   4.126   0.953   2.632
 1495TIP3    H1 4491   4.172   0.868   2.636
 1495TIP3    H2 4492   4.140   0.991   2.719
 1496TIP3   OH2 4493   6.110   2.630   0.780
 1496TIP3    H1 4494   6.046   2.604   0.847
 1496TIP3    H2 4495   6.175   2.560   0.781
 1497TIP3   OH2 4496   5.978   5.918   4.899
 1497TIP3    H1 4497   6.004   5.924   4.991
 1497TIP3    H2 4498   5.882   5.913   4.901
 1498TIP3   OH2 4499   2.490   2.285   4.292
 1498TIP3    H1 4500   2.579   2.252   4.276
 1498TIP3    H2 4501   2.471   2.258   4.382
 1499TIP3   OH2 4502   4.618   3.444   2.360
 1499TIP3    H1 4503   4.535   3.434   2.314
 1499TIP3    H2 4504   4.661   3.360   2.350
 1500TIP3   OH2 4505   4.234   3.786   3.765
 1500TIP3    H1 4506   4.287   3.756   3.692
 1500TIP3    H2 4507   4.181   3.857   3.728
 1501TIP3   OH2 4508   5.192   2.138   1.634
 1501TIP3    H1 4509   5.101   2.143   1.604
 1501TIP3    H2 4510   5.243   2.123   1.554
 1502TIP3   OH2 4511   5.668   3.582   3.520
 1502TIP3    H1 4512   5.701   3.597   3.608
 1502TIP3    H2 4513   5.636   3.668   3.492
 1503TIP3   OH2 4514   2.703   5.863   0.326
 1503TIP3    H1 4515   2.632   5.800   0.323
 1503TIP3    H2 4516   2.711   5.895   0.236
 1504TIP3   OH2 4517   2.292   0.513   0.635
 1504TIP3    H1 4518   2.218   0.452   0.625
 1504TIP3    H2 4519   2.255   0.588   0.681
 1505TIP3   OH2 4520   3.669   1.872   1.868
 1505TIP3    H1 4521   3.658   1.955   1.913
 1505TIP3    H2 4522   3.624   1.808   1.923
 1506TIP3   OH2 4523   0.092   0.690   2.080
 1506TIP3    H1 4524   0.127   0.635   2.151
 1506TIP3    H2 4525   0.162   0.755   2.065
 1507TIP3   OH2 4526   5.078   4.451   1.079
 1507TIP3    H1 4527   5.130   4.371   1.090
 1507TIP3    H2 4528   5.029   4.437   0.998
 1508TIP3   OH2 4529   6.234   0.302   2.578
 1508TIP3    H1 4530   6.158   0.248   2.599
 1508TIP3    H2 4531   6.249   0.355   2.656
 1509TIP3   OH2 4532   1.050   1.744   5.174
 1509TIP3    H1 4533   0.958   1.721   5.186
 1509TIP3    H2 4534   1.074   1.707   5.089
 1510TIP3   OH2 4535   4.796   5.622   1.381
 1510TIP3    H1 4536   4.709   5.624   1.341
 1510TIP3    H2 4537   4.781   5.648   1.472
 1511TIP3   OH2 4538   5.695   4.182   4.649
 1511TIP3    H1 4539   5.764   4.198   4.585
 1511TIP3    H2 4540   5.732   4.115   4.707
 1512TIP3   OH2 4541   3.378   3.717   2.878
 1512TIP3    H1 4542   3.388   3.704   2.972
 1512TIP3    H2 4543   3.309   3.783   2.870
 1513TIP3   OH2 4544   6.077   2.082   2.995
 1513TIP3    H1 4545   6.047   2.168   2.967
 1513TIP3    H2 4546   6.055   2.077   3.088
 1514TIP3   OH2 4547   2.514   2.759   1.462
 1514TIP3    H1 4548   2.515   2.673   1.505
 1514TIP3    H2 4549   2.480   2.819   1.529
 1515TIP3   OH2 4550   1.501   5.448   2.680
 1515TIP3    H1 4551   1.578   5.498   2.708
 1515TIP3    H2 4552   1.534   5.393   2.609
 1516TIP3   OH2 4553   3.832   2.375   2.082
 1516TIP3    H1 4554   3.751   2.416   2.053
 1516TIP3    H2 4555   3.900   2.437   2.059
 1517TIP3   OH2 4556   5.110   0.684   3.057
 1517TIP3    H1 4557   5.099   0.736   2.978
 1517TIP3    H2 4558   5.188   0.631   3.040
 1518TIP3   OH2 4559   1.977   0.030   1.305
 1518TIP3    H1 4560   2.012  -0.019   1.379
 1518TIP3    H2 4561   1.962   0.118   1.340
 1519TIP3   OH2 4562   5.337   1.942   2.588
 1519TIP3    H1 4563   5.299   1.974   2.670
 1519TIP3    H2 4564   5.355   1.849   2.605
 1520TIP3   OH2 4565   3.114   3.841   5.055
 1520TIP3    H1 4566   3.062   3.871   5.129
 1520TIP3    H2 4567   3.069   3.877   4.978
 1521TIP3   OH2 4568   5.941   0.573   0.298
 1521TIP3    H1 4569   5.898   0.599   0.379
 1521TIP3    H2 4570   6.019   0.627   0.293
 1522TIP3   OH2 4571   4.648   5.755   0.226
 1522TIP3    H1 4572   4.574   5.730   0.171
 1522TIP3    H2 4573   4.721   5.765   0.166
 1523TIP3   OH2 4574   6.225   1.907   2.457
 1523TIP3    H1 4575   6.159   1.853   2.414
 1523TIP3    H2 4576   6.278   1.941   2.385
 1524TIP3   OH2 4577   2.038   3.209   0.129
 1524TIP3    H1 4578   2.076   3.131   0.171
 1524TIP3    H2 4579   2.023   3.270   0.202
 1525TIP3   OH2 4580   4.695   2.871   4.208
 1525TIP3    H1 4581   4.715   2.778   4.200
 1525TIP3    H2 4582   4.667   2.898   4.120
 1526TIP3   OH2 4583   1.595   1.993   1.263
 1526TIP3    H1 4584   1.682   1.953   1.254
 1526TIP3    H2 4585   1.593   2.023   1.354
 1527TIP3   OH2 4586   2.361   0.432   1.277
 1527TIP3    H1 4587   2.432   0.495   1.265
 1527TIP3    H2 4588   2.401   0.347   1.258
 1528TIP3   OH2 4589   1.799   3.546   0.029
 1528TIP3    H1 4590   1.883   3.568   0.068
 1528TIP3    H2 4591   1.755   3.630   0.017
 1529TIP3   OH2 4592   0.638   0.337   3.521
 1529TIP3    H1 4593   0.719   0.287   3.521
 1529TIP3    H2 4594   0.660   0.418   3.475
 1530TIP3   OH2 4595   4.552   0.928   0.536
 1530TIP3    H1 4596   4.529   1.015   0.503
 1530TIP3    H2 4597   4.640   0.912   0.503
 1531TIP3   OH2 4598   5.335   0.781   3.781
 1531TIP3    H1 4599   5.254   0.731   3.790
 1531TIP3    H2 4600   5.403   0.723   3.815
 1532TIP3   OH2 4601   5.336   1.977   3.996
 1532TIP3    H1 4602   5.343   2.072   4.002
 1532TIP3    H2 4603   5.361   1.945   4.082
 1533TIP3   OH2 4604   4.241   3.719   3.517
 1533TIP3    H1 4605   4.306   3.766   3.464
 1533TIP3    H2 4606   4.237   3.632   3.478
 1534TIP3   OH2 4607   1.093   1.579   1.752
 1534TIP3    H1 4608   1.033   1.634   1.802
 1534TIP3    H2 4609   1.171   1.572   1.808
 1535TIP3   OH2 4610   4.830   5.107   4.865
 1535TIP3    H1 4611   4.771   5.129   4.793
 1535TIP3    H2 4612   4.816   5.014   4.881
 1536TIP3   OH2 4613   5.694   0.978   0.905
 1536TIP3    H1 4614   5.782   1.005   0.880
 1536TIP3    H2 4615   5.695   0.883   0.896
 1537TIP3   OH2 4616   4.934   0.561   4.883
 1537TIP3    H1 4617   5.013   0.614   4.877
 1537TIP3    H2 4618   4.963   0.480   4.925
 1538TIP3   OH2 4619   0.702   0.811   1.267
 1538TIP3    H1 4620   0.727   0.848   1.351
 1538TIP3    H2 4621   0.680   0.720   1.286
 1539TIP3   OH2 4622   3.370   2.318   1.724
 1539TIP3    H1 4623   3.376   2.296   1.631
 1539TIP3    H2 4624   3.442   2.271   1.765
 1540TIP3   OH2 4625   5.234   4.394   4.986
 1540TIP3    H1 4626   5.303   4.348   4.939
 1540TIP3    H2 4627   5.158   4.336   4.980
 1541TIP3   OH2 4628   4.954   5.301   2.813
 1541TIP3    H1 4629   4.960   5.219   2.862
 1541TIP3    H2 4630   4.861   5.324   2.815
 1542TIP3   OH2 4631   0.818   1.011   0.000
 1542TIP3    H1 4632   0.807   1.003   0.095
 1542TIP3    H2 4633   0.802   1.103  -0.019
 1543TIP3   OH2 4634   3.746   5.540   2.195
 1543TIP3    H1 4635   3.718   5.465   2.143
 1543TIP3    H2 4636   3.836   5.556   2.167
 1544TIP3   OH2 4637   6.220   5.555   2.356
 1544TIP3    H1 4638   6.168   5.514   2.287
 1544TIP3    H2 4639   6.265   5.627   2.312
 1545TIP3   OH2 4640   2.092   5.936   0.858
 1545TIP3    H1 4641   2.137   5.855   0.836
 1545TIP3    H2 4642   1.999   5.912   0.860
 1546TIP3   OH2 4643   2.995   4.977   0.272
 1546TIP3    H1 4644   3.076   5.022   0.250
 1546TIP3    H2 4645   2.946   5.039   0.325
 1547TIP3   OH2 4646   0.427   5.072   3.672
 1547TIP3    H1 4647   0.357   5.061   3.607
 1547TIP3    H2 4648   0.388   5.128   3.739
 1548TIP3   OH2 4649   3.771   5.664   1.531
 1548TIP3    H1 4650   3.823   5.657   1.451
 1548TIP3    H2 4651   3.819   5.725   1.586
 1549TIP3   OH2 4652   4.369   4.716   0.781
 1549TIP3    H1 4653   4.319   4.768   0.844
 1549TIP3    H2 4654   4.399   4.779   0.716
 1550TIP3   OH2 4655   3.054   4.760   3.221
 1550TIP3    H1 4656   2.989   4.699   3.187
 1550TIP3    H2 4657   3.037   4.842   3.175
 1551TIP3   OH2 4658   4.792   4.861   2.131
 1551TIP3    H1 4659   4.813   4.865   2.037
 1551TIP3    H2 4660   4.782   4.952   2.157
 1552TIP3   OH2 4661   3.561   3.488   1.208
 1552TIP3    H1 4662   3.469   3.501   1.183
 1552TIP3    H2 4663   3.592   3.575   1.233
 1553TIP3   OH2 4664   6.259   0.035   2.409
 1553TIP3    H1 4665   6.185   0.008   2.354
 1553TIP3    H2 4666   6.238   0.124   2.435
 1554TIP3   OH2 4667   0.972   5.904   4.980
 1554TIP3    H1 4668   0.906   5.927   4.915
 1554TIP3    H2 4669   0.998   5.815   4.957
 1555TIP3   OH2 4670   4.677   3.920   0.329
 1555TIP3    H1 4671   4.599   3.976   0.319
 1555TIP3    H2 4672   4.736   3.950   0.260
 1556TIP3   OH2 4673   1.507   1.744   3.583
 1556TIP3    H1 4674   1.517   1.740   3.678
 1556TIP3    H2 4675   1.596   1.734   3.549
 1557TIP3   OH2 4676   5.931   0.720   2.595
 1557TIP3    H1 4677   6.019   0.686   2.577
 1557TIP3    H2 4678   5.936   0.813   2.575
 1558TIP3   OH2 4679   4.697   5.741   4.893
 1558TIP3    H1 4680   4.609   5.773   4.911
 1558TIP3    H2 4681   4.741   5.813   4.848
 1559TIP3   OH2 4682   1.307   4.740   0.567
 1559TIP3    H1 4683   1.358   4.690   0.503
 1559TIP3    H2 4684   1.373   4.786   0.619
 1560TIP3   OH2 4685   4.722   1.504   3.462
 1560TIP3    H1 4686   4.805   1.547   3.441
 1560TIP3    H2 4687   4.742   1.411   3.456
 1561TIP3   OH2 4688   1.551   5.801   3.115
 1561TIP3    H1 4689   1.463   5.765   3.119
 1561TIP3    H2 4690   1.580   5.804   3.207
 1562TIP3   OH2 4691   1.386   4.110   2.706
 1562TIP3    H1 4692   1.336   4.031   2.684
 1562TIP3    H2 4693   1.427   4.136   2.623
 1563TIP3   OH2 4694   3.309   0.375   3.437
 1563TIP3    H1 4695   3.314   0.305   3.372
 1563TIP3    H2 4696   3.391   0.423   3.427
 1564TIP3   OH2 4697   5.326   0.487   3.652
 1564TIP3    H1 4698   5.394   0.491   3.720
 1564TIP3    H2 4699   5.257   0.433   3.691
 1565TIP3   OH2 4700   5.106   2.779   1.577
 1565TIP3    H1 4701   5.153   2.716   1.522
 1565TIP3    H2 4702   5.149   2.771   1.663
 1566TIP3   OH2 4703   1.327   4.314   3.125
 1566TIP3    H1 4704   1.253   4.253   3.128
 1566TIP3    H2 4705   1.291   4.392   3.081
 1567TIP3   OH2 4706   4.495   1.290   2.071
 1567TIP3    H1 4707   4.586   1.314   2.087
 1567TIP3    H2 4708   4.445   1.366   2.102
 1568TIP3   OH2 4709   4.472   5.904   0.535
 1568TIP3    H1 4710   4.530   5.829   0.548
 1568TIP3    H2 4711   4.474   5.920   0.441
 1569TIP3   OH2 4712   4.735   5.288   1.369
 1569TIP3    H1 4713   4.697   5.201   1.383
 1569TIP3    H2 4714   4.725   5.303   1.275
 1570TIP3   OH2 4715   6.235   3.301   0.566
 1570TIP3    H1 4716   6.192   3.383   0.590
 1570TIP3    H2 4717   6.253   3.258   0.649
 1571TIP3   OH2 4718   1.869   5.726   2.548
 1571TIP3    H1 4719   1.868   5.687   2.460
 1571TIP3    H2 4720   1.889   5.818   2.533
 1572TIP3   OH2 4721   1.497   3.882   3.222
 1572TIP3    H1 4722   1.495   3.917   3.133
 1572TIP3    H2 4723   1.474   3.957   3.277
 1573TIP3   OH2 4724   5.112   3.610   1.680
 1573TIP3    H1 4725   5.054   3.564   1.619
 1573TIP3    H2 4726   5.152   3.680   1.628
 1574TIP3   OH2 4727   6.019   1.051   1.644
 1574TIP3    H1 4728   6.053   0.967   1.672
 1574TIP3    H2 4729   6.085   1.084   1.583
 1575TIP3   OH2 4730   2.628   1.293   2.834
 1575TIP3    H1 4731   2.615   1.199   2.840
 1575TIP3    H2 4732   2.541   1.330   2.852
 1576TIP3   OH2 4733   1.171   2.260   1.673
 1576TIP3    H1 4734   1.124   2.193   1.625
 1576TIP3    H2 4735   1.174   2.335   1.614
 1577TIP3   OH2 4736   3.345   3.226   3.312
 1577TIP3    H1 4737   3.391   3.285   3.252
 1577TIP3    H2 4738   3.373   3.254   3.399
 1578TIP3   OH2 4739   3.755   3.197   4.023
 1578TIP3    H1 4740   3.765   3.285   3.988
 1578TIP3    H2 4741   3.800   3.200   4.108
 1579TIP3   OH2 4742   2.611   4.524   5.185
 1579TIP3    H1 4743   2.647   4.611   5.203
 1579TIP3    H2 4744   2.668   4.488   5.117
 1580TIP3   OH2 4745   0.546   5.466   4.606
 1580TIP3    H1 4746   0.604   5.525   4.558
 1580TIP3    H2 4747   0.507   5.522   4.673
 1581TIP3   OH2 4748   3.054   5.931   5.004
 1581TIP3    H1 4749   3.054   6.025   4.987
 1581TIP3    H2 4750   3.144   5.903   4.987
 1582TIP3   OH2 4751   0.291   1.360   0.585
 1582TIP3    H1 4752   0.205   1.378   0.622
 1582TIP3    H2 4753   0.279   1.281   0.533
 1583TIP3   OH2 4754   5.966   1.122   0.496
 1583TIP3    H1 4755   5.982   1.114   0.402
 1583TIP3    H2 4756   5.955   1.032   0.526
 1584TIP3   OH2 4757   3.406   4.411   4.620
 1584TIP3    H1 4758   3.440   4.401   4.709
 1584TIP3    H2 4759   3.377   4.502   4.616
 1585TIP3   OH2 4760   4.924   2.068   1.588
 1585TIP3    H1 4761   4.911   1.974   1.599
 1585TIP3    H2 4762   4.839   2.107   1.610
 1586TIP3   OH2 4763   3.678   2.119   1.995
 1586TIP3    H1 4764   3.614   2.100   2.064
 1586TIP3    H2 4765   3.727   2.194   2.028
 1587TIP3   OH2 4766   0.208   1.114   1.148
 1587TIP3    H1 4767   0.177   1.025   1.130
 1587TIP3    H2 4768   0.295   1.102   1.186
 1588TIP3   OH2 4769   4.852   3.085   3.558
 1588TIP3    H1 4770   4.776   3.144   3.556
 1588TIP3    H2 4771   4.814   2.998   3.571
 1589TIP3   OH2 4772   5.964   4.797   0.807
 1589TIP3    H1 4773   5.891   4.857   0.793
 1589TIP3    H2 4774   6.007   4.791   0.722
 1590TIP3   OH2 4775   4.542   0.855   1.375
 1590TIP3    H1 4776   4.533   0.830   1.283
 1590TIP3    H2 4777   4.485   0.795   1.422
 1591TIP3   OH2 4778   5.436   1.150   1.342
 1591TIP3    H1 4779   5.474   1.174   1.257
 1591TIP3    H2 4780   5.504   1.171   1.406
 1592TIP3   OH2 4781   2.180   3.799   3.713
 1592TIP3    H1 4782   2.123   3.723   3.726
 1592TIP3    H2 4783   2.237   3.800   3.790
 1593TIP3   OH2 4784   1.015   2.642   0.921
 1593TIP3    H1 4785   1.040   2.553   0.946
 1593TIP3    H2 4786   1.022   2.643   0.825
 1594TIP3   OH2 4787   0.924   4.675   2.006
 1594TIP3    H1 4788   0.978   4.733   1.952
 1594TIP3    H2 4789   0.838   4.676   1.964
 1595TIP3   OH2 4790   0.049   2.362   4.621
 1595TIP3    H1 4791  -0.040   2.384   4.649
 1595TIP3    H2 4792   0.065   2.275   4.657
 1596TIP3   OH2 4793   0.643   4.712   4.448
 1596TIP3    H1 4794   0.624   4.673   4.533
 1596TIP3    H2 4795   0.564   4.762   4.426
 1597TIP3   OH2 4796   2.859   5.610   3.885
 1597TIP3    H1 4797   2.823   5.575   3.967
 1597TIP3    H2 4798   2.862   5.536   3.826
 1598TIP3   OH2 4799   3.792   4.421   4.792
 1598TIP3    H1 4800   3.830   4.355   4.849
 1598TIP3    H2 4801   3.699   4.423   4.815
 1599TIP3   OH2 4802   4.149   4.777   4.355
 1599TIP3    H1 4803   4.172   4.858   4.309
 1599TIP3    H2 4804   4.127   4.715   4.286
 1600TIP3   OH2 4805   5.671   2.181   3.078
 1600TIP3    H1 4806   5.623   2.237   3.138
 1600TIP3    H2 4807   5.664   2.093   3.115
 1601TIP3   OH2 4808   0.286   4.066   2.509
 1601TIP3    H1 4809   0.233   4.000   2.463
 1601TIP3    H2 4810   0.226   4.104   2.573
 1602TIP3   OH2 4811   1.323   3.978   1.635
 1602TIP3    H1 4812   1.387   3.930   1.689
 1602TIP3    H2 4813   1.324   4.067   1.671
 1603TIP3   OH2 4814   6.184   1.576   0.628
 1603TIP3    H1 4815   6.202   1.577   0.534
 1603TIP3    H2 4816   6.212   1.663   0.658
 1604TIP3   OH2 4817   5.776   0.029   0.366
 1604TIP3    H1 4818   5.796   0.063   0.453
 1604TIP3    H2 4819   5.790   0.103   0.307
 1605TIP3   OH2 4820   4.812   2.290   1.342
 1605TIP3    H1 4821   4.734   2.235   1.345
 1605TIP3    H2 4822   4.844   2.281   1.252
 1606TIP3   OH2 4823   0.801   5.935   4.769
 1606TIP3    H1 4824   0.853   6.010   4.741
 1606TIP3    H2 4825   0.711   5.968   4.772
 1607TIP3   OH2 4826   0.064   4.947   1.008
 1607TIP3    H1 4827   0.004   5.018   0.983
 1607TIP3    H2 4828   0.006   4.876   1.036
 1608TIP3   OH2 4829   2.318   1.044   2.228
 1608TIP3    H1 4830   2.241   1.093   2.258
 1608TIP3    H2 4831   2.331   1.074   2.138
 1609TIP3   OH2 4832   2.779   3.273   1.085
 1609TIP3    H1 4833   2.706   3.223   1.048
 1609TIP3    H2 4834   2.813   3.323   1.011
 1610TIP3   OH2 4835   6.320   5.363   3.621
 1610TIP3    H1 4836   6.335   5.446   3.667
 1610TIP3    H2 4837   6.298   5.389   3.532
 1611TIP3   OH2 4838   5.931   0.142   0.575
 1611TIP3    H1 4839   5.935   0.195   0.496
 1611TIP3    H2 4840   5.896   0.201   0.642
 1612TIP3   OH2 4841   3.635   4.230   1.180
 1612TIP3    H1 4842   3.688   4.243   1.101
 1612TIP3    H2 4843   3.639   4.136   1.197
 1613TIP3   OH2 4844   5.967   0.331   2.372
 1613TIP3    H1 4845   5.961   0.256   2.431
 1613TIP3    H2 4846   5.924   0.403   2.419
 1614TIP3   OH2 4847   2.294   1.011   4.964
 1614TIP3    H1 4848   2.258   0.952   5.031
 1614TIP3    H2 4849   2.219   1.062   4.933
 1615TIP3   OH2 4850   1.250   1.491   3.293
 1615TIP3    H1 4851   1.177   1.429   3.296
 1615TIP3    H2 4852   1.208   1.577   3.283
 1616TIP3   OH2 4853   3.735   4.151   0.334
 1616TIP3    H1 4854   3.766   4.117   0.418
 1616TIP3    H2 4855   3.791   4.228   0.317
 1617TIP3   OH2 4856   0.132   2.600   4.998
 1617TIP3    H1 4857   0.047   2.636   4.971
 1617TIP3    H2 4858   0.185   2.605   4.918
 1618TIP3   OH2 4859   2.445   2.172   2.122
 1618TIP3    H1 4860   2.359   2.187   2.162
 1618TIP3    H2 4861   2.468   2.256   2.083
 1619TIP3   OH2 4862   0.309   5.271   2.414
 1619TIP3    H1 4863   0.230   5.284   2.466
 1619TIP3    H2 4864   0.348   5.358   2.407
 1620TIP3   OH2 4865   5.415   1.236   3.913
 1620TIP3    H1 4866   5.374   1.153   3.889
 1620TIP3    H2 4867   5.362   1.270   3.985
 1621TIP3   OH2 4868   1.798   0.796   4.516
 1621TIP3    H1 4869   1.800   0.766   4.426
 1621TIP3    H2 4870   1.717   0.759   4.552
 1622TIP3   OH2 4871   1.715   1.919   4.692
 1622TIP3    H1 4872   1.627   1.957   4.693
 1622TIP3    H2 4873   1.728   1.892   4.601
 1623TIP3   OH2 4874   4.635   3.409   3.150
 1623TIP3    H1 4875   4.614   3.320   3.122
 1623TIP3    H2 4876   4.557   3.460   3.130
 1624TIP3   OH2 4877   5.966   4.416   4.122
 1624TIP3    H1 4878   6.018   4.494   4.137
 1624TIP3    H2 4879   5.901   4.417   4.192
 1625TIP3   OH2 4880   0.034   0.594   4.048
 1625TIP3    H1 4881   0.066   0.531   3.984
 1625TIP3    H2 4882  -0.037   0.640   4.003
 1626TIP3   OH2 4883   2.325   5.777   1.363
 1626TIP3    H1 4884   2.347   5.870   1.369
 1626TIP3    H2 4885   2.240   5.775   1.319
 1627TIP3   OH2 4886   5.785   2.523   3.371
 1627TIP3    H1 4887   5.859   2.499   3.316
 1627TIP3    H2 4888   5.717   2.459   3.350
 1628TIP3   OH2 4889   5.978   4.064   0.313
 1628TIP3    H1 4890   6.031   4.135   0.278
 1628TIP3    H2 4891   5.920   4.039   0.241
 1629TIP3   OH2 4892   2.858   5.330   3.086
 1629TIP3    H1 4893   2.870   5.355   3.178
 1629TIP3    H2 4894   2.896   5.403   3.037
 1630TIP3   OH2 4895   4.911   0.925   1.335
 1630TIP3    H1 4896   4.984   0.926   1.274
 1630TIP3    H2 4897   4.913   1.010   1.377
 1631TIP3   OH2 4898   6.325   0.666   3.660
 1631TIP3    H1 4899   6.294   0.713   3.583
 1631TIP3    H2 4900   6.258   0.682   3.726
 1632TIP3   OH2 4901   1.826   0.426   3.942
 1632TIP3    H1 4902   1.734   0.420   3.916
 1632TIP3    H2 4903   1.850   0.517   3.923
 1633TIP3   OH2 4904   3.353   5.431   3.490
 1633TIP3    H1 4905   3.374   5.504   3.548
 1633TIP3    H2 4906   3.389   5.354   3.534
 1634TIP3   OH2 4907   5.086   3.106   0.846
 1634TIP3    H1 4908   5.044   3.179   0.891
 1634TIP3    H2 4909   5.036   3.029   0.875
 1635TIP3   OH2 4910   0.202   1.536   1.904
 1635TIP3    H1 4911   0.193   1.627   1.875
 1635TIP3    H2 4912   0.229   1.488   1.826
 1636TIP3   OH2 4913   1.058   4.526   0.255
 1636TIP3    H1 4914   1.073   4.477   0.174
 1636TIP3    H2 4915   1.100   4.611   0.240
 1637TIP3   OH2 4916   2.469   2.095   0.297
 1637TIP3    H1 4917   2.541   2.154   0.278
 1637TIP3    H2 4918   2.414   2.098   0.219
 1638TIP3   OH2 4919   3.952   2.673   3.202
 1638TIP3    H1 4920   3.871   2.644   3.160
 1638TIP3    H2 4921   3.935   2.668   3.296
 1639TIP3   OH2 4922   3.288   1.656   1.165
 1639TIP3    H1 4923   3.304   1.564   1.187
 1639TIP3    H2 4924   3.196   1.658   1.137
 1640TIP3   OH2 4925   4.296   0.331   3.085
 1640TIP3    H1 4926   4.257   0.384   3.015
 1640TIP3    H2 4927   4.251   0.247   3.079
 1641TIP3   OH2 4928   4.355   5.767   3.792
 1641TIP3    H1 4929   4.400   5.821   3.727
 1641TIP3    H2 4930   4.378   5.677   3.769
 1642TIP3   OH2 4931   4.841   5.095   3.138
 1642TIP3    H1 4932   4.910   5.098   3.205
 1642TIP3    H2 4933   4.859   5.014   3.089
 1643TIP3   OH2 4934   2.162   1.619   0.062
 1643TIP3    H1 4935   2.237   1.614   0.003
 1643TIP3    H2 4936   2.171   1.705   0.105
 1644TIP3   OH2 4937   2.870   5.386   3.346
 1644TIP3    H1 4938   2.813   5.433   3.408
 1644TIP3    H2 4939   2.952   5.374   3.394
 1645TIP3   OH2 4940   0.223   4.075   4.317
 1645TIP3    H1 4941   0.315   4.099   4.326
 1645TIP3    H2 4942   0.202   4.028   4.398
 1646TIP3   OH2 4943   4.678   0.188   1.448
 1646TIP3    H1 4944   4.724   0.123   1.396
 1646TIP3    H2 4945   4.710   0.272   1.415
 1647TIP3   OH2 4946   2.449   5.735   0.330
 1647TIP3    H1 4947   2.363   5.776   0.343
 1647TIP3    H2 4948   2.463   5.684   0.411
 1648TIP3   OH2 4949   4.374   4.089   4.128
 1648TIP3    H1 4950   4.366   3.994   4.118
 1648TIP3    H2 4951   4.364   4.124   4.039
 1649TIP3   OH2 4952   4.080   4.654   0.653
 1649TIP3    H1 4953   4.157   4.645   0.709
 1649TIP3    H2 4954   4.022   4.582   0.678
 1650TIP3   OH2 4955   0.839   2.598   3.774
 1650TIP3    H1 4956   0.782   2.522   3.761
 1650TIP3    H2 4957   0.927   2.561   3.776
 1651TIP3   OH2 4958   2.487   3.990   3.544
 1651TIP3    H1 4959   2.393   3.978   3.562
 1651TIP3    H2 4960   2.492   4.076   3.502
 1652TIP3   OH2 4961   3.634   0.442   1.850
 1652TIP3    H1 4962   3.624   0.421   1.757
 1652TIP3    H2 4963   3.588   0.371   1.895
 1653TIP3   OH2 4964   4.887   3.428   4.613
 1653TIP3    H1 4965   4.796   3.448   4.595
 1653TIP3    H2 4966   4.929   3.513   4.623
 1654TIP3   OH2 4967   5.264   3.419   4.483
 1654TIP3    H1 4968   5.187   3.476   4.490
 1654TIP3    H2 4969   5.260   3.363   4.561
 1655TIP3   OH2 4970   4.902   0.787   4.344
 1655TIP3    H1 4971   4.905   0.768   4.437
 1655TIP3    H2 4972   4.813   0.820   4.329
 1656TIP3   OH2 4973   5.333   4.060   2.845
 1656TIP3    H1 4974   5.385   4.008   2.906
 1656TIP3    H2 4975   5.304   4.136   2.896
 1657TIP3   OH2 4976   0.226   2.080   0.721
 1657TIP3    H1 4977   0.319   2.059   0.730
 1657TIP3    H2 4978   0.204   2.128   0.800
 1658TIP3   OH2 4979   5.546   0.630   0.757
 1658TIP3    H1 4980   5.628   0.674   0.732
 1658TIP3    H2 4981   5.570   0.577   0.833
 1659TIP3   OH2 4982   0.626   1.377   1.350
 1659TIP3    H1 4983   0.708   1.332   1.329
 1659TIP3    H2 4984   0.580   1.385   1.267
 1660TIP3   OH2 4985   2.134   2.730   3.335
 1660TIP3    H1 4986   2.214   2.780   3.320
 1660TIP3    H2 4987   2.064   2.795   3.335
 1661TIP3   OH2 4988   5.642   2.892   1.757
 1661TIP3    H1 4989   5.698   2.855   1.825
 1661TIP3    H2 4990   5.635   2.823   1.691
 1662TIP3   OH2 4991   5.203   0.498   4.536
 1662TIP3    H1 4992   5.288   0.457   4.520
 1662TIP3    H2 4993   5.146   0.427   4.564
 1663TIP3   OH2 4994   3.064   0.139   3.527
 1663TIP3    H1 4995   3.115   0.149   3.446
 1663TIP3    H2 4996   3.118   0.180   3.594
 1664TIP3   OH2 4997   0.054   3.783   0.663
 1664TIP3    H1 4998  -0.020   3.831   0.698
 1664TIP3    H2 4999   0.128   3.809   0.718
 1665TIP3   OH2 5000   4.162   4.873   5.179
 1665TIP3    H1 5001   4.096   4.938   5.155
 1665TIP3    H2 5002   4.222   4.870   5.105
 1666TIP3   OH2 5003   1.487   5.216   0.587
 1666TIP3    H1 5004   1.542   5.163   0.643
 1666TIP3    H2 5005   1.444   5.154   0.528
 1667TIP3   OH2 5006   4.421   4.032   1.609
 1667TIP3    H1 5007   4.470   4.014   1.690
 1667TIP3    H2 5008   4.478   3.998   1.540
 1668TIP3   OH2 5009   6.237   5.486   2.614
 1668TIP3    H1 5010   6.159   5.461   2.663
 1668TIP3    H2 5011   6.204   5.514   2.528
 1669TIP3   OH2 5012   4.545   1.972   1.983
 1669TIP3    H1 5013   4.608   1.997   2.052
 1669TIP3    H2 5014   4.463   2.014   2.010
 1670TIP3   OH2 5015   4.427   0.823   0.168
 1670TIP3    H1 5016   4.491   0.893   0.155
 1670TIP3    H2 5017   4.478   0.742   0.159
 1671TIP3   OH2 5018   5.467   5.542   1.312
 1671TIP3    H1 5019   5.544   5.597   1.298
 1671TIP3    H2 5020   5.434   5.524   1.224
 1672TIP3   OH2 5021   2.324   0.591   1.500
 1672TIP3    H1 5022   2.343   0.527   1.431
 1672TIP3    H2 5023   2.356   0.550   1.581
 1673TIP3   OH2 5024   5.276   5.918   1.261
 1673TIP3    H1 5025   5.206   5.860   1.292
 1673TIP3    H2 5026   5.317   5.869   1.189
 1674TIP3   OH2 5027   3.833   4.239   4.980
 1674TIP3    H1 5028   3.913   4.189   4.969
 1674TIP3    H2 5029   3.771   4.179   5.022
 1675TIP3   OH2 5030   5.637   4.727   1.500
 1675TIP3    H1 5031   5.546   4.715   1.472
 1675TIP3    H2 5032   5.642   4.820   1.524
 1676TIP3   OH2 5033   2.566   5.875   2.930
 1676TIP3    H1 5034   2.614   5.949   2.968
 1676TIP3    H2 5035   2.622   5.799   2.946
 1677TIP3   OH2 5036   3.735   2.349   2.456
 1677TIP3    H1 5037   3.711   2.351   2.364
 1677TIP3    H2 5038   3.733   2.441   2.483
 1678TIP3   OH2 5039   1.361   0.641   3.436
 1678TIP3    H1 5040   1.421   0.706   3.399
 1678TIP3    H2 5041   1.326   0.596   3.360
 1679TIP3   OH2 5042   5.754   2.521   5.032
 1679TIP3    H1 5043   5.795   2.451   5.082
 1679TIP3    H2 5044   5.662   2.495   5.027
 1680TIP3   OH2 5045   0.536   0.861   3.190
 1680TIP3    H1 5046   0.628   0.882   3.179
 1680TIP3    H2 5047   0.531   0.766   3.178
 1681TIP3   OH2 5048   6.225   1.349   2.468
 1681TIP3    H1 5049   6.265   1.399   2.538
 1681TIP3    H2 5050   6.132   1.348   2.488
 1682TIP3   OH2 5051   1.279   3.020   1.879
 1682TIP3    H1 5052   1.308   3.028   1.788
 1682TIP3    H2 5053   1.220   2.945   1.879
 1683TIP3   OH2 5054   6.079   2.342   1.115
 1683TIP3    H1 5055   6.141   2.413   1.132
 1683TIP3    H2 5056   5.994   2.384   1.115
 1684TIP3   OH2 5057   5.247   2.016   1.007
 1684TIP3    H1 5058   5.250   1.939   0.950
 1684TIP3    H2 5059   5.318   2.072   0.976
 1685TIP3   OH2 5060   6.271   4.623   0.664
 1685TIP3    H1 5061   6.230   4.557   0.720
 1685TIP3    H2 5062   6.285   4.698   0.722
 1686TIP3   OH2 5063   5.449   4.830   0.296
 1686TIP3    H1 5064   5.464   4.919   0.265
 1686TIP3    H2 5065   5.411   4.785   0.220
 1687TIP3   OH2 5066   4.838   0.593   3.464
 1687TIP3    H1 5067   4.921   0.582   3.419
 1687TIP3    H2 5068   4.780   0.634   3.399
 1688TIP3   OH2 5069   2.000   4.651   1.379
 1688TIP3    H1 5070   2.064   4.704   1.426
 1688TIP3    H2 5071   1.934   4.628   1.444
 1689TIP3   OH2 5072   0.608   3.606   0.238
 1689TIP3    H1 5073   0.577   3.653   0.161
 1689TIP3    H2 5074   0.698   3.582   0.216
 1690TIP3   OH2 5075   2.674   4.824   2.657
 1690TIP3    H1 5076   2.594   4.786   2.621
 1690TIP3    H2 5077   2.744   4.768   2.623
 1691TIP3   OH2 5078   5.031   5.795   1.275
 1691TIP3    H1 5079   4.981   5.861   1.323
 1691TIP3    H2 5080   4.975   5.717   1.275
 1692TIP3   OH2 5081   0.683   5.270   0.009
 1692TIP3    H1 5082   0.723   5.199   0.060
 1692TIP3    H2 5083   0.623   5.312   0.069
 1693TIP3   OH2 5084   3.415   5.449   3.027
 1693TIP3    H1 5085   3.360   5.458   3.105
 1693TIP3    H2 5086   3.408   5.356   3.003
 1694TIP3   OH2 5087   4.157   2.040   3.100
 1694TIP3    H1 5088   4.217   2.098   3.146
 1694TIP3    H2 5089   4.213   1.982   3.048
 1695TIP3   OH2 5090   4.292   5.908   1.282
 1695TIP3    H1 5091   4.327   5.886   1.196
 1695TIP3    H2 5092   4.358   5.966   1.320
 1696TIP3   OH2 5093   0.045   5.699   0.203
 1696TIP3    H1 5094   0.081   5.775   0.247
 1696TIP3    H2 5095  -0.012   5.658   0.268
 1697TIP3   OH2 5096   5.750   2.060   0.160
 1697TIP3    H1 5097   5.666   2.104   0.151
 1697TIP3    H2 5098   5.765   2.018   0.076
 1698TIP3   OH2 5099   5.890   5.150   1.669
 1698TIP3    H1 5100   5.979   5.114   1.678
 1698TIP3    H2 5101   5.840   5.106   1.738
 1699TIP3   OH2 5102   1.637   4.528   4.862
 1699TIP3    H1 5103   1.685   4.521   4.779
 1699TIP3    H2 5104   1.551   4.563   4.837
 1700TIP3   OH2 5105   4.535   4.442   0.274
 1700TIP3    H1 5106   4.525   4.435   0.179
 1700TIP3    H2 5107   4.565   4.355   0.301
 1701TIP3   OH2 5108   1.025   1.669   1.499
 1701TIP3    H1 5109   1.049   1.644   1.588
 1701TIP3    H2 5110   1.088   1.623   1.443
 1702TIP3   OH2 5111   3.011   2.806   4.933
 1702TIP3    H1 5112   2.931   2.769   4.895
 1702TIP3    H2 5113   2.982   2.886   4.977
 1703TIP3   OH2 5114   2.438   5.404   1.277
 1703TIP3    H1 5115   2.470   5.494   1.290
 1703TIP3    H2 5116   2.516   5.354   1.252
 1704TIP3   OH2 5117   2.938   5.084   2.260
 1704TIP3    H1 5118   2.862   5.026   2.249
 1704TIP3    H2 5119   3.010   5.037   2.218
 1705TIP3   OH2 5120   3.300   1.029   1.019
 1705TIP3    H1 5121   3.340   1.115   1.030
 1705TIP3    H2 5122   3.312   1.008   0.927
 1706TIP3   OH2 5123   4.953   5.634   3.736
 1706TIP3    H1 5124   4.952   5.729   3.747
 1706TIP3    H2 5125   4.935   5.600   3.824
 1707TIP3   OH2 5126   2.191   0.551   1.071
 1707TIP3    H1 5127   2.114   0.586   1.116
 1707TIP3    H2 5128   2.260   0.548   1.138
 1708TIP3   OH2 5129   5.959   3.026   3.063
 1708TIP3    H1 5130   5.985   2.943   3.104
 1708TIP3    H2 5131   5.871   3.042   3.095
 1709TIP3   OH2 5132   4.817   4.326   5.175
 1709TIP3    H1 5133   4.886   4.379   5.214
 1709TIP3    H2 5134   4.843   4.317   5.083
 1710TIP3   OH2 5135   2.688   5.968   1.756
 1710TIP3    H1 5136   2.617   5.930   1.704
 1710TIP3    H2 5137   2.650   5.978   1.843
 1711TIP3   OH2 5138   5.326   2.594   0.021
 1711TIP3    H1 5139   5.281   2.618   0.101
 1711TIP3    H2 5140   5.321   2.498   0.018
 1712TIP3   OH2 5141   1.324   5.794   4.106
 1712TIP3    H1 5142   1.298   5.782   4.197
 1712TIP3    H2 5143   1.291   5.716   4.061
 1713TIP3   OH2 5144   6.226   5.625   1.696
 1713TIP3    H1 5145   6.151   5.584   1.740
 1713TIP3    H2 5146   6.212   5.607   1.603
 1714TIP3   OH2 5147   1.905   4.778   2.253
 1714TIP3    H1 5148   1.885   4.687   2.233
 1714TIP3    H2 5149   1.821   4.817   2.275
 1715TIP3   OH2 5150   3.926   2.404   1.401
 1715TIP3    H1 5151   3.956   2.363   1.319
 1715TIP3    H2 5152   3.843   2.361   1.420
 1716TIP3   OH2 5153   3.392   4.229   0.652
 1716TIP3    H1 5154   3.426   4.319   0.659
 1716TIP3    H2 5155   3.438   4.180   0.720
 1717TIP3   OH2 5156   5.014   4.725   1.604
 1717TIP3    H1 5157   5.074   4.650   1.601
 1717TIP3    H2 5158   5.041   4.773   1.682
 1718TIP3   OH2 5159   1.476   4.215   1.527
 1718TIP3    H1 5160   1.568   4.239   1.519
 1718TIP3    H2 5161   1.454   4.233   1.619
 1719TIP3   OH2 5162   4.034   5.254   3.586
 1719TIP3    H1 5163   3.961   5.222   3.532
 1719TIP3    H2 5164   4.110   5.207   3.553
 1720TIP3   OH2 5165   3.212   5.540   0.311
 1720TIP3    H1 5166   3.280   5.558   0.245
 1720TIP3    H2 5167   3.231   5.601   0.382
 1721TIP3   OH2 5168   5.280   5.919   3.555
 1721TIP3    H1 5169   5.294   5.870   3.636
 1721TIP3    H2 5170   5.350   5.984   3.553
 1722TIP3   OH2 5171   2.224   1.835   2.917
 1722TIP3    H1 5172   2.273   1.902   2.870
 1722TIP3    H2 5173   2.281   1.811   2.991
 1723TIP3   OH2 5174   1.948   2.938   2.030
 1723TIP3    H1 5175   1.972   3.015   1.978
 1723TIP3    H2 5176   1.856   2.952   2.052
 1724TIP3   OH2 5177   1.877   2.719   0.776
 1724TIP3    H1 5178   1.808   2.743   0.838
 1724TIP3    H2 5179   1.958   2.750   0.817
 1725TIP3   OH2 5180   1.606   2.022   4.205
 1725TIP3    H1 5181   1.658   2.068   4.140
 1725TIP3    H2 5182   1.600   1.932   4.173
 1726TIP3   OH2 5183   6.302   2.916   1.515
 1726TIP3    H1 5184   6.260   2.886   1.596
 1726TIP3    H2 5185   6.348   2.996   1.540
 1727TIP3   OH2 5186   4.862   2.670   2.755
 1727TIP3    H1 5187   4.924   2.664   2.828
 1727TIP3    H2 5188   4.908   2.627   2.682
 1728TIP3   OH2 5189   3.654   3.912   3.874
 1728TIP3    H1 5190   3.677   3.968   3.948
 1728TIP3    H2 5191   3.737   3.869   3.850
 1729TIP3   OH2 5192   4.727   4.839   0.572
 1729TIP3    H1 5193   4.780   4.847   0.493
 1729TIP3    H2 5194   4.791   4.826   0.642
 1730TIP3   OH2 5195   2.171   1.893   1.430
 1730TIP3    H1 5196   2.082   1.929   1.429
 1730TIP3    H2 5197   2.210   1.928   1.510
 1731TIP3   OH2 5198   4.936   3.486   2.034
 1731TIP3    H1 5199   4.931   3.566   1.980
 1731TIP3    H2 5200   5.028   3.479   2.058
 1732TIP3   OH2 5201   1.333   0.078   0.489
 1732TIP3    H1 5202   1.345   0.126   0.407
 1732TIP3    H2 5203   1.361   0.141   0.557
 1733TIP3   OH2 5204   6.195   4.164   1.831
 1733TIP3    H1 5205   6.226   4.224   1.763
 1733TIP3    H2 5206   6.107   4.196   1.852
 1734TIP3   OH2 5207   1.071   3.798   0.713
 1734TIP3    H1 5208   1.058   3.892   0.723
 1734TIP3    H2 5209   1.016   3.759   0.782
 1735TIP3   OH2 5210   1.290   2.725   4.585
 1735TIP3    H1 5211   1.213   2.762   4.628
 1735TIP3    H2 5212   1.280   2.630   4.595
 1736TIP3   OH2 5213   1.799   3.646   2.114
 1736TIP3    H1 5214   1.758   3.648   2.027
 1736TIP3    H2 5215   1.827   3.736   2.129
 1737TIP3   OH2 5216   6.049   2.539   4.059
 1737TIP3    H1 5217   6.000   2.486   4.121
 1737TIP3    H2 5218   6.085   2.476   3.996
 1738TIP3   OH2 5219   3.822   2.080   0.638
 1738TIP3    H1 5220   3.825   2.162   0.590
 1738TIP3    H2 5221   3.832   2.105   0.730
 1739TIP3   OH2 5222   2.163   2.301   4.453
 1739TIP3    H1 5223   2.216   2.363   4.404
 1739TIP3    H2 5224   2.183   2.216   4.412
 1740TIP3   OH2 5225   3.091   3.275   2.111
 1740TIP3    H1 5226   3.012   3.223   2.096
 1740TIP3    H2 5227   3.163   3.213   2.108
 1741TIP3   OH2 5228   4.103   1.393   4.843
 1741TIP3    H1 5229   4.069   1.307   4.819
 1741TIP3    H2 5230   4.148   1.378   4.927
 1742TIP3   OH2 5231   1.700   4.068   1.116
 1742TIP3    H1 5232   1.657   4.062   1.031
 1742TIP3    H2 5233   1.629   4.085   1.178
 1743TIP3   OH2 5234   0.890   4.802   3.433
 1743TIP3    H1 5235   0.796   4.816   3.449
 1743TIP3    H2 5236   0.893   4.764   3.345
 1744TIP3   OH2 5237   5.514   1.539   2.473
 1744TIP3    H1 5238   5.469   1.597   2.412
 1744TIP3    H2 5239   5.523   1.590   2.553
 1745TIP3   OH2 5240   2.810   4.626   4.218
 1745TIP3    H1 5241   2.819   4.715   4.186
 1745TIP3    H2 5242   2.866   4.622   4.296
 1746TIP3   OH2 5243   4.083   5.584   1.798
 1746TIP3    H1 5244   4.081   5.595   1.703
 1746TIP3    H2 5245   4.019   5.515   1.815
 1747TIP3   OH2 5246   5.298   1.514   4.728
 1747TIP3    H1 5247   5.255   1.455   4.667
 1747TIP3    H2 5248   5.349   1.574   4.672
 1748TIP3   OH2 5249   1.209   4.507   2.001
 1748TIP3    H1 5250   1.242   4.525   1.913
 1748TIP3    H2 5251   1.225   4.414   2.014
 1749TIP3   OH2 5252   4.012   5.890   1.338
 1749TIP3    H1 5253   4.105   5.894   1.318
 1749TIP3    H2 5254   3.968   5.892   1.253
 1750TIP3   OH2 5255   4.437   5.380   0.642
 1750TIP3    H1 5256   4.342   5.393   0.635
 1750TIP3    H2 5257   4.465   5.364   0.552
 1751TIP3   OH2 5258   4.435   1.404   3.270
 1751TIP3    H1 5259   4.474   1.491   3.276
 1751TIP3    H2 5260   4.370   1.402   3.341
 1752TIP3   OH2 5261   0.444   5.407   3.588
 1752TIP3    H1 5262   0.382   5.437   3.521
 1752TIP3    H2 5263   0.510   5.358   3.540
 1753TIP3   OH2 5264   0.739   4.442   4.806
 1753TIP3    H1 5265   0.801   4.369   4.812
 1753TIP3    H2 5266   0.783   4.514   4.850
 1754TIP3   OH2 5267   1.727   1.395   2.431
 1754TIP3    H1 5268   1.712   1.458   2.501
 1754TIP3    H2 5269   1.653   1.407   2.371
 1755TIP3   OH2 5270   3.899   0.870   2.465
 1755TIP3    H1 5271   3.929   0.805   2.401
 1755TIP3    H2 5272   3.980   0.905   2.501
 1756TIP3   OH2 5273   0.287   2.005   5.197
 1756TIP3    H1 5274   0.272   2.098   5.211
 1756TIP3    H2 5275   0.298   1.996   5.103
 1757TIP3   OH2 5276   2.963   5.465   0.380
 1757TIP3    H1 5277   2.900   5.479   0.309
 1757TIP3    H2 5278   3.048   5.481   0.338
 1758TIP3   OH2 5279   5.769   3.204   2.372
 1758TIP3    H1 5280   5.824   3.267   2.418
 1758TIP3    H2 5281   5.680   3.225   2.401
 1759TIP3   OH2 5282   4.541   0.995   2.081
 1759TIP3    H1 5283   4.511   1.082   2.106
 1759TIP3    H2 5284   4.576   1.005   1.993
 1760TIP3   OH2 5285   0.315   0.135   3.786
 1760TIP3    H1 5286   0.273   0.075   3.724
 1760TIP3    H2 5287   0.348   0.206   3.732
 1761TIP3   OH2 5288   5.161   0.855   4.216
 1761TIP3    H1 5289   5.078   0.820   4.250
 1761TIP3    H2 5290   5.204   0.779   4.176
 1762TIP3   OH2 5291   1.281   1.134   1.024
 1762TIP3    H1 5292   1.368   1.095   1.013
 1762TIP3    H2 5293   1.264   1.129   1.118
 1763TIP3   OH2 5294   4.582   4.513   4.523
 1763TIP3    H1 5295   4.520   4.515   4.596
 1763TIP3    H2 5296   4.527   4.511   4.445
 1764TIP3   OH2 5297   5.533   4.176   1.763
 1764TIP3    H1 5298   5.524   4.270   1.779
 1764TIP3    H2 5299   5.624   4.165   1.735
 1765TIP3   OH2 5300   4.567   4.435   5.076
 1765TIP3    H1 5301   4.627   4.400   5.142
 1765TIP3    H2 5302   4.569   4.371   5.006
 1766TIP3   OH2 5303   5.366   4.262   4.180
 1766TIP3    H1 5304   5.382   4.356   4.188
 1766TIP3    H2 5305   5.387   4.226   4.266
 1767TIP3   OH2 5306   4.136   3.875   0.738
 1767TIP3    H1 5307   4.212   3.818   0.732
 1767TIP3    H2 5308   4.065   3.817   0.768
 1768TIP3   OH2 5309   4.645   3.939   0.854
 1768TIP3    H1 5310   4.642   3.962   0.761
 1768TIP3    H2 5311   4.553   3.936   0.880
 1769TIP3   OH2 5312   2.896   4.318   3.334
 1769TIP3    H1 5313   2.924   4.232   3.303
 1769TIP3    H2 5314   2.894   4.373   3.255
 1770TIP3   OH2 5315   1.702   2.011   3.027
 1770TIP3    H1 5316   1.789   2.034   2.995
 1770TIP3    H2 5317   1.691   2.062   3.108
 1771TIP3   OH2 5318   3.595   3.294   0.998
 1771TIP3    H1 5319   3.644   3.228   1.048
 1771TIP3    H2 5320   3.580   3.365   1.061
 1772TIP3   OH2 5321   3.411   2.189   1.196
 1772TIP3    H1 5322   3.415   2.246   1.273
 1772TIP3    H2 5323   3.429   2.102   1.230
 1773TIP3   OH2 5324   4.507   1.550   3.910
 1773TIP3    H1 5325   4.429   1.604   3.925
 1773TIP3    H2 5326   4.570   1.582   3.975
 1774TIP3   OH2 5327   4.837   5.262   0.995
 1774TIP3    H1 5328   4.844   5.312   0.913
 1774TIP3    H2 5329   4.811   5.328   1.060
 1775TIP3   OH2 5330   0.927   4.955   4.311
 1775TIP3    H1 5331   0.860   4.955   4.244
 1775TIP3    H2 5332   0.985   5.028   4.287
 1776TIP3   OH2 5333   2.916   2.691   0.216
 1776TIP3    H1 5334   2.971   2.695   0.137
 1776TIP3    H2 5335   2.963   2.744   0.280
 1777TIP3   OH2 5336   2.537   3.091   2.594
 1777TIP3    H1 5337   2.612   3.099   2.653
 1777TIP3    H2 5338   2.505   3.002   2.608
 1778TIP3   OH2 5339   5.871   3.559   4.918
 1778TIP3    H1 5340   5.934   3.611   4.968
 1778TIP3    H2 5341   5.853   3.611   4.840
 1779TIP3   OH2 5342   3.449   1.278   3.344
 1779TIP3    H1 5343   3.427   1.325   3.264
 1779TIP3    H2 5344   3.373   1.292   3.401
 1780TIP3   OH2 5345   3.277   5.868  -0.027
 1780TIP3    H1 5346   3.257   5.961  -0.029
 1780TIP3    H2 5347   3.239   5.837   0.056
 1781TIP3   OH2 5348   5.451   5.894   2.277
 1781TIP3    H1 5349   5.464   5.938   2.193
 1781TIP3    H2 5350   5.455   5.964   2.342
 1782TIP3   OH2 5351   4.096   5.321   2.901
 1782TIP3    H1 5352   4.099   5.228   2.876
 1782TIP3    H2 5353   4.081   5.320   2.996
 1783TIP3   OH2 5354   3.801   4.797   0.747
 1783TIP3    H1 5355   3.848   4.717   0.766
 1783TIP3    H2 5356   3.721   4.769   0.702
 1784TIP3   OH2 5357   0.413   1.035   0.241
 1784TIP3    H1 5358   0.409   0.942   0.218
 1784TIP3    H2 5359   0.432   1.079   0.159
 1785TIP3   OH2 5360   5.856   1.555   3.564
 1785TIP3    H1 5361   5.779   1.551   3.621
 1785TIP3    H2 5362   5.874   1.649   3.556
 1786TIP3   OH2 5363   4.026   3.792   0.024
 1786TIP3    H1 5364   4.004   3.866  -0.032
 1786TIP3    H2 5365   3.995   3.817   0.110
 1787TIP3   OH2 5366   0.036   2.975   1.259
 1787TIP3    H1 5367  -0.019   2.943   1.188
 1787TIP3    H2 5368  -0.002   2.937   1.338
 1788TIP3   OH2 5369   2.847   2.484   2.401
 1788TIP3    H1 5370   2.879   2.470   2.490
 1788TIP3    H2 5371   2.761   2.442   2.399
 1789TIP3   OH2 5372   2.750   3.057   4.383
 1789TIP3    H1 5373   2.660   3.040   4.410
 1789TIP3    H2 5374   2.754   3.152   4.371
 1790TIP3   OH2 5375   3.469   1.030   4.674
 1790TIP3    H1 5376   3.517   1.107   4.703
 1790TIP3    H2 5377   3.378   1.056   4.675
 1791TIP3   OH2 5378   2.498   4.807   0.698
 1791TIP3    H1 5379   2.556   4.783   0.770
 1791TIP3    H2 5380   2.539   4.885   0.659
 1792TIP3   OH2 5381   4.418   5.520   0.993
 1792TIP3    H1 5382   4.493   5.521   0.934
 1792TIP3    H2 5383   4.412   5.429   1.023
 1793TIP3   OH2 5384   3.204   5.161   2.384
 1793TIP3    H1 5385   3.196   5.250   2.419
 1793TIP3    H2 5386   3.125   5.149   2.331
 1794TIP3   OH2 5387   2.028   5.495   2.506
 1794TIP3    H1 5388   2.101   5.552   2.529
 1794TIP3    H2 5389   2.063   5.406   2.514
 1795TIP3   OH2 5390   6.269   1.194   5.060
 1795TIP3    H1 5391   6.181   1.162   5.079
 1795TIP3    H2 5392   6.314   1.193   5.145
 1796TIP3   OH2 5393   4.845   1.027   2.096
 1796TIP3    H1 5394   4.828   0.933   2.096
 1796TIP3    H2 5395   4.798   1.060   2.020
 1797TIP3   OH2 5396   0.532   4.148   4.028
 1797TIP3    H1 5397   0.523   4.205   3.952
 1797TIP3    H2 5398   0.466   4.180   4.090
 1798TIP3   OH2 5399   0.391   3.836   5.003
 1798TIP3    H1 5400   0.346   3.869   5.081
 1798TIP3    H2 5401   0.477   3.878   5.005
 1799TIP3   OH2 5402   0.742   0.375   1.748
 1799TIP3    H1 5403   0.722   0.281   1.742
 1799TIP3    H2 5404   0.696   0.404   1.826
 1800TIP3   OH2 5405   2.428   5.621   1.837
 1800TIP3    H1 5406   2.425   5.525   1.835
 1800TIP3    H2 5407   2.355   5.646   1.893
 1801TIP3   OH2 5408   2.310   2.985   1.477
 1801TIP3    H1 5409   2.358   3.061   1.446
 1801TIP3    H2 5410   2.272   3.013   1.560
 1802TIP3   OH2 5411   5.054   1.407   4.617
 1802TIP3    H1 5412   5.098   1.326   4.641
 1802TIP3    H2 5413   4.980   1.413   4.677
 1803TIP3   OH2 5414   5.737   1.428   2.368
 1803TIP3    H1 5415   5.655   1.471   2.389
 1803TIP3    H2 5416   5.757   1.458   2.279
 1804TIP3   OH2 5417   3.880   0.033   4.815
 1804TIP3    H1 5418   3.802   0.088   4.823
 1804TIP3    H2 5419   3.857  -0.031   4.747
 1805TIP3   OH2 5420   4.118   5.553   3.914
 1805TIP3    H1 5421   4.161   5.516   3.836
 1805TIP3    H2 5422   4.174   5.627   3.938
 1806TIP3   OH2 5423   3.314   4.010   2.289
 1806TIP3    H1 5424   3.255   3.988   2.217
 1806TIP3    H2 5425   3.276   3.965   2.365
 1807TIP3   OH2 5426   0.643   1.346   1.882
 1807TIP3    H1 5427   0.664   1.253   1.868
 1807TIP3    H2 5428   0.726   1.391   1.866
 1808TIP3   OH2 5429   0.105   3.603   2.796
 1808TIP3    H1 5430   0.072   3.581   2.709
 1808TIP3    H2 5431   0.145   3.689   2.785
 1809TIP3   OH2 5432   2.420   5.201   4.538
 1809TIP3    H1 5433   2.445   5.118   4.580
 1809TIP3    H2 5434   2.412   5.262   4.611
 1810TIP3   OH2 5435   1.148   1.484   3.705
 1810TIP3    H1 5436   1.221   1.470   3.644
 1810TIP3    H2 5437   1.166   1.424   3.777
 1811TIP3   OH2 5438   6.213   1.794   2.700
 1811TIP3    H1 5439   6.121   1.768   2.697
 1811TIP3    H2 5440   6.222   1.862   2.634
 1812TIP3   OH2 5441   5.795   2.731   0.774
 1812TIP3    H1 5442   5.721   2.773   0.818
 1812TIP3    H2 5443   5.872   2.776   0.808
 1813TIP3   OH2 5444   3.122   3.113   3.724
 1813TIP3    H1 5445   3.134   3.019   3.709
 1813TIP3    H2 5446   3.027   3.124   3.726
 1814TIP3   OH2 5447   3.241   3.482   4.222
 1814TIP3    H1 5448   3.210   3.435   4.145
 1814TIP3    H2 5449   3.322   3.525   4.194
 1815TIP3   OH2 5450   6.052   0.734   3.227
 1815TIP3    H1 5451   6.113   0.785   3.281
 1815TIP3    H2 5452   6.007   0.677   3.289
 1816TIP3   OH2 5453   2.869   3.771   0.077
 1816TIP3    H1 5454   2.870   3.813   0.163
 1816TIP3    H2 5455   2.945   3.808   0.032
 1817TIP3   OH2 5456   2.732   3.589   4.050
 1817TIP3    H1 5457   2.767   3.610   4.137
 1817TIP3    H2 5458   2.734   3.493   4.046
 1818TIP3   OH2 5459   3.944   1.064   4.753
 1818TIP3    H1 5460   3.900   1.047   4.669
 1818TIP3    H2 5461   4.009   0.994   4.760
 1819TIP3   OH2 5462   3.998   3.460   0.366
 1819TIP3    H1 5463   3.997   3.378   0.316
 1819TIP3    H2 5464   3.967   3.526   0.304
 1820TIP3   OH2 5465   2.747   2.752   1.296
 1820TIP3    H1 5466   2.768   2.659   1.297
 1820TIP3    H2 5467   2.661   2.757   1.338
 1821TIP3   OH2 5468   4.328   4.330   4.761
 1821TIP3    H1 5469   4.411   4.313   4.807
 1821TIP3    H2 5470   4.298   4.243   4.734
 1822TIP3   OH2 5471   5.971   1.203   5.101
 1822TIP3    H1 5472   5.969   1.292   5.066
 1822TIP3    H2 5473   5.914   1.206   5.178
 1823TIP3   OH2 5474   6.242   4.156   3.174
 1823TIP3    H1 5475   6.162   4.161   3.225
 1823TIP3    H2 5476   6.289   4.080   3.208
 1824TIP3   OH2 5477   4.037   2.575   1.195
 1824TIP3    H1 5478   4.007   2.540   1.279
 1824TIP3    H2 5479   3.976   2.647   1.175
 1825TIP3   OH2 5480   1.254   4.614   4.060
 1825TIP3    H1 5481   1.169   4.596   4.100
 1825TIP3    H2 5482   1.308   4.644   4.132
 1826TIP3   OH2 5483   6.059   0.441   3.123
 1826TIP3    H1 5484   6.039   0.516   3.066
 1826TIP3    H2 5485   6.085   0.481   3.206
 1827TIP3   OH2 5486   0.068   2.008   3.584
 1827TIP3    H1 5487   0.089   2.035   3.495
 1827TIP3    H2 5488   0.113   2.073   3.639
 1828TIP3   OH2 5489   3.482   4.011   1.556
 1828TIP3    H1 5490   3.551   4.077   1.560
 1828TIP3    H2 5491   3.456   3.997   1.647
 1829TIP3   OH2 5492   6.326   0.270   1.714
 1829TIP3    H1 5493   6.353   0.280   1.805
 1829TIP3    H2 5494   6.337   0.357   1.676
 1830TIP3   OH2 5495   3.789   0.998   4.475
 1830TIP3    H1 5496   3.727   1.071   4.483
 1830TIP3    H2 5497   3.734   0.922   4.454
 1831TIP3   OH2 5498   5.112   1.115   0.564
 1831TIP3    H1 5499   5.109   1.025   0.597
 1831TIP3    H2 5500   5.037   1.158   0.606
 1832TIP3   OH2 5501   4.346   0.363   0.569
 1832TIP3    H1 5502   4.360   0.269   0.584
 1832TIP3    H2 5503   4.323   0.398   0.655
 1833TIP3   OH2 5504   3.020   5.019   3.130
 1833TIP3    H1 5505   2.933   5.054   3.109
 1833TIP3    H2 5506   3.065   5.090   3.176
 1834TIP3   OH2 5507   4.365   5.788   1.029
 1834TIP3    H1 5508   4.378   5.697   1.001
 1834TIP3    H2 5509   4.321   5.830   0.955
 1835TIP3   OH2 5510   0.331   5.669   1.323
 1835TIP3    H1 5511   0.274   5.732   1.280
 1835TIP3    H2 5512   0.400   5.650   1.259
 1836TIP3   OH2 5513   1.163   5.353   2.267
 1836TIP3    H1 5514   1.106   5.423   2.236
 1836TIP3    H2 5515   1.108   5.274   2.262
 1837TIP3   OH2 5516   1.213   0.281   4.655
 1837TIP3    H1 5517   1.292   0.284   4.601
 1837TIP3    H2 5518   1.203   0.189   4.678
 1838TIP3   OH2 5519   3.356   5.903   1.634
 1838TIP3    H1 5520   3.386   5.978   1.685
 1838TIP3    H2 5521   3.394   5.915   1.547
 1839TIP3   OH2 5522   4.506   3.397   2.719
 1839TIP3    H1 5523   4.458   3.383   2.800
 1839TIP3    H2 5524   4.501   3.312   2.673
 1840TIP3   OH2 5525   5.458   4.329   4.714
 1840TIP3    H1 5526   5.424   4.274   4.784
 1840TIP3    H2 5527   5.530   4.278   4.676
 1841TIP3   OH2 5528   5.692   1.249   4.338
 1841TIP3    H1 5529   5.604   1.271   4.306
 1841TIP3    H2 5530   5.683   1.250   4.433
 1842TIP3   OH2 5531   2.011   2.273   0.423
 1842TIP3    H1 5532   2.080   2.335   0.401
 1842TIP3    H2 5533   1.980   2.301   0.509
 1843TIP3   OH2 5534   6.321   2.938   3.597
 1843TIP3    H1 5535   6.275   2.962   3.517
 1843TIP3    H2 5536   6.267   2.871   3.637
 1844TIP3   OH2 5537   1.672   5.884   4.566
 1844TIP3    H1 5538   1.716   5.846   4.490
 1844TIP3    H2 5539   1.589   5.836   4.571
 1845TIP3   OH2 5540   2.108   2.709   2.035
 1845TIP3    H1 5541   2.065   2.794   2.030
 1845TIP3    H2 5542   2.036   2.646   2.033
 1846TIP3   OH2 5543   5.655   0.780   3.953
 1846TIP3    H1 5544   5.731   0.829   3.921
 1846TIP3    H2 5545   5.629   0.826   4.033
 1847TIP3   OH2 5546   0.848   3.033   2.365
 1847TIP3    H1 5547   0.863   2.986   2.283
 1847TIP3    H2 5548   0.760   3.008   2.392
 1848TIP3   OH2 5549   4.222   5.313   4.065
 1848TIP3    H1 5550   4.196   5.387   4.011
 1848TIP3    H2 5551   4.167   5.240   4.035
 1849TIP3   OH2 5552   2.974   1.073   1.552
 1849TIP3    H1 5553   3.006   1.156   1.515
 1849TIP3    H2 5554   2.881   1.089   1.569
 1850TIP3   OH2 5555   6.194   5.073   0.935
 1850TIP3    H1 5556   6.175   5.166   0.922
 1850TIP3    H2 5557   6.110   5.035   0.961
 1851TIP3   OH2 5558   5.444   4.001   2.608
 1851TIP3    H1 5559   5.527   4.048   2.604
 1851TIP3    H2 5560   5.417   4.007   2.700
 1852TIP3   OH2 5561   5.652   0.818   2.321
 1852TIP3    H1 5562   5.737   0.825   2.278
 1852TIP3    H2 5563   5.594   0.874   2.270
 1853TIP3   OH2 5564   1.581   5.813   2.359
 1853TIP3    H1 5565   1.649   5.763   2.313
 1853TIP3    H2 5566   1.629   5.884   2.401
 1854TIP3   OH2 5567   2.633   5.428   3.547
 1854TIP3    H1 5568   2.614   5.478   3.627
 1854TIP3    H2 5569   2.562   5.364   3.542
 1855TIP3   OH2 5570   3.947   3.364   2.000
 1855TIP3    H1 5571   3.860   3.399   2.021
 1855TIP3    H2 5572   3.943   3.345   1.906
 1856TIP3   OH2 5573   0.821   4.469   0.358
 1856TIP3    H1 5574   0.767   4.498   0.285
 1856TIP3    H2 5575   0.909   4.500   0.336
 1857TIP3   OH2 5576   4.804   0.418   2.661
 1857TIP3    H1 5577   4.857   0.355   2.710
 1857TIP3    H2 5578   4.785   0.373   2.578
 1858TIP3   OH2 5579   1.254   3.074   3.883
 1858TIP3    H1 5580   1.229   2.989   3.919
 1858TIP3    H2 5581   1.212   3.077   3.797
 1859TIP3   OH2 5582   0.532   1.738   4.986
 1859TIP3    H1 5583   0.462   1.677   5.007
 1859TIP3    H2 5584   0.489   1.823   4.981
 1860TIP3   OH2 5585   4.444   3.911   3.040
 1860TIP3    H1 5586   4.506   3.850   3.001
 1860TIP3    H2 5587   4.368   3.908   2.982
 1861TIP3   OH2 5588   3.352   0.181   3.049
 1861TIP3    H1 5589   3.353   0.219   2.962
 1861TIP3    H2 5590   3.439   0.199   3.084
 1862TIP3   OH2 5591   5.985   5.382   3.750
 1862TIP3    H1 5592   6.022   5.336   3.826
 1862TIP3    H2 5593   5.930   5.450   3.788
 1863TIP3   OH2 5594   3.555   0.586   2.103
 1863TIP3    H1 5595   3.602   0.665   2.129
 1863TIP3    H2 5596   3.609   0.548   2.033
 1864TIP3   OH2 5597   1.361   5.804   4.873
 1864TIP3    H1 5598   1.333   5.851   4.795
 1864TIP3    H2 5599   1.428   5.743   4.843
 1865TIP3   OH2 5600   0.535   2.521   0.644
 1865TIP3    H1 5601   0.456   2.543   0.594
 1865TIP3    H2 5602   0.589   2.600   0.636
 1866TIP3   OH2 5603   4.235   3.533   0.537
 1866TIP3    H1 5604   4.169   3.530   0.606
 1866TIP3    H2 5605   4.189   3.502   0.459
 1867TIP3   OH2 5606   2.803   0.658   4.270
 1867TIP3    H1 5607   2.744   0.647   4.195
 1867TIP3    H2 5608   2.869   0.589   4.258
 1868TIP3   OH2 5609   5.205   2.658   0.261
 1868TIP3    H1 5610   5.215   2.735   0.317
 1868TIP3    H2 5611   5.113   2.635   0.268
 1869TIP3   OH2 5612   3.669   5.939   4.569
 1869TIP3    H1 5613   3.582   5.924   4.532
 1869TIP3    H2 5614   3.653   5.951   4.662
 1870TIP3   OH2 5615   2.671   2.245   0.167
 1870TIP3    H1 5616   2.743   2.307   0.158
 1870TIP3    H2 5617   2.696   2.172   0.110
 1871TIP3   OH2 5618   2.101   4.785   3.659
 1871TIP3    H1 5619   2.091   4.690   3.667
 1871TIP3    H2 5620   2.165   4.797   3.589
 1872TIP3   OH2 5621   0.668   4.954   2.956
 1872TIP3    H1 5622   0.653   4.934   3.048
 1872TIP3    H2 5623   0.580   4.960   2.918
 1873TIP3   OH2 5624   2.438   4.476   3.991
 1873TIP3    H1 5625   2.480   4.561   3.981
 1873TIP3    H2 5626   2.397   4.459   3.906
 1874TIP3   OH2 5627   1.397   4.005   2.977
 1874TIP3    H1 5628   1.307   4.004   2.945
 1874TIP3    H2 5629   1.448   4.035   2.902
 1875TIP3   OH2 5630   1.759   5.256   1.860
 1875TIP3    H1 5631   1.755   5.309   1.939
 1875TIP3    H2 5632   1.821   5.186   1.879
 1876TIP3   OH2 5633   0.112   2.143   2.017
 1876TIP3    H1 5634   0.063   2.061   2.020
 1876TIP3    H2 5635   0.203   2.116   2.007
 1877TIP3   OH2 5636   4.837   2.910   5.015
 1877TIP3    H1 5637   4.785   2.924   5.094
 1877TIP3    H2 5638   4.905   2.977   5.018
 1878TIP3   OH2 5639   3.490   3.355   4.514
 1878TIP3    H1 5640   3.439   3.431   4.542
 1878TIP3    H2 5641   3.581   3.377   4.536
 1879TIP3   OH2 5642   3.411   0.872   4.174
 1879TIP3    H1 5643   3.402   0.869   4.079
 1879TIP3    H2 5644   3.479   0.937   4.190
 1880TIP3   OH2 5645   5.121   1.849   3.147
 1880TIP3    H1 5646   5.098   1.825   3.058
 1880TIP3    H2 5647   5.043   1.826   3.199
 1881TIP3   OH2 5648   0.252   1.923   3.890
 1881TIP3    H1 5649   0.263   1.832   3.863
 1881TIP3    H2 5650   0.176   1.923   3.948
 1882TIP3   OH2 5651   1.544   5.519   3.899
 1882TIP3    H1 5652   1.486   5.524   3.822
 1882TIP3    H2 5653   1.596   5.440   3.884
 1883TIP3   OH2 5654   2.637   3.092   0.503
 1883TIP3    H1 5655   2.647   3.001   0.474
 1883TIP3    H2 5656   2.633   3.142   0.422
 1884TIP3   OH2 5657   5.685   3.307   3.809
 1884TIP3    H1 5658   5.733   3.257   3.876
 1884TIP3    H2 5659   5.637   3.373   3.859
 1885TIP3   OH2 5660   3.135   2.080   1.903
 1885TIP3    H1 5661   3.164   2.132   1.828
 1885TIP3    H2 5662   3.217   2.057   1.948
 1886TIP3   OH2 5663   4.677   2.167   1.648
 1886TIP3    H1 5664   4.671   2.260   1.668
 1886TIP3    H2 5665   4.595   2.130   1.683
 1887TIP3   OH2 5666   2.547   0.618   1.303
 1887TIP3    H1 5667   2.538   0.681   1.375
 1887TIP3    H2 5668   2.639   0.593   1.305
 1888TIP3   OH2 5669   3.760   2.929   4.689
 1888TIP3    H1 5670   3.808   2.924   4.772
 1888TIP3    H2 5671   3.778   3.018   4.657
 1889TIP3   OH2 5672   2.186   1.434   2.571
 1889TIP3    H1 5673   2.234   1.462   2.492
 1889TIP3    H2 5674   2.098   1.413   2.539
 1890TIP3   OH2 5675   0.979   3.242   3.016
 1890TIP3    H1 5676   1.031   3.278   3.088
 1890TIP3    H2 5677   0.974   3.148   3.036
 1891TIP3   OH2 5678   5.868   4.826   4.132
 1891TIP3    H1 5679   5.910   4.910   4.110
 1891TIP3    H2 5680   5.868   4.777   4.050
 1892TIP3   OH2 5681   4.082   1.972   3.381
 1892TIP3    H1 5682   4.055   2.005   3.295
 1892TIP3    H2 5683   4.009   1.916   3.408
 1893TIP3   OH2 5684   5.263   1.171   3.331
 1893TIP3    H1 5685   5.182   1.192   3.379
 1893TIP3    H2 5686   5.333   1.197   3.391
 1894TIP3   OH2 5687   5.010   0.083   3.250
 1894TIP3    H1 5688   5.009  -0.008   3.219
 1894TIP3    H2 5689   5.088   0.088   3.305
 1895TIP3   OH2 5690   0.169   5.832   2.361
 1895TIP3    H1 5691   0.105   5.792   2.302
 1895TIP3    H2 5692   0.146   5.800   2.448
 1896TIP3   OH2 5693   0.353   4.289   1.632
 1896TIP3    H1 5694   0.404   4.361   1.594
 1896TIP3    H2 5695   0.419   4.228   1.664
 1897TIP3   OH2 5696   5.488   2.415   5.024
 1897TIP3    H1 5697   5.456   2.407   4.934
 1897TIP3    H2 5698   5.528   2.330   5.043
 1898TIP3   OH2 5699   3.196   1.571   2.147
 1898TIP3    H1 5700   3.273   1.517   2.129
 1898TIP3    H2 5701   3.141   1.561   2.069
 1899TIP3   OH2 5702   0.973   1.046   3.436
 1899TIP3    H1 5703   1.060   1.049   3.396
 1899TIP3    H2 5704   0.985   1.090   3.520
 1900TIP3   OH2 5705   2.780   2.155   2.513
 1900TIP3    H1 5706   2.758   2.143   2.421
 1900TIP3    H2 5707   2.872   2.129   2.519
 1901TIP3   OH2 5708   4.879   5.931   3.812
 1901TIP3    H1 5709   4.933   6.005   3.784
 1901TIP3    H2 5710   4.843   5.959   3.896
 1902TIP3   OH2 5711   4.185   1.722   2.046
 1902TIP3    H1 5712   4.101   1.691   2.078
 1902TIP3    H2 5713   4.164   1.771   1.967
 1903TIP3   OH2 5714   4.390   1.845   1.049
 1903TIP3    H1 5715   4.306   1.809   1.079
 1903TIP3    H2 5716   4.422   1.896   1.124
 1904TIP3   OH2 5717   5.967   3.431   3.574
 1904TIP3    H1 5718   5.905   3.425   3.501
 1904TIP3    H2 5719   5.937   3.505   3.625
 1905TIP3   OH2 5720   6.073   4.764   0.486
 1905TIP3    H1 5721   6.087   4.689   0.428
 1905TIP3    H2 5722   6.156   4.774   0.534
 1906TIP3   OH2 5723   4.598   0.215   4.791
 1906TIP3    H1 5724   4.594   0.125   4.821
 1906TIP3    H2 5725   4.692   0.234   4.783
 1907TIP3   OH2 5726   6.095   5.998   3.386
 1907TIP3    H1 5727   6.131   5.909   3.389
 1907TIP3    H2 5728   6.054   6.005   3.299
 1908TIP3   OH2 5729   4.324   3.355   4.424
 1908TIP3    H1 5730   4.320   3.417   4.496
 1908TIP3    H2 5731   4.250   3.378   4.368
 1909TIP3   OH2 5732   0.953   5.972   1.341
 1909TIP3    H1 5733   0.885   6.011   1.396
 1909TIP3    H2 5734   0.967   5.885   1.378
 1910TIP3   OH2 5735   2.335   3.652   0.527
 1910TIP3    H1 5736   2.307   3.713   0.595
 1910TIP3    H2 5737   2.370   3.707   0.457
 1911TIP3   OH2 5738   2.750   5.618   4.633
 1911TIP3    H1 5739   2.773   5.552   4.568
 1911TIP3    H2 5740   2.832   5.635   4.680
 1912TIP3   OH2 5741   2.372   1.767   1.262
 1912TIP3    H1 5742   2.326   1.792   1.342
 1912TIP3    H2 5743   2.330   1.686   1.235
 1913TIP3   OH2 5744   2.236   4.468   0.611
 1913TIP3    H1 5745   2.267   4.544   0.661
 1913TIP3    H2 5746   2.150   4.448   0.648
 1914TIP3   OH2 5747   0.330   2.762   4.875
 1914TIP3    H1 5748   0.360   2.777   4.785
 1914TIP3    H2 5749   0.330   2.849   4.915
 1915TIP3   OH2 5750   4.212   5.042   3.426
 1915TIP3    H1 5751   4.254   4.967   3.383
 1915TIP3    H2 5752   4.118   5.029   3.410
 1916TIP3   OH2 5753   4.599   4.611   1.056
 1916TIP3    H1 5754   4.608   4.700   1.022
 1916TIP3    H2 5755   4.612   4.620   1.150
 1917TIP3   OH2 5756   0.513   3.980   1.680
 1917TIP3    H1 5757   0.575   3.917   1.715
 1917TIP3    H2 5758   0.567   4.057   1.658
 1918TIP3   OH2 5759   4.570   0.554   0.598
 1918TIP3    H1 5760   4.541   0.469   0.564
 1918TIP3    H2 5761   4.519   0.567   0.677
 1919TIP3   OH2 5762   4.857   2.655   1.380
 1919TIP3    H1 5763   4.925   2.698   1.431
 1919TIP3    H2 5764   4.899   2.635   1.296
 1920TIP3   OH2 5765   3.565   4.776   1.621
 1920TIP3    H1 5766   3.575   4.810   1.710
 1920TIP3    H2 5767   3.473   4.748   1.617
 1921TIP3   OH2 5768   4.219   4.131   5.100
 1921TIP3    H1 5769   4.303   4.085   5.098
 1921TIP3    H2 5770   4.153   4.062   5.101
 1922TIP3   OH2 5771   3.981   0.238   0.710
 1922TIP3    H1 5772   3.893   0.226   0.746
 1922TIP3    H2 5773   4.016   0.313   0.757
 1923TIP3   OH2 5774   3.192   2.341   0.160
 1923TIP3    H1 5775   3.173   2.249   0.175
 1923TIP3    H2 5776   3.271   2.359   0.212
 1924TIP3   OH2 5777   3.300   1.386   4.527
 1924TIP3    H1 5778   3.300   1.292   4.510
 1924TIP3    H2 5779   3.224   1.400   4.584
 1925TIP3   OH2 5780   1.948   4.950   0.347
 1925TIP3    H1 5781   1.887   5.024   0.344
 1925TIP3    H2 5782   2.028   4.983   0.305
 1926TIP3   OH2 5783   6.102   5.774   4.134
 1926TIP3    H1 5784   6.162   5.848   4.122
 1926TIP3    H2 5785   6.015   5.813   4.130
 1927TIP3   OH2 5786   6.105   3.607   0.904
 1927TIP3    H1 5787   6.113   3.552   0.982
 1927TIP3    H2 5788   6.167   3.679   0.919
 1928TIP3   OH2 5789   0.848   1.678   1.239
 1928TIP3    H1 5790   0.753   1.678   1.238
 1928TIP3    H2 5791   0.871   1.643   1.326
 1929TIP3   OH2 5792   1.266   4.086   4.438
 1929TIP3    H1 5793   1.348   4.066   4.483
 1929TIP3    H2 5794   1.282   4.061   4.347
 1930TIP3   OH2 5795   0.607   1.273   0.254
 1930TIP3    H1 5796   0.649   1.236   0.177
 1930TIP3    H2 5797   0.606   1.203   0.319
 1931TIP3   OH2 5798   1.010   5.652   1.432
 1931TIP3    H1 5799   1.090   5.644   1.484
 1931TIP3    H2 5800   1.018   5.584   1.365
 1932TIP3   OH2 5801   2.901   1.181   5.153
 1932TIP3    H1 5802   2.925   1.237   5.227
 1932TIP3    H2 5803   2.966   1.111   5.155
 1933TIP3   OH2 5804   3.954   2.263   1.768
 1933TIP3    H1 5805   3.883   2.316   1.803
 1933TIP3    H2 5806   4.012   2.326   1.725
 1934TIP3   OH2 5807   0.453   4.889   4.321
 1934TIP3    H1 5808   0.376   4.855   4.368
 1934TIP3    H2 5809   0.447   4.851   4.234
 1935TIP3   OH2 5810   5.287   1.652   4.093
 1935TIP3    H1 5811   5.286   1.557   4.082
 1935TIP3    H2 5812   5.234   1.667   4.171
 1936TIP3   OH2 5813   3.686   3.571   0.929
 1936TIP3    H1 5814   3.673   3.539   0.840
 1936TIP3    H2 5815   3.607   3.621   0.949
 1937TIP3   OH2 5816   5.428   5.336   0.578
 1937TIP3    H1 5817   5.453   5.246   0.558
 1937TIP3    H2 5818   5.474   5.356   0.659
 1938TIP3   OH2 5819   0.566   3.923   2.035
 1938TIP3    H1 5820   0.580   4.014   2.061
 1938TIP3    H2 5821   0.650   3.895   1.999
 1939TIP3   OH2 5822   0.020   1.805   5.042
 1939TIP3    H1 5823  -0.018   1.736   4.988
 1939TIP3    H2 5824   0.088   1.761   5.092
 1940TIP3   OH2 5825   5.166   3.192   4.798
 1940TIP3    H1 5826   5.138   3.102   4.782
 1940TIP3    H2 5827   5.261   3.190   4.787
 1941TIP3   OH2 5828   2.587   0.421   3.929
 1941TIP3    H1 5829   2.613   0.355   3.865
 1941TIP3    H2 5830   2.494   0.404   3.946
 1942TIP3   OH2 5831   3.976   1.522   1.153
 1942TIP3    H1 5832   3.998   1.469   1.229
 1942TIP3    H2 5833   4.058   1.532   1.105
 1943TIP3   OH2 5834   3.739   2.673   2.668
 1943TIP3    H1 5835   3.708   2.725   2.742
 1943TIP3    H2 5836   3.660   2.654   2.617
 1944TIP3   OH2 5837   4.341   4.305   1.707
 1944TIP3    H1 5838   4.359   4.213   1.693
 1944TIP3    H2 5839   4.382   4.350   1.633
 1945TIP3   OH2 5840   3.817   5.884   2.521
 1945TIP3    H1 5841   3.888   5.872   2.458
 1945TIP3    H2 5842   3.788   5.795   2.541
 1946TIP3   OH2 5843   3.860   4.667   1.945
 1946TIP3    H1 5844   3.803   4.590   1.956
 1946TIP3    H2 5845   3.939   4.632   1.905
 1947TIP3   OH2 5846   3.857   0.218   1.760
 1947TIP3    H1 5847   3.827   0.135   1.795
 1947TIP3    H2 5848   3.945   0.229   1.797
 1948TIP3   OH2 5849   0.327   0.508   4.679
 1948TIP3    H1 5850   0.291   0.527   4.765
 1948TIP3    H2 5851   0.422   0.507   4.692
 1949TIP3   OH2 5852   5.687   1.315   4.627
 1949TIP3    H1 5853   5.726   1.240   4.672
 1949TIP3    H2 5854   5.620   1.347   4.687
 1950TIP3   OH2 5855   6.198   5.061   1.664
 1950TIP3    H1 5856   6.251   5.128   1.621
 1950TIP3    H2 5857   6.237   4.978   1.636
 1951TIP3   OH2 5858   1.963   4.900   1.637
 1951TIP3    H1 5859   2.046   4.945   1.648
 1951TIP3    H2 5860   1.928   4.934   1.555
 1952TIP3   OH2 5861   1.902   0.925   2.578
 1952TIP3    H1 5862   1.914   1.016   2.551
 1952TIP3    H2 5863   1.829   0.893   2.525
 1953TIP3   OH2 5864   3.348   1.694   1.726
 1953TIP3    H1 5865   3.429   1.680   1.776
 1953TIP3    H2 5866   3.362   1.645   1.645
 1954TIP3   OH2 5867   2.555   4.140   1.591
 1954TIP3    H1 5868   2.470   4.167   1.558
 1954TIP3    H2 5869   2.566   4.189   1.672
 1955TIP3   OH2 5870   3.024   5.258   1.019
 1955TIP3    H1 5871   3.060   5.346   1.025
 1955TIP3    H2 5872   3.069   5.209   1.088
 1956TIP3   OH2 5873   4.316   4.888   0.436
 1956TIP3    H1 5874   4.317   4.793   0.430
 1956TIP3    H2 5875   4.349   4.907   0.524
 1957TIP3   OH2 5876   6.185   1.128   3.133
 1957TIP3    H1 5877   6.239   1.162   3.061
 1957TIP3    H2 5878   6.176   1.034   3.113
 1958TIP3   OH2 5879   2.246   2.583   0.698
 1958TIP3    H1 5880   2.240   2.512   0.635
 1958TIP3    H2 5881   2.300   2.649   0.654
 1959TIP3   OH2 5882   3.252   2.636   1.292
 1959TIP3    H1 5883   3.343   2.611   1.278
 1959TIP3    H2 5884   3.234   2.703   1.226
 1960TIP3   OH2 5885   0.862   3.299   2.519
 1960TIP3    H1 5886   0.894   3.352   2.447
 1960TIP3    H2 5887   0.840   3.215   2.480
 1961TIP3   OH2 5888   1.601   3.971   4.095
 1961TIP3    H1 5889   1.637   3.947   4.180
 1961TIP3    H2 5890   1.557   3.892   4.064
 1962TIP3   OH2 5891   4.577   5.025   3.141
 1962TIP3    H1 5892   4.548   4.982   3.061
 1962TIP3    H2 5893   4.665   5.056   3.122
 1963TIP3   OH2 5894   0.653   2.227   0.478
 1963TIP3    H1 5895   0.563   2.235   0.510
 1963TIP3    H2 5896   0.694   2.163   0.537
 1964TIP3   OH2 5897   2.566   4.630   1.133
 1964TIP3    H1 5898   2.592   4.574   1.206
 1964TIP3    H2 5899   2.493   4.682   1.167
 1965TIP3   OH2 5900   3.314   1.498   0.090
 1965TIP3    H1 5901   3.305   1.411   0.052
 1965TIP3    H2 5902   3.379   1.542   0.034
 1966TIP3   OH2 5903   2.563   3.104   2.079
 1966TIP3    H1 5904   2.510   3.066   2.149
 1966TIP3    H2 5905   2.501   3.121   2.008
 1967TIP3   OH2 5906   0.650   2.736   1.120
 1967TIP3    H1 5907   0.647   2.644   1.097
 1967TIP3    H2 5908   0.693   2.778   1.046
 1968TIP3   OH2 5909   4.233   3.673   1.636
 1968TIP3    H1 5910   4.220   3.744   1.573
 1968TIP3    H2 5911   4.200   3.595   1.591
 1969TIP3   OH2 5912   1.198   4.645   4.915
 1969TIP3    H1 5913   1.172   4.734   4.893
 1969TIP3    H2 5914   1.251   4.616   4.841
 1970TIP3   OH2 5915   0.040   1.260   1.674
 1970TIP3    H1 5916   0.081   1.213   1.601
 1970TIP3    H2 5917   0.111   1.311   1.712
 1971TIP3   OH2 5918   4.992   1.767   2.252
 1971TIP3    H1 5919   5.047   1.807   2.185
 1971TIP3    H2 5920   4.953   1.691   2.209
 1972TIP3   OH2 5921   5.344   2.670   4.753
 1972TIP3    H1 5922   5.433   2.645   4.729
 1972TIP3    H2 5923   5.319   2.735   4.687
 1973TIP3   OH2 5924   0.773   1.051   0.271
 1973TIP3    H1 5925   0.707   0.992   0.307
 1973TIP3    H2 5926   0.812   1.093   0.348
 1974TIP3   OH2 5927   1.271   1.273   0.281
 1974TIP3    H1 5928   1.210   1.200   0.276
 1974TIP3    H2 5929   1.217   1.348   0.307
 1975TIP3   OH2 5930   6.183   4.985   2.132
 1975TIP3    H1 5931   6.216   4.904   2.095
 1975TIP3    H2 5932   6.093   4.991   2.099
 1976TIP3   OH2 5933   0.919   2.489   1.557
 1976TIP3    H1 5934   0.875   2.574   1.551
 1976TIP3    H2 5935   0.871   2.433   1.496
 1977TIP3   OH2 5936   5.985   3.196   3.271
 1977TIP3    H1 5937   5.954   3.279   3.309
 1977TIP3    H2 5938   5.941   3.190   3.187
 1978TIP3   OH2 5939   1.057   2.600   2.794
 1978TIP3    H1 5940   0.967   2.626   2.814
 1978TIP3    H2 5941   1.061   2.507   2.818
 1979TIP3   OH2 5942   3.362   2.203   4.284
 1979TIP3    H1 5943   3.443   2.196   4.233
 1979TIP3    H2 5944   3.381   2.156   4.365
 1980TIP3   OH2 5945   2.597  -0.011   2.617
 1980TIP3    H1 5946   2.644   0.047   2.677
 1980TIP3    H2 5947   2.512   0.031   2.606
 1981TIP3   OH2 5948   4.268   3.796   1.391
 1981TIP3    H1 5949   4.296   3.707   1.368
 1981TIP3    H2 5950   4.327   3.853   1.342
 1982TIP3   OH2 5951   4.095   0.532   1.686
 1982TIP3    H1 5952   4.189   0.520   1.701
 1982TIP3    H2 5953   4.054   0.503   1.767
 1983TIP3   OH2 5954   4.225   3.564   3.918
 1983TIP3    H1 5955   4.253   3.642   3.871
 1983TIP3    H2 5956   4.287   3.555   3.990
 1984TIP3   OH2 5957   1.314  -0.010   4.120
 1984TIP3    H1 5958   1.358  -0.023   4.204
 1984TIP3    H2 5959   1.240   0.047   4.140
 1985TIP3   OH2 5960   2.853   4.859   5.045
 1985TIP3    H1 5961   2.820   4.822   5.127
 1985TIP3    H2 5962   2.913   4.793   5.011
 1986TIP3   OH2 5963   2.841   1.219   0.244
 1986TIP3    H1 5964   2.811   1.297   0.291
 1986TIP3    H2 5965   2.895   1.172   0.308
 1987TIP3   OH2 5966   5.473   5.701   1.657
 1987TIP3    H1 5967   5.392   5.720   1.704
 1987TIP3    H2 5968   5.475   5.764   1.585
 1988TIP3   OH2 5969   3.955   0.883   2.911
 1988TIP3    H1 5970   3.891   0.944   2.876
 1988TIP3    H2 5971   3.923   0.862   2.999
 1989TIP3   OH2 5972   1.826   3.636   4.359
 1989TIP3    H1 5973   1.732   3.640   4.338
 1989TIP3    H2 5974   1.868   3.689   4.292
 1990TIP3   OH2 5975   2.424   0.068   3.203
 1990TIP3    H1 5976   2.439  -0.021   3.171
 1990TIP3    H2 5977   2.480   0.076   3.280
 1991TIP3   OH2 5978   2.170   2.550   2.556
 1991TIP3    H1 5979   2.174   2.622   2.492
 1991TIP3    H2 5980   2.175   2.593   2.641
 1992TIP3   OH2 5981   6.185   4.733   3.961
 1992TIP3    H1 5982   6.242   4.786   3.905
 1992TIP3    H2 5983   6.168   4.654   3.910
 1993TIP3   OH2 5984   4.118   2.815   3.029
 1993TIP3    H1 5985   4.188   2.854   3.082
 1993TIP3    H2 5986   4.055   2.782   3.093
 1994TIP3   OH2 5987   1.405   5.070   1.056
 1994TIP3    H1 5988   1.481   5.119   1.025
 1994TIP3    H2 5989   1.331   5.130   1.042
 1995TIP3   OH2 5990   3.744   4.830   4.141
 1995TIP3    H1 5991   3.835   4.808   4.158
 1995TIP3    H2 5992   3.745   4.925   4.130
 1996TIP3   OH2 5993   3.549   0.710   1.276
 1996TIP3    H1 5994   3.604   0.678   1.348
 1996TIP3    H2 5995   3.612   0.745   1.213
 1997TIP3   OH2 5996   2.229   4.029   0.929
 1997TIP3    H1 5997   2.233   4.124   0.932
 1997TIP3    H2 5998   2.214   4.003   1.020
 1998TIP3   OH2 5999   0.281   2.163   4.785
 1998TIP3    H1 6000   0.294   2.205   4.870
 1998TIP3    H2 6001   0.343   2.207   4.727
 1999TIP3   OH2 6002   4.516   3.232   4.239
 1999TIP3    H1 6003   4.558   3.199   4.319
 1999TIP3    H2 6004   4.437   3.276   4.271
 2000TIP3   OH2 6005   3.463   0.613   3.118
 2000TIP3    H1 6006   3.495   0.682   3.177
 2000TIP3    H2 6007   3.371   0.602   3.142
 2001TIP3   OH2 6008   3.136   1.152   4.159
 2001TIP3    H1 6009   3.048   1.155   4.198
 2001TIP3    H2 6010   3.164   1.062   4.170
 2002TIP3   OH2 6011   5.697   4.820   4.341
 2002TIP3    H1 6012   5.756   4.810   4.266
 2002TIP3    H2 6013   5.622   4.868   4.307
 2003TIP3   OH2 6014   6.243   5.745   5.117
 2003TIP3    H1 6015   6.163   5.763   5.068
 2003TIP3    H2 6016   6.220   5.672   5.175
 2004TIP3   OH2 6017   2.034   3.404   3.075
 2004TIP3    H1 6018   2.000   3.475   3.129
 2004TIP3    H2 6019   2.063   3.337   3.137
 2005TIP3   OH2 6020   3.384   5.330   1.947
 2005TIP3    H1 6021   3.358   5.335   1.855
 2005TIP3    H2 6022   3.395   5.422   1.974
 2006TIP3   OH2 6023   1.222   3.094   1.038
 2006TIP3    H1 6024   1.176   3.137   0.966
 2006TIP3    H2 6025   1.156   3.084   1.106
 2007TIP3   OH2 6026   5.782   1.847   0.622
 2007TIP3    H1 6027   5.789   1.891   0.537
 2007TIP3    H2 6028   5.783   1.754   0.601
 2008TIP3   OH2 6029   5.989   5.047   4.481
 2008TIP3    H1 6030   5.958   5.128   4.440
 2008TIP3    H2 6031   5.910   5.010   4.522
 2009TIP3   OH2 6032   1.113   2.818   1.879
 2009TIP3    H1 6033   1.100   2.723   1.877
 2009TIP3    H2 6034   1.026   2.854   1.860
 2010TIP3   OH2 6035   3.659   0.012   2.932
 2010TIP3    H1 6036   3.658  -0.064   2.990
 2010TIP3    H2 6037   3.682   0.085   2.989
 2011TIP3   OH2 6038   2.950   0.782   1.732
 2011TIP3    H1 6039   2.924   0.748   1.647
 2011TIP3    H2 6040   2.870   0.785   1.783
 2012TIP3   OH2 6041   3.300   1.519   2.861
 2012TIP3    H1 6042   3.277   1.454   2.794
 2012TIP3    H2 6043   3.383   1.555   2.831
 2013TIP3   OH2 6044   3.209   5.666   1.949
 2013TIP3    H1 6045   3.207   5.668   1.854
 2013TIP3    H2 6046   3.187   5.756   1.976
 2014TIP3   OH2 6047   4.920   3.665   2.370
 2014TIP3    H1 6048   4.948   3.750   2.337
 2014TIP3    H2 6049   4.973   3.651   2.449
 2015TIP3   OH2 6050   3.629   3.379   1.531
 2015TIP3    H1 6051   3.554   3.378   1.471
 2015TIP3    H2 6052   3.594   3.418   1.611
 2016TIP3   OH2 6053   1.347   4.763   0.954
 2016TIP3    H1 6054   1.420   4.811   0.993
 2016TIP3    H2 6055   1.357   4.776   0.860
 2017TIP3   OH2 6056   2.042   4.329   1.675
 2017TIP3    H1 6057   1.987   4.402   1.705
 2017TIP3    H2 6058   2.124   4.370   1.649
 2018TIP3   OH2 6059   2.965   5.549  -0.027
 2018TIP3    H1 6060   2.988   5.639  -0.006
 2018TIP3    H2 6061   2.909   5.521   0.045
 2019TIP3   OH2 6062   2.623   4.087   2.930
 2019TIP3    H1 6063   2.650   4.007   2.884
 2019TIP3    H2 6064   2.528   4.077   2.941
 2020TIP3   OH2 6065   6.207   0.351   5.081
 2020TIP3    H1 6066   6.136   0.404   5.116
 2020TIP3    H2 6067   6.237   0.299   5.156
 2021TIP3   OH2 6068   4.955   3.413   1.545
 2021TIP3    H1 6069   4.890   3.454   1.488
 2021TIP3    H2 6070   4.904   3.379   1.619
 2022TIP3   OH2 6071   4.942   2.138   3.507
 2022TIP3    H1 6072   5.014   2.091   3.463
 2022TIP3    H2 6073   4.979   2.223   3.528
 2023TIP3   OH2 6074   4.720   0.970   1.094
 2023TIP3    H1 6075   4.630   0.939   1.092
 2023TIP3    H2 6076   4.751   0.952   1.182
 2024TIP3   OH2 6077   5.317   0.147   1.489
 2024TIP3    H1 6078   5.261   0.206   1.539
 2024TIP3    H2 6079   5.356   0.202   1.422
 2025TIP3   OH2 6080   0.665   5.754   0.809
 2025TIP3    H1 6081   0.663   5.810   0.887
 2025TIP3    H2 6082   0.573   5.739   0.787
 2026TIP3   OH2 6083   0.891   2.156   0.919
 2026TIP3    H1 6084   0.860   2.245   0.901
 2026TIP3    H2 6085   0.811   2.105   0.933
 2027TIP3   OH2 6086   6.096   1.456   2.030
 2027TIP3    H1 6087   6.066   1.451   1.939
 2027TIP3    H2 6088   6.050   1.385   2.074
 2028TIP3   OH2 6089   4.378   2.503   0.515
 2028TIP3    H1 6090   4.300   2.482   0.565
 2028TIP3    H2 6091   4.447   2.510   0.580
 2029TIP3   OH2 6092   0.037   3.072   3.937
 2029TIP3    H1 6093   0.079   2.998   3.979
 2029TIP3    H2 6094  -0.046   3.038   3.905
 2030TIP3   OH2 6095   1.525   3.143   5.037
 2030TIP3    H1 6096   1.481   3.102   4.963
 2030TIP3    H2 6097   1.524   3.077   5.106
 2031TIP3   OH2 6098   3.049   5.446   1.965
 2031TIP3    H1 6099   3.021   5.443   1.874
 2031TIP3    H2 6100   3.102   5.525   1.972
 2032TIP3   OH2 6101   3.941   1.368   3.397
 2032TIP3    H1 6102   3.904   1.403   3.316
 2032TIP3    H2 6103   3.867   1.363   3.458
 2033TIP3   OH2 6104   1.902   1.357   4.301
 2033TIP3    H1 6105   1.812   1.341   4.272
 2033TIP3    H2 6106   1.908   1.452   4.310
 2034TIP3   OH2 6107   5.204   4.223   1.191
 2034TIP3    H1 6108   5.244   4.267   1.266
 2034TIP3    H2 6109   5.277   4.208   1.130
 2035TIP3   OH2 6110   1.322   1.100   3.537
 2035TIP3    H1 6111   1.261   1.127   3.469
 2035TIP3    H2 6112   1.385   1.173   3.543
 2036TIP3   OH2 6113   5.269   0.566   1.500
 2036TIP3    H1 6114   5.252   0.480   1.537
 2036TIP3    H2 6115   5.205   0.624   1.543
 2037TIP3   OH2 6116   2.748   2.747   2.764
 2037TIP3    H1 6117   2.659   2.722   2.736
 2037TIP3    H2 6118   2.777   2.675   2.819
 2038TIP3   OH2 6119   5.162   1.936   2.097
 2038TIP3    H1 6120   5.131   1.990   2.024
 2038TIP3    H2 6121   5.232   1.882   2.059
 2039TIP3   OH2 6122   2.754   4.048   4.159
 2039TIP3    H1 6123   2.721   3.980   4.100
 2039TIP3    H2 6124   2.726   4.130   4.120
 2040TIP3   OH2 6125   0.295   1.896   4.894
 2040TIP3    H1 6126   0.286   1.974   4.838
 2040TIP3    H2 6127   0.265   1.824   4.839
 2041TIP3   OH2 6128   5.966   1.638   2.589
 2041TIP3    H1 6129   6.011   1.652   2.506
 2041TIP3    H2 6130   5.888   1.693   2.584
 2042TIP3   OH2 6131   1.391   2.429   4.462
 2042TIP3    H1 6132   1.305   2.469   4.446
 2042TIP3    H2 6133   1.408   2.377   4.383
 2043TIP3   OH2 6134   1.787   0.964   3.608
 2043TIP3    H1 6135   1.882   0.968   3.617
 2043TIP3    H2 6136   1.765   0.871   3.620
 2044TIP3   OH2 6137   5.663   2.527   1.864
 2044TIP3    H1 6138   5.666   2.501   1.772
 2044TIP3    H2 6139   5.708   2.456   1.910
 2045TIP3   OH2 6140   4.676   1.484   1.809
 2045TIP3    H1 6141   4.662   1.571   1.848
 2045TIP3    H2 6142   4.595   1.436   1.828
 2046TIP3   OH2 6143   4.428   4.757   4.685
 2046TIP3    H1 6144   4.408   4.737   4.777
 2046TIP3    H2 6145   4.343   4.752   4.641
 2047TIP3   OH2 6146   4.274   2.309   2.448
 2047TIP3    H1 6147   4.267   2.400   2.419
 2047TIP3    H2 6148   4.186   2.273   2.436
 2048TIP3   OH2 6149   3.341   0.631   5.204
 2048TIP3    H1 6150   3.377   0.693   5.140
 2048TIP3    H2 6151   3.337   0.547   5.158
 2049TIP3   OH2 6152   3.412   1.676   0.626
 2049TIP3    H1 6153   3.427   1.659   0.719
 2049TIP3    H2 6154   3.354   1.752   0.624
 2050TIP3   OH2 6155   2.624   2.082   3.007
 2050TIP3    H1 6156   2.673   2.020   3.060
 2050TIP3    H2 6157   2.656   2.068   2.918
 2051TIP3   OH2 6158   1.081   5.441   0.807
 2051TIP3    H1 6159   1.050   5.506   0.869
 2051TIP3    H2 6160   1.124   5.491   0.738
 2052TIP3   OH2 6161   6.009   4.309   5.098
 2052TIP3    H1 6162   5.958   4.243   5.052
 2052TIP3    H2 6163   6.031   4.268   5.182
 2053TIP3   OH2 6164   2.597   3.726   4.570
 2053TIP3    H1 6165   2.615   3.813   4.534
 2053TIP3    H2 6166   2.502   3.721   4.574
 2054TIP3   OH2 6167   2.609   2.622   0.972
 2054TIP3    H1 6168   2.549   2.696   0.962
 2054TIP3    H2 6169   2.578   2.577   1.050
 2055TIP3   OH2 6170   1.048   5.801   4.607
 2055TIP3    H1 6171   1.053   5.760   4.521
 2055TIP3    H2 6172   0.964   5.772   4.643
 2056TIP3   OH2 6173   5.733   2.395   2.707
 2056TIP3    H1 6174   5.687   2.468   2.748
 2056TIP3    H2 6175   5.663   2.339   2.672
 2057TIP3   OH2 6176   5.405   0.305   4.740
 2057TIP3    H1 6177   5.412   0.211   4.724
 2057TIP3    H2 6178   5.495   0.338   4.728
 2058TIP3   OH2 6179   5.559   1.361   2.718
 2058TIP3    H1 6180   5.540   1.423   2.788
 2058TIP3    H2 6181   5.571   1.417   2.640
 2059TIP3   OH2 6182   1.277   4.650   3.637
 2059TIP3    H1 6183   1.267   4.745   3.632
 2059TIP3    H2 6184   1.243   4.627   3.724
 2060TIP3   OH2 6185   3.860   0.557   0.548
 2060TIP3    H1 6186   3.902   0.486   0.500
 2060TIP3    H2 6187   3.782   0.578   0.496
 2061TIP3   OH2 6188   1.695   1.418   0.082
 2061TIP3    H1 6189   1.629   1.389   0.019
 2061TIP3    H2 6190   1.769   1.446   0.029
 2062TIP3   OH2 6191   4.601   0.975   3.425
 2062TIP3    H1 6192   4.569   1.062   3.402
 2062TIP3    H2 6193   4.542   0.945   3.494
 2063TIP3   OH2 6194   1.241   1.021   4.536
 2063TIP3    H1 6195   1.332   1.018   4.564
 2063TIP3    H2 6196   1.225   1.112   4.514
 2064TIP3   OH2 6197   5.432   2.980   1.494
 2064TIP3    H1 6198   5.464   3.006   1.408
 2064TIP3    H2 6199   5.459   2.889   1.504
 2065TIP3   OH2 6200   1.757   0.024   0.608
 2065TIP3    H1 6201   1.666   0.016   0.638
 2065TIP3    H2 6202   1.805   0.054   0.685
 2066TIP3   OH2 6203   0.288   1.647   3.815
 2066TIP3    H1 6204   0.281   1.589   3.891
 2066TIP3    H2 6205   0.216   1.620   3.758
 2067TIP3   OH2 6206   4.384   5.059   3.634
 2067TIP3    H1 6207   4.303   5.050   3.685
 2067TIP3    H2 6208   4.353   5.073   3.544
 2068TIP3   OH2 6209   3.134   5.035   3.542
 2068TIP3    H1 6210   3.153   4.946   3.511
 2068TIP3    H2 6211   3.096   5.022   3.629
 2069TIP3   OH2 6212   4.815   2.900   4.607
 2069TIP3    H1 6213   4.740   2.854   4.568
 2069TIP3    H2 6214   4.885   2.890   4.543
 2070TIP3   OH2 6215   3.736   1.776   3.881
 2070TIP3    H1 6216   3.758   1.726   3.803
 2070TIP3    H2 6217   3.649   1.811   3.862
 2071TIP3   OH2 6218   6.274   4.222   3.887
 2071TIP3    H1 6219   6.332   4.292   3.918
 2071TIP3    H2 6220   6.330   4.144   3.888
 2072TIP3   OH2 6221   1.638   3.264   1.012
 2072TIP3    H1 6222   1.641   3.186   1.067
 2072TIP3    H2 6223   1.661   3.336   1.071
 2073TIP3   OH2 6224   4.361   3.354   2.939
 2073TIP3    H1 6225   4.271   3.334   2.966
 2073TIP3    H2 6226   4.401   3.269   2.921
 2074TIP3   OH2 6227   2.431   1.182   1.665
 2074TIP3    H1 6228   2.444   1.148   1.576
 2074TIP3    H2 6229   2.354   1.134   1.697
 2075TIP3   OH2 6230   2.622   4.394   1.248
 2075TIP3    H1 6231   2.640   4.349   1.165
 2075TIP3    H2 6232   2.527   4.406   1.248
 2076TIP3   OH2 6233   5.776   4.744   4.903
 2076TIP3    H1 6234   5.841   4.712   4.965
 2076TIP3    H2 6235   5.827   4.778   4.830
 2077TIP3   OH2 6236   5.184   1.817   1.267
 2077TIP3    H1 6237   5.266   1.831   1.219
 2077TIP3    H2 6238   5.140   1.748   1.217
 2078TIP3   OH2 6239   2.882   4.000   2.340
 2078TIP3    H1 6240   2.872   4.050   2.259
 2078TIP3    H2 6241   2.854   4.061   2.409
 2079TIP3   OH2 6242   4.416   2.379   2.193
 2079TIP3    H1 6243   4.427   2.317   2.265
 2079TIP3    H2 6244   4.336   2.427   2.215
 2080TIP3   OH2 6245   4.432   3.760   0.960
 2080TIP3    H1 6246   4.413   3.743   0.868
 2080TIP3    H2 6247   4.349   3.741   1.005
 2081TIP3   OH2 6248   4.763   3.920   2.865
 2081TIP3    H1 6249   4.851   3.948   2.888
 2081TIP3    H2 6250   4.769   3.891   2.774
 2082TIP3   OH2 6251   5.394   4.846   2.930
 2082TIP3    H1 6252   5.362   4.906   2.863
 2082TIP3    H2 6253   5.405   4.901   3.008
 2083TIP3   OH2 6254   4.603   5.131   0.802
 2083TIP3    H1 6255   4.552   5.210   0.817
 2083TIP3    H2 6256   4.679   5.161   0.752
 2084TIP3   OH2 6257   1.296   1.418   0.963
 2084TIP3    H1 6258   1.311   1.325   0.978
 2084TIP3    H2 6259   1.200   1.427   0.963
 2085TIP3   OH2 6260   6.079   1.424   0.121
 2085TIP3    H1 6261   6.118   1.455   0.040
 2085TIP3    H2 6262   6.034   1.343   0.097
 2086TIP3   OH2 6263   4.289   3.525   3.340
 2086TIP3    H1 6264   4.332   3.556   3.259
 2086TIP3    H2 6265   4.218   3.469   3.309
 2087TIP3   OH2 6266   5.436   2.533   0.486
 2087TIP3    H1 6267   5.468   2.487   0.563
 2087TIP3    H2 6268   5.344   2.505   0.478
 2088TIP3   OH2 6269   4.213   1.018   1.002
 2088TIP3    H1 6270   4.215   0.928   0.967
 2088TIP3    H2 6271   4.277   1.065   0.950
 2089TIP3   OH2 6272   5.173   4.197   2.497
 2089TIP3    H1 6273   5.157   4.105   2.518
 2089TIP3    H2 6274   5.138   4.245   2.572
 2090TIP3   OH2 6275   3.285   4.873   4.173
 2090TIP3    H1 6276   3.353   4.810   4.199
 2090TIP3    H2 6277   3.333   4.944   4.130
 2091TIP3   OH2 6278   3.482   5.121   2.256
 2091TIP3    H1 6279   3.391   5.145   2.273
 2091TIP3    H2 6280   3.529   5.153   2.333
 2092TIP3   OH2 6281   0.768   5.964   0.656
 2092TIP3    H1 6282   0.863   5.966   0.660
 2092TIP3    H2 6283   0.741   5.903   0.724
 2093TIP3   OH2 6284   1.894   0.760   1.498
 2093TIP3    H1 6285   1.808   0.718   1.500
 2093TIP3    H2 6286   1.901   0.805   1.582
 2094TIP3   OH2 6287   2.427   5.909   3.218
 2094TIP3    H1 6288   2.489   5.837   3.200
 2094TIP3    H2 6289   2.461   5.982   3.166
 2095TIP3   OH2 6290   4.985   3.791   4.437
 2095TIP3    H1 6291   4.955   3.813   4.525
 2095TIP3    H2 6292   4.905   3.791   4.384
 2096TIP3   OH2 6293   1.418   3.032   4.810
 2096TIP3    H1 6294   1.389   2.942   4.826
 2096TIP3    H2 6295   1.347   3.072   4.761
 2097TIP3   OH2 6296   4.913   0.075   2.182
 2097TIP3    H1 6297   4.916  -0.014   2.218
 2097TIP3    H2 6298   4.990   0.118   2.220
 2098TIP3   OH2 6299   2.754   4.337   1.880
 2098TIP3    H1 6300   2.741   4.418   1.930
 2098TIP3    H2 6301   2.675   4.286   1.898
 2099TIP3   OH2 6302   3.825   1.190   0.445
 2099TIP3    H1 6303   3.856   1.276   0.474
 2099TIP3    H2 6304   3.893   1.129   0.473
 2100TIP3   OH2 6305   2.659   1.739   3.675
 2100TIP3    H1 6306   2.564   1.752   3.662
 2100TIP3    H2 6307   2.665   1.660   3.729
 2101TIP3   OH2 6308   2.221   1.530   3.187
 2101TIP3    H1 6309   2.178   1.505   3.106
 2101TIP3    H2 6310   2.294   1.585   3.160
 2102TIP3   OH2 6311   1.046   4.692   2.463
 2102TIP3    H1 6312   0.986   4.701   2.389
 2102TIP3    H2 6313   1.083   4.780   2.476
 2103TIP3   OH2 6314   3.300   4.330   3.867
 2103TIP3    H1 6315   3.245   4.254   3.887
 2103TIP3    H2 6316   3.247   4.405   3.894
 2104TIP3   OH2 6317   3.232   5.168   0.200
 2104TIP3    H1 6318   3.322   5.194   0.217
 2104TIP3    H2 6319   3.209   5.213   0.119
 2105TIP3   OH2 6320   4.244   0.629   4.303
 2105TIP3    H1 6321   4.225   0.684   4.378
 2105TIP3    H2 6322   4.296   0.684   4.245
 2106TIP3   OH2 6323   6.022   0.319   0.384
 2106TIP3    H1 6324   6.085   0.258   0.344
 2106TIP3    H2 6325   6.012   0.388   0.319
 2107TIP3   OH2 6326   1.531   4.650   1.719
 2107TIP3    H1 6327   1.466   4.622   1.784
 2107TIP3    H2 6328   1.600   4.693   1.771
 2108TIP3   OH2 6329   6.033   2.967   1.676
 2108TIP3    H1 6330   6.088   3.045   1.669
 2108TIP3    H2 6331   5.963   2.981   1.613
 2109TIP3   OH2 6332   0.857   3.390   1.229
 2109TIP3    H1 6333   0.935   3.360   1.276
 2109TIP3    H2 6334   0.786   3.386   1.294
 2110TIP3   OH2 6335   1.005   1.341   4.225
 2110TIP3    H1 6336   0.996   1.306   4.136
 2110TIP3    H2 6337   1.024   1.433   4.212
 2111TIP3   OH2 6338   2.516   5.597   3.221
 2111TIP3    H1 6339   2.432   5.553   3.209
 2111TIP3    H2 6340   2.558   5.592   3.136
 2112TIP3   OH2 6341   4.219   3.118   3.075
 2112TIP3    H1 6342   4.293   3.133   3.134
 2112TIP3    H2 6343   4.142   3.139   3.126
 2113TIP3   OH2 6344   2.852   4.101   3.606
 2113TIP3    H1 6345   2.786   4.169   3.589
 2113TIP3    H2 6346   2.879   4.071   3.520
 2114TIP3   OH2 6347   5.244   1.228   1.050
 2114TIP3    H1 6348   5.185   1.271   0.988
 2114TIP3    H2 6349   5.331   1.242   1.014
 2115TIP3   OH2 6350   4.296   0.038   3.694
 2115TIP3    H1 6351   4.345  -0.038   3.725
 2115TIP3    H2 6352   4.250   0.070   3.772
 2116TIP3   OH2 6353   3.973   3.393   3.467
 2116TIP3    H1 6354   3.883   3.421   3.447
 2116TIP3    H2 6355   3.964   3.337   3.544
 2117TIP3   OH2 6356   1.026   2.431   1.231
 2117TIP3    H1 6357   0.968   2.496   1.270
 2117TIP3    H2 6358   1.015   2.353   1.285
 2118TIP3   OH2 6359   5.472   0.499   1.156
 2118TIP3    H1 6360   5.483   0.512   1.250
 2118TIP3    H2 6361   5.490   0.584   1.117
 2119TIP3   OH2 6362   2.691   2.392   4.043
 2119TIP3    H1 6363   2.638   2.317   4.014
 2119TIP3    H2 6364   2.707   2.376   4.136
 2120TIP3   OH2 6365   5.544   1.836   3.911
 2120TIP3    H1 6366   5.535   1.800   3.823
 2120TIP3    H2 6367   5.493   1.917   3.909
 2121TIP3   OH2 6368   1.847   5.640   0.633
 2121TIP3    H1 6369   1.896   5.703   0.579
 2121TIP3    H2 6370   1.809   5.694   0.703
 2122TIP3   OH2 6371   2.026   4.933   1.186
 2122TIP3    H1 6372   1.976   4.972   1.257
 2122TIP3    H2 6373   2.006   4.840   1.191
 2123TIP3   OH2 6374   0.539   1.270   4.809
 2123TIP3    H1 6375   0.533   1.361   4.837
 2123TIP3    H2 6376   0.593   1.227   4.876
 2124TIP3   OH2 6377   4.171   2.820   0.420
 2124TIP3    H1 6378   4.170   2.914   0.402
 2124TIP3    H2 6379   4.261   2.802   0.448
 2125TIP3   OH2 6380   3.086   4.316   0.715
 2125TIP3    H1 6381   3.179   4.334   0.729
 2125TIP3    H2 6382   3.053   4.394   0.672
 2126TIP3   OH2 6383   3.560   0.189   5.055
 2126TIP3    H1 6384   3.593   0.179   4.965
 2126TIP3    H2 6385   3.501   0.115   5.067
 2127TIP3   OH2 6386   4.504   2.361   1.064
 2127TIP3    H1 6387   4.543   2.355   0.976
 2127TIP3    H2 6388   4.422   2.409   1.051
 2128TIP3   OH2 6389   5.273   1.563   2.079
 2128TIP3    H1 6390   5.253   1.524   1.994
 2128TIP3    H2 6391   5.235   1.502   2.143
 2129TIP3   OH2 6392   3.631   4.924   3.770
 2129TIP3    H1 6393   3.640   5.017   3.751
 2129TIP3    H2 6394   3.715   4.886   3.746
 2130TIP3   OH2 6395   0.499   4.376   4.960
 2130TIP3    H1 6396   0.454   4.428   4.893
 2130TIP3    H2 6397   0.574   4.431   4.986
 2131TIP3   OH2 6398   1.161   4.000   2.468
 2131TIP3    H1 6399   1.112   4.023   2.389
 2131TIP3    H2 6400   1.252   3.989   2.438
 2132TIP3   OH2 6401   2.735   1.975   0.082
 2132TIP3    H1 6402   2.791   1.902   0.108
 2132TIP3    H2 6403   2.690   1.945   0.004
 2133TIP3   OH2 6404   6.357   1.477   2.109
 2133TIP3    H1 6405   6.266   1.489   2.083
 2133TIP3    H2 6406   6.408   1.516   2.037
 2134TIP3   OH2 6407   4.240   0.293   2.317
 2134TIP3    H1 6408   4.214   0.365   2.260
 2134TIP3    H2 6409   4.227   0.214   2.264
 2135TIP3   OH2 6410   1.285   0.870   3.706
 2135TIP3    H1 6411   1.306   0.790   3.658
 2135TIP3    H2 6412   1.270   0.935   3.638
 2136TIP3   OH2 6413   1.147   5.123   0.116
 2136TIP3    H1 6414   1.082   5.105   0.048
 2136TIP3    H2 6415   1.142   5.218   0.129
 2137TIP3   OH2 6416   1.051   2.655   0.627
 2137TIP3    H1 6417   1.068   2.749   0.639
 2137TIP3    H2 6418   1.126   2.623   0.577
 2138TIP3   OH2 6419   4.326   4.857   2.628
 2138TIP3    H1 6420   4.352   4.795   2.696
 2138TIP3    H2 6421   4.407   4.898   2.600
 2139TIP3   OH2 6422   6.319   5.600   0.437
 2139TIP3    H1 6423   6.318   5.505   0.434
 2139TIP3    H2 6424   6.312   5.621   0.530
 2140TIP3   OH2 6425   5.982   5.486   0.284
 2140TIP3    H1 6426   6.058   5.428   0.290
 2140TIP3    H2 6427   5.969   5.518   0.374
 2141TIP3   OH2 6428   5.940   2.968   0.864
 2141TIP3    H1 6429   5.974   2.949   0.952
 2141TIP3    H2 6430   6.019   2.981   0.811
 2142TIP3   OH2 6431   4.445   1.718   1.477
 2142TIP3    H1 6432   4.478   1.780   1.412
 2142TIP3    H2 6433   4.450   1.766   1.560
 2143TIP3   OH2 6434   1.178   0.794   1.639
 2143TIP3    H1 6435   1.217   0.823   1.556
 2143TIP3    H2 6436   1.193   0.700   1.641
 2144TIP3   OH2 6437   4.951   1.624   0.162
 2144TIP3    H1 6438   4.986   1.698   0.112
 2144TIP3    H2 6439   4.943   1.657   0.251
 2145TIP3   OH2 6440   4.087   3.346   2.239
 2145TIP3    H1 6441   4.070   3.426   2.289
 2145TIP3    H2 6442   4.058   3.366   2.151
 2146TIP3   OH2 6443   5.513   1.222   2.134
 2146TIP3    H1 6444   5.505   1.231   2.229
 2146TIP3    H2 6445   5.603   1.248   2.115
 2147TIP3   OH2 6446   5.360   4.462   0.894
 2147TIP3    H1 6447   5.408   4.391   0.938
 2147TIP3    H2 6448   5.396   4.542   0.932
 2148TIP3   OH2 6449   6.293   3.011   5.074
 2148TIP3    H1 6450   6.215   3.065   5.088
 2148TIP3    H2 6451   6.304   2.964   5.157
 2149TIP3   OH2 6452   0.869   0.048   1.650
 2149TIP3    H1 6453   0.915   0.073   1.569
 2149TIP3    H2 6454   0.938   0.018   1.709
 2150TIP3   OH2 6455   6.130   2.165   0.332
 2150TIP3    H1 6456   6.164   2.246   0.372
 2150TIP3    H2 6457   6.194   2.142   0.265
 2151TIP3   OH2 6458   2.971   4.520   3.752
 2151TIP3    H1 6459   3.009   4.497   3.667
 2151TIP3    H2 6460   3.034   4.486   3.816
 2152TIP3   OH2 6461   4.195   4.485   4.584
 2152TIP3    H1 6462   4.249   4.563   4.580
 2152TIP3    H2 6463   4.235   4.431   4.652
 2153TIP3   OH2 6464   3.200   4.535   3.103
 2153TIP3    H1 6465   3.144   4.461   3.078
 2153TIP3    H2 6466   3.138   4.605   3.124
 2154TIP3   OH2 6467   1.155   3.262   0.037
 2154TIP3    H1 6468   1.228   3.287   0.095
 2154TIP3    H2 6469   1.186   3.183  -0.008
 2155TIP3   OH2 6470   2.896   1.581   2.962
 2155TIP3    H1 6471   2.982   1.553   2.993
 2155TIP3    H2 6472   2.886   1.539   2.876
 2156TIP3   OH2 6473   6.339   0.009   1.571
 2156TIP3    H1 6474   6.336   0.099   1.605
 2156TIP3    H2 6475   6.327   0.019   1.476
 2157TIP3   OH2 6476   5.103   4.239   1.560
 2157TIP3    H1 6477   5.182   4.275   1.520
 2157TIP3    H2 6478   5.048   4.212   1.486
 2158TIP3   OH2 6479   1.112   0.847   3.238
 2158TIP3    H1 6480   1.190   0.891   3.270
 2158TIP3    H2 6481   1.143   0.795   3.164
 2159TIP3   OH2 6482   5.391   2.962   3.286
 2159TIP3    H1 6483   5.442   2.899   3.338
 2159TIP3    H2 6484   5.434   3.046   3.302
 2160TIP3   OH2 6485   4.677   0.153   4.120
 2160TIP3    H1 6486   4.658   0.231   4.172
 2160TIP3    H2 6487   4.722   0.095   4.181
 2161TIP3   OH2 6488   2.597   3.269   0.290
 2161TIP3    H1 6489   2.567   3.357   0.268
 2161TIP3    H2 6490   2.555   3.213   0.225
 2162TIP3   OH2 6491   5.330   3.178   2.491
 2162TIP3    H1 6492   5.374   3.094   2.482
 2162TIP3    H2 6493   5.401   3.242   2.501
 2163TIP3   OH2 6494   2.821   0.252   3.593
 2163TIP3    H1 6495   2.906   0.209   3.598
 2163TIP3    H2 6496   2.841   0.346   3.598
 2164TIP3   OH2 6497   2.321   4.731   1.253
 2164TIP3    H1 6498   2.307   4.816   1.213
 2164TIP3    H2 6499   2.310   4.746   1.347
 2165TIP3   OH2 6500   0.159   3.670   1.879
 2165TIP3    H1 6501   0.073   3.706   1.899
 2165TIP3    H2 6502   0.142   3.602   1.814
 2166TIP3   OH2 6503   4.740   1.221   0.415
 2166TIP3    H1 6504   4.796   1.145   0.433
 2166TIP3    H2 6505   4.797   1.281   0.366
 2167TIP3   OH2 6506   5.814   4.085   2.389
 2167TIP3    H1 6507   5.796   4.121   2.476
 2167TIP3    H2 6508   5.865   4.006   2.405
 2168TIP3   OH2 6509   0.958   4.021   3.990
 2168TIP3    H1 6510   0.872   4.043   4.026
 2168TIP3    H2 6511   0.945   4.024   3.895
 2169TIP3   OH2 6512   3.419   2.414   0.262
 2169TIP3    H1 6513   3.509   2.383   0.250
 2169TIP3    H2 6514   3.419   2.454   0.349
 2170TIP3   OH2 6515   3.201   3.352   2.577
 2170TIP3    H1 6516   3.170   3.261   2.585
 2170TIP3    H2 6517   3.141   3.392   2.515
 2171TIP3   OH2 6518   1.739   3.741   4.882
 2171TIP3    H1 6519   1.781   3.822   4.910
 2171TIP3    H2 6520   1.810   3.688   4.847
 2172TIP3   OH2 6521   0.286   2.735   1.958
 2172TIP3    H1 6522   0.289   2.824   1.925
 2172TIP3    H2 6523   0.362   2.692   1.919
 2173TIP3   OH2 6524   3.194   0.335   1.571
 2173TIP3    H1 6525   3.264   0.337   1.506
 2173TIP3    H2 6526   3.240   0.326   1.655
 2174TIP3   OH2 6527   0.263   4.135   4.994
 2174TIP3    H1 6528   0.284   4.225   5.021
 2174TIP3    H2 6529   0.184   4.144   4.941
 2175TIP3   OH2 6530   5.186   5.633   1.530
 2175TIP3    H1 6531   5.190   5.660   1.622
 2175TIP3    H2 6532   5.272   5.657   1.495
 2176TIP3   OH2 6533   5.997   4.698   5.051
 2176TIP3    H1 6534   6.081   4.667   5.018
 2176TIP3    H2 6535   6.014   4.718   5.143
 2177TIP3   OH2 6536   3.839   1.447   0.535
 2177TIP3    H1 6537   3.833   1.425   0.628
 2177TIP3    H2 6538   3.772   1.513   0.522
 2178TIP3   OH2 6539   1.047   5.763   3.569
 2178TIP3    H1 6540   0.991   5.770   3.492
 2178TIP3    H2 6541   1.122   5.819   3.550
 2179TIP3   OH2 6542   5.272   4.332   4.522
 2179TIP3    H1 6543   5.330   4.286   4.461
 2179TIP3    H2 6544   5.331   4.369   4.588
 2180TIP3   OH2 6545   5.438   2.661   2.196
 2180TIP3    H1 6546   5.530   2.654   2.222
 2180TIP3    H2 6547   5.435   2.732   2.132
 2181TIP3   OH2 6548   6.298   3.175   0.802
 2181TIP3    H1 6549   6.272   3.202   0.890
 2181TIP3    H2 6550   6.392   3.189   0.799
 2182TIP3   OH2 6551   5.246   0.336   2.801
 2182TIP3    H1 6552   5.157   0.300   2.802
 2182TIP3    H2 6553   5.303   0.260   2.813
 2183TIP3   OH2 6554   5.986   5.920   2.859
 2183TIP3    H1 6555   5.895   5.944   2.840
 2183TIP3    H2 6556   5.980   5.837   2.905
 2184TIP3   OH2 6557   3.761   4.006   5.163
 2184TIP3    H1 6558   3.714   4.028   5.083
 2184TIP3    H2 6559   3.701   4.027   5.234
 2185TIP3   OH2 6560   0.213   1.775   2.545
 2185TIP3    H1 6561   0.193   1.693   2.501
 2185TIP3    H2 6562   0.308   1.771   2.561
 2186TIP3   OH2 6563   3.432   5.945   1.370
 2186TIP3    H1 6564   3.385   6.010   1.318
 2186TIP3    H2 6565   3.500   5.996   1.416
 2187TIP3   OH2 6566   2.708   0.196   2.137
 2187TIP3    H1 6567   2.644   0.216   2.205
 2187TIP3    H2 6568   2.656   0.182   2.058
 2188TIP3   OH2 6569   6.169   4.622   3.223
 2188TIP3    H1 6570   6.167   4.564   3.299
 2188TIP3    H2 6571   6.218   4.700   3.253
 2189TIP3   OH2 6572   0.261   5.588   0.523
 2189TIP3    H1 6573   0.220   5.535   0.455
 2189TIP3    H2 6574   0.188   5.637   0.561
 2190TIP3   OH2 6575   1.579   0.921   1.575
 2190TIP3    H1 6576   1.601   0.963   1.491
 2190TIP3    H2 6577   1.590   0.990   1.640
 2191TIP3   OH2 6578   1.352   3.017   1.611
 2191TIP3    H1 6579   1.290   3.009   1.539
 2191TIP3    H2 6580   1.437   2.997   1.571
 2192TIP3   OH2 6581   2.043   0.314   1.072
 2192TIP3    H1 6582   2.091   0.397   1.071
 2192TIP3    H2 6583   1.998   0.312   0.988
 2193TIP3   OH2 6584   4.424   1.924   4.524
 2193TIP3    H1 6585   4.448   2.017   4.533
 2193TIP3    H2 6586   4.482   1.879   4.585
 2194TIP3   OH2 6587   6.261   4.193   2.898
 2194TIP3    H1 6588   6.181   4.239   2.872
 2194TIP3    H2 6589   6.270   4.214   2.991
 2195TIP3   OH2 6590   4.265   5.728   4.783
 2195TIP3    H1 6591   4.175   5.700   4.797
 2195TIP3    H2 6592   4.318   5.650   4.800
 2196TIP3   OH2 6593   3.730   3.184   1.716
 2196TIP3    H1 6594   3.684   3.111   1.675
 2196TIP3    H2 6595   3.739   3.249   1.645
 2197TIP3   OH2 6596   1.465   1.091   3.192
 2197TIP3    H1 6597   1.460   1.074   3.098
 2197TIP3    H2 6598   1.536   1.155   3.201
 2198TIP3   OH2 6599   5.143   3.554   3.576
 2198TIP3    H1 6600   5.093   3.490   3.627
 2198TIP3    H2 6601   5.203   3.594   3.640
 2199TIP3   OH2 6602   4.341   4.382   2.874
 2199TIP3    H1 6603   4.354   4.424   2.959
 2199TIP3    H2 6604   4.248   4.393   2.855
 2200TIP3   OH2 6605   3.090   1.522   0.252
 2200TIP3    H1 6606   3.160   1.515   0.188
 2200TIP3    H2 6607   3.109   1.453   0.316
 2201TIP3   OH2 6608   0.626   2.814   3.137
 2201TIP3    H1 6609   0.676   2.798   3.216
 2201TIP3    H2 6610   0.593   2.728   3.111
 2202TIP3   OH2 6611   1.047   3.920   0.405
 2202TIP3    H1 6612   1.136   3.898   0.433
 2202TIP3    H2 6613   0.993   3.848   0.437
 2203TIP3   OH2 6614   5.649   3.945   0.719
 2203TIP3    H1 6615   5.587   3.925   0.790
 2203TIP3    H2 6616   5.715   3.876   0.725
 2204TIP3   OH2 6617   0.648   4.225   1.662
 2204TIP3    H1 6618   0.647   4.302   1.718
 2204TIP3    H2 6619   0.645   4.260   1.573
 2205TIP3   OH2 6620   0.677   3.461   1.046
 2205TIP3    H1 6621   0.750   3.421   1.093
 2205TIP3    H2 6622   0.670   3.412   0.965
 2206TIP3   OH2 6623   0.085   0.295   4.161
 2206TIP3    H1 6624   0.119   0.238   4.092
 2206TIP3    H2 6625   0.163   0.330   4.204
 2207TIP3   OH2 6626   0.551   4.755   1.499
 2207TIP3    H1 6627   0.604   4.758   1.579
 2207TIP3    H2 6628   0.461   4.756   1.531
 2208TIP3   OH2 6629   5.528   0.385   4.426
 2208TIP3    H1 6630   5.501   0.294   4.416
 2208TIP3    H2 6631   5.571   0.389   4.511
 2209TIP3   OH2 6632   2.251   3.283   3.672
 2209TIP3    H1 6633   2.279   3.361   3.623
 2209TIP3    H2 6634   2.322   3.267   3.733
 2210TIP3   OH2 6635   2.305   5.900   4.725
 2210TIP3    H1 6636   2.212   5.921   4.723
 2210TIP3    H2 6637   2.336   5.920   4.637
 2211TIP3   OH2 6638   5.664   4.223   2.041
 2211TIP3    H1 6639   5.682   4.304   2.089
 2211TIP3    H2 6640   5.629   4.163   2.106
 2212TIP3   OH2 6641   1.127   4.125   3.146
 2212TIP3    H1 6642   1.095   4.158   3.230
 2212TIP3    H2 6643   1.121   4.030   3.154
 2213TIP3   OH2 6644   0.204   5.189   3.836
 2213TIP3    H1 6645   0.118   5.146   3.840
 2213TIP3    H2 6646   0.183   5.282   3.841
 2214TIP3   OH2 6647   5.431   3.368   1.937
 2214TIP3    H1 6648   5.488   3.361   2.014
 2214TIP3    H2 6649   5.436   3.282   1.895
 2215TIP3   OH2 6650   4.857   3.865   1.505
 2215TIP3    H1 6651   4.848   3.794   1.568
 2215TIP3    H2 6652   4.942   3.851   1.464
 2216TIP3   OH2 6653   3.536   4.668   1.159
 2216TIP3    H1 6654   3.553   4.733   1.227
 2216TIP3    H2 6655   3.528   4.585   1.206
 2217TIP3   OH2 6656   0.437   0.433   0.444
 2217TIP3    H1 6657   0.490   0.371   0.394
 2217TIP3    H2 6658   0.481   0.517   0.431
 2218TIP3   OH2 6659   5.213   0.349   1.089
 2218TIP3    H1 6660   5.280   0.385   1.147
 2218TIP3    H2 6661   5.179   0.424   1.041
 2219TIP3   OH2 6662   2.043   5.088   2.868
 2219TIP3    H1 6663   2.049   5.178   2.837
 2219TIP3    H2 6664   1.975   5.048   2.813
 2220TIP3   OH2 6665   5.417   0.313   2.144
 2220TIP3    H1 6666   5.498   0.292   2.191
 2220TIP3    H2 6667   5.420   0.408   2.133
 2221TIP3   OH2 6668   2.964   2.137  -0.018
 2221TIP3    H1 6669   2.897   2.068  -0.021
 2221TIP3    H2 6670   3.016   2.116   0.059
 2222TIP3   OH2 6671   0.775   2.489   3.240
 2222TIP3    H1 6672   0.821   2.567   3.209
 2222TIP3    H2 6673   0.825   2.459   3.315
 2223TIP3   OH2 6674   1.357   5.293   5.041
 2223TIP3    H1 6675   1.376   5.336   5.125
 2223TIP3    H2 6676   1.375   5.200   5.057
 2224TIP3   OH2 6677   1.766   2.958   4.419
 2224TIP3    H1 6678   1.760   2.876   4.370
 2224TIP3    H2 6679   1.740   2.935   4.508
 2225TIP3   OH2 6680   4.748   0.162   1.016
 2225TIP3    H1 6681   4.777   0.086   0.966
 2225TIP3    H2 6682   4.816   0.174   1.083
 2226TIP3   OH2 6683   6.096   1.707   1.301
 2226TIP3    H1 6684   6.106   1.738   1.211
 2226TIP3    H2 6685   6.074   1.614   1.292
 2227TIP3   OH2 6686   4.072   4.202   3.887
 2227TIP3    H1 6687   4.038   4.290   3.868
 2227TIP3    H2 6688   3.995   4.152   3.915
 2228TIP3   OH2 6689   5.384   3.277   2.812
 2228TIP3    H1 6690   5.354   3.213   2.877
 2228TIP3    H2 6691   5.478   3.259   2.803
 2229TIP3   OH2 6692   4.742   0.989   3.906
 2229TIP3    H1 6693   4.682   0.917   3.887
 2229TIP3    H2 6694   4.827   0.959   3.873
 2230TIP3   OH2 6695   1.492   2.928   2.306
 2230TIP3    H1 6696   1.476   2.872   2.381
 2230TIP3    H2 6697   1.412   2.981   2.299
 2231TIP3   OH2 6698   0.550   3.453   3.696
 2231TIP3    H1 6699   0.540   3.548   3.703
 2231TIP3    H2 6700   0.644   3.439   3.689
 2232TIP3   OH2 6701   4.301   5.266   1.782
 2232TIP3    H1 6702   4.388   5.250   1.746
 2232TIP3    H2 6703   4.283   5.358   1.762
 2233TIP3   OH2 6704   2.732   4.132   4.636
 2233TIP3    H1 6705   2.655   4.089   4.673
 2233TIP3    H2 6706   2.794   4.060   4.621
 2234TIP3   OH2 6707   5.596   5.762   0.763
 2234TIP3    H1 6708   5.519   5.776   0.818
 2234TIP3    H2 6709   5.641   5.846   0.762
 2235TIP3   OH2 6710   5.179   3.976   2.002
 2235TIP3    H1 6711   5.171   4.036   2.077
 2235TIP3    H2 6712   5.258   4.006   1.957
 2236TIP3   OH2 6713   4.872   2.772   0.553
 2236TIP3    H1 6714   4.838   2.852   0.513
 2236TIP3    H2 6715   4.925   2.732   0.484
 2237TIP3   OH2 6716   0.700   5.144   5.040
 2237TIP3    H1 6717   0.774   5.099   4.998
 2237TIP3    H2 6718   0.695   5.105   5.127
 2238TIP3   OH2 6719   2.868   1.474   2.339
 2238TIP3    H1 6720   2.915   1.393   2.319
 2238TIP3    H2 6721   2.832   1.502   2.255
 2239TIP3   OH2 6722   1.342   1.388   3.535
 2239TIP3    H1 6723   1.336   1.424   3.447
 2239TIP3    H2 6724   1.431   1.410   3.564
 2240TIP3   OH2 6725   0.457   2.604   2.590
 2240TIP3    H1 6726   0.465   2.509   2.582
 2240TIP3    H2 6727   0.456   2.635   2.499
 2241TIP3   OH2 6728   3.278   0.317   0.143
 2241TIP3    H1 6729   3.252   0.386   0.082
 2241TIP3    H2 6730   3.256   0.235   0.098
 2242TIP3   OH2 6731   0.602   4.332   2.651
 2242TIP3    H1 6732   0.507   4.327   2.662
 2242TIP3    H2 6733   0.631   4.393   2.719
 2243TIP3   OH2 6734   1.799   5.155   0.452
 2243TIP3    H1 6735   1.849   5.155   0.533
 2243TIP3    H2 6736   1.801   5.246   0.423
 2244TIP3   OH2 6737   0.163   0.068   4.006
 2244TIP3    H1 6738   0.208   0.084   3.923
 2244TIP3    H2 6739   0.077   0.034   3.980
 2245TIP3   OH2 6740   4.137   3.112   3.564
 2245TIP3    H1 6741   4.153   3.044   3.629
 2245TIP3    H2 6742   4.057   3.156   3.594
 2246TIP3   OH2 6743   0.496   0.651   4.021
 2246TIP3    H1 6744   0.588   0.662   3.997
 2246TIP3    H2 6745   0.498   0.595   4.098
 2247TIP3   OH2 6746   2.035   1.503   5.194
 2247TIP3    H1 6747   2.097   1.551   5.139
 2247TIP3    H2 6748   2.064   1.412   5.189
 2248TIP3   OH2 6749   0.802   4.842   0.845
 2248TIP3    H1 6750   0.816   4.751   0.870
 2248TIP3    H2 6751   0.736   4.838   0.775
 2249TIP3   OH2 6752   2.089   0.817   2.102
 2249TIP3    H1 6753   2.075   0.900   2.056
 2249TIP3    H2 6754   2.001   0.789   2.128
 2250TIP3   OH2 6755   0.102   3.510   0.538
 2250TIP3    H1 6756   0.071   3.588   0.584
 2250TIP3    H2 6757   0.025   3.453   0.532
 2251TIP3   OH2 6758   2.600   0.790   0.113
 2251TIP3    H1 6759   2.512   0.764   0.140
 2251TIP3    H2 6760   2.658   0.745   0.174
 2252TIP3   OH2 6761   2.759   1.740   3.400
 2252TIP3    H1 6762   2.730   1.715   3.487
 2252TIP3    H2 6763   2.851   1.714   3.397
 2253TIP3   OH2 6764   0.979   1.254   2.185
 2253TIP3    H1 6765   1.025   1.173   2.209
 2253TIP3    H2 6766   0.976   1.305   2.265
 2254TIP3   OH2 6767   1.411   3.239   2.849
 2254TIP3    H1 6768   1.430   3.156   2.894
 2254TIP3    H2 6769   1.450   3.230   2.763
 2255TIP3   OH2 6770   5.599   5.272   1.070
 2255TIP3    H1 6771   5.575   5.250   1.160
 2255TIP3    H2 6772   5.690   5.300   1.076
 2256TIP3   OH2 6773   1.687   5.569   0.190
 2256TIP3    H1 6774   1.658   5.630   0.257
 2256TIP3    H2 6775   1.743   5.622   0.133
 2257TIP3   OH2 6776   2.123   2.716   0.901
 2257TIP3    H1 6777   2.160   2.639   0.858
 2257TIP3    H2 6778   2.199   2.766   0.930
 2258TIP3   OH2 6779   1.976   0.210   4.022
 2258TIP3    H1 6780   1.956   0.146   3.953
 2258TIP3    H2 6781   1.941   0.292   3.987
 2259TIP3   OH2 6782   2.580   1.826   2.069
 2259TIP3    H1 6783   2.599   1.835   1.975
 2259TIP3    H2 6784   2.643   1.761   2.100
 2260TIP3   OH2 6785   0.504   2.188   0.917
 2260TIP3    H1 6786   0.566   2.249   0.877
 2260TIP3    H2 6787   0.423   2.238   0.926
 2261TIP3   OH2 6788   2.316   5.743   0.942
 2261TIP3    H1 6789   2.241   5.705   0.987
 2261TIP3    H2 6790   2.386   5.679   0.954
 2262TIP3   OH2 6791   4.463   3.831   4.981
 2262TIP3    H1 6792   4.383   3.779   4.974
 2262TIP3    H2 6793   4.449   3.885   5.059
 2263TIP3   OH2 6794   1.980   1.751   2.193
 2263TIP3    H1 6795   1.907   1.784   2.140
 2263TIP3    H2 6796   1.966   1.789   2.279
 2264TIP3   OH2 6797   2.767   4.343   4.973
 2264TIP3    H1 6798   2.684   4.335   4.925
 2264TIP3    H2 6799   2.828   4.380   4.909
 2265TIP3   OH2 6800   1.424   0.548   3.690
 2265TIP3    H1 6801   1.356   0.502   3.739
 2265TIP3    H2 6802   1.386   0.563   3.604
 2266TIP3   OH2 6803   0.019   3.994   1.521
 2266TIP3    H1 6804   0.030   4.003   1.616
 2266TIP3    H2 6805   0.095   4.038   1.484
 2267TIP3   OH2 6806   4.402   0.186   4.388
 2267TIP3    H1 6807   4.341   0.165   4.318
 2267TIP3    H2 6808   4.404   0.107   4.442
 2268TIP3   OH2 6809   2.811   1.026   4.553
 2268TIP3    H1 6810   2.899   1.012   4.589
 2268TIP3    H2 6811   2.806   0.967   4.478
 2269TIP3   OH2 6812   0.459   1.507   0.286
 2269TIP3    H1 6813   0.465   1.519   0.191
 2269TIP3    H2 6814   0.491   1.418   0.302
 2270TIP3   OH2 6815   0.503   1.274   1.572
 2270TIP3    H1 6816   0.549   1.193   1.596
 2270TIP3    H2 6817   0.546   1.303   1.491
 2271TIP3   OH2 6818   3.576   0.143   0.061
 2271TIP3    H1 6819   3.564   0.222   0.008
 2271TIP3    H2 6820   3.541   0.167   0.147
 2272TIP3   OH2 6821   3.475   2.968   3.523
 2272TIP3    H1 6822   3.494   2.975   3.616
 2272TIP3    H2 6823   3.560   2.973   3.480
 2273TIP3   OH2 6824   0.168   3.260   2.012
 2273TIP3    H1 6825   0.101   3.253   1.944
 2273TIP3    H2 6826   0.138   3.333   2.067
 2274TIP3   OH2 6827   2.240   5.248   5.126
 2274TIP3    H1 6828   2.325   5.204   5.121
 2274TIP3    H2 6829   2.262   5.340   5.138
 2275TIP3   OH2 6830   1.859   4.060   3.528
 2275TIP3    H1 6831   1.848   4.150   3.495
 2275TIP3    H2 6832   1.908   4.015   3.459
 2276TIP3   OH2 6833   0.377   3.409   0.676
 2276TIP3    H1 6834   0.301   3.447   0.719
 2276TIP3    H2 6835   0.415   3.481   0.626
 2277TIP3   OH2 6836   2.188   5.671   1.981
 2277TIP3    H1 6837   2.128   5.644   2.050
 2277TIP3    H2 6838   2.235   5.746   2.017
 2278TIP3   OH2 6839   5.217   2.744   3.895
 2278TIP3    H1 6840   5.287   2.808   3.883
 2278TIP3    H2 6841   5.139   2.788   3.863
 2279TIP3   OH2 6842   5.748   3.890   4.396
 2279TIP3    H1 6843   5.785   3.970   4.434
 2279TIP3    H2 6844   5.816   3.859   4.335
 2280TIP3   OH2 6845   4.991   3.048   1.581
 2280TIP3    H1 6846   5.001   3.090   1.666
 2280TIP3    H2 6847   5.032   2.962   1.593
 2281TIP3   OH2 6848   0.254   0.551   4.397
 2281TIP3    H1 6849   0.283   0.541   4.488
 2281TIP3    H2 6850   0.211   0.468   4.376
 2282TIP3   OH2 6851   2.182   2.534   1.387
 2282TIP3    H1 6852   2.155   2.459   1.333
 2282TIP3    H2 6853   2.101   2.585   1.399
 2283TIP3   OH2 6854   5.367   5.442   0.325
 2283TIP3    H1 6855   5.409   5.417   0.406
 2283TIP3    H2 6856   5.273   5.444   0.346
 2284TIP3   OH2 6857   4.517   3.472   0.447
 2284TIP3    H1 6858   4.423   3.490   0.450
 2284TIP3    H2 6859   4.544   3.499   0.360
 2285TIP3   OH2 6860   4.826   0.475   3.083
 2285TIP3    H1 6861   4.881   0.507   3.154
 2285TIP3    H2 6862   4.888   0.447   3.016
 2286TIP3   OH2 6863   4.692   0.052   3.487
 2286TIP3    H1 6864   4.698  -0.030   3.438
 2286TIP3    H2 6865   4.598   0.072   3.488
 2287TIP3   OH2 6866   5.004   5.765   2.859
 2287TIP3    H1 6867   5.078   5.817   2.826
 2287TIP3    H2 6868   4.939   5.830   2.886
 2288TIP3   OH2 6869   3.807   1.328   1.660
 2288TIP3    H1 6870   3.854   1.257   1.703
 2288TIP3    H2 6871   3.784   1.292   1.574
 2289TIP3   OH2 6872   2.379   0.731   4.883
 2289TIP3    H1 6873   2.289   0.762   4.896
 2289TIP3    H2 6874   2.434   0.805   4.909
 2290TIP3   OH2 6875   0.239   2.939   3.702
 2290TIP3    H1 6876   0.174   2.926   3.632
 2290TIP3    H2 6877   0.226   2.865   3.760
 2291TIP3   OH2 6878   3.932   1.446   3.881
 2291TIP3    H1 6879   3.894   1.476   3.798
 2291TIP3    H2 6880   3.943   1.526   3.932
 2292TIP3   OH2 6881   0.615   5.184   1.311
 2292TIP3    H1 6882   0.666   5.244   1.257
 2292TIP3    H2 6883   0.576   5.238   1.379
 2293TIP3   OH2 6884   2.377   5.853   3.806
 2293TIP3    H1 6885   2.439   5.924   3.793
 2293TIP3    H2 6886   2.406   5.784   3.745
 2294TIP3   OH2 6887   0.343   1.629   1.186
 2294TIP3    H1 6888   0.264   1.678   1.167
 2294TIP3    H2 6889   0.401   1.692   1.229
 2295TIP3   OH2 6890   5.654   0.378   4.677
 2295TIP3    H1 6891   5.694   0.438   4.740
 2295TIP3    H2 6892   5.721   0.312   4.663
 2296TIP3   OH2 6893   1.938   1.216   2.573
 2296TIP3    H1 6894   1.918   1.249   2.661
 2296TIP3    H2 6895   1.885   1.271   2.515
 2297TIP3   OH2 6896   6.133   4.115   2.419
 2297TIP3    H1 6897   6.058   4.140   2.365
 2297TIP3    H2 6898   6.144   4.188   2.480
 2298TIP3   OH2 6899   4.674   4.558   0.771
 2298TIP3    H1 6900   4.688   4.637   0.718
 2298TIP3    H2 6901   4.631   4.590   0.850
 2299TIP3   OH2 6902   2.087   5.584   0.987
 2299TIP3    H1 6903   2.073   5.552   0.898
 2299TIP3    H2 6904   2.060   5.511   1.043
 2300TIP3   OH2 6905   2.416   2.509   0.172
 2300TIP3    H1 6906   2.386   2.546   0.089
 2300TIP3    H2 6907   2.511   2.522   0.171
 2301TIP3   OH2 6908   0.110   4.635   5.070
 2301TIP3    H1 6909   0.158   4.555   5.094
 2301TIP3    H2 6910   0.142   4.701   5.131
 2302TIP3   OH2 6911   4.325   3.557   4.582
 2302TIP3    H1 6912   4.347   3.639   4.538
 2302TIP3    H2 6913   4.238   3.574   4.620
 2303TIP3   OH2 6914   1.313   3.674   3.535
 2303TIP3    H1 6915   1.268   3.618   3.471
 2303TIP3    H2 6916   1.406   3.662   3.516
 2304TIP3   OH2 6917   3.740   4.818   2.218
 2304TIP3    H1 6918   3.741   4.867   2.300
 2304TIP3    H2 6919   3.757   4.727   2.244
 2305TIP3   OH2 6920   3.678   0.739   4.185
 2305TIP3    H1 6921   3.628   0.716   4.107
 2305TIP3    H2 6922   3.654   0.671   4.249
 2306TIP3   OH2 6923   0.538   1.764   3.882
 2306TIP3    H1 6924   0.449   1.728   3.885
 2306TIP3    H2 6925   0.561   1.764   3.789
 2307TIP3   OH2 6926   0.259   0.081   2.833
 2307TIP3    H1 6927   0.178   0.077   2.782
 2307TIP3    H2 6928   0.295  -0.007   2.830
 2308TIP3   OH2 6929   3.280   1.879   0.785
 2308TIP3    H1 6930   3.359   1.917   0.747
 2308TIP3    H2 6931   3.234   1.953   0.824
 2309TIP3   OH2 6932   2.942   3.672   1.116
 2309TIP3    H1 6933   2.850   3.698   1.103
 2309TIP3    H2 6934   2.939   3.614   1.192
 2310TIP3   OH2 6935   3.389   1.460   3.866
 2310TIP3    H1 6936   3.308   1.463   3.918
 2310TIP3    H2 6937   3.370   1.513   3.789
 2311TIP3   OH2 6938   1.133   2.110   4.311
 2311TIP3    H1 6939   1.124   2.020   4.279
 2311TIP3    H2 6940   1.182   2.101   4.393
 2312TIP3   OH2 6941   2.373   4.541   4.551
 2312TIP3    H1 6942   2.452   4.489   4.536
 2312TIP3    H2 6943   2.338   4.558   4.464
 2313TIP3   OH2 6944   5.387   3.590   1.781
 2313TIP3    H1 6945   5.425   3.507   1.811
 2313TIP3    H2 6946   5.298   3.568   1.755
 2314TIP3   OH2 6947   5.266   0.125   0.473
 2314TIP3    H1 6948   5.352   0.109   0.436
 2314TIP3    H2 6949   5.213   0.157   0.400
 2315TIP3   OH2 6950   5.383   5.337   2.917
 2315TIP3    H1 6951   5.310   5.355   2.858
 2315TIP3    H2 6952   5.379   5.407   2.982
 2316TIP3   OH2 6953   6.158   1.823   3.343
 2316TIP3    H1 6954   6.233   1.862   3.298
 2316TIP3    H2 6955   6.172   1.844   3.436
 2317TIP3   OH2 6956   3.405   0.002   2.718
 2317TIP3    H1 6957   3.491  -0.005   2.677
 2317TIP3    H2 6958   3.406   0.086   2.763
 2318TIP3   OH2 6959   3.875   1.712   0.840
 2318TIP3    H1 6960   3.829   1.629   0.857
 2318TIP3    H2 6961   3.810   1.767   0.796
 2319TIP3   OH2 6962   5.077   4.894   4.920
 2319TIP3    H1 6963   5.166   4.913   4.949
 2319TIP3    H2 6964   5.078   4.913   4.826
 2320TIP3   OH2 6965   0.381   2.719   4.159
 2320TIP3    H1 6966   0.351   2.658   4.226
 2320TIP3    H2 6967   0.389   2.666   4.079
 2321TIP3   OH2 6968   0.621   5.556   2.998
 2321TIP3    H1 6969   0.717   5.552   2.994
 2321TIP3    H2 6970   0.594   5.572   2.908
 2322TIP3   OH2 6971   0.869   1.584   3.207
 2322TIP3    H1 6972   0.919   1.604   3.128
 2322TIP3    H2 6973   0.810   1.514   3.181
 2323TIP3   OH2 6974   2.392   0.157   4.663
 2323TIP3    H1 6975   2.387   0.253   4.670
 2323TIP3    H2 6976   2.358   0.137   4.576
 2324TIP3   OH2 6977   5.971   4.721   3.061
 2324TIP3    H1 6978   5.911   4.773   3.114
 2324TIP3    H2 6979   6.031   4.681   3.124
 2325TIP3   OH2 6980   1.161   5.221   0.458
 2325TIP3    H1 6981   1.113   5.150   0.415
 2325TIP3    H2 6982   1.158   5.198   0.551
 2326TIP3   OH2 6983   0.974   1.782   2.691
 2326TIP3    H1 6984   1.005   1.855   2.636
 2326TIP3    H2 6985   0.909   1.738   2.637
 2327TIP3   OH2 6986   0.797   4.978   1.081
 2327TIP3    H1 6987   0.722   4.925   1.107
 2327TIP3    H2 6988   0.821   4.946   0.994
 2328TIP3   OH2 6989   2.133   0.052   3.479
 2328TIP3    H1 6990   2.139   0.142   3.446
 2328TIP3    H2 6991   2.049   0.020   3.447
 2329TIP3   OH2 6992   2.394   0.632   1.815
 2329TIP3    H1 6993   2.437   0.596   1.893
 2329TIP3    H2 6994   2.301   0.626   1.834
 2330TIP3   OH2 6995   4.774   1.290   2.152
 2330TIP3    H1 6996   4.779   1.196   2.133
 2330TIP3    H2 6997   4.810   1.299   2.240
 2331TIP3   OH2 6998   1.214   4.178   0.582
 2331TIP3    H1 6999   1.130   4.152   0.619
 2331TIP3    H2 7000   1.193   4.210   0.494
 2332TIP3   OH2 7001   0.444   3.061   3.138
 2332TIP3    H1 7002   0.431   2.972   3.172
 2332TIP3    H2 7003   0.538   3.065   3.117
 2333TIP3   OH2 7004   2.311   1.448   2.852
 2333TIP3    H1 7005   2.268   1.496   2.781
 2333TIP3    H2 7006   2.243   1.389   2.886
 2334TIP3   OH2 7007   4.503   5.341   3.518
 2334TIP3    H1 7008   4.552   5.284   3.460
 2334TIP3    H2 7009   4.556   5.420   3.527
 2335TIP3   OH2 7010   2.620   5.252   3.275
 2335TIP3    H1 7011   2.600   5.324   3.335
 2335TIP3    H2 7012   2.713   5.265   3.253
 2336TIP3   OH2 7013   6.046   4.655   1.022
 2336TIP3    H1 7014   5.977   4.650   1.088
 2336TIP3    H2 7015   6.005   4.699   0.947
 2337TIP3   OH2 7016   3.121   4.784   0.426
 2337TIP3    H1 7017   3.078   4.823   0.351
 2337TIP3    H2 7018   3.118   4.852   0.494
 2338TIP3   OH2 7019   0.832   3.767   2.689
 2338TIP3    H1 7020   0.843   3.726   2.604
 2338TIP3    H2 7021   0.897   3.838   2.690
 2339TIP3   OH2 7022   1.851   4.301   3.677
 2339TIP3    H1 7023   1.759   4.315   3.699
 2339TIP3    H2 7024   1.860   4.206   3.672
 2340TIP3   OH2 7025   2.832   0.785   2.362
 2340TIP3    H1 7026   2.805   0.709   2.310
 2340TIP3    H2 7027   2.873   0.844   2.299
 2341TIP3   OH2 7028   3.686   2.880   4.429
 2341TIP3    H1 7029   3.747   2.813   4.396
 2341TIP3    H2 7030   3.701   2.881   4.523
 2342TIP3   OH2 7031   5.943   3.384   5.168
 2342TIP3    H1 7032   5.855   3.421   5.172
 2342TIP3    H2 7033   5.931   3.299   5.124
 2343TIP3   OH2 7034   1.787   2.391   0.249
 2343TIP3    H1 7035   1.754   2.302   0.236
 2343TIP3    H2 7036   1.849   2.384   0.321
 2344TIP3   OH2 7037   3.612   1.230   0.252
 2344TIP3    H1 7038   3.594   1.324   0.249
 2344TIP3    H2 7039   3.687   1.221   0.311
 2345TIP3   OH2 7040   5.653   3.395   1.486
 2345TIP3    H1 7041   5.576   3.344   1.510
 2345TIP3    H2 7042   5.658   3.389   1.391
 2346TIP3   OH2 7043   3.455   5.268   4.682
 2346TIP3    H1 7044   3.518   5.197   4.664
 2346TIP3    H2 7045   3.435   5.260   4.775
 2347TIP3   OH2 7046   2.011   4.627   3.065
 2347TIP3    H1 7047   1.962   4.615   2.984
 2347TIP3    H2 7048   2.040   4.540   3.090
 2348TIP3   OH2 7049   6.323   3.767   4.931
 2348TIP3    H1 7050   6.270   3.694   4.900
 2348TIP3    H2 7051   6.297   3.841   4.876
 2349TIP3   OH2 7052   5.779   1.264   2.859
 2349TIP3    H1 7053   5.716   1.308   2.802
 2349TIP3    H2 7054   5.860   1.262   2.809
 2350TIP3   OH2 7055   3.635   1.088   4.192
 2350TIP3    H1 7056   3.639   1.147   4.267
 2350TIP3    H2 7057   3.707   1.117   4.135
 2351TIP3   OH2 7058   2.432   1.460   2.123
 2351TIP3    H1 7059   2.384   1.537   2.092
 2351TIP3    H2 7060   2.427   1.466   2.218
 2352TIP3   OH2 7061   1.176   1.750   3.837
 2352TIP3    H1 7062   1.083   1.756   3.857
 2352TIP3    H2 7063   1.184   1.671   3.782
 2353TIP3   OH2 7064   2.438   5.205   3.449
 2353TIP3    H1 7065   2.369   5.138   3.448
 2353TIP3    H2 7066   2.494   5.184   3.375
 2354TIP3   OH2 7067   4.516   0.183   1.668
 2354TIP3    H1 7068   4.532   0.089   1.675
 2354TIP3    H2 7069   4.592   0.218   1.622
 2355TIP3   OH2 7070   6.190   2.439   5.137
 2355TIP3    H1 7071   6.272   2.415   5.093
 2355TIP3    H2 7072   6.183   2.533   5.124
 2356TIP3   OH2 7073   4.663   3.996   4.858
 2356TIP3    H1 7074   4.706   3.931   4.913
 2356TIP3    H2 7075   4.574   3.962   4.847
 2357TIP3   OH2 7076   0.722   3.740   3.879
 2357TIP3    H1 7077   0.664   3.814   3.894
 2357TIP3    H2 7078   0.680   3.667   3.924
 2358TIP3   OH2 7079   5.156   1.722   2.498
 2358TIP3    H1 7080   5.236   1.736   2.448
 2358TIP3    H2 7081   5.085   1.746   2.437
 2359TIP3   OH2 7082   0.919   3.814   1.057
 2359TIP3    H1 7083   0.873   3.846   1.135
 2359TIP3    H2 7084   0.918   3.888   0.996
 2360TIP3   OH2 7085   4.805   5.573   4.533
 2360TIP3    H1 7086   4.720   5.574   4.490
 2360TIP3    H2 7087   4.786   5.556   4.625
 2361TIP3   OH2 7088   1.593   3.984   4.792
 2361TIP3    H1 7089   1.670   3.929   4.806
 2361TIP3    H2 7090   1.543   3.977   4.873
 2362TIP3   OH2 7091   3.434   4.701   3.174
 2362TIP3    H1 7092   3.438   4.782   3.123
 2362TIP3    H2 7093   3.343   4.671   3.163
 2363TIP3   OH2 7094   1.028   1.438   1.059
 2363TIP3    H1 7095   0.989   1.368   1.111
 2363TIP3    H2 7096   0.963   1.457   0.991
 2364TIP3   OH2 7097   2.577   4.228   4.420
 2364TIP3    H1 7098   2.537   4.146   4.391
 2364TIP3    H2 7099   2.644   4.200   4.483
 2365TIP3   OH2 7100   1.661   2.768   3.268
 2365TIP3    H1 7101   1.586   2.719   3.237
 2365TIP3    H2 7102   1.690   2.720   3.346
 2366TIP3   OH2 7103   3.472   4.663   2.409
 2366TIP3    H1 7104   3.553   4.703   2.443
 2366TIP3    H2 7105   3.503   4.597   2.347
 2367TIP3   OH2 7106   3.734   5.425   0.059
 2367TIP3    H1 7107   3.656   5.376   0.085
 2367TIP3    H2 7108   3.748   5.402  -0.033
 2368TIP3   OH2 7109   1.818   0.551   2.168
 2368TIP3    H1 7110   1.810   0.646   2.164
 2368TIP3    H2 7111   1.849   0.533   2.257
 2369TIP3   OH2 7112   5.921   0.026   3.077
 2369TIP3    H1 7113   5.937  -0.006   3.166
 2369TIP3    H2 7114   6.000   0.075   3.054
 2370TIP3   OH2 7115   1.552   5.802   5.134
 2370TIP3    H1 7116   1.529   5.811   5.042
 2370TIP3    H2 7117   1.469   5.784   5.178
 2371TIP3   OH2 7118   1.739   1.937   4.978
 2371TIP3    H1 7119   1.738   1.942   4.882
 2371TIP3    H2 7120   1.828   1.910   5.000
 2372TIP3   OH2 7121   5.600   2.036   1.685
 2372TIP3    H1 7122   5.614   2.021   1.592
 2372TIP3    H2 7123   5.612   1.949   1.725
 2373TIP3   OH2 7124   6.192   5.443   4.629
 2373TIP3    H1 7125   6.209   5.482   4.715
 2373TIP3    H2 7126   6.111   5.485   4.600
 2374TIP3   OH2 7127   3.335   3.614   3.353
 2374TIP3    H1 7128   3.270   3.551   3.383
 2374TIP3    H2 7129   3.300   3.699   3.380
 2375TIP3   OH2 7130   0.293   5.560   0.217
 2375TIP3    H1 7131   0.220   5.619   0.196
 2375TIP3    H2 7132   0.265   5.475   0.182
 2376TIP3   OH2 7133   2.339   5.245   2.076
 2376TIP3    H1 7134   2.255   5.254   2.122
 2376TIP3    H2 7135   2.358   5.151   2.080
 2377TIP3   OH2 7136   2.262   0.082   1.277
 2377TIP3    H1 7137   2.176   0.118   1.253
 2377TIP3    H2 7138   2.289   0.031   1.201
 2378TIP3   OH2 7139   1.302   2.805   4.874
 2378TIP3    H1 7140   1.307   2.710   4.868
 2378TIP3    H2 7141   1.262   2.821   4.960
 2379TIP3   OH2 7142   0.266   5.796   2.042
 2379TIP3    H1 7143   0.275   5.709   2.003
 2379TIP3    H2 7144   0.319   5.853   1.986
 2380TIP3   OH2 7145   5.032   5.254   4.710
 2380TIP3    H1 7146   4.964   5.280   4.648
 2380TIP3    H2 7147   4.983   5.228   4.789
 2381TIP3   OH2 7148   3.750   3.324   4.633
 2381TIP3    H1 7149   3.746   3.365   4.720
 2381TIP3    H2 7150   3.815   3.255   4.642
 2382TIP3   OH2 7151   4.341   4.605   0.418
 2382TIP3    H1 7152   4.329   4.556   0.500
 2382TIP3    H2 7153   4.378   4.542   0.357
 2383TIP3   OH2 7154   3.067   0.119   2.039
 2383TIP3    H1 7155   2.998   0.065   2.077
 2383TIP3    H2 7156   3.117   0.151   2.115
 2384TIP3   OH2 7157   2.156   4.654   0.249
 2384TIP3    H1 7158   2.129   4.620   0.163
 2384TIP3    H2 7159   2.181   4.745   0.232
 2385TIP3   OH2 7160  -0.003   2.896   1.792
 2385TIP3    H1 7161   0.059   2.964   1.764
 2385TIP3    H2 7162  -0.023   2.918   1.883
 2386TIP3   OH2 7163   3.590   4.143   0.104
 2386TIP3    H1 7164   3.520   4.112   0.162
 2386TIP3    H2 7165   3.669   4.138   0.157
 2387TIP3   OH2 7166   2.466   5.670   4.891
 2387TIP3    H1 7167   2.390   5.703   4.937
 2387TIP3    H2 7168   2.439   5.668   4.799
 2388TIP3   OH2 7169   0.624   0.535   4.673
 2388TIP3    H1 7170   0.645   0.486   4.753
 2388TIP3    H2 7171   0.705   0.582   4.652
 2389TIP3   OH2 7172   1.937   3.265   0.692
 2389TIP3    H1 7173   1.983   3.256   0.609
 2389TIP3    H2 7174   1.904   3.178   0.711
 2390TIP3   OH2 7175   1.340   0.258   4.322
 2390TIP3    H1 7176   1.349   0.326   4.389
 2390TIP3    H2 7177   1.427   0.218   4.316
 2391TIP3   OH2 7178   2.785   0.006   1.102
 2391TIP3    H1 7179   2.815   0.009   1.193
 2391TIP3    H2 7180   2.792   0.096   1.071
 2392TIP3   OH2 7181   5.930   2.374   4.242
 2392TIP3    H1 7182   5.988   2.356   4.315
 2392TIP3    H2 7183   5.845   2.341   4.270
 2393TIP3   OH2 7184   3.315   2.105   2.732
 2393TIP3    H1 7185   3.409   2.086   2.740
 2393TIP3    H2 7186   3.272   2.022   2.748
 2394TIP3   OH2 7187   3.631   2.848   2.288
 2394TIP3    H1 7188   3.679   2.927   2.264
 2394TIP3    H2 7189   3.592   2.868   2.372
 2395TIP3   OH2 7190   1.528   3.914   5.061
 2395TIP3    H1 7191   1.590   3.842   5.077
 2395TIP3    H2 7192   1.445   3.882   5.097
 2396TIP3   OH2 7193   5.111   2.699   3.612
 2396TIP3    H1 7194   5.042   2.765   3.601
 2396TIP3    H2 7195   5.183   2.746   3.655
 2397TIP3   OH2 7196   0.559   4.190   2.098
 2397TIP3    H1 7197   0.603   4.171   2.180
 2397TIP3    H2 7198   0.554   4.285   2.094
 2398TIP3   OH2 7199   5.629   0.887   3.468
 2398TIP3    H1 7200   5.575   0.851   3.398
 2398TIP3    H2 7201   5.698   0.935   3.422
 2399TIP3   OH2 7202   0.840   1.454   0.317
 2399TIP3    H1 7203   0.750   1.426   0.298
 2399TIP3    H2 7204   0.845   1.455   0.413
 2400TIP3   OH2 7205   0.518   1.659   2.796
 2400TIP3    H1 7206   0.597   1.706   2.825
 2400TIP3    H2 7207   0.493   1.703   2.715
 2401TIP3   OH2 7208   0.971   4.303   4.653
 2401TIP3    H1 7209   1.037   4.353   4.606
 2401TIP3    H2 7210   1.006   4.294   4.741
 2402TIP3   OH2 7211   0.384   2.549   2.227
 2402TIP3    H1 7212   0.342   2.520   2.146
 2402TIP3    H2 7213   0.466   2.499   2.230
 2403TIP3   OH2 7214   0.515   3.297   4.565
 2403TIP3    H1 7215   0.537   3.317   4.474
 2403TIP3    H2 7216   0.568   3.359   4.617
 2404TIP3   OH2 7217   2.525   3.211   1.319
 2404TIP3    H1 7218   2.590   3.211   1.389
 2404TIP3    H2 7219   2.571   3.248   1.244
 2405TIP3   OH2 7220   0.929   5.333   0.256
 2405TIP3    H1 7221   0.988   5.367   0.188
 2405TIP3    H2 7222   0.947   5.387   0.333
 2406TIP3   OH2 7223   5.239   0.166   1.995
 2406TIP3    H1 7224   5.296   0.205   2.061
 2406TIP3    H2 7225   5.200   0.241   1.950
 2407TIP3   OH2 7226   6.322   4.880   3.797
 2407TIP3    H1 7227   6.297   4.970   3.776
 2407TIP3    H2 7228   6.403   4.866   3.749
 2408TIP3   OH2 7229   1.558   2.396   0.881
 2408TIP3    H1 7230   1.594   2.453   0.949
 2408TIP3    H2 7231   1.517   2.456   0.818
 2409TIP3   OH2 7232   2.200   5.665   3.672
 2409TIP3    H1 7233   2.199   5.717   3.592
 2409TIP3    H2 7234   2.236   5.580   3.644
 2410TIP3   OH2 7235   3.894   0.291   3.303
 2410TIP3    H1 7236   3.941   0.373   3.316
 2410TIP3    H2 7237   3.926   0.234   3.374
 2411TIP3   OH2 7238   0.839   5.525   2.681
 2411TIP3    H1 7239   0.853   5.619   2.666
 2411TIP3    H2 7240   0.746   5.518   2.700
 2412TIP3   OH2 7241   4.362   1.204   4.829
 2412TIP3    H1 7242   4.378   1.112   4.851
 2412TIP3    H2 7243   4.300   1.235   4.895
 2413TIP3   OH2 7244   3.391   4.599   3.582
 2413TIP3    H1 7245   3.389   4.508   3.612
 2413TIP3    H2 7246   3.467   4.603   3.525
 2414TIP3   OH2 7247   2.121   1.761   0.349
 2414TIP3    H1 7248   2.072   1.841   0.331
 2414TIP3    H2 7249   2.213   1.788   0.348
 2415TIP3   OH2 7250   1.687   5.678   4.096
 2415TIP3    H1 7251   1.610   5.630   4.064
 2415TIP3    H2 7252   1.755   5.658   4.031
 2416TIP3   OH2 7253   4.939   2.410   3.281
 2416TIP3    H1 7254   4.975   2.399   3.369
 2416TIP3    H2 7255   5.010   2.450   3.230
 2417TIP3   OH2 7256   0.198   3.612   3.154
 2417TIP3    H1 7257   0.145   3.552   3.207
 2417TIP3    H2 7258   0.277   3.628   3.206
 2418TIP3   OH2 7259   3.138   1.325   3.325
 2418TIP3    H1 7260   3.179   1.372   3.397
 2418TIP3    H2 7261   3.104   1.393   3.268
 2419TIP3   OH2 7262   2.367   0.165   4.389
 2419TIP3    H1 7263   2.282   0.163   4.346
 2419TIP3    H2 7264   2.429   0.135   4.321
 2420TIP3   OH2 7265   5.382   2.223   2.583
 2420TIP3    H1 7266   5.393   2.249   2.675
 2420TIP3    H2 7267   5.371   2.128   2.586
 2421TIP3   OH2 7268   5.304   2.308   0.105
 2421TIP3    H1 7269   5.260   2.322   0.189
 2421TIP3    H2 7270   5.352   2.226   0.116
 2422TIP3   OH2 7271   1.990   2.496   3.415
 2422TIP3    H1 7272   2.020   2.586   3.419
 2422TIP3    H2 7273   2.037   2.458   3.341
 2423TIP3   OH2 7274   4.883   1.786   0.357
 2423TIP3    H1 7275   4.906   1.876   0.332
 2423TIP3    H2 7276   4.787   1.784   0.352
 2424TIP3   OH2 7277   0.644   4.547   2.810
 2424TIP3    H1 7278   0.610   4.543   2.899
 2424TIP3    H2 7279   0.639   4.640   2.786
 2425TIP3   OH2 7280   5.006   0.464   0.753
 2425TIP3    H1 7281   4.982   0.513   0.675
 2425TIP3    H2 7282   4.925   0.458   0.804
 2426TIP3   OH2 7283   1.057   3.628   3.668
 2426TIP3    H1 7284   1.141   3.652   3.626
 2426TIP3    H2 7285   1.073   3.641   3.761
 2427TIP3   OH2 7286   0.641   4.449   2.209
 2427TIP3    H1 7287   0.728   4.438   2.173
 2427TIP3    H2 7288   0.619   4.541   2.194
 2428TIP3   OH2 7289   2.343   5.350   3.991
 2428TIP3    H1 7290   2.315   5.354   4.083
 2428TIP3    H2 7291   2.338   5.257   3.969
 2429TIP3   OH2 7292   0.896   1.369   2.479
 2429TIP3    H1 7293   0.860   1.291   2.437
 2429TIP3    H2 7294   0.936   1.337   2.560
 2430TIP3   OH2 7295   6.242   0.777   1.378
 2430TIP3    H1 7296   6.246   0.689   1.340
 2430TIP3    H2 7297   6.331   0.792   1.411
 2431TIP3   OH2 7298   3.869   2.946   2.630
 2431TIP3    H1 7299   3.931   2.964   2.701
 2431TIP3    H2 7300   3.851   2.852   2.637
 2432TIP3   OH2 7301   4.907   4.212   1.362
 2432TIP3    H1 7302   4.835   4.209   1.425
 2432TIP3    H2 7303   4.886   4.144   1.298
 2433TIP3   OH2 7304   2.511   3.336   4.507
 2433TIP3    H1 7305   2.508   3.321   4.413
 2433TIP3    H2 7306   2.432   3.386   4.526
 2434TIP3   OH2 7307   1.321   2.853   0.556
 2434TIP3    H1 7308   1.339   2.775   0.608
 2434TIP3    H2 7309   1.365   2.836   0.472
 2435TIP3   OH2 7310   4.122   0.889   1.585
 2435TIP3    H1 7311   4.073   0.815   1.620
 2435TIP3    H2 7312   4.069   0.921   1.513
 2436TIP3   OH2 7313   3.091   3.380   1.266
 2436TIP3    H1 7314   3.034   3.318   1.314
 2436TIP3    H2 7315   3.136   3.325   1.202
 2437TIP3   OH2 7316   4.118   1.519   4.602
 2437TIP3    H1 7317   4.146   1.476   4.683
 2437TIP3    H2 7318   4.100   1.447   4.542
 2438TIP3   OH2 7319   0.745   3.489   4.640
 2438TIP3    H1 7320   0.817   3.427   4.625
 2438TIP3    H2 7321   0.726   3.525   4.554
 2439TIP3   OH2 7322   5.820   0.832   0.434
 2439TIP3    H1 7323   5.728   0.812   0.451
 2439TIP3    H2 7324   5.819   0.884   0.353
 2440TIP3   OH2 7325   3.090   4.774   1.670
 2440TIP3    H1 7326   3.123   4.824   1.745
 2440TIP3    H2 7327   3.169   4.744   1.625
 2441TIP3   OH2 7328   5.675   5.922   4.893
 2441TIP3    H1 7329   5.613   5.995   4.901
 2441TIP3    H2 7330   5.621   5.843   4.901
 2442TIP3   OH2 7331   3.352   5.523   2.618
 2442TIP3    H1 7332   3.306   5.585   2.673
 2442TIP3    H2 7333   3.444   5.529   2.645
 2443TIP3   OH2 7334   2.617   0.251   5.087
 2443TIP3    H1 7335   2.555   0.323   5.085
 2443TIP3    H2 7336   2.581   0.190   5.152
 2444TIP3   OH2 7337   0.948   2.828   4.131
 2444TIP3    H1 7338   0.959   2.916   4.092
 2444TIP3    H2 7339   0.864   2.798   4.097
 2445TIP3   OH2 7340   3.647   0.237   2.145
 2445TIP3    H1 7341   3.704   0.285   2.206
 2445TIP3    H2 7342   3.686   0.150   2.139
 2446TIP3   OH2 7343   2.463   3.064   0.734
 2446TIP3    H1 7344   2.489   3.074   0.643
 2446TIP3    H2 7345   2.522   3.121   0.782
 2447TIP3   OH2 7346   3.131   1.505   3.085
 2447TIP3    H1 7347   3.182   1.557   3.147
 2447TIP3    H2 7348   3.179   1.512   3.003
 2448TIP3   OH2 7349   4.992   4.197   4.977
 2448TIP3    H1 7350   5.037   4.172   5.058
 2448TIP3    H2 7351   5.017   4.129   4.915
 2449TIP3   OH2 7352   2.281   5.899   4.448
 2449TIP3    H1 7353   2.363   5.848   4.452
 2449TIP3    H2 7354   2.236   5.864   4.371
 2450TIP3   OH2 7355   5.926   0.560   1.371
 2450TIP3    H1 7356   5.895   0.631   1.427
 2450TIP3    H2 7357   6.008   0.592   1.335
 2451TIP3   OH2 7358   0.690   5.536   0.365
 2451TIP3    H1 7359   0.685   5.632   0.367
 2451TIP3    H2 7360   0.782   5.517   0.348
 2452TIP3   OH2 7361   4.003   4.026   4.909
 2452TIP3    H1 7362   3.922   4.014   4.859
 2452TIP3    H2 7363   4.069   4.045   4.842
 2453TIP3   OH2 7364   3.107   3.541   5.051
 2453TIP3    H1 7365   3.053   3.613   5.017
 2453TIP3    H2 7366   3.106   3.476   4.981
 2454TIP3   OH2 7367   1.596   0.161   2.710
 2454TIP3    H1 7368   1.591   0.199   2.798
 2454TIP3    H2 7369   1.607   0.237   2.652
 2455TIP3   OH2 7370   0.768   2.041   2.676
 2455TIP3    H1 7371   0.691   2.037   2.620
 2455TIP3    H2 7372   0.839   2.007   2.622
 2456TIP3   OH2 7373   1.887   1.202   0.158
 2456TIP3    H1 7374   1.832   1.247   0.093
 2456TIP3    H2 7375   1.941   1.271   0.196
 2457TIP3   OH2 7376   1.175   3.038   3.630
 2457TIP3    H1 7377   1.231   3.100   3.582
 2457TIP3    H2 7378   1.088   3.051   3.593
 2458TIP3   OH2 7379   3.543   5.759   4.126
 2458TIP3    H1 7380   3.542   5.712   4.043
 2458TIP3    H2 7381   3.633   5.748   4.159
 2459TIP3   OH2 7382   1.566   2.779   2.068
 2459TIP3    H1 7383   1.545   2.814   2.154
 2459TIP3    H2 7384   1.561   2.854   2.009
 2460TIP3   OH2 7385   4.959   0.313   0.034
 2460TIP3    H1 7386   5.051   0.340   0.039
 2460TIP3    H2 7387   4.914   0.390   0.000
 2461TIP3   OH2 7388   3.421   0.794   1.996
 2461TIP3    H1 7389   3.426   0.698   2.006
 2461TIP3    H2 7390   3.421   0.827   2.086
 2462TIP3   OH2 7391   4.863   3.005   2.504
 2462TIP3    H1 7392   4.806   3.027   2.577
 2462TIP3    H2 7393   4.821   2.929   2.463
 2463TIP3   OH2 7394   3.025   2.806   0.647
 2463TIP3    H1 7395   2.990   2.819   0.559
 2463TIP3    H2 7396   2.959   2.753   0.692
 2464TIP3   OH2 7397   4.974   2.267   2.350
 2464TIP3    H1 7398   5.002   2.344   2.301
 2464TIP3    H2 7399   5.032   2.197   2.320
 2465TIP3   OH2 7400   1.473   1.025   0.894
 2465TIP3    H1 7401   1.550   0.968   0.901
 2465TIP3    H2 7402   1.501   1.095   0.835
 2466TIP3   OH2 7403   5.585   5.685   0.108
 2466TIP3    H1 7404   5.645   5.734   0.051
 2466TIP3    H2 7405   5.538   5.753   0.157
 2467TIP3   OH2 7406   6.117   5.921   1.614
 2467TIP3    H1 7407   6.044   5.978   1.589
 2467TIP3    H2 7408   6.077   5.835   1.628
 2468TIP3   OH2 7409   1.060   5.223   4.824
 2468TIP3    H1 7410   1.105   5.302   4.792
 2468TIP3    H2 7411   1.122   5.184   4.886
 2469TIP3   OH2 7412   0.182   2.799   2.653
 2469TIP3    H1 7413   0.174   2.707   2.628
 2469TIP3    H2 7414   0.261   2.830   2.609
 2470TIP3   OH2 7415   0.656   4.564   5.079
 2470TIP3    H1 7416   0.641   4.591   5.170
 2470TIP3    H2 7417   0.726   4.621   5.048
 2471TIP3   OH2 7418   3.754   0.416   2.328
 2471TIP3    H1 7419   3.799   0.474   2.266
 2471TIP3    H2 7420   3.684   0.470   2.365
 2472TIP3   OH2 7421   3.799   0.675   1.121
 2472TIP3    H1 7422   3.821   0.657   1.030
 2472TIP3    H2 7423   3.883   0.698   1.162
 2473TIP3   OH2 7424   6.342   5.923   4.674
 2473TIP3    H1 7425   6.356   5.875   4.756
 2473TIP3    H2 7426   6.252   5.903   4.650
 2474TIP3   OH2 7427   5.397   0.215   3.190
 2474TIP3    H1 7428   5.438   0.129   3.200
 2474TIP3    H2 7429   5.422   0.263   3.269
 2475TIP3   OH2 7430   5.818   0.080   2.353
 2475TIP3    H1 7431   5.832   0.046   2.265
 2475TIP3    H2 7432   5.853   0.012   2.411
 2476TIP3   OH2 7433   4.057   4.716   0.377
 2476TIP3    H1 7434   4.053   4.717   0.473
 2476TIP3    H2 7435   4.141   4.675   0.357
 2477TIP3   OH2 7436   2.183   2.672   4.116
 2477TIP3    H1 7437   2.175   2.698   4.024
 2477TIP3    H2 7438   2.097   2.693   4.154
 2478TIP3   OH2 7439   6.104   1.249   3.459
 2478TIP3    H1 7440   6.127   1.303   3.535
 2478TIP3    H2 7441   6.011   1.231   3.471
 2479TIP3   OH2 7442   3.189   3.897   4.426
 2479TIP3    H1 7443   3.280   3.892   4.398
 2479TIP3    H2 7444   3.151   3.813   4.400
 2480TIP3   OH2 7445   1.090   4.273   1.765
 2480TIP3    H1 7446   1.016   4.223   1.732
 2480TIP3    H2 7447   1.103   4.342   1.700
 2481TIP3   OH2 7448   3.680   0.855   2.621
 2481TIP3    H1 7449   3.763   0.849   2.573
 2481TIP3    H2 7450   3.662   0.765   2.649
 2482TIP3   OH2 7451   0.941   4.445   2.924
 2482TIP3    H1 7452   0.864   4.490   2.890
 2482TIP3    H2 7453   0.912   4.405   3.006
 2483TIP3   OH2 7454   4.937   1.714   3.460
 2483TIP3    H1 7455   4.893   1.772   3.522
 2483TIP3    H2 7456   5.029   1.716   3.485
 2484TIP3   OH2 7457   1.673   3.784   0.010
 2484TIP3    H1 7458   1.649   3.803   0.101
 2484TIP3    H2 7459   1.592   3.754  -0.031
 2485TIP3   OH2 7460   2.809   3.335   2.653
 2485TIP3    H1 7461   2.807   3.299   2.564
 2485TIP3    H2 7462   2.844   3.263   2.706
 2486TIP3   OH2 7463   0.622   1.372   2.654
 2486TIP3    H1 7464   0.530   1.346   2.641
 2486TIP3    H2 7465   0.669   1.289   2.660
 2487TIP3   OH2 7466   3.422   2.727   0.940
 2487TIP3    H1 7467   3.391   2.724   0.850
 2487TIP3    H2 7468   3.514   2.701   0.935
 2488TIP3   OH2 7469   4.683   0.584   3.871
 2488TIP3    H1 7470   4.711   0.550   3.786
 2488TIP3    H2 7471   4.656   0.507   3.920
 2489TIP3   OH2 7472   1.236   4.064   0.134
 2489TIP3    H1 7473   1.222   3.981   0.180
 2489TIP3    H2 7474   1.224   4.131   0.201
 2490TIP3   OH2 7475   6.296   2.416   2.235
 2490TIP3    H1 7476   6.251   2.367   2.304
 2490TIP3    H2 7477   6.377   2.447   2.276
 2491TIP3   OH2 7478   5.406   2.816   1.055
 2491TIP3    H1 7479   5.460   2.859   0.989
 2491TIP3    H2 7480   5.374   2.737   1.011
 2492TIP3   OH2 7481   1.396   2.520   2.609
 2492TIP3    H1 7482   1.328   2.455   2.629
 2492TIP3    H2 7483   1.473   2.488   2.655
 2493TIP3   OH2 7484   5.378   2.855   2.012
 2493TIP3    H1 7485   5.333   2.935   2.041
 2493TIP3    H2 7486   5.391   2.867   1.918
 2494TIP3   OH2 7487   2.460   4.057   2.238
 2494TIP3    H1 7488   2.392   3.991   2.225
 2494TIP3    H2 7489   2.537   4.008   2.265
 2495TIP3   OH2 7490   2.581   1.171   0.427
 2495TIP3    H1 7491   2.606   1.094   0.478
 2495TIP3    H2 7492   2.497   1.199   0.465
 2496TIP3   OH2 7493   0.896   3.085   1.522
 2496TIP3    H1 7494   0.847   3.045   1.594
 2496TIP3    H2 7495   0.909   3.176   1.550
 2497TIP3   OH2 7496   4.152   5.853   3.127
 2497TIP3    H1 7497   4.241   5.882   3.108
 2497TIP3    H2 7498   4.110   5.846   3.041
 2498TIP3   OH2 7499   5.303   3.150   0.417
 2498TIP3    H1 7500   5.217   3.146   0.374
 2498TIP3    H2 7501   5.285   3.127   0.508
 2499TIP3   OH2 7502   0.711   0.350   2.579
 2499TIP3    H1 7503   0.734   0.298   2.656
 2499TIP3    H2 7504   0.786   0.407   2.566
 2500TIP3   OH2 7505   1.617   4.686   1.454
 2500TIP3    H1 7506   1.573   4.685   1.539
 2500TIP3    H2 7507   1.558   4.637   1.397
 2501TIP3   OH2 7508   0.223   4.153   0.757
 2501TIP3    H1 7509   0.142   4.137   0.708
 2501TIP3    H2 7510   0.216   4.245   0.784
 2502TIP3   OH2 7511   0.293   4.524   2.649
 2502TIP3    H1 7512   0.333   4.447   2.689
 2502TIP3    H2 7513   0.257   4.493   2.566
 2503TIP3   OH2 7514   4.940   4.135   3.253
 2503TIP3    H1 7515   5.000   4.061   3.263
 2503TIP3    H2 7516   4.872   4.104   3.193
 2504TIP3   OH2 7517   1.196   2.748   3.731
 2504TIP3    H1 7518   1.197   2.840   3.703
 2504TIP3    H2 7519   1.180   2.753   3.825
 2505TIP3   OH2 7520   3.650   2.824   2.882
 2505TIP3    H1 7521   3.650   2.880   2.959
 2505TIP3    H2 7522   3.582   2.759   2.900
 2506TIP3   OH2 7523   0.029   3.912   3.212
 2506TIP3    H1 7524   0.087   3.869   3.149
 2506TIP3    H2 7525  -0.044   3.852   3.222
 2507TIP3   OH2 7526   4.577   0.279   3.664
 2507TIP3    H1 7527   4.632   0.221   3.717
 2507TIP3    H2 7528   4.536   0.222   3.600
 2508TIP3   OH2 7529   4.049   1.471   2.019
 2508TIP3    H1 7530   3.962   1.489   1.984
 2508TIP3    H2 7531   4.107   1.527   1.968
 2509TIP3   OH2 7532   0.709   4.077   2.624
 2509TIP3    H1 7533   0.688   4.166   2.653
 2509TIP3    H2 7534   0.724   4.028   2.705
 2510TIP3   OH2 7535   5.375   3.530   1.384
 2510TIP3    H1 7536   5.291   3.508   1.344
 2510TIP3    H2 7537   5.395   3.455   1.440
 2511TIP3   OH2 7538   4.060   3.102   3.283
 2511TIP3    H1 7539   4.050   3.073   3.374
 2511TIP3    H2 7540   4.056   3.197   3.288
 2512TIP3   OH2 7541   2.171   4.254   0.152
 2512TIP3    H1 7542   2.193   4.161   0.163
 2512TIP3    H2 7543   2.243   4.300   0.195
 2513TIP3   OH2 7544   3.698   5.309   2.032
 2513TIP3    H1 7545   3.609   5.339   2.011
 2513TIP3    H2 7546   3.686   5.223   2.071
 2514TIP3   OH2 7547   5.691   2.830   4.525
 2514TIP3    H1 7548   5.673   2.923   4.533
 2514TIP3    H2 7549   5.728   2.804   4.609
 2515TIP3   OH2 7550   6.088   3.845   4.036
 2515TIP3    H1 7551   6.014   3.812   3.986
 2515TIP3    H2 7552   6.084   3.940   4.026
 2516TIP3   OH2 7553   2.101   3.786   4.644
 2516TIP3    H1 7554   2.143   3.859   4.690
 2516TIP3    H2 7555   2.014   3.818   4.621
 2517TIP3   OH2 7556   0.965   1.208   3.978
 2517TIP3    H1 7557   0.966   1.126   4.028
 2517TIP3    H2 7558   0.887   1.201   3.922
 2518TIP3   OH2 7559   6.132   3.201   4.422
 2518TIP3    H1 7560   6.124   3.174   4.331
 2518TIP3    H2 7561   6.124   3.297   4.420
 2519TIP3   OH2 7562   5.916   0.822   4.100
 2519TIP3    H1 7563   5.908   0.895   4.162
 2519TIP3    H2 7564   5.826   0.797   4.080
 2520TIP3   OH2 7565   2.600   5.852   0.917
 2520TIP3    H1 7566   2.507   5.836   0.931
 2520TIP3    H2 7567   2.606   5.882   0.826
 2521TIP3   OH2 7568   1.044   2.450   4.047
 2521TIP3    H1 7569   1.050   2.458   3.952
 2521TIP3    H2 7570   0.951   2.435   4.064
 2522TIP3   OH2 7571   1.206   0.118   2.468
 2522TIP3    H1 7572   1.192   0.075   2.552
 2522TIP3    H2 7573   1.269   0.188   2.487
 2523TIP3   OH2 7574   4.119   5.507   0.365
 2523TIP3    H1 7575   4.102   5.597   0.337
 2523TIP3    H2 7576   4.070   5.453   0.303
 2524TIP3   OH2 7577   6.283   4.568   4.493
 2524TIP3    H1 7578   6.274   4.660   4.468
 2524TIP3    H2 7579   6.344   4.569   4.567
 2525TIP3   OH2 7580   2.715   5.150   2.499
 2525TIP3    H1 7581   2.799   5.185   2.469
 2525TIP3    H2 7582   2.733   5.117   2.587
 2526TIP3   OH2 7583   4.304   3.563   0.057
 2526TIP3    H1 7584   4.359   3.486   0.072
 2526TIP3    H2 7585   4.252   3.571   0.137
 2527TIP3   OH2 7586   2.640   3.335   4.099
 2527TIP3    H1 7587   2.625   3.281   4.021
 2527TIP3    H2 7588   2.560   3.327   4.150
 2528TIP3   OH2 7589   6.263   5.424  -0.006
 2528TIP3    H1 7590   6.317   5.495  -0.041
 2528TIP3    H2 7591   6.320   5.379   0.057
 2529TIP3   OH2 7592   2.013   2.349   0.908
 2529TIP3    H1 7593   2.099   2.347   0.951
 2529TIP3    H2 7594   1.952   2.315   0.974
 2530TIP3   OH2 7595   4.770   0.245   2.413
 2530TIP3    H1 7596   4.678   0.243   2.440
 2530TIP3    H2 7597   4.770   0.295   2.332
 2531TIP3   OH2 7598   0.690   1.072   2.648
 2531TIP3    H1 7599   0.605   1.070   2.693
 2531TIP3    H2 7600   0.731   0.989   2.671
 2532TIP3   OH2 7601   1.485   1.569   4.867
 2532TIP3    H1 7602   1.547   1.576   4.940
 2532TIP3    H2 7603   1.406   1.533   4.907
 2533TIP3   OH2 7604   3.796   1.396   0.797
 2533TIP3    H1 7605   3.828   1.306   0.800
 2533TIP3    H2 7606   3.786   1.421   0.888
 2534TIP3   OH2 7607   1.444   0.959   3.933
 2534TIP3    H1 7608   1.365   0.950   3.880
 2534TIP3    H2 7609   1.502   1.013   3.879
 2535TIP3   OH2 7610   0.367   5.828   4.963
 2535TIP3    H1 7611   0.380   5.914   5.002
 2535TIP3    H2 7612   0.274   5.826   4.939
 2536TIP3   OH2 7613   4.478   2.048   0.836
 2536TIP3    H1 7614   4.568   2.045   0.870
 2536TIP3    H2 7615   4.431   1.983   0.889
 2537TIP3   OH2 7616   4.411   3.951   1.952
 2537TIP3    H1 7617   4.477   3.884   1.935
 2537TIP3    H2 7618   4.328   3.904   1.951
 2538TIP3   OH2 7619   1.648   3.011   1.913
 2538TIP3    H1 7620   1.666   2.989   1.822
 2538TIP3    H2 7621   1.620   3.103   1.910
 2539TIP3   OH2 7622   3.122   5.193   3.309
 2539TIP3    H1 7623   3.084   5.270   3.351
 2539TIP3    H2 7624   3.128   5.128   3.378
 2540TIP3   OH2 7625   3.187   3.387   1.772
 2540TIP3    H1 7626   3.112   3.352   1.724
 2540TIP3    H2 7627   3.191   3.333   1.851
 2541TIP3   OH2 7628   2.640   3.523   0.695
 2541TIP3    H1 7629   2.697   3.564   0.630
 2541TIP3    H2 7630   2.578   3.471   0.644
 2542TIP3   OH2 7631   3.198   3.140   4.160
 2542TIP3    H1 7632   3.196   3.045   4.150
 2542TIP3    H2 7633   3.119   3.171   4.117
 2543TIP3   OH2 7634   5.391   3.205   3.985
 2543TIP3    H1 7635   5.365   3.186   3.895
 2543TIP3    H2 7636   5.445   3.284   3.978
 2544TIP3   OH2 7637   3.730   5.121   4.136
 2544TIP3    H1 7638   3.679   5.193   4.174
 2544TIP3    H2 7639   3.803   5.110   4.196
 2545TIP3   OH2 7640   6.124   4.146   0.044
 2545TIP3    H1 7641   6.044   4.198   0.039
 2545TIP3    H2 7642   6.154   4.157   0.134
 2546TIP3   OH2 7643   6.143   4.012   4.446
 2546TIP3    H1 7644   6.185   4.007   4.532
 2546TIP3    H2 7645   6.181   4.090   4.405
 2547TIP3   OH2 7646   2.245   2.141   0.034
 2547TIP3    H1 7647   2.273   2.228   0.004
 2547TIP3    H2 7648   2.277   2.082  -0.034
 2548TIP3   OH2 7649   1.868   2.843   0.226
 2548TIP3    H1 7650   1.893   2.935   0.218
 2548TIP3    H2 7651   1.825   2.837   0.311
 2549TIP3   OH2 7652   4.910   0.025   0.089
 2549TIP3    H1 7653   4.862   0.023   0.007
 2549TIP3    H2 7654   4.935   0.117   0.100
 2550TIP3   OH2 7655   4.065   1.687   4.098
 2550TIP3    H1 7656   4.124   1.611   4.105
 2550TIP3    H2 7657   4.014   1.686   4.179
 2551TIP3   OH2 7658   5.009   5.875   0.593
 2551TIP3    H1 7659   5.044   5.787   0.601
 2551TIP3    H2 7660   4.986   5.884   0.500
 2552TIP3   OH2 7661   1.337   3.132   0.590
 2552TIP3    H1 7662   1.376   3.152   0.675
 2552TIP3    H2 7663   1.331   3.036   0.589
 2553TIP3   OH2 7664   5.925   1.843   3.536
 2553TIP3    H1 7665   5.898   1.933   3.555
 2553TIP3    H2 7666   6.013   1.837   3.573
 2554TIP3   OH2 7667   4.187   0.079   2.817
 2554TIP3    H1 7668   4.112   0.069   2.876
 2554TIP3    H2 7669   4.245   0.006   2.840
 2555TIP3   OH2 7670   0.284   0.574   4.954
 2555TIP3    H1 7671   0.367   0.574   5.003
 2555TIP3    H2 7672   0.226   0.519   5.007
 2556TIP3   OH2 7673   1.271   3.461   2.767
 2556TIP3    H1 7674   1.178   3.441   2.754
 2556TIP3    H2 7675   1.312   3.375   2.777
 2557TIP3   OH2 7676   1.886   1.262   0.697
 2557TIP3    H1 7677   1.843   1.305   0.771
 2557TIP3    H2 7678   1.841   1.296   0.620
 2558TIP3   OH2 7679   3.554   2.543   2.879
 2558TIP3    H1 7680   3.519   2.504   2.959
 2558TIP3    H2 7681   3.477   2.571   2.830
 2559TIP3   OH2 7682   4.754   2.384   1.889
 2559TIP3    H1 7683   4.800   2.375   1.806
 2559TIP3    H2 7684   4.665   2.409   1.864
 2560TIP3   OH2 7685   3.268   5.735   1.316
 2560TIP3    H1 7686   3.321   5.805   1.354
 2560TIP3    H2 7687   3.322   5.656   1.326
 2561TIP3   OH2 7688   3.267   2.847   3.693
 2561TIP3    H1 7689   3.342   2.869   3.748
 2561TIP3    H2 7690   3.268   2.752   3.688
 2562TIP3   OH2 7691   4.101   5.927   3.532
 2562TIP3    H1 7692   4.183   5.971   3.553
 2562TIP3    H2 7693   4.066   5.899   3.617
 2563TIP3   OH2 7694   2.351   0.297   3.733
 2563TIP3    H1 7695   2.445   0.307   3.721
 2563TIP3    H2 7696   2.316   0.386   3.728
 2564TIP3   OH2 7697   5.899   4.708   0.138
 2564TIP3    H1 7698   5.811   4.714   0.098
 2564TIP3    H2 7699   5.885   4.732   0.229
 2565TIP3   OH2 7700   3.593   4.858   4.459
 2565TIP3    H1 7701   3.586   4.866   4.363
 2565TIP3    H2 7702   3.672   4.805   4.473
 2566TIP3   OH2 7703   5.249   3.490   4.011
 2566TIP3    H1 7704   5.178   3.427   3.998
 2566TIP3    H2 7705   5.328   3.437   4.012
 2567TIP3   OH2 7706   5.047   0.543   2.472
 2567TIP3    H1 7707   4.982   0.595   2.519
 2567TIP3    H2 7708   5.097   0.608   2.422
 2568TIP3   OH2 7709   1.818   5.115   3.131
 2568TIP3    H1 7710   1.724   5.135   3.132
 2568TIP3    H2 7711   1.851   5.159   3.053
 2569TIP3   OH2 7712   2.868   1.512   0.082
 2569TIP3    H1 7713   2.887   1.565   0.005
 2569TIP3    H2 7714   2.953   1.475   0.107
 2570TIP3   OH2 7715   4.116   0.357   2.552
 2570TIP3    H1 7716   4.161   0.355   2.468
 2570TIP3    H2 7717   4.179   0.321   2.614
 2571TIP3   OH2 7718   2.480   1.604   0.396
 2571TIP3    H1 7719   2.502   1.652   0.316
 2571TIP3    H2 7720   2.538   1.528   0.395
 2572TIP3   OH2 7721   3.562   3.150   3.807
 2572TIP3    H1 7722   3.492   3.112   3.862
 2572TIP3    H2 7723   3.628   3.180   3.870
 2573TIP3   OH2 7724   0.935   1.341   1.765
 2573TIP3    H1 7725   0.961   1.310   1.678
 2573TIP3    H2 7726   0.993   1.416   1.783
 2574TIP3   OH2 7727   2.774   2.185   1.593
 2574TIP3    H1 7728   2.689   2.154   1.563
 2574TIP3    H2 7729   2.837   2.138   1.539
 2575TIP3   OH2 7730   1.810   1.959   2.042
 2575TIP3    H1 7731   1.775   1.951   2.131
 2575TIP3    H2 7732   1.744   2.009   1.995
 2576TIP3   OH2 7733   4.445   3.067   2.891
 2576TIP3    H1 7734   4.386   3.031   2.957
 2576TIP3    H2 7735   4.417   3.025   2.809
 2577TIP3   OH2 7736   0.492   0.793   2.497
 2577TIP3    H1 7737   0.549   0.795   2.574
 2577TIP3    H2 7738   0.521   0.715   2.448
 2578TIP3   OH2 7739   0.651   2.224   5.182
 2578TIP3    H1 7740   0.653   2.132   5.209
 2578TIP3    H2 7741   0.656   2.221   5.086
 2579TIP3   OH2 7742   6.198   1.121   1.433
 2579TIP3    H1 7743   6.292   1.108   1.428
 2579TIP3    H2 7744   6.161   1.055   1.375
 2580TIP3   OH2 7745   1.226   5.634   0.677
 2580TIP3    H1 7746   1.300   5.661   0.731
 2580TIP3    H2 7747   1.191   5.716   0.642
 2581TIP3   OH2 7748   3.318   1.167   1.312
 2581TIP3    H1 7749   3.403   1.201   1.341
 2581TIP3    H2 7750   3.298   1.216   1.232
 2582TIP3   OH2 7751   1.889   3.285   2.612
 2582TIP3    H1 7752   1.903   3.352   2.546
 2582TIP3    H2 7753   1.934   3.208   2.579
 2583TIP3   OH2 7754   1.342   3.436   4.511
 2583TIP3    H1 7755   1.354   3.347   4.544
 2583TIP3    H2 7756   1.322   3.488   4.589
 2584TIP3   OH2 7757   0.443   4.554   1.145
 2584TIP3    H1 7758   0.376   4.535   1.079
 2584TIP3    H2 7759   0.445   4.650   1.150
 2585TIP3   OH2 7760   3.273   1.850   2.802
 2585TIP3    H1 7761   3.206   1.799   2.756
 2585TIP3    H2 7762   3.323   1.784   2.851
 2586TIP3   OH2 7763   5.513   4.230   0.780
 2586TIP3    H1 7764   5.554   4.316   0.782
 2586TIP3    H2 7765   5.465   4.228   0.697
 2587TIP3   OH2 7766   6.133   2.749   0.084
 2587TIP3    H1 7767   6.087   2.688   0.142
 2587TIP3    H2 7768   6.108   2.836   0.116
 2588TIP3   OH2 7769   4.787   0.735   0.160
 2588TIP3    H1 7770   4.825   0.822   0.171
 2588TIP3    H2 7771   4.847   0.677   0.206
 2589TIP3   OH2 7772   2.037   2.621   0.361
 2589TIP3    H1 7773   2.103   2.552   0.366
 2589TIP3    H2 7774   2.041   2.653   0.271
 2590TIP3   OH2 7775   3.265   2.550   0.003
 2590TIP3    H1 7776   3.241   2.477   0.059
 2590TIP3    H2 7777   3.186   2.603  -0.003
 2591TIP3   OH2 7778   0.152   0.777   4.567
 2591TIP3    H1 7779   0.149   0.698   4.513
 2591TIP3    H2 7780   0.243   0.805   4.563
 2592TIP3   OH2 7781   5.088   1.400   3.719
 2592TIP3    H1 7782   5.057   1.340   3.787
 2592TIP3    H2 7783   5.095   1.345   3.640
 2593TIP3   OH2 7784   5.580   2.228   1.351
 2593TIP3    H1 7785   5.671   2.246   1.374
 2593TIP3    H2 7786   5.558   2.296   1.286
 2594TIP3   OH2 7787   1.706   3.087   4.077
 2594TIP3    H1 7788   1.645   3.043   4.136
 2594TIP3    H2 7789   1.680   3.059   3.989
 2595TIP3   OH2 7790   0.899   0.705   2.131
 2595TIP3    H1 7791   0.930   0.774   2.073
 2595TIP3    H2 7792   0.805   0.701   2.116
 2596TIP3   OH2 7793   3.926   4.850   4.708
 2596TIP3    H1 7794   3.893   4.801   4.783
 2596TIP3    H2 7795   3.928   4.941   4.739
 2597TIP3   OH2 7796   4.234   2.576   2.345
 2597TIP3    H1 7797   4.270   2.664   2.332
 2597TIP3    H2 7798   4.148   2.591   2.385
 2598TIP3   OH2 7799   1.258   1.465   5.004
 2598TIP3    H1 7800   1.234   1.447   5.095
 2598TIP3    H2 7801   1.175   1.481   4.959
 2599TIP3   OH2 7802   5.975   5.018   2.632
 2599TIP3    H1 7803   6.058   5.041   2.591
 2599TIP3    H2 7804   5.960   5.087   2.697
 2600TIP3   OH2 7805   3.694   5.651   2.454
 2600TIP3    H1 7806   3.756   5.629   2.385
 2600TIP3    H2 7807   3.614   5.675   2.407
 2601TIP3   OH2 7808   1.795   2.966   3.011
 2601TIP3    H1 7809   1.734   2.923   2.952
 2601TIP3    H2 7810   1.813   3.051   2.970
 2602TIP3   OH2 7811   1.100   0.602   3.616
 2602TIP3    H1 7812   1.090   0.610   3.521
 2602TIP3    H2 7813   1.068   0.685   3.651
 2603TIP3   OH2 7814   4.406   0.828   4.173
 2603TIP3    H1 7815   4.394   0.795   4.084
 2603TIP3    H2 7816   4.325   0.877   4.190
 2604TIP3   OH2 7817   0.733   3.237   4.180
 2604TIP3    H1 7818   0.740   3.185   4.099
 2604TIP3    H2 7819   0.745   3.173   4.250
 2605TIP3   OH2 7820   0.736   4.243   5.022
 2605TIP3    H1 7821   0.773   4.184   4.956
 2605TIP3    H2 7822   0.654   4.274   4.983
 2606TIP3   OH2 7823   3.897   1.132   3.608
 2606TIP3    H1 7824   3.814   1.168   3.638
 2606TIP3    H2 7825   3.894   1.141   3.513
 2607TIP3   OH2 7826   5.286   2.911   4.573
 2607TIP3    H1 7827   5.213   2.934   4.515
 2607TIP3    H2 7828   5.324   2.995   4.598
 2608TIP3   OH2 7829   1.768   5.027   2.815
 2608TIP3    H1 7830   1.729   5.002   2.731
 2608TIP3    H2 7831   1.715   5.101   2.845
 2609TIP3   OH2 7832   2.375   2.806   1.712
 2609TIP3    H1 7833   2.294   2.855   1.728
 2609TIP3    H2 7834   2.424   2.813   1.793
 2610TIP3   OH2 7835   6.194   4.929   1.362
 2610TIP3    H1 7836   6.158   5.017   1.348
 2610TIP3    H2 7837   6.119   4.878   1.392
 2611TIP3   OH2 7838   2.525   5.224   0.183
 2611TIP3    H1 7839   2.600   5.207   0.126
 2611TIP3    H2 7840   2.528   5.318   0.199
 2612TIP3   OH2 7841   3.911   3.714   0.841
 2612TIP3    H1 7842   3.880   3.801   0.866
 2612TIP3    H2 7843   3.832   3.660   0.842
 2613TIP3   OH2 7844   4.601   5.012   1.345
 2613TIP3    H1 7845   4.675   4.962   1.377
 2613TIP3    H2 7846   4.629   5.043   1.259
 2614TIP3   OH2 7847   2.076   0.928   0.586
 2614TIP3    H1 7848   2.051   0.933   0.678
 2614TIP3    H2 7849   2.000   0.961   0.538
 2615TIP3   OH2 7850   5.626   4.988   1.587
 2615TIP3    H1 7851   5.671   5.039   1.519
 2615TIP3    H2 7852   5.664   5.020   1.669
 2616TIP3   OH2 7853   5.136   3.730   2.078
 2616TIP3    H1 7854   5.125   3.732   2.173
 2616TIP3    H2 7855   5.171   3.817   2.056
 2617TIP3   OH2 7856   3.063   5.062   5.101
 2617TIP3    H1 7857   2.975   5.041   5.070
 2617TIP3    H2 7858   3.121   5.034   5.030
 2618TIP3   OH2 7859   4.113   5.183   2.045
 2618TIP3    H1 7860   4.155   5.147   2.123
 2618TIP3    H2 7861   4.185   5.220   1.994
 2619TIP3   OH2 7862   5.236   3.682   0.253
 2619TIP3    H1 7863   5.178   3.756   0.238
 2619TIP3    H2 7864   5.223   3.625   0.178
 2620TIP3   OH2 7865   5.100   0.250   4.631
 2620TIP3    H1 7866   5.011   0.214   4.630
 2620TIP3    H2 7867   5.121   0.259   4.724
 2621TIP3   OH2 7868   5.552   1.645   4.093
 2621TIP3    H1 7869   5.458   1.629   4.078
 2621TIP3    H2 7870   5.567   1.734   4.060
 2622TIP3   OH2 7871   1.810   2.329   1.591
 2622TIP3    H1 7872   1.730   2.326   1.539
 2622TIP3    H2 7873   1.795   2.399   1.654
 2623TIP3   OH2 7874   4.566   2.913   1.404
 2623TIP3    H1 7875   4.545   2.997   1.445
 2623TIP3    H2 7876   4.646   2.885   1.449
 2624TIP3   OH2 7877   2.013   3.691   0.179
 2624TIP3    H1 7878   2.076   3.639   0.228
 2624TIP3    H2 7879   2.064   3.730   0.108
 2625TIP3   OH2 7880   5.580   0.801   1.419
 2625TIP3    H1 7881   5.495   0.836   1.445
 2625TIP3    H2 7882   5.602   0.848   1.339
 2626TIP3   OH2 7883   2.076   0.989   3.588
 2626TIP3    H1 7884   2.122   1.072   3.577
 2626TIP3    H2 7885   2.116   0.949   3.664
 2627TIP3   OH2 7886   0.520   4.590   2.421
 2627TIP3    H1 7887   0.489   4.639   2.345
 2627TIP3    H2 7888   0.506   4.649   2.495
 2628TIP3   OH2 7889   0.044   5.109   0.056
 2628TIP3    H1 7890   0.066   5.068   0.140
 2628TIP3    H2 7891  -0.045   5.078   0.037
 2629TIP3   OH2 7892   0.179   3.918   0.894
 2629TIP3    H1 7893   0.197   3.998   0.844
 2629TIP3    H2 7894   0.265   3.893   0.928
 2630TIP3   OH2 7895   2.910   5.768   5.175
 2630TIP3    H1 7896   2.964   5.822   5.117
 2630TIP3    H2 7897   2.972   5.707   5.215
 2631TIP3   OH2 7898   4.888   4.471   3.255
 2631TIP3    H1 7899   4.839   4.426   3.187
 2631TIP3    H2 7900   4.865   4.426   3.336
 2632TIP3   OH2 7901   5.370   4.985   4.704
 2632TIP3    H1 7902   5.408   4.898   4.691
 2632TIP3    H2 7903   5.278   4.975   4.682
 2633TIP3   OH2 7904   2.765   0.383   2.693
 2633TIP3    H1 7905   2.779   0.289   2.685
 2633TIP3    H2 7906   2.804   0.420   2.614
 2634TIP3   OH2 7907   4.558   4.540   2.512
 2634TIP3    H1 7908   4.580   4.517   2.602
 2634TIP3    H2 7909   4.595   4.469   2.459
 2635TIP3   OH2 7910   1.037   3.830   1.648
 2635TIP3    H1 7911   1.012   3.790   1.565
 2635TIP3    H2 7912   1.108   3.890   1.625
 2636TIP3   OH2 7913   3.465   0.991   0.328
 2636TIP3    H1 7914   3.527   0.933   0.373
 2636TIP3    H2 7915   3.511   1.075   0.323
 2637TIP3   OH2 7916   0.191   4.071   0.206
 2637TIP3    H1 7917   0.113   4.125   0.202
 2637TIP3    H2 7918   0.194   4.038   0.296
 2638TIP3   OH2 7919   0.287   2.827   3.274
 2638TIP3    H1 7920   0.346   2.816   3.349
 2638TIP3    H2 7921   0.269   2.737   3.245
 2639TIP3   OH2 7922   2.515   4.217   3.365
 2639TIP3    H1 7923   2.599   4.242   3.327
 2639TIP3    H2 7924   2.457   4.205   3.289
 2640TIP3   OH2 7925   5.583   5.492   2.745
 2640TIP3    H1 7926   5.628   5.451   2.672
 2640TIP3    H2 7927   5.556   5.419   2.801
 2641TIP3   OH2 7928   0.895   0.851   0.506
 2641TIP3    H1 7929   0.850   0.814   0.582
 2641TIP3    H2 7930   0.876   0.945   0.510
 2642TIP3   OH2 7931   5.807   1.619   1.432
 2642TIP3    H1 7932   5.753   1.645   1.358
 2642TIP3    H2 7933   5.870   1.557   1.395
 2643TIP3   OH2 7934   3.270   2.458   4.809
 2643TIP3    H1 7935   3.332   2.514   4.762
 2643TIP3    H2 7936   3.239   2.512   4.882
 2644TIP3   OH2 7937   0.147   0.453   0.377
 2644TIP3    H1 7938   0.227   0.501   0.401
 2644TIP3    H2 7939   0.139   0.465   0.283
 2645TIP3   OH2 7940   5.365   1.182   2.871
 2645TIP3    H1 7941   5.408   1.144   2.794
 2645TIP3    H2 7942   5.406   1.267   2.882
 2646TIP3   OH2 7943   5.493   1.035   3.137
 2646TIP3    H1 7944   5.436   1.062   3.065
 2646TIP3    H2 7945   5.460   0.949   3.163
 2647TIP3   OH2 7946   1.618   5.392   2.238
 2647TIP3    H1 7947   1.589   5.430   2.155
 2647TIP3    H2 7948   1.559   5.430   2.303
 2648TIP3   OH2 7949   0.967   2.383   0.674
 2648TIP3    H1 7950   0.992   2.464   0.631
 2648TIP3    H2 7951   0.942   2.324   0.603
 2649TIP3   OH2 7952   3.773   5.411   0.421
 2649TIP3    H1 7953   3.756   5.337   0.362
 2649TIP3    H2 7954   3.868   5.422   0.419
 2650TIP3   OH2 7955   3.201   0.583   2.088
 2650TIP3    H1 7956   3.192   0.666   2.135
 2650TIP3    H2 7957   3.130   0.584   2.024
 2651TIP3   OH2 7958   4.789   4.864   1.852
 2651TIP3    H1 7959   4.774   4.798   1.785
 2651TIP3    H2 7960   4.884   4.869   1.860
 2652TIP3   OH2 7961   6.104   2.758   3.707
 2652TIP3    H1 7962   6.122   2.750   3.613
 2652TIP3    H2 7963   6.011   2.739   3.716
 2653TIP3   OH2 7964   1.361   1.357   4.255
 2653TIP3    H1 7965   1.299   1.347   4.327
 2653TIP3    H2 7966   1.332   1.293   4.190
 2654TIP3   OH2 7967   2.521   5.672   1.224
 2654TIP3    H1 7968   2.597   5.698   1.276
 2654TIP3    H2 7969   2.446   5.696   1.277
 2655TIP3   OH2 7970   5.133   4.592   3.262
 2655TIP3    H1 7971   5.065   4.528   3.280
 2655TIP3    H2 7972   5.121   4.616   3.170
 2656TIP3   OH2 7973   5.765   2.129   3.400
 2656TIP3    H1 7974   5.673   2.156   3.407
 2656TIP3    H2 7975   5.796   2.128   3.490
 2657TIP3   OH2 7976   2.860   2.971   1.437
 2657TIP3    H1 7977   2.816   2.905   1.383
 2657TIP3    H2 7978   2.872   2.929   1.521
 2658TIP3   OH2 7979   1.917   2.845   4.126
 2658TIP3    H1 7980   1.859   2.769   4.137
 2658TIP3    H2 7981   1.861   2.910   4.082
 2659TIP3   OH2 7982   5.473   2.104   3.368
 2659TIP3    H1 7983   5.487   2.033   3.305
 2659TIP3    H2 7984   5.425   2.170   3.319
 2660TIP3   OH2 7985   0.850   2.602   2.994
 2660TIP3    H1 7986   0.907   2.648   3.056
 2660TIP3    H2 7987   0.876   2.510   3.002
 2661TIP3   OH2 7988   1.431   4.401   0.184
 2661TIP3    H1 7989   1.505   4.344   0.206
 2661TIP3    H2 7990   1.457   4.443   0.102
 2662TIP3   OH2 7991   6.268   4.539   2.659
 2662TIP3    H1 7992   6.204   4.601   2.623
 2662TIP3    H2 7993   6.269   4.558   2.753
 2663TIP3   OH2 7994   0.484   3.726   3.675
 2663TIP3    H1 7995   0.510   3.782   3.748
 2663TIP3    H2 7996   0.486   3.784   3.598
 2664TIP3   OH2 7997   4.626   3.949   4.464
 2664TIP3    H1 7998   4.649   4.030   4.418
 2664TIP3    H2 7999   4.538   3.966   4.499
 2665TIP3   OH2 8000   0.283   0.321   2.111
 2665TIP3    H1 8001   0.273   0.234   2.151
 2665TIP3    H2 8002   0.362   0.313   2.057
 2666TIP3   OH2 8003   3.430   2.585   1.781
 2666TIP3    H1 8004   3.486   2.541   1.717
 2666TIP3    H2 8005   3.342   2.577   1.746
 2667TIP3   OH2 8006   6.165   0.469   3.385
 2667TIP3    H1 8007   6.210   0.554   3.381
 2667TIP3    H2 8008   6.236   0.406   3.399
 2668TIP3   OH2 8009   1.861   3.007   0.711
 2668TIP3    H1 8010   1.891   2.916   0.716
 2668TIP3    H2 8011   1.767   3.000   0.695
 2669TIP3   OH2 8012   4.661   5.563   3.568
 2669TIP3    H1 8013   4.727   5.508   3.526
 2669TIP3    H2 8014   4.694   5.653   3.558
 2670TIP3   OH2 8015   5.146   1.901   1.796
 2670TIP3    H1 8016   5.171   1.990   1.772
 2670TIP3    H2 8017   5.227   1.861   1.827
 2671TIP3   OH2 8018   4.602   0.111   0.173
 2671TIP3    H1 8019   4.523   0.109   0.119
 2671TIP3    H2 8020   4.593   0.034   0.230
 2672TIP3   OH2 8021   5.721   4.992   4.987
 2672TIP3    H1 8022   5.732   4.900   4.965
 2672TIP3    H2 8023   5.713   5.036   4.903
 2673TIP3   OH2 8024   1.068   5.883   0.710
 2673TIP3    H1 8025   1.108   5.914   0.628
 2673TIP3    H2 8026   1.129   5.909   0.778
 2674TIP3   OH2 8027   3.847   1.815   0.561
 2674TIP3    H1 8028   3.917   1.761   0.598
 2674TIP3    H2 8029   3.863   1.902   0.597
 2675TIP3   OH2 8030   5.098   2.408   3.520
 2675TIP3    H1 8031   5.116   2.354   3.597
 2675TIP3    H2 8032   5.110   2.498   3.552
 2676TIP3   OH2 8033   1.798   2.414   3.901
 2676TIP3    H1 8034   1.845   2.493   3.874
 2676TIP3    H2 8035   1.739   2.395   3.829
 2677TIP3   OH2 8036   6.222   4.311   1.213
 2677TIP3    H1 8037   6.158   4.374   1.246
 2677TIP3    H2 8038   6.307   4.352   1.229
 2678TIP3   OH2 8039   6.230   0.565   2.746
 2678TIP3    H1 8040   6.195   0.578   2.657
 2678TIP3    H2 8041   6.162   0.601   2.803
 2679TIP3   OH2 8042   1.479   4.864   3.651
 2679TIP3    H1 8043   1.508   4.891   3.738
 2679TIP3    H2 8044   1.389   4.895   3.645
 2680TIP3   OH2 8045   6.139   4.156   4.712
 2680TIP3    H1 8046   6.139   4.251   4.698
 2680TIP3    H2 8047   6.056   4.138   4.756
 2681TIP3   OH2 8048   6.137   3.576   4.780
 2681TIP3    H1 8049   6.172   3.525   4.706
 2681TIP3    H2 8050   6.139   3.514   4.854
 2682TIP3   OH2 8051   6.322   1.350   3.276
 2682TIP3    H1 8052   6.317   1.275   3.335
 2682TIP3    H2 8053   6.393   1.329   3.215
 2683TIP3   OH2 8054   1.853   3.197   3.198
 2683TIP3    H1 8055   1.777   3.255   3.193
 2683TIP3    H2 8056   1.898   3.210   3.115
 2684TIP3   OH2 8057   3.493   4.679   4.159
 2684TIP3    H1 8058   3.567   4.737   4.179
 2684TIP3    H2 8059   3.520   4.633   4.079
 2685TIP3   OH2 8060   3.471   4.420   0.430
 2685TIP3    H1 8061   3.457   4.479   0.357
 2685TIP3    H2 8062   3.384   4.408   0.468
 2686TIP3   OH2 8063   0.529   0.533   0.841
 2686TIP3    H1 8064   0.494   0.445   0.859
 2686TIP3    H2 8065   0.589   0.520   0.767
 2687TIP3   OH2 8066   0.088   4.675   2.375
 2687TIP3    H1 8067   0.122   4.609   2.436
 2687TIP3    H2 8068   0.150   4.675   2.302
 2688TIP3   OH2 8069   2.579   5.858   1.515
 2688TIP3    H1 8070   2.485   5.873   1.528
 2688TIP3    H2 8071   2.596   5.776   1.561
 2689TIP3   OH2 8072   5.838   3.906   0.501
 2689TIP3    H1 8073   5.828   3.963   0.425
 2689TIP3    H2 8074   5.756   3.917   0.549
 2690TIP3   OH2 8075   3.373   4.672   4.572
 2690TIP3    H1 8076   3.326   4.726   4.634
 2690TIP3    H2 8077   3.463   4.705   4.573
 2691TIP3   OH2 8078   2.885   2.661   0.853
 2691TIP3    H1 8079   2.800   2.679   0.893
 2691TIP3    H2 8080   2.938   2.627   0.925
 2692TIP3   OH2 8081   2.453   5.462   0.318
 2692TIP3    H1 8082   2.456   5.500   0.406
 2692TIP3    H2 8083   2.475   5.535   0.260
 2693TIP3   OH2 8084   0.113   4.413   2.485
 2693TIP3    H1 8085   0.036   4.442   2.534
 2693TIP3    H2 8086   0.077   4.357   2.417
 2694TIP3   OH2 8087   3.442   3.365   4.817
 2694TIP3    H1 8088   3.371   3.302   4.829
 2694TIP3    H2 8089   3.463   3.360   4.724
 2695TIP3   OH2 8090   3.235   4.075   3.616
 2695TIP3    H1 8091   3.170   4.105   3.680
 2695TIP3    H2 8092   3.286   4.009   3.663
 2696TIP3   OH2 8093   5.417   3.371   4.273
 2696TIP3    H1 8094   5.488   3.428   4.304
 2696TIP3    H2 8095   5.358   3.364   4.348
 2697TIP3   OH2 8096   3.600   1.245   0.632
 2697TIP3    H1 8097   3.693   1.233   0.614
 2697TIP3    H2 8098   3.598   1.296   0.714
 2698TIP3   OH2 8099   4.843   4.355   4.818
 2698TIP3    H1 8100   4.903   4.427   4.796
 2698TIP3    H2 8101   4.899   4.291   4.863
 2699TIP3   OH2 8102   0.551   5.725   3.481
 2699TIP3    H1 8103   0.509   5.664   3.421
 2699TIP3    H2 8104   0.638   5.687   3.498
 2700TIP3   OH2 8105   2.509   3.517   1.689
 2700TIP3    H1 8106   2.429   3.553   1.651
 2700TIP3    H2 8107   2.517   3.560   1.775
 2701TIP3   OH2 8108   0.245   3.499   4.619
 2701TIP3    H1 8109   0.317   3.444   4.589
 2701TIP3    H2 8110   0.287   3.580   4.648
 2702TIP3   OH2 8111   6.182   3.161   0.331
 2702TIP3    H1 8112   6.200   3.067   0.342
 2702TIP3    H2 8113   6.201   3.200   0.416
 2703TIP3   OH2 8114   4.706   0.689   2.701
 2703TIP3    H1 8115   4.649   0.683   2.778
 2703TIP3    H2 8116   4.726   0.598   2.680
 2704TIP3   OH2 8117   1.835   5.875   0.836
 2704TIP3    H1 8118   1.793   5.956   0.808
 2704TIP3    H2 8119   1.806   5.863   0.926
 2705TIP3   OH2 8120   1.454   4.335   4.179
 2705TIP3    H1 8121   1.454   4.243   4.156
 2705TIP3    H2 8122   1.410   4.379   4.106
 2706TIP3   OH2 8123   2.922   2.499   0.627
 2706TIP3    H1 8124   3.011   2.465   0.633
 2706TIP3    H2 8125   2.915   2.559   0.702
 2707TIP3   OH2 8126   2.357   5.275   1.024
 2707TIP3    H1 8127   2.338   5.317   1.108
 2707TIP3    H2 8128   2.271   5.248   0.991
 2708TIP3   OH2 8129   3.873   3.511   1.128
 2708TIP3    H1 8130   3.795   3.530   1.076
 2708TIP3    H2 8131   3.937   3.478   1.065
 2709TIP3   OH2 8132   3.598   1.371   4.021
 2709TIP3    H1 8133   3.624   1.445   4.076
 2709TIP3    H2 8134   3.524   1.405   3.970
 2710TIP3   OH2 8135   4.335   3.309   3.699
 2710TIP3    H1 8136   4.276   3.237   3.722
 2710TIP3    H2 8137   4.302   3.384   3.750
 2711TIP3   OH2 8138   3.705   0.043   3.479
 2711TIP3    H1 8139   3.677   0.135   3.486
 2711TIP3    H2 8140   3.798   0.045   3.501
 2712TIP3   OH2 8141   2.176   3.653   3.316
 2712TIP3    H1 8142   2.239   3.588   3.347
 2712TIP3    H2 8143   2.106   3.653   3.380
 2713TIP3   OH2 8144   2.764   1.419   1.473
 2713TIP3    H1 8145   2.677   1.444   1.440
 2713TIP3    H2 8146   2.762   1.323   1.474
 2714TIP3   OH2 8147   1.333   4.114   3.565
 2714TIP3    H1 8148   1.349   4.049   3.634
 2714TIP3    H2 8149   1.369   4.195   3.599
 2715TIP3   OH2 8150   5.482   1.267   2.402
 2715TIP3    H1 8151   5.496   1.360   2.420
 2715TIP3    H2 8152   5.475   1.227   2.489
 2716TIP3   OH2 8153   5.628   5.902   2.721
 2716TIP3    H1 8154   5.674   5.934   2.643
 2716TIP3    H2 8155   5.554   5.963   2.730
 2717TIP3   OH2 8156   1.185   5.504   4.374
 2717TIP3    H1 8157   1.179   5.482   4.467
 2717TIP3    H2 8158   1.109   5.561   4.358
 2718TIP3   OH2 8159   0.135   3.357   1.281
 2718TIP3    H1 8160   0.084   3.353   1.200
 2718TIP3    H2 8161   0.223   3.382   1.252
 2719TIP3   OH2 8162   2.715   1.506   2.112
 2719TIP3    H1 8163   2.697   1.462   2.029
 2719TIP3    H2 8164   2.629   1.531   2.146
 2720TIP3   OH2 8165   4.488   1.545   2.757
 2720TIP3    H1 8166   4.480   1.472   2.818
 2720TIP3    H2 8167   4.568   1.590   2.784
 2721TIP3   OH2 8168   4.106   1.750   0.649
 2721TIP3    H1 8169   4.182   1.795   0.613
 2721TIP3    H2 8170   4.121   1.751   0.744
 2722TIP3   OH2 8171   4.978   0.909   3.223
 2722TIP3    H1 8172   5.047   0.872   3.167
 2722TIP3    H2 8173   4.920   0.955   3.162
 2723TIP3   OH2 8174   4.087   1.757   4.743
 2723TIP3    H1 8175   4.064   1.817   4.673
 2723TIP3    H2 8176   4.094   1.671   4.701
 2724TIP3   OH2 8177   4.418   2.714   4.123
 2724TIP3    H1 8178   4.499   2.692   4.169
 2724TIP3    H2 8179   4.391   2.798   4.160
 2725TIP3   OH2 8180   6.186   4.073   3.650
 2725TIP3    H1 8181   6.219   4.071   3.740
 2725TIP3    H2 8182   6.247   4.017   3.602
 2726TIP3   OH2 8183   3.322   2.018   3.116
 2726TIP3    H1 8184   3.257   2.075   3.075
 2726TIP3    H2 8185   3.390   2.079   3.148
 2727TIP3   OH2 8186   5.910   0.497   4.528
 2727TIP3    H1 8187   5.883   0.405   4.537
 2727TIP3    H2 8188   5.980   0.494   4.463
 2728TIP3   OH2 8189   4.621   5.538   1.879
 2728TIP3    H1 8190   4.528   5.561   1.883
 2728TIP3    H2 8191   4.631   5.492   1.795
 2729TIP3   OH2 8192   0.261   0.794   2.343
 2729TIP3    H1 8193   0.343   0.800   2.392
 2729TIP3    H2 8194   0.249   0.701   2.325
 2730TIP3   OH2 8195   5.379   0.921   4.392
 2730TIP3    H1 8196   5.296   0.892   4.356
 2730TIP3    H2 8197   5.369   1.016   4.402
 2731TIP3   OH2 8198   1.033   2.948   2.872
 2731TIP3    H1 8199   0.956   2.955   2.928
 2731TIP3    H2 8200   0.999   2.962   2.783
 2732TIP3   OH2 8201   3.268   1.869   4.152
 2732TIP3    H1 8202   3.236   1.934   4.089
 2732TIP3    H2 8203   3.297   1.795   4.099
 2733TIP3   OH2 8204   5.205   1.461   1.253
 2733TIP3    H1 8205   5.280   1.517   1.234
 2733TIP3    H2 8206   5.228   1.376   1.217
 2734TIP3   OH2 8207   5.975   0.557   4.244
 2734TIP3    H1 8208   5.973   0.621   4.172
 2734TIP3    H2 8209   6.068   0.543   4.260
 2735TIP3   OH2 8210   6.095   2.249   2.367
 2735TIP3    H1 8211   6.177   2.220   2.406
 2735TIP3    H2 8212   6.052   2.299   2.436
 2736TIP3   OH2 8213   5.135   3.819   3.100
 2736TIP3    H1 8214   5.193   3.888   3.132
 2736TIP3    H2 8215   5.127   3.758   3.173
 2737TIP3   OH2 8216   2.079   0.452   4.546
 2737TIP3    H1 8217   2.098   0.542   4.573
 2737TIP3    H2 8218   2.157   0.403   4.571
 2738TIP3   OH2 8219   5.392   2.451   1.904
 2738TIP3    H1 8220   5.400   2.360   1.876
 2738TIP3    H2 8221   5.476   2.491   1.883
 2739TIP3   OH2 8222   4.185   4.478   1.140
 2739TIP3    H1 8223   4.195   4.560   1.189
 2739TIP3    H2 8224   4.105   4.439   1.174
 2740TIP3   OH2 8225   5.642   0.262   2.302
 2740TIP3    H1 8226   5.710   0.200   2.328
 2740TIP3    H2 8227   5.614   0.304   2.383
 2741TIP3   OH2 8228   2.036   1.590   4.456
 2741TIP3    H1 8229   1.979   1.566   4.530
 2741TIP3    H2 8230   2.103   1.521   4.455
 2742TIP3   OH2 8231   5.951   0.941   4.970
 2742TIP3    H1 8232   5.937   1.028   5.007
 2742TIP3    H2 8233   5.927   0.881   5.041
 2743TIP3   OH2 8234   5.396   5.903   4.677
 2743TIP3    H1 8235   5.333   5.886   4.747
 2743TIP3    H2 8236   5.388   5.827   4.619
 2744TIP3   OH2 8237   3.148   3.400   0.150
 2744TIP3    H1 8238   3.072   3.399   0.093
 2744TIP3    H2 8239   3.113   3.393   0.239
 2745TIP3   OH2 8240   5.335   1.218   0.675
 2745TIP3    H1 8241   5.361   1.241   0.586
 2745TIP3    H2 8242   5.249   1.178   0.665
 2746TIP3   OH2 8243   6.154   2.405   0.099
 2746TIP3    H1 8244   6.105   2.487   0.104
 2746TIP3    H2 8245   6.231   2.421   0.154
 2747TIP3   OH2 8246   5.158   3.516   0.046
 2747TIP3    H1 8247   5.153   3.426   0.014
 2747TIP3    H2 8248   5.167   3.569  -0.033
 2748TIP3   OH2 8249   2.760   4.968   3.346
 2748TIP3    H1 8250   2.834   5.029   3.345
 2748TIP3    H2 8251   2.758   4.935   3.436
 2749TIP3   OH2 8252   3.460   5.788   2.838
 2749TIP3    H1 8253   3.515   5.822   2.767
 2749TIP3    H2 8254   3.517   5.728   2.886
 2750TIP3   OH2 8255   3.913   4.408   0.090
 2750TIP3    H1 8256   3.998   4.448   0.075
 2750TIP3    H2 8257   3.911   4.391   0.184
 2751TIP3   OH2 8258   0.582   4.946   0.447
 2751TIP3    H1 8259   0.581   4.991   0.531
 2751TIP3    H2 8260   0.626   4.863   0.465
 2752TIP3   OH2 8261   3.538   3.140   5.155
 2752TIP3    H1 8262   3.585   3.071   5.201
 2752TIP3    H2 8263   3.575   3.221   5.188
 2753TIP3   OH2 8264   1.873   4.159   3.122
 2753TIP3    H1 8265   1.834   4.194   3.202
 2753TIP3    H2 8266   1.805   4.166   3.056
 2754TIP3   OH2 8267   3.957   0.544   0.209
 2754TIP3    H1 8268   3.914   0.491   0.141
 2754TIP3    H2 8269   4.049   0.519   0.204
 2755TIP3   OH2 8270   0.638   0.636   0.443
 2755TIP3    H1 8271   0.658   0.688   0.365
 2755TIP3    H2 8272   0.723   0.605   0.473
 2756TIP3   OH2 8273   5.597   4.649   5.087
 2756TIP3    H1 8274   5.618   4.710   5.157
 2756TIP3    H2 8275   5.653   4.676   5.014
 2757TIP3   OH2 8276   0.909   5.912   1.668
 2757TIP3    H1 8277   0.910   5.816   1.665
 2757TIP3    H2 8278   0.996   5.937   1.700
 2758TIP3   OH2 8279   3.995   1.718   3.493
 2758TIP3    H1 8280   4.029   1.674   3.414
 2758TIP3    H2 8281   3.903   1.735   3.473
 2759TIP3   OH2 8282   5.759   2.193   1.020
 2759TIP3    H1 8283   5.780   2.216   0.930
 2759TIP3    H2 8284   5.778   2.272   1.070
 2760TIP3   OH2 8285   0.423   5.883   4.560
 2760TIP3    H1 8286   0.480   5.892   4.483
 2760TIP3    H2 8287   0.418   5.972   4.595
 2761TIP3   OH2 8288   4.251   4.860   3.094
 2761TIP3    H1 8289   4.182   4.926   3.088
 2761TIP3    H2 8290   4.305   4.890   3.168
 2762TIP3   OH2 8291   5.950   2.796   2.186
 2762TIP3    H1 8292   5.941   2.868   2.247
 2762TIP3    H2 8293   6.040   2.765   2.198
 2763TIP3   OH2 8294   2.759   0.127   4.580
 2763TIP3    H1 8295   2.688   0.181   4.546
 2763TIP3    H2 8296   2.787   0.074   4.505
 2764TIP3   OH2 8297   2.532   0.069   1.935
 2764TIP3    H1 8298   2.595   0.093   1.867
 2764TIP3    H2 8299   2.457   0.034   1.887
 2765TIP3   OH2 8300   5.214   1.748   0.376
 2765TIP3    H1 8301   5.157   1.671   0.384
 2765TIP3    H2 8302   5.227   1.758   0.282
 2766TIP3   OH2 8303   2.197   3.942   1.973
 2766TIP3    H1 8304   2.122   3.898   1.933
 2766TIP3    H2 8305   2.197   3.912   2.064
 2767TIP3   OH2 8306   3.769   0.366   1.040
 2767TIP3    H1 8307   3.790   0.459   1.044
 2767TIP3    H2 8308   3.854   0.323   1.035
 2768TIP3   OH2 8309   1.961   2.569   1.055
 2768TIP3    H1 8310   2.021   2.638   1.027
 2768TIP3    H2 8311   1.963   2.505   0.984
 2769TIP3   OH2 8312   5.672   1.512   3.153
 2769TIP3    H1 8313   5.614   1.544   3.084
 2769TIP3    H2 8314   5.626   1.438   3.191
 2770TIP3   OH2 8315   0.946   4.481   3.533
 2770TIP3    H1 8316   0.982   4.554   3.584
 2770TIP3    H2 8317   0.910   4.422   3.599
 2771TIP3   OH2 8318   4.710   2.564   1.065
 2771TIP3    H1 8319   4.684   2.646   1.024
 2771TIP3    H2 8320   4.628   2.523   1.093
 2772TIP3   OH2 8321   3.316   1.254   4.877
 2772TIP3    H1 8322   3.231   1.297   4.867
 2772TIP3    H2 8323   3.303   1.165   4.845
 2773TIP3   OH2 8324   4.780   1.264   4.041
 2773TIP3    H1 8325   4.730   1.215   3.975
 2773TIP3    H2 8326   4.785   1.205   4.116
 2774TIP3   OH2 8327   4.855   4.446   1.212
 2774TIP3    H1 8328   4.936   4.480   1.174
 2774TIP3    H2 8329   4.883   4.369   1.262
 2775TIP3   OH2 8330   6.312   2.758   0.615
 2775TIP3    H1 8331   6.296   2.727   0.525
 2775TIP3    H2 8332   6.254   2.704   0.669
 2776TIP3   OH2 8333   0.309   5.400   5.060
 2776TIP3    H1 8334   0.352   5.327   5.104
 2776TIP3    H2 8335   0.371   5.473   5.068
 2777TIP3   OH2 8336   5.887   2.322   0.304
 2777TIP3    H1 8337   5.904   2.383   0.233
 2777TIP3    H2 8338   5.956   2.256   0.296
 2778TIP3   OH2 8339   2.801   5.432   0.146
 2778TIP3    H1 8340   2.707   5.451   0.136
 2778TIP3    H2 8341   2.813   5.350   0.098
 2779TIP3   OH2 8342   0.447   4.869   0.213
 2779TIP3    H1 8343   0.486   4.947   0.251
 2779TIP3    H2 8344   0.437   4.808   0.286
 2780TIP3   OH2 8345   4.731   3.524   1.620
 2780TIP3    H1 8346   4.661   3.584   1.646
 2780TIP3    H2 8347   4.685   3.448   1.585
 2781TIP3   OH2 8348   4.534   2.234   0.457
 2781TIP3    H1 8349   4.480   2.299   0.412
 2781TIP3    H2 8350   4.491   2.223   0.542
 2782TIP3   OH2 8351   2.579   4.239   3.899
 2782TIP3    H1 8352   2.517   4.303   3.935
 2782TIP3    H2 8353   2.665   4.276   3.918
 2783TIP3   OH2 8354   1.052   3.626   0.260
 2783TIP3    H1 8355   1.123   3.562   0.269
 2783TIP3    H2 8356   1.014   3.632   0.348
 2784TIP3   OH2 8357   1.296   0.992   4.938
 2784TIP3    H1 8358   1.344   1.056   4.991
 2784TIP3    H2 8359   1.364   0.945   4.889
 2785TIP3   OH2 8360   3.587   1.207   4.896
 2785TIP3    H1 8361   3.634   1.261   4.832
 2785TIP3    H2 8362   3.495   1.230   4.882
 2786TIP3   OH2 8363   2.238   5.582   1.546
 2786TIP3    H1 8364   2.308   5.643   1.523
 2786TIP3    H2 8365   2.275   5.528   1.616
 2787TIP3   OH2 8366   6.128   2.056   0.579
 2787TIP3    H1 8367   6.088   2.123   0.634
 2787TIP3    H2 8368   6.134   2.097   0.492
 2788TIP3   OH2 8369   0.574   4.748   3.454
 2788TIP3    H1 8370   0.559   4.758   3.548
 2788TIP3    H2 8371   0.497   4.701   3.422
 2789TIP3   OH2 8372   0.133   2.951   2.252
 2789TIP3    H1 8373   0.147   3.012   2.180
 2789TIP3    H2 8374   0.107   2.869   2.209
 2790TIP3   OH2 8375   1.562   1.392   2.009
 2790TIP3    H1 8376   1.589   1.301   2.000
 2790TIP3    H2 8377   1.550   1.405   2.103
 2791TIP3   OH2 8378   6.234   3.408   1.382
 2791TIP3    H1 8379   6.249   3.483   1.440
 2791TIP3    H2 8380   6.308   3.350   1.398
 2792TIP3   OH2 8381   3.919   0.917   4.188
 2792TIP3    H1 8382   3.846   0.884   4.135
 2792TIP3    H2 8383   3.878   0.972   4.254
 2793TIP3   OH2 8384   3.866   4.026   1.498
 2793TIP3    H1 8385   3.892   4.117   1.493
 2793TIP3    H2 8386   3.847   4.011   1.591
 2794TIP3   OH2 8387   1.627   0.863   0.360
 2794TIP3    H1 8388   1.586   0.808   0.294
 2794TIP3    H2 8389   1.554   0.894   0.414
 2795TIP3   OH2 8390   0.125   3.057   2.815
 2795TIP3    H1 8391   0.175   3.008   2.880
 2795TIP3    H2 8392   0.091   2.991   2.755
 2796TIP3   OH2 8393   3.132   4.901   2.253
 2796TIP3    H1 8394   3.197   4.967   2.278
 2796TIP3    H2 8395   3.183   4.821   2.241
 2797TIP3   OH2 8396   5.160   0.413   1.895
 2797TIP3    H1 8397   5.073   0.396   1.931
 2797TIP3    H2 8398   5.159   0.506   1.872
 2798TIP3   OH2 8399   5.193   5.923   4.223
 2798TIP3    H1 8400   5.198   5.906   4.129
 2798TIP3    H2 8401   5.241   6.006   4.235
 2799TIP3   OH2 8402   4.487   4.260   4.298
 2799TIP3    H1 8403   4.424   4.323   4.335
 2799TIP3    H2 8404   4.432   4.192   4.260
 2800TIP3   OH2 8405   2.357   3.807   3.915
 2800TIP3    H1 8406   2.440   3.776   3.952
 2800TIP3    H2 8407   2.376   3.896   3.885
 2801TIP3   OH2 8408   4.719   2.314   4.011
 2801TIP3    H1 8409   4.627   2.290   4.025
 2801TIP3    H2 8410   4.716   2.408   3.991
 2802TIP3   OH2 8411   2.587   1.627   4.074
 2802TIP3    H1 8412   2.647   1.696   4.045
 2802TIP3    H2 8413   2.640   1.573   4.133
 2803TIP3   OH2 8414   3.560   2.222   2.667
 2803TIP3    H1 8415   3.625   2.151   2.669
 2803TIP3    H2 8416   3.601   2.291   2.616
 2804TIP3   OH2 8417   5.861   3.138   4.660
 2804TIP3    H1 8418   5.805   3.193   4.713
 2804TIP3    H2 8419   5.899   3.197   4.595
 2805TIP3   OH2 8420   5.526   3.718   0.509
 2805TIP3    H1 8421   5.473   3.791   0.542
 2805TIP3    H2 8422   5.538   3.661   0.585
 2806TIP3   OH2 8423   5.179   4.713   0.709
 2806TIP3    H1 8424   5.243   4.718   0.780
 2806TIP3    H2 8425   5.231   4.694   0.631
 2807TIP3   OH2 8426   0.207   5.029   3.049
 2807TIP3    H1 8427   0.254   5.067   3.124
 2807TIP3    H2 8428   0.172   5.104   3.002
 2808TIP3   OH2 8429   0.966   2.000   5.085
 2808TIP3    H1 8430   0.881   1.976   5.121
 2808TIP3    H2 8431   1.024   1.929   5.111
 2809TIP3   OH2 8432   0.266   3.209   3.702
 2809TIP3    H1 8433   0.228   3.240   3.620
 2809TIP3    H2 8434   0.245   3.115   3.703
 2810TIP3   OH2 8435   0.066   1.790   3.212
 2810TIP3    H1 8436   0.124   1.817   3.141
 2810TIP3    H2 8437  -0.005   1.744   3.167
 2811TIP3   OH2 8438   4.066   0.234   4.408
 2811TIP3    H1 8439   4.046   0.142   4.392
 2811TIP3    H2 8440   4.117   0.262   4.332
 2812TIP3   OH2 8441   5.092   1.180   2.193
 2812TIP3    H1 8442   5.005   1.140   2.185
 2812TIP3    H2 8443   5.092   1.251   2.129
 2813TIP3   OH2 8444   0.982   2.888   4.393
 2813TIP3    H1 8445   1.064   2.936   4.400
 2813TIP3    H2 8446   0.983   2.851   4.305
 2814TIP3   OH2 8447   5.887   4.334   0.434
 2814TIP3    H1 8448   5.868   4.331   0.528
 2814TIP3    H2 8449   5.857   4.250   0.400
 2815TIP3   OH2 8450   4.813   0.896   0.510
 2815TIP3    H1 8451   4.865   0.932   0.582
 2815TIP3    H2 8452   4.784   0.810   0.541
 2816TIP3   OH2 8453   4.253   4.244   2.458
 2816TIP3    H1 8454   4.296   4.175   2.507
 2816TIP3    H2 8455   4.179   4.271   2.512
 2817TIP3   OH2 8456   4.530   4.235   3.426
 2817TIP3    H1 8457   4.618   4.230   3.388
 2817TIP3    H2 8458   4.471   4.232   3.351
 2818TIP3   OH2 8459   2.463   0.548   2.079
 2818TIP3    H1 8460   2.483   0.609   2.151
 2818TIP3    H2 8461   2.383   0.503   2.107
 2819TIP3   OH2 8462   5.526   3.946   4.977
 2819TIP3    H1 8463   5.514   3.903   5.062
 2819TIP3    H2 8464   5.542   3.874   4.916
 2820TIP3   OH2 8465   2.689   4.957   0.563
 2820TIP3    H1 8466   2.667   4.925   0.475
 2820TIP3    H2 8467   2.667   5.050   0.560
 2821TIP3   OH2 8468   1.004   3.410   0.994
 2821TIP3    H1 8469   1.015   3.490   1.046
 2821TIP3    H2 8470   0.933   3.362   1.038
 2822TIP3   OH2 8471   0.437   3.532   1.516
 2822TIP3    H1 8472   0.420   3.578   1.434
 2822TIP3    H2 8473   0.529   3.553   1.536
 2823TIP3   OH2 8474   6.050   3.830   4.795
 2823TIP3    H1 8475   6.072   3.738   4.804
 2823TIP3    H2 8476   6.114   3.864   4.731
 2824TIP3   OH2 8477   4.062   4.845   1.780
 2824TIP3    H1 8478   4.080   4.754   1.757
 2824TIP3    H2 8479   4.006   4.877   1.710
 2825TIP3   OH2 8480   2.746   1.627   1.649
 2825TIP3    H1 8481   2.653   1.641   1.628
 2825TIP3    H2 8482   2.775   1.561   1.586
 2826TIP3   OH2 8483   2.200   1.577   3.504
 2826TIP3    H1 8484   2.286   1.560   3.466
 2826TIP3    H2 8485   2.149   1.499   3.482
 2827TIP3   OH2 8486   5.496   4.177   3.875
 2827TIP3    H1 8487   5.555   4.208   3.944
 2827TIP3    H2 8488   5.474   4.255   3.825
 2828TIP3   OH2 8489   4.235   2.178   3.529
 2828TIP3    H1 8490   4.257   2.139   3.614
 2828TIP3    H2 8491   4.168   2.120   3.492
 2829TIP3   OH2 8492   1.150   0.841   0.692
 2829TIP3    H1 8493   1.075   0.845   0.634
 2829TIP3    H2 8494   1.163   0.748   0.709
 2830TIP3   OH2 8495   5.371   5.267   2.563
 2830TIP3    H1 8496   5.424   5.314   2.498
 2830TIP3    H2 8497   5.327   5.336   2.612
 2831TIP3   OH2 8498   4.658   2.781   2.629
 2831TIP3    H1 8499   4.637   2.715   2.563
 2831TIP3    H2 8500   4.733   2.745   2.677
 2832TIP3   OH2 8501   1.825   1.699   1.856
 2832TIP3    H1 8502   1.862   1.725   1.772
 2832TIP3    H2 8503   1.798   1.782   1.897
 2833TIP3   OH2 8504   3.419   5.545   4.329
 2833TIP3    H1 8505   3.482   5.604   4.289
 2833TIP3    H2 8506   3.348   5.538   4.265
 2834TIP3   OH2 8507   3.704   1.999   1.054
 2834TIP3    H1 8508   3.679   1.987   0.962
 2834TIP3    H2 8509   3.779   1.941   1.067
 2835TIP3   OH2 8510   5.102   3.292   2.706
 2835TIP3    H1 8511   5.068   3.210   2.742
 2835TIP3    H2 8512   5.188   3.303   2.747
 2836TIP3   OH2 8513   4.383   4.161   3.199
 2836TIP3    H1 8514   4.424   4.101   3.138
 2836TIP3    H2 8515   4.299   4.183   3.159
 2837TIP3   OH2 8516   2.850   2.945   4.017
 2837TIP3    H1 8517   2.884   2.921   3.931
 2837TIP3    H2 8518   2.777   2.885   4.032
 2838TIP3   OH2 8519   4.701   4.279   2.525
 2838TIP3    H1 8520   4.619   4.259   2.572
 2838TIP3    H2 8521   4.765   4.218   2.563
 2839TIP3   OH2 8522   4.672   0.632   1.012
 2839TIP3    H1 8523   4.719   0.638   1.095
 2839TIP3    H2 8524   4.698   0.548   0.975
 2840TIP3   OH2 8525   4.038   0.900   3.674
 2840TIP3    H1 8526   3.982   0.974   3.652
 2840TIP3    H2 8527   4.112   0.938   3.721
 2841TIP3   OH2 8528   3.043   4.068   0.052
 2841TIP3    H1 8529   3.032   4.125   0.128
 2841TIP3    H2 8530   3.089   3.991   0.085
 2842TIP3   OH2 8531   6.044   5.516   3.494
 2842TIP3    H1 8532   6.022   5.550   3.581
 2842TIP3    H2 8533   6.037   5.421   3.504
 2843TIP3   OH2 8534   4.696   5.114   3.881
 2843TIP3    H1 8535   4.744   5.197   3.884
 2843TIP3    H2 8536   4.693   5.091   3.788
 2844TIP3   OH2 8537   5.083   4.900   2.789
 2844TIP3    H1 8538   5.061   4.809   2.811
 2844TIP3    H2 8539   5.012   4.928   2.730
 2845TIP3   OH2 8540   4.468   1.285   1.547
 2845TIP3    H1 8541   4.459   1.275   1.641
 2845TIP3    H2 8542   4.448   1.199   1.511
 2846TIP3   OH2 8543   4.299   0.727   3.955
 2846TIP3    H1 8544   4.318   0.641   3.918
 2846TIP3    H2 8545   4.204   0.732   3.957
 2847TIP3   OH2 8546   1.918   2.488   2.037
 2847TIP3    H1 8547   1.912   2.430   2.113
 2847TIP3    H2 8548   1.830   2.487   1.999
 2848TIP3   OH2 8549   3.952   0.462   2.980
 2848TIP3    H1 8550   3.998   0.482   3.062
 2848TIP3    H2 8551   4.017   0.475   2.912
 2849TIP3   OH2 8552   0.801   1.774   3.581
 2849TIP3    H1 8553   0.809   1.849   3.640
 2849TIP3    H2 8554   0.838   1.701   3.629
 2850TIP3   OH2 8555   2.675   2.773   3.318
 2850TIP3    H1 8556   2.693   2.850   3.264
 2850TIP3    H2 8557   2.694   2.802   3.407
 2851TIP3   OH2 8558   0.592   0.569   4.992
 2851TIP3    H1 8559   0.661   0.630   4.967
 2851TIP3    H2 8560   0.621   0.533   5.076
 2852TIP3   OH2 8561   0.422   1.900   3.568
 2852TIP3    H1 8562   0.428   1.974   3.628
 2852TIP3    H2 8563   0.330   1.874   3.570
 2853TIP3   OH2 8564   0.729   5.597   1.460
 2853TIP3    H1 8565   0.680   5.611   1.541
 2853TIP3    H2 8566   0.818   5.625   1.481
 2854TIP3   OH2 8567   4.720   0.405   4.510
 2854TIP3    H1 8568   4.682   0.320   4.529
 2854TIP3    H2 8569   4.786   0.388   4.444
 2855TIP3   OH2 8570   5.727   2.902   3.704
 2855TIP3    H1 8571   5.781   2.824   3.690
 2855TIP3    H2 8572   5.657   2.873   3.762
 2856TIP3   OH2 8573   4.494   4.674   4.071
 2856TIP3    H1 8574   4.491   4.769   4.084
 2856TIP3    H2 8575   4.433   4.658   3.998
 2857TIP3   OH2 8576   0.517   2.434   4.269
 2857TIP3    H1 8577   0.609   2.452   4.250
 2857TIP3    H2 8578   0.515   2.415   4.363
 2858TIP3   OH2 8579   3.250   3.365   3.700
 2858TIP3    H1 8580   3.310   3.354   3.626
 2858TIP3    H2 8581   3.231   3.276   3.729
 2859TIP3   OH2 8582   0.337   4.986   4.016
 2859TIP3    H1 8583   0.292   4.905   3.992
 2859TIP3    H2 8584   0.299   5.053   3.958
 2860TIP3   OH2 8585   5.777   2.680   4.069
 2860TIP3    H1 8586   5.868   2.658   4.051
 2860TIP3    H2 8587   5.773   2.689   4.164
 2861TIP3   OH2 8588   1.171   1.273   4.762
 2861TIP3    H1 8589   1.234   1.280   4.833
 2861TIP3    H2 8590   1.133   1.185   4.772
 2862TIP3   OH2 8591   2.772   2.270   4.293
 2862TIP3    H1 8592   2.847   2.212   4.279
 2862TIP3    H2 8593   2.811   2.356   4.309
 2863TIP3   OH2 8594   4.313   4.480   1.927
 2863TIP3    H1 8595   4.347   4.555   1.879
 2863TIP3    H2 8596   4.290   4.416   1.859
 2864TIP3   OH2 8597   4.743   4.597   4.936
 2864TIP3    H1 8598   4.753   4.501   4.938
 2864TIP3    H2 8599   4.736   4.618   4.843
 2865TIP3   OH2 8600   3.944   4.501   2.953
 2865TIP3    H1 8601   4.010   4.462   2.896
 2865TIP3    H2 8602   3.865   4.449   2.937
 2866TIP3   OH2 8603   5.577   4.298   0.274
 2866TIP3    H1 8604   5.532   4.288   0.190
 2866TIP3    H2 8605   5.585   4.393   0.287
 2867TIP3   OH2 8606   3.024   0.596   0.875
 2867TIP3    H1 8607   3.000   0.506   0.855
 2867TIP3    H2 8608   3.111   0.608   0.835
 2868TIP3   OH2 8609   4.865   1.902   1.867
 2868TIP3    H1 8610   4.952   1.910   1.828
 2868TIP3    H2 8611   4.852   1.984   1.915
 2869TIP3   OH2 8612   4.802   4.274   3.431
 2869TIP3    H1 8613   4.863   4.239   3.366
 2869TIP3    H2 8614   4.814   4.217   3.507
 2870TIP3   OH2 8615   1.268   0.549   0.771
 2870TIP3    H1 8616   1.356   0.583   0.752
 2870TIP3    H2 8617   1.272   0.527   0.864
 2871TIP3   OH2 8618   3.665   2.242   0.242
 2871TIP3    H1 8619   3.741   2.279   0.197
 2871TIP3    H2 8620   3.630   2.177   0.181
 2872TIP3   OH2 8621   4.653   3.716   3.389
 2872TIP3    H1 8622   4.676   3.788   3.448
 2872TIP3    H2 8623   4.566   3.738   3.356
 2873TIP3   OH2 8624   0.786   4.890   4.068
 2873TIP3    H1 8625   0.711   4.948   4.081
 2873TIP3    H2 8626   0.770   4.849   3.983
 2874TIP3   OH2 8627   4.287   1.395   1.137
 2874TIP3    H1 8628   4.305   1.437   1.221
 2874TIP3    H2 8629   4.256   1.307   1.159
 2875TIP3   OH2 8630   1.790   1.830   3.578
 2875TIP3    H1 8631   1.781   1.856   3.670
 2875TIP3    H2 8632   1.885   1.831   3.563
 2876TIP3   OH2 8633   3.893   1.104   1.806
 2876TIP3    H1 8634   3.881   1.032   1.744
 2876TIP3    H2 8635   3.827   1.089   1.873
 2877TIP3   OH2 8636   5.515   2.118   5.030
 2877TIP3    H1 8637   5.473   2.061   4.965
 2877TIP3    H2 8638   5.466   2.104   5.110
 2878TIP3   OH2 8639   0.009   1.030   1.878
 2878TIP3    H1 8640   0.023   1.097   1.811
 2878TIP3    H2 8641   0.063   1.059   1.952
 2879TIP3   OH2 8642   1.924   3.965   0.068
 2879TIP3    H1 8643   1.957   3.910  -0.003
 2879TIP3    H2 8644   1.832   3.940   0.077
 2880TIP3   OH2 8645   1.597   5.494   5.067
 2880TIP3    H1 8646   1.558   5.407   5.055
 2880TIP3    H2 8647   1.529   5.545   5.110
 2881TIP3   OH2 8648   0.932   1.581   4.120
 2881TIP3    H1 8649   0.908   1.634   4.044
 2881TIP3    H2 8650   0.853   1.530   4.139
 2882TIP3   OH2 8651   3.052   5.441   2.647
 2882TIP3    H1 8652   3.080   5.381   2.716
 2882TIP3    H2 8653   3.011   5.384   2.581
 2883TIP3   OH2 8654   3.975   3.158   1.455
 2883TIP3    H1 8655   4.053   3.189   1.502
 2883TIP3    H2 8656   3.948   3.233   1.402
 2884TIP3   OH2 8657   1.903   3.954   3.858
 2884TIP3    H1 8658   1.983   3.999   3.831
 2884TIP3    H2 8659   1.868   3.916   3.777
 2885TIP3   OH2 8660   0.709   5.829   3.190
 2885TIP3    H1 8661   0.748   5.748   3.221
 2885TIP3    H2 8662   0.716   5.889   3.265
 2886TIP3   OH2 8663   5.583   2.636   2.783
 2886TIP3    H1 8664   5.609   2.720   2.820
 2886TIP3    H2 8665   5.584   2.650   2.689
 2887TIP3   OH2 8666   1.845   3.074   0.421
 2887TIP3    H1 8667   1.766   3.120   0.446
 2887TIP3    H2 8668   1.872   3.027   0.500
 2888TIP3   OH2 8669   3.369   0.402   0.676
 2888TIP3    H1 8670   3.342   0.361   0.759
 2888TIP3    H2 8671   3.357   0.496   0.690
 2889TIP3   OH2 8672   0.955   5.515   0.474
 2889TIP3    H1 8673   0.927   5.565   0.550
 2889TIP3    H2 8674   1.021   5.569   0.432
 2890TIP3   OH2 8675   3.849   4.209   0.607
 2890TIP3    H1 8676   3.784   4.166   0.663
 2890TIP3    H2 8677   3.933   4.184   0.645
 2891TIP3   OH2 8678   5.148   0.942   3.536
 2891TIP3    H1 8679   5.069   0.913   3.491
 2891TIP3    H2 8680   5.203   0.863   3.540
 2892TIP3   OH2 8681   5.726   3.170   3.089
 2892TIP3    H1 8682   5.690   3.140   3.005
 2892TIP3    H2 8683   5.711   3.265   3.088
 2893TIP3   OH2 8684   4.666   3.755   2.275
 2893TIP3    H1 8685   4.693   3.681   2.330
 2893TIP3    H2 8686   4.739   3.816   2.281
 2894TIP3   OH2 8687   0.085   6.021   1.947
 2894TIP3    H1 8688   0.066   5.984   2.033
 2894TIP3    H2 8689   0.094   5.945   1.890
 2895TIP3   OH2 8690   4.475   0.620   1.971
 2895TIP3    H1 8691   4.533   0.660   1.906
 2895TIP3    H2 8692   4.517   0.638   2.055
 2896TIP3   OH2 8693   3.837   2.154   2.634
 2896TIP3    H1 8694   3.824   2.235   2.585
 2896TIP3    H2 8695   3.888   2.098   2.576
 2897TIP3   OH2 8696   3.680   5.937   3.644
 2897TIP3    H1 8697   3.673   6.009   3.582
 2897TIP3    H2 8698   3.664   5.859   3.591
 2898TIP3   OH2 8699   2.913   5.641   1.191
 2898TIP3    H1 8700   2.941   5.611   1.277
 2898TIP3    H2 8701   2.961   5.586   1.129
 2899TIP3   OH2 8702   0.486   5.603   5.063
 2899TIP3    H1 8703   0.448   5.680   5.020
 2899TIP3    H2 8704   0.579   5.608   5.044
 2900TIP3   OH2 8705   0.710   5.494   3.402
 2900TIP3    H1 8706   0.793   5.526   3.367
 2900TIP3    H2 8707   0.692   5.415   3.351
 2901TIP3   OH2 8708   2.313   3.831   2.204
 2901TIP3    H1 8709   2.300   3.750   2.154
 2901TIP3    H2 8710   2.381   3.809   2.267
 2902TIP3   OH2 8711   0.082   3.098   2.465
 2902TIP3    H1 8712   0.013   3.062   2.519
 2902TIP3    H2 8713   0.102   3.030   2.402
 2903TIP3   OH2 8714   1.057   0.340   3.553
 2903TIP3    H1 8715   1.105   0.350   3.471
 2903TIP3    H2 8716   1.064   0.425   3.596
 2904TIP3   OH2 8717   3.946   2.959   1.693
 2904TIP3    H1 8718   3.922   3.028   1.631
 2904TIP3    H2 8719   3.970   3.006   1.773
 2905TIP3   OH2 8720   0.658   3.587   2.116
 2905TIP3    H1 8721   0.619   3.626   2.194
 2905TIP3    H2 8722   0.584   3.555   2.064
 2906TIP3   OH2 8723   0.444   3.297   3.891
 2906TIP3    H1 8724   0.489   3.331   3.813
 2906TIP3    H2 8725   0.355   3.279   3.861
 2907TIP3   OH2 8726   4.634   2.512   1.353
 2907TIP3    H1 8727   4.710   2.559   1.386
 2907TIP3    H2 8728   4.669   2.429   1.321
 2908TIP3   OH2 8729   1.574   2.276   1.462
 2908TIP3    H1 8730   1.486   2.241   1.470
 2908TIP3    H2 8731   1.586   2.292   1.368
 2909TIP3   OH2 8732   3.215   2.117   0.985
 2909TIP3    H1 8733   3.291   2.124   1.043
 2909TIP3    H2 8734   3.202   2.206   0.952
 2910TIP3   OH2 8735   5.965   5.137   1.074
 2910TIP3    H1 8736   5.957   5.230   1.096
 2910TIP3    H2 8737   5.891   5.095   1.118
 2911TIP3   OH2 8738   3.988   2.680   2.425
 2911TIP3    H1 8739   3.909   2.641   2.388
 2911TIP3    H2 8740   4.003   2.631   2.506
 2912TIP3   OH2 8741   1.423   3.749   4.030
 2912TIP3    H1 8742   1.337   3.753   4.071
 2912TIP3    H2 8743   1.410   3.696   3.951
 2913TIP3   OH2 8744   0.388   2.251   0.526
 2913TIP3    H1 8745   0.324   2.208   0.581
 2913TIP3    H2 8746   0.383   2.344   0.551
 2914TIP3   OH2 8747   2.268   1.602   0.586
 2914TIP3    H1 8748   2.349   1.603   0.535
 2914TIP3    H2 8749   2.214   1.536   0.542
 2915TIP3   OH2 8750   2.387   0.379   2.983
 2915TIP3    H1 8751   2.378   0.444   3.053
 2915TIP3    H2 8752   2.440   0.423   2.916
 2916TIP3   OH2 8753   5.643   0.077   2.043
 2916TIP3    H1 8754   5.620   0.129   2.119
 2916TIP3    H2 8755   5.573   0.093   1.980
 2917TIP3   OH2 8756   2.933   3.151   1.739
 2917TIP3    H1 8757   2.987   3.101   1.799
 2917TIP3    H2 8758   2.959   3.121   1.652
 2918TIP3   OH2 8759   4.894   5.002   1.016
 2918TIP3    H1 8760   4.887   5.098   1.022
 2918TIP3    H2 8761   4.982   4.983   1.047
 2919TIP3   OH2 8762   4.268   2.966   2.704
 2919TIP3    H1 8763   4.265   2.871   2.693
 2919TIP3    H2 8764   4.189   2.988   2.752
 2920TIP3   OH2 8765   5.311   5.637   4.622
 2920TIP3    H1 8766   5.306   5.554   4.670
 2920TIP3    H2 8767   5.238   5.634   4.561
 2921TIP3   OH2 8768   2.596   3.808   0.077
 2921TIP3    H1 8769   2.687   3.820   0.050
 2921TIP3    H2 8770   2.545   3.823  -0.002
 2922TIP3   OH2 8771   1.876   3.670   2.752
 2922TIP3    H1 8772   1.856   3.762   2.765
 2922TIP3    H2 8773   1.935   3.668   2.677
 2923TIP3   OH2 8774   0.072   5.186   1.534
 2923TIP3    H1 8775   0.060   5.213   1.443
 2923TIP3    H2 8776   0.157   5.142   1.534
 2924TIP3   OH2 8777   5.956   3.841   2.348
 2924TIP3    H1 8778   6.026   3.804   2.294
 2924TIP3    H2 8779   5.987   3.831   2.438
 2925TIP3   OH2 8780   3.772   4.107   4.413
 2925TIP3    H1 8781   3.818   4.162   4.349
 2925TIP3    H2 8782   3.680   4.133   4.405
 2926TIP3   OH2 8783   2.533   4.733   2.227
 2926TIP3    H1 8784   2.621   4.764   2.206
 2926TIP3    H2 8785   2.548   4.647   2.267
 2927TIP3   OH2 8786   0.307   1.324   1.749
 2927TIP3    H1 8787   0.326   1.256   1.815
 2927TIP3    H2 8788   0.356   1.297   1.672
 2928TIP3   OH2 8789   1.918   3.967   1.777
 2928TIP3    H1 8790   1.939   4.023   1.701
 2928TIP3    H2 8791   1.875   4.026   1.839
 2929TIP3   OH2 8792   5.390   5.534   4.180
 2929TIP3    H1 8793   5.452   5.464   4.204
 2929TIP3    H2 8794   5.314   5.487   4.146
 2930TIP3   OH2 8795   5.435   0.149   1.205
 2930TIP3    H1 8796   5.415   0.102   1.124
 2930TIP3    H2 8797   5.468   0.234   1.176
 2931TIP3   OH2 8798   1.575   4.391   0.620
 2931TIP3    H1 8799   1.598   4.298   0.614
 2931TIP3    H2 8800   1.658   4.435   0.640
 2932TIP3   OH2 8801   4.705   5.977   0.875
 2932TIP3    H1 8802   4.775   6.042   0.880
 2932TIP3    H2 8803   4.738   5.902   0.926
 2933TIP3   OH2 8804   1.520   2.312   5.013
 2933TIP3    H1 8805   1.494   2.281   4.926
 2933TIP3    H2 8806   1.550   2.234   5.059
 2934TIP3   OH2 8807   1.932   2.784   1.669
 2934TIP3    H1 8808   1.912   2.840   1.744
 2934TIP3    H2 8809   1.971   2.705   1.708
 2935TIP3   OH2 8810   5.535   3.150   1.827
 2935TIP3    H1 8811   5.607   3.192   1.781
 2935TIP3    H2 8812   5.563   3.059   1.838
 2936TIP3   OH2 8813   5.998   5.408   1.646
 2936TIP3    H1 8814   5.985   5.314   1.632
 2936TIP3    H2 8815   5.912   5.440   1.676
 2937TIP3   OH2 8816   4.966   3.544   5.035
 2937TIP3    H1 8817   5.030   3.601   4.992
 2937TIP3    H2 8818   4.986   3.552   5.129
 2938TIP3   OH2 8819   2.199   5.075   3.492
 2938TIP3    H1 8820   2.168   5.084   3.402
 2938TIP3    H2 8821   2.121   5.086   3.546
 2939TIP3   OH2 8822   3.287   0.813   4.524
 2939TIP3    H1 8823   3.285   0.901   4.562
 2939TIP3    H2 8824   3.211   0.768   4.563
 2940TIP3   OH2 8825   0.409   0.894   1.280
 2940TIP3    H1 8826   0.470   0.936   1.220
 2940TIP3    H2 8827   0.464   0.833   1.331
 2941TIP3   OH2 8828   3.317   1.141   2.596
 2941TIP3    H1 8829   3.367   1.127   2.676
 2941TIP3    H2 8830   3.380   1.173   2.532
 2942TIP3   OH2 8831   3.424   0.287   2.765
 2942TIP3    H1 8832   3.466   0.329   2.840
 2942TIP3    H2 8833   3.468   0.325   2.689
 2943TIP3   OH2 8834   1.193   2.826   3.989
 2943TIP3    H1 8835   1.279   2.802   4.024
 2943TIP3    H2 8836   1.132   2.806   4.060
 2944TIP3   OH2 8837   3.179   4.858   0.827
 2944TIP3    H1 8838   3.259   4.808   0.809
 2944TIP3    H2 8839   3.182   4.932   0.767
 2945TIP3   OH2 8840   6.157   0.388   4.417
 2945TIP3    H1 8841   6.219   0.317   4.430
 2945TIP3    H2 8842   6.086   0.349   4.365
 2946TIP3   OH2 8843   5.244   3.678   0.854
 2946TIP3    H1 8844   5.216   3.624   0.927
 2946TIP3    H2 8845   5.265   3.616   0.784
 2947TIP3   OH2 8846   4.426   4.650   2.786
 2947TIP3    H1 8847   4.515   4.625   2.812
 2947TIP3    H2 8848   4.373   4.573   2.805
 2948TIP3   OH2 8849   2.631   3.690   1.519
 2948TIP3    H1 8850   2.562   3.633   1.553
 2948TIP3    H2 8851   2.607   3.705   1.428
 2949TIP3   OH2 8852   2.713   1.859   4.303
 2949TIP3    H1 8853   2.781   1.791   4.302
 2949TIP3    H2 8854   2.659   1.838   4.379
 2950TIP3   OH2 8855   0.084   0.057   2.623
 2950TIP3    H1 8856   0.093   0.140   2.577
 2950TIP3    H2 8857   0.049  -0.003   2.557
 2951TIP3   OH2 8858   3.596   5.441   5.066
 2951TIP3    H1 8859   3.625   5.492   5.142
 2951TIP3    H2 8860   3.652   5.469   4.994
 2952TIP3   OH2 8861   5.052   0.847   0.350
 2952TIP3    H1 8862   5.042   0.901   0.271
 2952TIP3    H2 8863   4.969   0.858   0.396
 2953TIP3   OH2 8864   1.199   4.350   4.517
 2953TIP3    H1 8865   1.206   4.258   4.491
 2953TIP3    H2 8866   1.288   4.376   4.538
 2954TIP3   OH2 8867   2.738   3.712   3.222
 2954TIP3    H1 8868   2.684   3.714   3.301
 2954TIP3    H2 8869   2.826   3.691   3.253
 2955TIP3   OH2 8870   4.321   3.778   4.424
 2955TIP3    H1 8871   4.341   3.870   4.444
 2955TIP3    H2 8872   4.245   3.782   4.366
 2956TIP3   OH2 8873   0.218   1.652   4.133
 2956TIP3    H1 8874   0.248   1.720   4.194
 2956TIP3    H2 8875   0.135   1.622   4.169
 2957TIP3   OH2 8876   1.532   2.123   1.040
 2957TIP3    H1 8877   1.518   2.210   1.077
 2957TIP3    H2 8878   1.525   2.064   1.116
 2958TIP3   OH2 8879   5.325   4.335   0.402
 2958TIP3    H1 8880   5.417   4.346   0.425
 2958TIP3    H2 8881   5.277   4.366   0.479
 2959TIP3   OH2 8882   2.463   5.347   1.876
 2959TIP3    H1 8883   2.406   5.326   1.950
 2959TIP3    H2 8884   2.453   5.273   1.816
 2960TIP3   OH2 8885   4.266   4.885   4.936
 2960TIP3    H1 8886   4.288   4.793   4.928
 2960TIP3    H2 8887   4.349   4.928   4.956
 2961TIP3   OH2 8888   1.044   2.556   1.802
 2961TIP3    H1 8889   1.033   2.505   1.883
 2961TIP3    H2 8890   0.980   2.520   1.742
 2962TIP3   OH2 8891   3.286   4.209   5.151
 2962TIP3    H1 8892   3.260   4.230   5.241
 2962TIP3    H2 8893   3.204   4.214   5.101
 2963TIP3   OH2 8894   2.853   0.794   5.127
 2963TIP3    H1 8895   2.886   0.731   5.063
 2963TIP3    H2 8896   2.931   0.828   5.171
 2964TIP3   OH2 8897   2.573   2.420   4.713
 2964TIP3    H1 8898   2.577   2.328   4.685
 2964TIP3    H2 8899   2.482   2.434   4.739
 2965TIP3   OH2 8900   5.374   4.988   1.483
 2965TIP3    H1 8901   5.449   5.029   1.525
 2965TIP3    H2 8902   5.298   5.022   1.532
 2966TIP3   OH2 8903   4.429   4.322   3.660
 2966TIP3    H1 8904   4.472   4.288   3.581
 2966TIP3    H2 8905   4.375   4.394   3.628
 2967TIP3   OH2 8906   3.134   1.356   2.559
 2967TIP3    H1 8907   3.167   1.271   2.589
 2967TIP3    H2 8908   3.097   1.339   2.473
 2968TIP3   OH2 8909   2.475   4.940   3.309
 2968TIP3    H1 8910   2.459   4.991   3.230
 2968TIP3    H2 8911   2.569   4.947   3.323
 2969TIP3   OH2 8912   1.118   1.963   0.795
 2969TIP3    H1 8913   1.190   1.981   0.855
 2969TIP3    H2 8914   1.039   1.986   0.845
 2970TIP3   OH2 8915   3.844   1.231   1.378
 2970TIP3    H1 8916   3.873   1.191   1.296
 2970TIP3    H2 8917   3.895   1.312   1.385
 2971TIP3   OH2 8918   2.930   5.317   2.397
 2971TIP3    H1 8919   2.979   5.392   2.363
 2971TIP3    H2 8920   2.922   5.257   2.322
 2972TIP3   OH2 8921   1.582   2.564   3.456
 2972TIP3    H1 8922   1.500   2.600   3.422
 2972TIP3    H2 8923   1.559   2.475   3.484
 2973TIP3   OH2 8924   2.823   5.087   4.511
 2973TIP3    H1 8925   2.912   5.113   4.535
 2973TIP3    H2 8926   2.773   5.168   4.514
 2974TIP3   OH2 8927   6.166   3.409   4.987
 2974TIP3    H1 8928   6.221   3.355   5.042
 2974TIP3    H2 8929   6.089   3.427   5.041
 2975TIP3   OH2 8930   1.804   5.785   1.262
 2975TIP3    H1 8931   1.887   5.757   1.301
 2975TIP3    H2 8932   1.821   5.874   1.231
 2976TIP3   OH2 8933   5.259   5.210   1.163
 2976TIP3    H1 8934   5.337   5.227   1.215
 2976TIP3    H2 8935   5.219   5.133   1.204
 2977TIP3   OH2 8936   2.663   3.593   2.435
 2977TIP3    H1 8937   2.665   3.497   2.442
 2977TIP3    H2 8938   2.586   3.612   2.381
 2978TIP3   OH2 8939   6.171   0.334   4.128
 2978TIP3    H1 8940   6.143   0.362   4.041
 2978TIP3    H2 8941   6.264   0.353   4.130
 2979TIP3   OH2 8942   4.997   5.926   0.305
 2979TIP3    H1 8943   5.008   5.833   0.283
 2979TIP3    H2 8944   5.084   5.963   0.296
 2980TIP3   OH2 8945   1.264   3.495   0.813
 2980TIP3    H1 8946   1.321   3.523   0.885
 2980TIP3    H2 8947   1.182   3.471   0.855
 2981TIP3   OH2 8948   2.958   5.605   0.892
 2981TIP3    H1 8949   3.045   5.568   0.882
 2981TIP3    H2 8950   2.950   5.669   0.821
 2982TIP3   OH2 8951   5.900   1.938   2.816
 2982TIP3    H1 8952   5.954   1.994   2.871
 2982TIP3    H2 8953   5.927   1.959   2.727
 2983TIP3   OH2 8954   4.195   1.941   2.253
 2983TIP3    H1 8955   4.235   1.990   2.181
 2983TIP3    H2 8956   4.221   1.850   2.238
 2984TIP3   OH2 8957   5.193   2.325   1.286
 2984TIP3    H1 8958   5.116   2.299   1.234
 2984TIP3    H2 8959   5.225   2.242   1.322
 2985TIP3   OH2 8960   1.547   4.118   0.869
 2985TIP3    H1 8961   1.565   4.210   0.886
 2985TIP3    H2 8962   1.573   4.105   0.778
 2986TIP3   OH2 8963   2.735   2.464   2.867
 2986TIP3    H1 8964   2.713   2.418   2.786
 2986TIP3    H2 8965   2.655   2.459   2.919
 2987TIP3   OH2 8966   3.376   5.660   0.483
 2987TIP3    H1 8967   3.427   5.590   0.443
 2987TIP3    H2 8968   3.437   5.702   0.543
 2988TIP3   OH2 8969   1.872   0.073   0.857
 2988TIP3    H1 8970   1.901   0.164   0.849
 2988TIP3    H2 8971   1.953   0.023   0.865
 2989TIP3   OH2 8972   2.189   2.861   4.668
 2989TIP3    H1 8973   2.259   2.796   4.658
 2989TIP3    H2 8974   2.108   2.810   4.671
 2990TIP3   OH2 8975   3.021   3.024   4.496
 2990TIP3    H1 8976   2.971   3.100   4.466
 2990TIP3    H2 8977   2.999   2.954   4.434
 2991TIP3   OH2 8978   1.351   3.624   1.677
 2991TIP3    H1 8979   1.340   3.648   1.585
 2991TIP3    H2 8980   1.333   3.530   1.679
 2992TIP3   OH2 8981   1.394   2.767   1.237
 2992TIP3    H1 8982   1.440   2.833   1.186
 2992TIP3    H2 8983   1.317   2.745   1.184
 2993TIP3   OH2 8984   2.965   1.976   4.667
 2993TIP3    H1 8985   3.001   1.993   4.580
 2993TIP3    H2 8986   2.907   2.050   4.684
 2994TIP3   OH2 8987   3.539   1.292   2.758
 2994TIP3    H1 8988   3.516   1.379   2.725
 2994TIP3    H2 8989   3.576   1.246   2.682
 2995TIP3   OH2 8990   1.059   0.721   2.369
 2995TIP3    H1 8991   1.000   0.724   2.293
 2995TIP3    H2 8992   1.103   0.806   2.368
 2996TIP3   OH2 8993   0.503   3.883   3.911
 2996TIP3    H1 8994   0.446   3.868   3.986
 2996TIP3    H2 8995   0.536   3.972   3.924
 2997TIP3   OH2 8996   3.747   0.180   4.424
 2997TIP3    H1 8997   3.801   0.228   4.487
 2997TIP3    H2 8998   3.724   0.099   4.469
 2998TIP3   OH2 8999   4.029   4.262   1.839
 2998TIP3    H1 9000   4.057   4.172   1.859
 2998TIP3    H2 9001   4.051   4.312   1.918
 2999TIP3   OH2 9002   6.285   1.281   4.364
 2999TIP3    H1 9003   6.317   1.314   4.280
 2999TIP3    H2 9004   6.344   1.208   4.385
 3000TIP3   OH2 9005   3.510   5.392   0.403
 3000TIP3    H1 9006   3.606   5.391   0.401
 3000TIP3    H2 9007   3.484   5.366   0.315
 3001TIP3   OH2 9008   6.292   1.056   0.798
 3001TIP3    H1 9009   6.321   1.121   0.862
 3001TIP3    H2 9010   6.283   1.104   0.716
 3002TIP3   OH2 9011   0.861   0.474   1.266
 3002TIP3    H1 9012   0.945   0.511   1.292
 3002TIP3    H2 9013   0.836   0.523   1.187
 3003TIP3   OH2 9014   2.122   4.974   3.180
 3003TIP3    H1 9015   2.054   4.993   3.115
 3003TIP3    H2 9016   2.157   5.060   3.204
 3004TIP3   OH2 9017   5.215   4.701   4.235
 3004TIP3    H1 9018   5.247   4.779   4.281
 3004TIP3    H2 9019   5.126   4.689   4.268
 3005TIP3   OH2 9020   2.461   2.822   2.639
 3005TIP3    H1 9021   2.475   2.773   2.558
 3005TIP3    H2 9022   2.376   2.793   2.671
 3006TIP3   OH2 9023   1.809   0.545   2.789
 3006TIP3    H1 9024   1.838   0.549   2.880
 3006TIP3    H2 9025   1.828   0.455   2.761
 3007TIP3   OH2 9026   3.473   2.853   1.861
 3007TIP3    H1 9027   3.460   2.766   1.823
 3007TIP3    H2 9028   3.433   2.848   1.948
 3008TIP3   OH2 9029   2.107   5.806   0.157
 3008TIP3    H1 9030   2.112   5.710   0.159
 3008TIP3    H2 9031   2.110   5.832   0.249
 3009TIP3   OH2 9032   4.695   4.731   2.382
 3009TIP3    H1 9033   4.662   4.661   2.437
 3009TIP3    H2 9034   4.731   4.687   2.305
 3010TIP3   OH2 9035   5.153   1.480   4.357
 3010TIP3    H1 9036   5.125   1.570   4.343
 3010TIP3    H2 9037   5.116   1.456   4.442
 3011TIP3   OH2 9038  -0.010   3.062   3.215
 3011TIP3    H1 9039   0.059   3.100   3.270
 3011TIP3    H2 9040   0.038   3.009   3.151
 3012TIP3   OH2 9041   3.418   4.264   2.690
 3012TIP3    H1 9042   3.431   4.248   2.597
 3012TIP3    H2 9043   3.494   4.316   2.717
 3013TIP3   OH2 9044   2.640   2.955   2.971
 3013TIP3    H1 9045   2.701   2.989   2.906
 3013TIP3    H2 9046   2.606   3.032   3.015
 3014TIP3   OH2 9047   3.721   0.763   0.025
 3014TIP3    H1 9048   3.775   0.739  -0.050
 3014TIP3    H2 9049   3.783   0.782   0.095
 3015TIP3   OH2 9050   2.298   3.282   3.096
 3015TIP3    H1 9051   2.255   3.269   3.181
 3015TIP3    H2 9052   2.330   3.372   3.099
 3016TIP3   OH2 9053   0.315   3.516   0.169
 3016TIP3    H1 9054   0.381   3.584   0.176
 3016TIP3    H2 9055   0.235   3.556   0.203
 3017TIP3   OH2 9056   1.013   0.188   3.174
 3017TIP3    H1 9057   1.027   0.149   3.088
 3017TIP3    H2 9058   0.920   0.177   3.192
 3018TIP3   OH2 9059   0.515   2.113   4.117
 3018TIP3    H1 9060   0.430   2.071   4.112
 3018TIP3    H2 9061   0.506   2.180   4.184
 3019TIP3   OH2 9062   0.897   5.690   2.999
 3019TIP3    H1 9063   0.863   5.773   2.965
 3019TIP3    H2 9064   0.991   5.693   2.980
 3020TIP3   OH2 9065   4.624   0.245   0.723
 3020TIP3    H1 9066   4.671   0.165   0.746
 3020TIP3    H2 9067   4.640   0.256   0.630
 3021TIP3   OH2 9068   0.926   1.646   1.943
 3021TIP3    H1 9069   0.878   1.691   1.873
 3021TIP3    H2 9070   0.871   1.656   2.020
 3022TIP3   OH2 9071   4.686   1.570   4.633
 3022TIP3    H1 9072   4.747   1.521   4.689
 3022TIP3    H2 9073   4.713   1.547   4.544
 3023TIP3   OH2 9074   5.522   2.349   0.713
 3023TIP3    H1 9075   5.450   2.314   0.765
 3023TIP3    H2 9076   5.548   2.277   0.656
 3024TIP3   OH2 9077   2.910   4.122   1.293
 3024TIP3    H1 9078   2.852   4.175   1.348
 3024TIP3    H2 9079   2.914   4.037   1.338
 3025TIP3   OH2 9080   6.050   3.583   2.464
 3025TIP3    H1 9081   5.970   3.559   2.418
 3025TIP3    H2 9082   6.023   3.597   2.555
 3026TIP3   OH2 9083   2.879   4.562   2.254
 3026TIP3    H1 9084   2.878   4.582   2.347
 3026TIP3    H2 9085   2.970   4.541   2.234
 3027TIP3   OH2 9086   4.858   4.276   2.026
 3027TIP3    H1 9087   4.884   4.241   1.941
 3027TIP3    H2 9088   4.892   4.211   2.089
 3028TIP3   OH2 9089   2.439   0.117   2.888
 3028TIP3    H1 9090   2.491   0.107   2.968
 3028TIP3    H2 9091   2.410   0.208   2.890
 3029TIP3   OH2 9092   4.621   2.944   3.290
 3029TIP3    H1 9093   4.625   3.039   3.301
 3029TIP3    H2 9094   4.591   2.912   3.375
 3030TIP3   OH2 9095   1.167   4.362   0.061
 3030TIP3    H1 9096   1.178   4.393  -0.029
 3030TIP3    H2 9097   1.254   4.328   0.086
 3031TIP3   OH2 9098   5.305   5.020   2.714
 3031TIP3    H1 9099   5.284   5.113   2.717
 3031TIP3    H2 9100   5.220   4.976   2.713
 3032TIP3   OH2 9101   4.379   5.933   1.852
 3032TIP3    H1 9102   4.329   5.891   1.782
 3032TIP3    H2 9103   4.469   5.931   1.822
 3033TIP3   OH2 9104   4.161   1.781   1.205
 3033TIP3    H1 9105   4.174   1.850   1.269
 3033TIP3    H2 9106   4.178   1.700   1.252
 3034TIP3   OH2 9107   4.279   5.778   4.047
 3034TIP3    H1 9108   4.205   5.838   4.043
 3034TIP3    H2 9109   4.314   5.778   3.958
 3035TIP3   OH2 9110   4.561   3.334   4.866
 3035TIP3    H1 9111   4.593   3.263   4.921
 3035TIP3    H2 9112   4.549   3.295   4.779
 3036TIP3   OH2 9113   5.949   0.265   4.281
 3036TIP3    H1 9114   5.893   0.337   4.252
 3036TIP3    H2 9115   6.021   0.263   4.218
 3037TIP3   OH2 9116   4.075   2.034   0.841
 3037TIP3    H1 9117   4.005   2.099   0.846
 3037TIP3    H2 9118   4.039   1.956   0.885
 3038TIP3   OH2 9119   5.553   2.035   0.720
 3038TIP3    H1 9120   5.577   1.970   0.654
 3038TIP3    H2 9121   5.465   2.063   0.695
 3039TIP3   OH2 9122   5.281   4.374   1.429
 3039TIP3    H1 9123   5.249   4.455   1.469
 3039TIP3    H2 9124   5.375   4.373   1.448
 3040TIP3   OH2 9125   0.465   5.855   0.994
 3040TIP3    H1 9126   0.536   5.903   1.036
 3040TIP3    H2 9127   0.489   5.763   1.004
 3041TIP3   OH2 9128   2.476   3.799   2.435
 3041TIP3    H1 9129   2.553   3.786   2.491
 3041TIP3    H2 9130   2.401   3.787   2.494
 3042TIP3   OH2 9131   6.267   3.743   1.440
 3042TIP3    H1 9132   6.353   3.729   1.401
 3042TIP3    H2 9133   6.275   3.824   1.489
 3043TIP3   OH2 9134   1.618   0.574   2.392
 3043TIP3    H1 9135   1.529   0.603   2.412
 3043TIP3    H2 9136   1.671   0.653   2.396
 3044TIP3   OH2 9137   5.184   2.661   1.844
 3044TIP3    H1 9138   5.231   2.581   1.869
 3044TIP3    H2 9139   5.190   2.717   1.922
 3045TIP3   OH2 9140   5.913   3.819   1.073
 3045TIP3    H1 9141   5.876   3.906   1.091
 3045TIP3    H2 9142   6.005   3.826   1.098
 3046TIP3   OH2 9143   2.648   5.482   4.989
 3046TIP3    H1 9144   2.607   5.565   4.965
 3046TIP3    H2 9145   2.735   5.506   5.021
 3047TIP3   OH2 9146   2.427   2.796   2.948
 3047TIP3    H1 9147   2.382   2.869   2.990
 3047TIP3    H2 9148   2.517   2.826   2.935
 3048TIP3   OH2 9149   0.490   3.258   2.127
 3048TIP3    H1 9150   0.496   3.346   2.090
 3048TIP3    H2 9151   0.398   3.234   2.117
 3049TIP3   OH2 9152   3.196   1.355   1.109
 3049TIP3    H1 9153   3.284   1.332   1.079
 3049TIP3    H2 9154   3.161   1.410   1.040
 3050TIP3   OH2 9155   4.844   0.341   5.086
 3050TIP3    H1 9156   4.838   0.246   5.088
 3050TIP3    H2 9157   4.935   0.360   5.110
 3051TIP3   OH2 9158   2.136   0.286   0.622
 3051TIP3    H1 9159   2.179   0.277   0.536
 3051TIP3    H2 9160   2.175   0.217   0.676
 3052TIP3   OH2 9161   0.554   2.668   1.865
 3052TIP3    H1 9162   0.597   2.684   1.780
 3052TIP3    H2 9163   0.627   2.653   1.925
 3053TIP3   OH2 9164   5.257   4.946   3.924
 3053TIP3    H1 9165   5.235   4.920   3.834
 3053TIP3    H2 9166   5.342   4.905   3.940
 3054TIP3   OH2 9167   6.236   2.741   4.090
 3054TIP3    H1 9168   6.172   2.769   4.156
 3054TIP3    H2 9169   6.187   2.681   4.034
 3055TIP3   OH2 9170   5.612   5.690   3.581
 3055TIP3    H1 9171   5.639   5.618   3.639
 3055TIP3    H2 9172   5.547   5.738   3.632
 3056TIP3   OH2 9173   5.249   4.945   3.229
 3056TIP3    H1 9174   5.163   4.930   3.268
 3056TIP3    H2 9175   5.309   4.891   3.280
 3057TIP3   OH2 9176   2.388   3.365   0.005
 3057TIP3    H1 9177   2.303   3.338  -0.032
 3057TIP3    H2 9178   2.421   3.286   0.047
 3058TIP3   OH2 9179   5.586   5.322   4.205
 3058TIP3    H1 9180   5.670   5.324   4.160
 3058TIP3    H2 9181   5.607   5.345   4.296
 3059TIP3   OH2 9182   2.133   2.047   0.297
 3059TIP3    H1 9183   2.171   2.051   0.209
 3059TIP3    H2 9184   2.053   2.100   0.291
 3060TIP3   OH2 9185   5.544   4.102   2.300
 3060TIP3    H1 9186   5.633   4.134   2.315
 3060TIP3    H2 9187   5.542   4.016   2.341
 3061TIP3   OH2 9188   2.208   4.762   1.502
 3061TIP3    H1 9189   2.220   4.708   1.580
 3061TIP3    H2 9190   2.185   4.848   1.537
 3062TIP3   OH2 9191   4.387   3.132   1.594
 3062TIP3    H1 9192   4.482   3.140   1.595
 3062TIP3    H2 9193   4.358   3.187   1.668
 3063TIP3   OH2 9194   1.604   2.464   4.085
 3063TIP3    H1 9195   1.627   2.543   4.134
 3063TIP3    H2 9196   1.681   2.448   4.030
 3064TIP3   OH2 9197   1.588   5.610   4.827
 3064TIP3    H1 9198   1.647   5.579   4.758
 3064TIP3    H2 9199   1.601   5.548   4.899
 3065TIP3   OH2 9200   5.666   4.679   3.266
 3065TIP3    H1 9201   5.672   4.634   3.181
 3065TIP3    H2 9202   5.659   4.772   3.243
 3066TIP3   OH2 9203   0.296   3.317   0.416
 3066TIP3    H1 9204   0.357   3.291   0.485
 3066TIP3    H2 9205   0.231   3.371   0.462
 3067TIP3   OH2 9206   2.471   3.113   0.102
 3067TIP3    H1 9207   2.475   3.120   0.006
 3067TIP3    H2 9208   2.415   3.037   0.118
 3068TIP3   OH2 9209   5.969   3.423   4.569
 3068TIP3    H1 9210   5.916   3.487   4.617
 3068TIP3    H2 9211   6.039   3.475   4.529
 3069TIP3   OH2 9212   5.796   0.761   0.748
 3069TIP3    H1 9213   5.850   0.812   0.688
 3069TIP3    H2 9214   5.854   0.693   0.781
 3070TIP3   OH2 9215   1.901   1.759   5.122
 3070TIP3    H1 9216   1.850   1.781   5.200
 3070TIP3    H2 9217   1.939   1.673   5.141
 3071TIP3   OH2 9218   2.661   2.571   0.508
 3071TIP3    H1 9219   2.751   2.547   0.530
 3071TIP3    H2 9220   2.617   2.487   0.491
 3072TIP3   OH2 9221   5.656   2.606   4.766
 3072TIP3    H1 9222   5.716   2.680   4.769
 3072TIP3    H2 9223   5.652   2.574   4.856
 3073TIP3   OH2 9224   2.552   1.979   1.269
 3073TIP3    H1 9225   2.522   2.030   1.344
 3073TIP3    H2 9226   2.486   1.911   1.256
 3074TIP3   OH2 9227   1.640   4.887   2.268
 3074TIP3    H1 9228   1.660   4.910   2.177
 3074TIP3    H2 9229   1.597   4.965   2.304
 3075TIP3   OH2 9230   0.551   1.613   0.664
 3075TIP3    H1 9231   0.471   1.637   0.618
 3075TIP3    H2 9232   0.521   1.570   0.744
 3076TIP3   OH2 9233   2.863   3.278   0.063
 3076TIP3    H1 9234   2.809   3.230   0.000
 3076TIP3    H2 9235   2.812   3.357   0.083
 3077TIP3   OH2 9236   2.992   4.082   0.568
 3077TIP3    H1 9237   3.000   4.137   0.646
 3077TIP3    H2 9238   3.041   4.002   0.590
 3078TIP3   OH2 9239   5.947   3.613   3.040
 3078TIP3    H1 9240   6.038   3.626   3.014
 3078TIP3    H2 9241   5.951   3.554   3.115
 3079TIP3   OH2 9242   2.384   3.393   2.686
 3079TIP3    H1 9243   2.461   3.395   2.744
 3079TIP3    H2 9244   2.312   3.420   2.742
 3080TIP3   OH2 9245   0.596   5.921   4.325
 3080TIP3    H1 9246   0.542   5.985   4.278
 3080TIP3    H2 9247   0.663   5.895   4.261
 3081TIP3   OH2 9248   5.149   0.179   0.232
 3081TIP3    H1 9249   5.188   0.266   0.223
 3081TIP3    H2 9250   5.169   0.135   0.149
 3082TIP3   OH2 9251   3.358   1.815   4.415
 3082TIP3    H1 9252   3.452   1.829   4.402
 3082TIP3    H2 9253   3.317   1.854   4.338
 3083TIP3   OH2 9254   2.464   1.497   3.858
 3083TIP3    H1 9255   2.411   1.576   3.850
 3083TIP3    H2 9256   2.543   1.525   3.904
 3084TIP3   OH2 9257   0.307   2.490   1.447
 3084TIP3    H1 9258   0.248   2.538   1.504
 3084TIP3    H2 9259   0.348   2.557   1.393
 3085TIP3   OH2 9260   0.158   3.714   1.128
 3085TIP3    H1 9261   0.092   3.648   1.108
 3085TIP3    H2 9262   0.111   3.797   1.123
 3086TIP3   OH2 9263   2.733   2.092   5.189
 3086TIP3    H1 9264   2.658   2.077   5.245
 3086TIP3    H2 9265   2.715   2.040   5.110
 3087TIP3   OH2 9266   5.658   5.583   4.825
 3087TIP3    H1 9267   5.613   5.500   4.837
 3087TIP3    H2 9268   5.653   5.625   4.911
 3088TIP3   OH2 9269   3.593   1.294   2.163
 3088TIP3    H1 9270   3.680   1.275   2.129
 3088TIP3    H2 9271   3.604   1.292   2.259
 3089TIP3   OH2 9272   3.640   1.698   1.308
 3089TIP3    H1 9273   3.722   1.741   1.333
 3089TIP3    H2 9274   3.592   1.689   1.390
 3090TIP3   OH2 9275   2.534   0.252   2.374
 3090TIP3    H1 9276   2.470   0.226   2.440
 3090TIP3    H2 9277   2.512   0.344   2.355
 3091TIP3   OH2 9278   4.486   3.401   3.491
 3091TIP3    H1 9279   4.433   3.436   3.419
 3091TIP3    H2 9280   4.424   3.357   3.548
 3092TIP3   OH2 9281   0.128   0.424   3.576
 3092TIP3    H1 9282   0.098   0.498   3.629
 3092TIP3    H2 9283   0.186   0.374   3.634
 3093TIP3   OH2 9284   2.873   4.168   2.100
 3093TIP3    H1 9285   2.824   4.212   2.031
 3093TIP3    H2 9286   2.958   4.213   2.102
 3094TIP3   OH2 9287   3.524   1.567   3.577
 3094TIP3    H1 9288   3.507   1.653   3.538
 3094TIP3    H2 9289   3.438   1.534   3.600
 3095TIP3   OH2 9290   1.591   1.133   1.954
 3095TIP3    H1 9291   1.497   1.119   1.946
 3095TIP3    H2 9292   1.629   1.046   1.942
 3096TIP3   OH2 9293   4.974   4.858   2.390
 3096TIP3    H1 9294   4.909   4.802   2.347
 3096TIP3    H2 9295   5.058   4.815   2.372
 3097TIP3   OH2 9296   4.057   0.717   0.670
 3097TIP3    H1 9297   3.999   0.665   0.613
 3097TIP3    H2 9298   4.138   0.726   0.619
 3098TIP3   OH2 9299   1.142   1.978   3.665
 3098TIP3    H1 9300   1.159   1.908   3.727
 3098TIP3    H2 9301   1.048   1.994   3.670
 3099TIP3   OH2 9302   1.118   5.657   2.195
 3099TIP3    H1 9303   1.167   5.682   2.273
 3099TIP3    H2 9304   1.129   5.731   2.135
 3100TIP3   OH2 9305   6.121   5.604   1.416
 3100TIP3    H1 9306   6.051   5.642   1.468
 3100TIP3    H2 9307   6.091   5.516   1.395
 3101TIP3   OH2 9308   5.618   1.699   1.264
 3101TIP3    H1 9309   5.627   1.791   1.289
 3101TIP3    H2 9310   5.615   1.702   1.168
 3102TIP3   OH2 9311   2.692   5.211   1.752
 3102TIP3    H1 9312   2.722   5.246   1.836
 3102TIP3    H2 9313   2.613   5.161   1.774
 3103TIP3   OH2 9314   1.830   1.977   3.293
 3103TIP3    H1 9315   1.834   2.072   3.303
 3103TIP3    H2 9316   1.797   1.946   3.377
 3104TIP3   OH2 9317   4.670   4.645   2.883
 3104TIP3    H1 9318   4.723   4.722   2.905
 3104TIP3    H2 9319   4.726   4.595   2.823
 3105TIP3   OH2 9320   2.669   1.859   1.827
 3105TIP3    H1 9321   2.726   1.787   1.802
 3105TIP3    H2 9322   2.616   1.876   1.748
 3106TIP3   OH2 9323   2.332   1.768   3.892
 3106TIP3    H1 9324   2.345   1.857   3.925
 3106TIP3    H2 9325   2.318   1.780   3.798
 3107TIP3   OH2 9326   1.350   1.880   3.416
 3107TIP3    H1 9327   1.406   1.821   3.467
 3107TIP3    H2 9328   1.291   1.822   3.369
 3108TIP3   OH2 9329   6.185   0.265   1.267
 3108TIP3    H1 9330   6.169   0.293   1.177
 3108TIP3    H2 9331   6.160   0.173   1.269
 3109TIP3   OH2 9332   5.777   3.055   1.581
 3109TIP3    H1 9333   5.790   3.137   1.629
 3109TIP3    H2 9334   5.724   3.001   1.640
 3110TIP3   OH2 9335   0.394   1.987   0.264
 3110TIP3    H1 9336   0.411   1.947   0.350
 3110TIP3    H2 9337   0.303   2.016   0.268
 3111TIP3   OH2 9338   3.497   5.858   2.347
 3111TIP3    H1 9339   3.572   5.892   2.396
 3111TIP3    H2 9340   3.421   5.890   2.396
 3112TIP3   OH2 9341   2.224   3.324   1.241
 3112TIP3    H1 9342   2.306   3.344   1.197
 3112TIP3    H2 9343   2.171   3.281   1.174
 3113TIP3   OH2 9344   1.634   2.535   1.972
 3113TIP3    H1 9345   1.592   2.616   2.002
 3113TIP3    H2 9346   1.586   2.511   1.893
 3114TIP3   OH2 9347   6.258   4.280   1.592
 3114TIP3    H1 9348   6.341   4.302   1.549
 3114TIP3    H2 9349   6.213   4.224   1.529
 3115TIP3   OH2 9350   2.286   0.273   1.801
 3115TIP3    H1 9351   2.283   0.239   1.712
 3115TIP3    H2 9352   2.267   0.197   1.857
 3116TIP3   OH2 9353   2.528   3.512   5.101
 3116TIP3    H1 9354   2.565   3.558   5.026
 3116TIP3    H2 9355   2.535   3.574   5.174
 3117TIP3   OH2 9356   3.847   2.885   4.996
 3117TIP3    H1 9357   3.889   2.956   5.045
 3117TIP3    H2 9358   3.758   2.882   5.031
 3118TIP3   OH2 9359   1.213   3.019   4.642
 3118TIP3    H1 9360   1.229   3.002   4.549
 3118TIP3    H2 9361   1.171   2.938   4.673
 3119TIP3   OH2 9362   5.580   5.086   2.153
 3119TIP3    H1 9363   5.497   5.057   2.115
 3119TIP3    H2 9364   5.602   5.165   2.103
 3120TIP3   OH2 9365   6.208   3.931   0.775
 3120TIP3    H1 9366   6.186   3.985   0.699
 3120TIP3    H2 9367   6.213   3.993   0.848
 3121TIP3   OH2 9368   3.761   4.143   3.275
 3121TIP3    H1 9369   3.822   4.185   3.213
 3121TIP3    H2 9370   3.698   4.098   3.219
 3122TIP3   OH2 9371   2.844   2.079   0.573
 3122TIP3    H1 9372   2.854   2.174   0.582
 3122TIP3    H2 9373   2.901   2.056   0.499
 3123TIP3   OH2 9374   1.928   4.727   4.481
 3123TIP3    H1 9375   1.854   4.682   4.441
 3123TIP3    H2 9376   1.915   4.716   4.575
 3124TIP3   OH2 9377   3.581   2.601   1.493
 3124TIP3    H1 9378   3.648   2.620   1.558
 3124TIP3    H2 9379   3.561   2.686   1.454
 3125TIP3   OH2 9380   5.452   3.196   3.442
 3125TIP3    H1 9381   5.532   3.244   3.461
 3125TIP3    H2 9382   5.413   3.179   3.528
 3126TIP3   OH2 9383   4.291   3.515   2.591
 3126TIP3    H1 9384   4.361   3.456   2.620
 3126TIP3    H2 9385   4.230   3.518   2.664
 3127TIP3   OH2 9386   4.326   0.275   2.730
 3127TIP3    H1 9387   4.412   0.268   2.772
 3127TIP3    H2 9388   4.275   0.203   2.768
 3128TIP3   OH2 9389   4.151   4.369   4.983
 3128TIP3    H1 9390   4.186   4.289   5.023
 3128TIP3    H2 9391   4.180   4.363   4.892
 3129TIP3   OH2 9392   3.248   3.631   0.302
 3129TIP3    H1 9393   3.217   3.550   0.343
 3129TIP3    H2 9394   3.305   3.602   0.232
 3130TIP3   OH2 9395   3.518   2.978   1.028
 3130TIP3    H1 9396   3.572   3.032   0.970
 3130TIP3    H2 9397   3.499   2.900   0.976
 3131TIP3   OH2 9398   2.946   1.928   2.276
 3131TIP3    H1 9399   2.858   1.964   2.285
 3131TIP3    H2 9400   2.955   1.911   2.182
 3132TIP3   OH2 9401   5.702   3.212   1.210
 3132TIP3    H1 9402   5.617   3.206   1.166
 3132TIP3    H2 9403   5.727   3.304   1.201
 3133TIP3   OH2 9404   2.730   4.516   3.867
 3133TIP3    H1 9405   2.759   4.434   3.907
 3133TIP3    H2 9406   2.795   4.534   3.800
 3134TIP3   OH2 9407   3.524   2.141   0.032
 3134TIP3    H1 9408   3.544   2.089  -0.045
 3134TIP3    H2 9409   3.428   2.139   0.039
 3135TIP3   OH2 9410   2.614   4.164   5.155
 3135TIP3    H1 9411   2.590   4.089   5.102
 3135TIP3    H2 9412   2.638   4.232   5.092
 3136TIP3   OH2 9413   2.262   3.712   3.063
 3136TIP3    H1 9414   2.216   3.791   3.035
 3136TIP3    H2 9415   2.240   3.702   3.155
 3137TIP3   OH2 9416   5.042   3.028   2.715
 3137TIP3    H1 9417   5.001   3.053   2.632
 3137TIP3    H2 9418   5.080   2.942   2.698
 3138TIP3   OH2 9419   4.354   1.880   0.575
 3138TIP3    H1 9420   4.321   1.901   0.488
 3138TIP3    H2 9421   4.439   1.924   0.580
 3139TIP3   OH2 9422   4.827   4.184   3.938
 3139TIP3    H1 9423   4.780   4.102   3.952
 3139TIP3    H2 9424   4.869   4.202   4.022
 3140TIP3   OH2 9425   4.410   0.143   3.455
 3140TIP3    H1 9426   4.382   0.157   3.365
 3140TIP3    H2 9427   4.329   0.141   3.506
 3141TIP3   OH2 9428   3.907   0.416   4.234
 3141TIP3    H1 9429   3.815   0.416   4.206
 3141TIP3    H2 9430   3.918   0.330   4.276
 3142TIP3   OH2 9431   4.533   2.713   1.970
 3142TIP3    H1 9432   4.610   2.769   1.969
 3142TIP3    H2 9433   4.527   2.682   2.060
 3143TIP3   OH2 9434   0.861   2.929   0.338
 3143TIP3    H1 9435   0.950   2.895   0.347
 3143TIP3    H2 9436   0.808   2.853   0.316
 3144TIP3   OH2 9437   4.986   4.307   4.500
 3144TIP3    H1 9438   5.049   4.357   4.551
 3144TIP3    H2 9439   5.038   4.244   4.450
 3145TIP3   OH2 9440   6.278   0.074   4.975
 3145TIP3    H1 9441   6.208   0.022   5.015
 3145TIP3    H2 9442   6.258   0.164   5.003
 3146TIP3   OH2 9443   1.090   2.466   3.773
 3146TIP3    H1 9444   1.169   2.519   3.762
 3146TIP3    H2 9445   1.109   2.384   3.728
 3147TIP3   OH2 9446   5.535   1.158   0.415
 3147TIP3    H1 9447   5.474   1.174   0.343
 3147TIP3    H2 9448   5.535   1.063   0.426
 3148TIP3   OH2 9449   2.207   3.184   2.849
 3148TIP3    H1 9450   2.260   3.235   2.910
 3148TIP3    H2 9451   2.237   3.209   2.762
 3149TIP3   OH2 9452   3.323   0.362   0.939
 3149TIP3    H1 9453   3.236   0.375   0.977
 3149TIP3    H2 9454   3.383   0.393   1.007
 3150TIP3   OH2 9455   5.173   5.376   0.934
 3150TIP3    H1 9456   5.081   5.362   0.956
 3150TIP3    H2 9457   5.218   5.301   0.974
 3151TIP3   OH2 9458   0.329   4.629   2.969
 3151TIP3    H1 9459   0.398   4.613   3.034
 3151TIP3    H2 9460   0.292   4.542   2.953
 3152TIP3   OH2 9461   1.000   1.965   1.653
 3152TIP3    H1 9462   0.912   1.962   1.614
 3152TIP3    H2 9463   0.984   1.971   1.747
 3153TIP3   OH2 9464   0.977   3.613   3.158
 3153TIP3    H1 9465   0.922   3.601   3.236
 3153TIP3    H2 9466   0.916   3.603   3.085
 3154TIP3   OH2 9467   4.898   3.221   4.412
 3154TIP3    H1 9468   4.936   3.292   4.360
 3154TIP3    H2 9469   4.880   3.260   4.497
 3155TIP3   OH2 9470   4.615   0.260   0.456
 3155TIP3    H1 9471   4.529   0.258   0.414
 3155TIP3    H2 9472   4.676   0.275   0.384
 3156TIP3   OH2 9473   2.483   4.073   4.765
 3156TIP3    H1 9474   2.462   4.163   4.789
 3156TIP3    H2 9475   2.424   4.054   4.692
 3157TIP3   OH2 9476   5.538   3.385   4.645
 3157TIP3    H1 9477   5.473   3.449   4.617
 3157TIP3    H2 9478   5.612   3.399   4.587
 3158TIP3   OH2 9479   0.569   0.110   4.211
 3158TIP3    H1 9480   0.561   0.120   4.116
 3158TIP3    H2 9481   0.532   0.024   4.229
 3159TIP3   OH2 9482   5.643   0.068   3.882
 3159TIP3    H1 9483   5.690   0.004   3.829
 3159TIP3    H2 9484   5.712   0.125   3.917
 3160TIP3   OH2 9485   5.363   2.059   4.786
 3160TIP3    H1 9486   5.335   2.077   4.696
 3160TIP3    H2 9487   5.306   2.114   4.840
 3161TIP3   OH2 9488   4.445   5.886   4.947
 3161TIP3    H1 9489   4.399   5.875   4.863
 3161TIP3    H2 9490   4.375   5.898   5.011
 3162TIP3   OH2 9491   1.843   0.206   4.908
 3162TIP3    H1 9492   1.815   0.115   4.894
 3162TIP3    H2 9493   1.761   0.256   4.906
 3163TIP3   OH2 9494   2.392   1.251   2.668
 3163TIP3    H1 9495   2.338   1.317   2.626
 3163TIP3    H2 9496   2.333   1.207   2.729
 3164TIP3   OH2 9497   0.686   5.331   1.842
 3164TIP3    H1 9498   0.676   5.425   1.858
 3164TIP3    H2 9499   0.631   5.314   1.765
 3165TIP3   OH2 9500   2.372   5.898   1.703
 3165TIP3    H1 9501   2.402   5.849   1.779
 3165TIP3    H2 9502   2.287   5.860   1.681
 3166TIP3   OH2 9503   5.619   2.684   1.565
 3166TIP3    H1 9504   5.711   2.660   1.556
 3166TIP3    H2 9505   5.571   2.611   1.525
 3167TIP3   OH2 9506   2.252   2.607   3.555
 3167TIP3    H1 9507   2.255   2.631   3.462
 3167TIP3    H2 9508   2.344   2.598   3.580
 3168TIP3   OH2 9509   1.002   1.454   4.642
 3168TIP3    H1 9510   0.930   1.464   4.703
 3168TIP3    H2 9511   1.071   1.410   4.692
 3169TIP3   OH2 9512   0.604   2.030   0.056
 3169TIP3    H1 9513   0.626   2.118   0.089
 3169TIP3    H2 9514   0.534   2.000   0.114
 3170TIP3   OH2 9515   2.249   3.545   2.865
 3170TIP3    H1 9516   2.189   3.490   2.916
 3170TIP3    H2 9517   2.259   3.625   2.916
 3171TIP3   OH2 9518   1.622   3.463   2.748
 3171TIP3    H1 9519   1.644   3.377   2.782
 3171TIP3    H2 9520   1.625   3.521   2.824
 3172TIP3   OH2 9521   4.275   3.793   0.319
 3172TIP3    H1 9522   4.198   3.776   0.374
 3172TIP3    H2 9523   4.306   3.878   0.348
 3173TIP3   OH2 9524   0.917   0.338   0.745
 3173TIP3    H1 9525   0.824   0.324   0.728
 3173TIP3    H2 9526   0.956   0.250   0.745
 3174TIP3   OH2 9527   4.705   4.652   4.336
 3174TIP3    H1 9528   4.672   4.592   4.403
 3174TIP3    H2 9529   4.707   4.600   4.256
 3175TIP3   OH2 9530   1.493   0.411   0.019
 3175TIP3    H1 9531   1.531   0.476   0.078
 3175TIP3    H2 9532   1.429   0.459  -0.033
 3176TIP3   OH2 9533   3.586   0.646   3.717
 3176TIP3    H1 9534   3.621   0.630   3.629
 3176TIP3    H2 9535   3.653   0.612   3.776
 3177TIP3   OH2 9536   0.688   0.273   1.185
 3177TIP3    H1 9537   0.746   0.349   1.196
 3177TIP3    H2 9538   0.622   0.284   1.253
 3178TIP3   OH2 9539   5.618   2.055   2.032
 3178TIP3    H1 9540   5.539   2.077   1.982
 3178TIP3    H2 9541   5.656   1.981   1.985
 3179TIP3   OH2 9542   3.760   2.579   2.329
 3179TIP3    H1 9543   3.710   2.659   2.309
 3179TIP3    H2 9544   3.800   2.554   2.245
 3180TIP3   OH2 9545   5.850   2.900   0.453
 3180TIP3    H1 9546   5.803   2.836   0.507
 3180TIP3    H2 9547   5.921   2.930   0.509
 3181TIP3   OH2 9548   2.456   5.545   4.629
 3181TIP3    H1 9549   2.540   5.590   4.624
 3181TIP3    H2 9550   2.468   5.478   4.696
 3182TIP3   OH2 9551   5.186   3.482   2.361
 3182TIP3    H1 9552   5.189   3.476   2.266
 3182TIP3    H2 9553   5.163   3.573   2.379
 3183TIP3   OH2 9554   2.548   0.790   2.780
 3183TIP3    H1 9555   2.495   0.774   2.701
 3183TIP3    H2 9556   2.484   0.790   2.852
 3184TIP3   OH2 9557   1.842   5.073   0.004
 3184TIP3    H1 9558   1.790   5.073   0.084
 3184TIP3    H2 9559   1.928   5.105   0.031
 3185TIP3   OH2 9560   2.197   2.727   2.318
 3185TIP3    H1 9561   2.126   2.783   2.351
 3185TIP3    H2 9562   2.155   2.673   2.251
 3186TIP3   OH2 9563   6.310   2.381   0.794
 3186TIP3    H1 9564   6.334   2.418   0.879
 3186TIP3    H2 9565   6.281   2.292   0.813
 3187TIP3   OH2 9566   2.703   2.933   0.204
 3187TIP3    H1 9567   2.653   3.011   0.182
 3187TIP3    H2 9568   2.730   2.897   0.119
 3188TIP3   OH2 9569   2.032   2.234   4.173
 3188TIP3    H1 9570   2.122   2.200   4.177
 3188TIP3    H2 9571   1.993   2.209   4.257
 3189TIP3   OH2 9572   6.035   0.489   1.731
 3189TIP3    H1 9573   6.017   0.437   1.653
 3189TIP3    H2 9574   5.953   0.533   1.750
 3190TIP3   OH2 9575   0.783   1.790   2.898
 3190TIP3    H1 9576   0.854   1.823   2.952
 3190TIP3    H2 9577   0.820   1.780   2.811
 3191TIP3   OH2 9578   5.847   1.039   4.259
 3191TIP3    H1 9579   5.931   1.078   4.286
 3191TIP3    H2 9580   5.783   1.108   4.275
 3192TIP3   OH2 9581  -0.001   2.213   2.461
 3192TIP3    H1 9582   0.048   2.145   2.415
 3192TIP3    H2 9583   0.053   2.236   2.536
 3193TIP3   OH2 9584   6.032   5.771   0.118
 3193TIP3    H1 9585   6.005   5.750   0.208
 3193TIP3    H2 9586   5.969   5.724   0.063
 3194TIP3   OH2 9587   0.232   1.034   4.116
 3194TIP3    H1 9588   0.216   0.948   4.155
 3194TIP3    H2 9589   0.247   1.091   4.192
 3195TIP3   OH2 9590   1.119   4.444   3.906
 3195TIP3    H1 9591   1.178   4.505   3.948
 3195TIP3    H2 9592   1.050   4.498   3.868
 3196TIP3   OH2 9593   2.887   5.211   4.868
 3196TIP3    H1 9594   2.906   5.296   4.908
 3196TIP3    H2 9595   2.940   5.210   4.788
 3197TIP3   OH2 9596   0.377   4.079   3.308
 3197TIP3    H1 9597   0.404   4.009   3.248
 3197TIP3    H2 9598   0.382   4.159   3.255
 3198TIP3   OH2 9599   1.440   1.216   5.031
 3198TIP3    H1 9600   1.463   1.192   5.121
 3198TIP3    H2 9601   1.391   1.298   5.040
 3199TIP3   OH2 9602   1.547   3.857   0.233
 3199TIP3    H1 9603   1.453   3.837   0.233
 3199TIP3    H2 9604   1.575   3.839   0.323
 3200TIP3   OH2 9605   5.794   2.678   4.321
 3200TIP3    H1 9606   5.758   2.718   4.400
 3200TIP3    H2 9607   5.836   2.597   4.352
 3201TIP3   OH2 9608   5.430   5.821   0.519
 3201TIP3    H1 9609   5.468   5.909   0.512
 3201TIP3    H2 9610   5.489   5.765   0.469
 3202TIP3   OH2 9611   0.960   1.758   0.986
 3202TIP3    H1 9612   1.051   1.785   0.999
 3202TIP3    H2 9613   0.930   1.733   1.073
 3203TIP3   OH2 9614   1.201   1.031   2.921
 3203TIP3    H1 9615   1.107   1.028   2.937
 3203TIP3    H2 9616   1.210   1.079   2.839
 3204TIP3   OH2 9617   4.838   3.103   4.156
 3204TIP3    H1 9618   4.806   3.019   4.188
 3204TIP3    H2 9619   4.841   3.159   4.234
 3205TIP3   OH2 9620   2.487   4.128   2.572
 3205TIP3    H1 9621   2.481   4.033   2.564
 3205TIP3    H2 9622   2.580   4.147   2.559
 3206TIP3   OH2 9623   5.399   4.639   1.915
 3206TIP3    H1 9624   5.437   4.726   1.908
 3206TIP3    H2 9625   5.389   4.623   2.009
 3207TIP3   OH2 9626   5.862   3.679   1.345
 3207TIP3    H1 9627   5.819   3.595   1.360
 3207TIP3    H2 9628   5.864   3.689   1.250
 3208TIP3   OH2 9629   3.420   2.893   2.147
 3208TIP3    H1 9630   3.507   2.896   2.187
 3208TIP3    H2 9631   3.370   2.834   2.204
 3209TIP3   OH2 9632   4.166   1.250   4.117
 3209TIP3    H1 9633   4.187   1.320   4.179
 3209TIP3    H2 9634   4.246   1.239   4.065
 3210TIP3   OH2 9635   0.938   1.049   4.787
 3210TIP3    H1 9636   0.877   1.041   4.714
 3210TIP3    H2 9637   0.896   1.002   4.859
 3211TIP3   OH2 9638   5.593   4.520   1.004
 3211TIP3    H1 9639   5.576   4.611   1.030
 3211TIP3    H2 9640   5.654   4.487   1.070
 3212TIP3   OH2 9641   5.598   5.327   3.266
 3212TIP3    H1 9642   5.503   5.330   3.252
 3212TIP3    H2 9643   5.633   5.388   3.201
 3213TIP3   OH2 9644   0.416   4.968   2.854
 3213TIP3    H1 9645   0.378   4.909   2.789
 3213TIP3    H2 9646   0.347   4.982   2.918
 3214TIP3   OH2 9647   5.592   4.685   3.998
 3214TIP3    H1 9648   5.569   4.773   3.966
 3214TIP3    H2 9649   5.687   4.682   3.992
 3215TIP3   OH2 9650   0.949   1.818   3.950
 3215TIP3    H1 9651   0.882   1.875   3.914
 3215TIP3    H2 9652   0.978   1.862   4.030
 3216TIP3   OH2 9653   1.681   0.590   4.868
 3216TIP3    H1 9654   1.631   0.536   4.807
 3216TIP3    H2 9655   1.771   0.561   4.857
 3217TIP3   OH2 9656   1.485   5.661   4.540
 3217TIP3    H1 9657   1.476   5.623   4.628
 3217TIP3    H2 9658   1.574   5.637   4.513
 3218TIP3   OH2 9659   3.979   5.533   3.637
 3218TIP3    H1 9660   4.003   5.441   3.643
 3218TIP3    H2 9661   4.061   5.579   3.620
 3219TIP3   OH2 9662   5.342   4.694   0.503
 3219TIP3    H1 9663   5.389   4.765   0.461
 3219TIP3    H2 9664   5.298   4.648   0.432
 3220TIP3   OH2 9665   1.130   4.676   2.727
 3220TIP3    H1 9666   1.120   4.655   2.634
 3220TIP3    H2 9667   1.053   4.729   2.748
 3221TIP3   OH2 9668   3.297   4.663   2.633
 3221TIP3    H1 9669   3.343   4.641   2.552
 3221TIP3    H2 9670   3.222   4.715   2.605
 3222TIP3   OH2 9671   1.262   1.705   4.104
 3222TIP3    H1 9672   1.201   1.706   4.031
 3222TIP3    H2 9673   1.327   1.772   4.082
 3223TIP3   OH2 9674   5.355   2.555   3.412
 3223TIP3    H1 9675   5.339   2.633   3.358
 3223TIP3    H2 9676   5.271   2.511   3.416
 3224TIP3   OH2 9677   1.329   5.208   1.956
 3224TIP3    H1 9678   1.362   5.238   1.871
 3224TIP3    H2 9679   1.335   5.285   2.012
 3225TIP3   OH2 9680   3.457   2.477   4.364
 3225TIP3    H1 9681   3.445   2.383   4.383
 3225TIP3    H2 9682   3.551   2.485   4.346
 3226TIP3   OH2 9683   4.702   2.058   2.189
 3226TIP3    H1 9684   4.747   2.028   2.268
 3226TIP3    H2 9685   4.624   2.102   2.221
 3227TIP3   OH2 9686   0.885   4.813   2.860
 3227TIP3    H1 9687   0.930   4.896   2.844
 3227TIP3    H2 9688   0.802   4.838   2.900
 3228TIP3   OH2 9689   4.117   5.553   2.521
 3228TIP3    H1 9690   4.200   5.596   2.501
 3228TIP3    H2 9691   4.071   5.614   2.577
 3229TIP3   OH2 9692   0.932   4.069   1.428
 3229TIP3    H1 9693   0.881   3.988   1.419
 3229TIP3    H2 9694   0.902   4.124   1.356
 3230TIP3   OH2 9695   1.545   2.766   0.405
 3230TIP3    H1 9696   1.603   2.784   0.479
 3230TIP3    H2 9697   1.555   2.673   0.389
 3231TIP3   OH2 9698   0.913   2.050   1.893
 3231TIP3    H1 9699   0.918   2.146   1.891
 3231TIP3    H2 9700   0.970   2.024   1.966
 3232TIP3   OH2 9701   3.317   0.944   3.929
 3232TIP3    H1 9702   3.287   0.878   3.866
 3232TIP3    H2 9703   3.301   1.028   3.886
 3233TIP3   OH2 9704   0.513   2.968   1.764
 3233TIP3    H1 9705   0.450   2.930   1.703
 3233TIP3    H2 9706   0.460   2.996   1.839
 3234TIP3   OH2 9707   6.345   3.502   1.023
 3234TIP3    H1 9708   6.399   3.452   0.961
 3234TIP3    H2 9709   6.268   3.447   1.037
 3235TIP3   OH2 9710   6.235  -0.018   2.841
 3235TIP3    H1 9711   6.258   0.052   2.902
 3235TIP3    H2 9712   6.287   0.000   2.763
 3236TIP3   OH2 9713   2.392   4.735   3.906
 3236TIP3    H1 9714   2.299   4.720   3.923
 3236TIP3    H2 9715   2.394   4.769   3.816
 3237TIP3   OH2 9716   5.058   4.141   2.221
 3237TIP3    H1 9717   5.092   4.207   2.161
 3237TIP3    H2 9718   5.093   4.166   2.306
 3238TIP3   OH2 9719   5.313   0.365   4.108
 3238TIP3    H1 9720   5.350   0.324   4.030
 3238TIP3    H2 9721   5.228   0.324   4.119
 3239TIP3   OH2 9722   1.471   1.619   4.344
 3239TIP3    H1 9723   1.489   1.615   4.438
 3239TIP3    H2 9724   1.420   1.540   4.327
 3240TIP3   OH2 9725   2.844   2.528   2.091
 3240TIP3    H1 9726   2.882   2.554   2.175
 3240TIP3    H2 9727   2.918   2.495   2.040
 3241TIP3   OH2 9728   4.019   2.488   4.573
 3241TIP3    H1 9729   3.956   2.482   4.645
 3241TIP3    H2 9730   4.082   2.419   4.591
 3242TIP3   OH2 9731   1.831   5.675   1.988
 3242TIP3    H1 9732   1.871   5.606   1.935
 3242TIP3    H2 9733   1.856   5.757   1.945
 3243TIP3   OH2 9734   5.963   3.202   4.956
 3243TIP3    H1 9735   5.902   3.192   4.884
 3243TIP3    H2 9736   6.039   3.246   4.918
 3244TIP3   OH2 9737   2.547   4.169   1.918
 3244TIP3    H1 9738   2.462   4.153   1.877
 3244TIP3    H2 9739   2.540   4.129   2.005
 3245TIP3   OH2 9740   1.550   0.554   4.192
 3245TIP3    H1 9741   1.504   0.635   4.169
 3245TIP3    H2 9742   1.511   0.526   4.274
 3246TIP3   OH2 9743   4.624   2.160   2.647
 3246TIP3    H1 9744   4.542   2.164   2.697
 3246TIP3    H2 9745   4.675   2.235   2.677
 3247TIP3   OH2 9746   1.680   5.171   0.194
 3247TIP3    H1 9747   1.694   5.200   0.284
 3247TIP3    H2 9748   1.585   5.156   0.188
 3248TIP3   OH2 9749   2.960   0.614   1.982
 3248TIP3    H1 9750   2.963   0.578   1.893
 3248TIP3    H2 9751   2.913   0.696   1.973
 3249TIP3   OH2 9752   1.412   1.486   1.594
 3249TIP3    H1 9753   1.363   1.480   1.677
 3249TIP3    H2 9754   1.502   1.502   1.621
 3250TIP3   OH2 9755   3.047   2.552   1.050
 3250TIP3    H1 9756   3.115   2.610   1.083
 3250TIP3    H2 9757   3.094   2.486   0.999
 3251TIP3   OH2 9758   5.608   4.713   2.217
 3251TIP3    H1 9759   5.684   4.770   2.211
 3251TIP3    H2 9760   5.578   4.722   2.307
 3252TIP3   OH2 9761   3.640   5.362   0.678
 3252TIP3    H1 9762   3.723   5.395   0.709
 3252TIP3    H2 9763   3.625   5.408   0.595
 3253TIP3   OH2 9764   2.703   4.638   0.401
 3253TIP3    H1 9765   2.609   4.633   0.416
 3253TIP3    H2 9766   2.741   4.646   0.489
 3254TIP3   OH2 9767   4.361   3.560   1.291
 3254TIP3    H1 9768   4.398   3.543   1.204
 3254TIP3    H2 9769   4.333   3.475   1.323
 3255TIP3   OH2 9770   4.342   2.508   0.039
 3255TIP3    H1 9771   4.266   2.524  -0.017
 3255TIP3    H2 9772   4.414   2.491  -0.022
 3256TIP3   OH2 9773   1.255   4.231   1.983
 3256TIP3    H1 9774   1.192   4.229   1.910
 3256TIP3    H2 9775   1.259   4.140   2.013
 3257TIP3   OH2 9776   4.467   4.931   2.914
 3257TIP3    H1 9777   4.371   4.931   2.918
 3257TIP3    H2 9778   4.489   4.851   2.867
 3258TIP3   OH2 9779   0.623   1.318   0.888
 3258TIP3    H1 9780   0.530   1.307   0.906
 3258TIP3    H2 9781   0.632   1.303   0.794
 3259TIP3   OH2 9782   1.498   4.687   4.281
 3259TIP3    H1 9783   1.557   4.656   4.349
 3259TIP3    H2 9784   1.554   4.735   4.220
 3260TIP3   OH2 9785   2.979   1.195   1.214
 3260TIP3    H1 9786   3.052   1.241   1.172
 3260TIP3    H2 9787   2.989   1.214   1.307
 3261TIP3   OH2 9788   3.454   3.547   4.029
 3261TIP3    H1 9789   3.429   3.552   3.937
 3261TIP3    H2 9790   3.457   3.453   4.048
 3262TIP3   OH2 9791   5.732   4.538   4.615
 3262TIP3    H1 9792   5.665   4.588   4.661
 3262TIP3    H2 9793   5.758   4.469   4.676
 3263TIP3   OH2 9794   5.496   0.154   1.798
 3263TIP3    H1 9795   5.432   0.175   1.730
 3263TIP3    H2 9796   5.509   0.237   1.843
 3264TIP3   OH2 9797   4.578   1.715   4.192
 3264TIP3    H1 9798   4.501   1.730   4.247
 3264TIP3    H2 9799   4.602   1.624   4.207
 3265TIP3   OH2 9800   5.834   2.967   4.148
 3265TIP3    H1 9801   5.790   2.901   4.094
 3265TIP3    H2 9802   5.911   2.922   4.183
 3266TIP3   OH2 9803   0.733   4.215   4.510
 3266TIP3    H1 9804   0.806   4.257   4.555
 3266TIP3    H2 9805   0.656   4.265   4.536
 3267TIP3   OH2 9806   2.283   5.027   1.185
 3267TIP3    H1 9807   2.292   5.074   1.102
 3267TIP3    H2 9808   2.189   5.010   1.193
 3268TIP3   OH2 9809   3.711   1.622   4.304
 3268TIP3    H1 9810   3.774   1.550   4.301
 3268TIP3    H2 9811   3.763   1.701   4.288
 3269TIP3   OH2 9812   0.914   1.036   2.899
 3269TIP3    H1 9813   0.828   1.016   2.937
 3269TIP3    H2 9814   0.904   1.124   2.862
 3270TIP3   OH2 9815   3.178   2.241   1.488
 3270TIP3    H1 9816   3.110   2.175   1.502
 3270TIP3    H2 9817   3.131   2.323   1.478
 3271TIP3   OH2 9818   5.991   2.377   2.601
 3271TIP3    H1 9819   5.898   2.372   2.620
 3271TIP3    H2 9820   6.032   2.398   2.685
 3272TIP3   OH2 9821   1.789   3.353   4.101
 3272TIP3    H1 9822   1.784   3.268   4.057
 3272TIP3    H2 9823   1.744   3.339   4.184
 3273TIP3   OH2 9824   1.668   3.893   1.422
 3273TIP3    H1 9825   1.606   3.947   1.372
 3273TIP3    H2 9826   1.703   3.831   1.359
 3274TIP3   OH2 9827   1.704   0.347   2.528
 3274TIP3    H1 9828   1.799   0.346   2.536
 3274TIP3    H2 9829   1.684   0.433   2.491
 3275TIP3   OH2 9830   0.885   5.374   3.084
 3275TIP3    H1 9831   0.952   5.370   3.153
 3275TIP3    H2 9832   0.931   5.413   3.009
 3276TIP3   OH2 9833   0.416   5.925   0.028
 3276TIP3    H1 9834   0.441   5.882   0.110
 3276TIP3    H2 9835   0.321   5.925   0.030
 3277TIP3   OH2 9836   1.635   5.736   0.423
 3277TIP3    H1 9837   1.627   5.677   0.498
 3277TIP3    H2 9838   1.546   5.742   0.388
 3278TIP3   OH2 9839   0.331   5.986   0.765
 3278TIP3    H1 9840   0.370   5.940   0.839
 3278TIP3    H2 9841   0.315   5.919   0.699
 3279TIP3   OH2 9842   4.655   2.208   3.559
 3279TIP3    H1 9843   4.750   2.191   3.562
 3279TIP3    H2 9844   4.617   2.143   3.618
 3280TIP3   OH2 9845   0.989   2.134   0.547
 3280TIP3    H1 9846   1.052   2.136   0.476
 3280TIP3    H2 9847   1.031   2.081   0.615
 3281TIP3   OH2 9848   5.452   0.740   4.698
 3281TIP3    H1 9849   5.357   0.735   4.695
 3281TIP3    H2 9850   5.477   0.683   4.770
 3282TIP3   OH2 9851   4.439   4.913   3.333
 3282TIP3    H1 9852   4.497   4.848   3.373
 3282TIP3    H2 9853   4.491   4.950   3.262
 3283TIP3   OH2 9854   5.221   0.056   3.422
 3283TIP3    H1 9855   5.288  -0.007   3.396
 3283TIP3    H2 9856   5.266   0.115   3.483
 3284TIP3   OH2 9857   0.684   5.819   2.314
 3284TIP3    H1 9858   0.594   5.842   2.334
 3284TIP3    H2 9859   0.685   5.723   2.309
 3285TIP3   OH2 9860   4.502   2.506   3.256
 3285TIP3    H1 9861   4.481   2.461   3.338
 3285TIP3    H2 9862   4.427   2.564   3.242
 3286TIP3   OH2 9863   5.741   5.489   3.039
 3286TIP3    H1 9864   5.786   5.474   2.956
 3286TIP3    H2 9865   5.679   5.560   3.021
 3287TIP3   OH2 9866   2.199   1.461   1.727
 3287TIP3    H1 9867   2.282   1.450   1.773
 3287TIP3    H2 9868   2.185   1.555   1.723
 3288TIP3   OH2 9869   0.817   0.342   2.883
 3288TIP3    H1 9870   0.792   0.280   2.951
 3288TIP3    H2 9871   0.907   0.320   2.861
 3289TIP3   OH2 9872   5.096   3.300   3.097
 3289TIP3    H1 9873   5.045   3.221   3.113
 3289TIP3    H2 9874   5.173   3.270   3.049
 3290TIP3   OH2 9875   4.466   4.949   0.646
 3290TIP3    H1 9876   4.491   5.017   0.708
 3290TIP3    H2 9877   4.549   4.914   0.615
 3291TIP3   OH2 9878   1.488   4.344   4.467
 3291TIP3    H1 9879   1.486   4.341   4.371
 3291TIP3    H2 9880   1.467   4.436   4.488
 3292TIP3   OH2 9881   0.740   4.556   3.337
 3292TIP3    H1 9882   0.819   4.551   3.390
 3292TIP3    H2 9883   0.679   4.609   3.387
 3293TIP3   OH2 9884   0.227   0.449   3.909
 3293TIP3    H1 9885   0.254   0.540   3.920
 3293TIP3    H2 9886   0.293   0.399   3.957
 3294TIP3   OH2 9887   4.381   0.366   4.730
 3294TIP3    H1 9888   4.470   0.330   4.739
 3294TIP3    H2 9889   4.378   0.399   4.639
 3295TIP3   OH2 9890   4.862   0.644   4.126
 3295TIP3    H1 9891   4.777   0.667   4.089
 3295TIP3    H2 9892   4.871   0.700   4.203
 3296TIP3   OH2 9893   2.482   5.001   4.733
 3296TIP3    H1 9894   2.420   4.928   4.741
 3296TIP3    H2 9895   2.539   4.992   4.810
 3297TIP3   OH2 9896   1.615   3.659   0.811
 3297TIP3    H1 9897   1.628   3.569   0.783
 3297TIP3    H2 9898   1.556   3.653   0.886
 3298TIP3   OH2 9899   5.613   2.205   4.744
 3298TIP3    H1 9900   5.569   2.290   4.736
 3298TIP3    H2 9901   5.547   2.148   4.783
 3299TIP3   OH2 9902   5.882   5.140   3.915
 3299TIP3    H1 9903   5.868   5.202   3.986
 3299TIP3    H2 9904   5.959   5.090   3.941
 3300TIP3   OH2 9905   1.956   0.488   4.806
 3300TIP3    H1 9906   1.921   0.463   4.720
 3300TIP3    H2 9907   2.025   0.424   4.824
 3301TIP3   OH2 9908   4.333   4.125   3.821
 3301TIP3    H1 9909   4.244   4.147   3.848
 3301TIP3    H2 9910   4.365   4.205   3.780
 3302TIP3   OH2 9911   3.317   3.005   0.064
 3302TIP3    H1 9912   3.245   2.954   0.026
 3302TIP3    H2 9913   3.363   3.041  -0.011
 3303TIP3   OH2 9914   5.398   2.278   4.089
 3303TIP3    H1 9915   5.337   2.321   4.030
 3303TIP3    H2 9916   5.435   2.348   4.142
 3304TIP3   OH2 9917   3.101   5.582   5.176
 3304TIP3    H1 9918   3.085   5.489   5.191
 3304TIP3    H2 9919   3.192   5.587   5.146
 3305TIP3   OH2 9920   5.464   4.790   4.521
 3305TIP3    H1 9921   5.537   4.814   4.463
 3305TIP3    H2 9922   5.502   4.727   4.582
 3306TIP3   OH2 9923   4.085   3.203   0.640
 3306TIP3    H1 9924   3.993   3.227   0.633
 3306TIP3    H2 9925   4.123   3.268   0.699
 3307TIP3   OH2 9926   0.820   5.195   2.829
 3307TIP3    H1 9927   0.836   5.263   2.895
 3307TIP3    H2 9928   0.730   5.167   2.845
 3308TIP3   OH2 9929   3.757   4.454   0.350
 3308TIP3    H1 9930   3.676   4.425   0.393
 3308TIP3    H2 9931   3.732   4.532   0.301
 3309TIP3   OH2 9932   0.347   2.804   0.389
 3309TIP3    H1 9933   0.435   2.841   0.394
 3309TIP3    H2 9934   0.289   2.877   0.411
 3310TIP3   OH2 9935   3.999   1.029   0.551
 3310TIP3    H1 9936   4.022   0.940   0.577
 3310TIP3    H2 9937   4.080   1.078   0.559
 3311TIP3   OH2 9938   4.638   5.434   0.826
 3311TIP3    H1 9939   4.704   5.491   0.785
 3311TIP3    H2 9940   4.563   5.438   0.766
 3312TIP3   OH2 9941   5.698   2.706   2.249
 3312TIP3    H1 9942   5.777   2.756   2.227
 3312TIP3    H2 9943   5.731   2.623   2.283
 3313TIP3   OH2 9944   2.702   3.207   4.711
 3313TIP3    H1 9945   2.718   3.295   4.678
 3313TIP3    H2 9946   2.771   3.193   4.775
 3314TIP3   OH2 9947   0.258   0.194   0.400
 3314TIP3    H1 9948   0.299   0.180   0.485
 3314TIP3    H2 9949   0.228   0.285   0.403
 3315TIP3   OH2 9950   5.210   1.634   3.674
 3315TIP3    H1 9951   5.213   1.539   3.685
 3315TIP3    H2 9952   5.181   1.667   3.759
 3316TIP3   OH2 9953   1.632   1.234   4.295
 3316TIP3    H1 9954   1.640   1.172   4.223
 3316TIP3    H2 9955   1.546   1.274   4.283
 3317TIP3   OH2 9956   0.894   4.603   1.696
 3317TIP3    H1 9957   0.844   4.670   1.648
 3317TIP3    H2 9958   0.985   4.626   1.680
 3318TIP3   OH2 9959   2.765   2.521   3.456
 3318TIP3    H1 9960   2.715   2.518   3.374
 3318TIP3    H2 9961   2.811   2.604   3.454
 3319TIP3   OH2 9962   0.756   4.743   1.204
 3319TIP3    H1 9963   0.832   4.750   1.263
 3319TIP3    H2 9964   0.768   4.658   1.161
 3320TIP3   OH2 9965   1.503   4.353   2.119
 3320TIP3    H1 9966   1.415   4.315   2.111
 3320TIP3    H2 9967   1.492   4.425   2.181
 3321TIP3   OH2 9968   4.889   3.926   2.277
 3321TIP3    H1 9969   4.826   3.993   2.248
 3321TIP3    H2 9970   4.974   3.968   2.268
 3322TIP3   OH2 9971   3.759   5.622   4.217
 3322TIP3    H1 9972   3.851   5.617   4.245
 3322TIP3    H2 9973   3.746   5.543   4.164
 3323TIP3   OH2 9974   1.549   3.169   2.616
 3323TIP3    H1 9975   1.567   3.075   2.613
 3323TIP3    H2 9976   1.587   3.203   2.535
 3324TIP3   OH2 9977   3.310   0.282   3.692
 3324TIP3    H1 9978   3.321   0.266   3.598
 3324TIP3    H2 9979   3.284   0.374   3.697
 3325TIP3   OH2 9980   2.817   3.324   4.341
 3325TIP3    H1 9981   2.780   3.379   4.273
 3325TIP3    H2 9982   2.868   3.384   4.395
 3326TIP3   OH2 9983   3.860   1.770   4.555
 3326TIP3    H1 9984   3.772   1.732   4.563
 3326TIP3    H2 9985   3.848   1.863   4.574
 3327TIP3   OH2 9986   0.962   4.118   0.035
 3327TIP3    H1 9987   0.932   4.177  -0.033
 3327TIP3    H2 9988   1.057   4.130   0.038
 3328TIP3   OH2 9989   0.321   5.051   1.604
 3328TIP3    H1 9990   0.405   5.070   1.564
 3328TIP3    H2 9991   0.316   5.109   1.680
 3329TIP3   OH2 9992   2.022   3.977   3.299
 3329TIP3    H1 9993   1.980   4.043   3.243
 3329TIP3    H2 9994   2.030   3.900   3.243
 3330TIP3   OH2 9995   2.168   2.297   1.842
 3330TIP3    H1 9996   2.187   2.327   1.931
 3330TIP3    H2 9997   2.074   2.278   1.843
 3331TIP3   OH2 9998   1.614   2.288   3.742
 3331TIP3    H1 9999   1.527   2.279   3.781
 3331TIP3    H210000   1.631   2.204   3.699
 3332TIP3   OH210001   1.391   5.761   0.318
 3332TIP3    H110002   1.348   5.845   0.336
 3332TIP3    H210003   1.364   5.739   0.229
 3333TIP3   OH210004   1.456   3.581   3.170
 3333TIP3    H110005   1.453   3.651   3.235
 3333TIP3    H210006   1.382   3.597   3.113
 3334TIP3   OH210007   1.545   2.876   1.444
 3334TIP3    H110008   1.502   2.819   1.380
 3334TIP3    H210009   1.623   2.907   1.399
 3335TIP3   OH210010   3.883   1.631   2.255
 3335TIP3    H110011   3.868   1.550   2.304
 3335TIP3    H210012   3.818   1.692   2.290
 3336TIP3   OH210013   1.227   5.953   5.115
 3336TIP3    H110014   1.136   5.979   5.101
 3336TIP3    H210015   1.247   5.892   5.044
 3337TIP3   OH210016   4.682   1.395   3.747
 3337TIP3    H110017   4.743   1.470   3.747
 3337TIP3    H210018   4.612   1.422   3.807
 3338TIP3   OH210019   1.711   2.276   2.067
 3338TIP3    H110020   1.646   2.223   2.021
 3338TIP3    H210021   1.674   2.364   2.069
 3339TIP3   OH210022   6.287   1.150   2.308
 3339TIP3    H110023   6.337   1.180   2.232
 3339TIP3    H210024   6.284   1.226   2.366
 3340TIP3   OH210025   5.198   5.671   0.514
 3340TIP3    H110026   5.212   5.614   0.589
 3340TIP3    H210027   5.270   5.734   0.517
 3341TIP3   OH210028   4.455   0.859   5.172
 3341TIP3    H110029   4.412   0.911   5.239
 3341TIP3    H210030   4.421   0.894   5.089
 3342TIP3   OH210031   0.148   4.762   3.119
 3342TIP3    H110032   0.125   4.850   3.089
 3342TIP3    H210033   0.207   4.729   3.052
 3343TIP3   OH210034   2.283   3.069   1.078
 3343TIP3    H110035   2.245   3.003   1.136
 3343TIP3    H210036   2.234   3.060   0.996
 3344TIP3   OH210037   4.381   3.176   3.270
 3344TIP3    H110038   4.473   3.157   3.289
 3344TIP3    H210039   4.334   3.151   3.349
 3345TIP3   OH210040   2.706   0.040   1.729
 3345TIP3    H110041   2.797   0.068   1.745
 3345TIP3    H210042   2.684   0.079   1.644
 3346TIP3   OH210043   3.591   2.330   5.062
 3346TIP3    H110044   3.626   2.332   5.151
 3346TIP3    H210045   3.499   2.308   5.073
 3347TIP3   OH210046   5.410   1.051   2.592
 3347TIP3    H110047   5.352   1.027   2.520
 3347TIP3    H210048   5.473   0.979   2.596
 3348TIP3   OH210049   4.358   5.497   1.432
 3348TIP3    H110050   4.410   5.531   1.505
 3348TIP3    H210051   4.399   5.534   1.354
 3349TIP3   OH210052   3.742   5.049   0.698
 3349TIP3    H110053   3.780   4.966   0.725
 3349TIP3    H210054   3.655   5.027   0.665
 3350TIP3   OH210055   4.240   5.310   1.278
 3350TIP3    H110056   4.300   5.374   1.316
 3350TIP3    H210057   4.229   5.243   1.347
 3351TIP3   OH210058   2.167   3.012   0.309
 3351TIP3    H110059   2.152   2.967   0.392
 3351TIP3    H210060   2.223   2.953   0.259
 3352TIP3   OH210061   3.313   3.271   5.074
 3352TIP3    H110062   3.395   3.223   5.085
 3352TIP3    H210063   3.245   3.205   5.083
 3353TIP3   OH210064   0.665   2.406   3.719
 3353TIP3    H110065   0.683   2.365   3.803
 3353TIP3    H210066   0.652   2.332   3.659
 3354TIP3   OH210067   1.416   2.775   2.518
 3354TIP3    H110068   1.375   2.810   2.597
 3354TIP3    H210069   1.413   2.680   2.530
 3355TIP3   OH210070   1.448   4.267   2.468
 3355TIP3    H110071   1.384   4.224   2.411
 3355TIP3    H210072   1.415   4.357   2.477
 3356TIP3   OH210073   4.507   1.322   2.897
 3356TIP3    H110074   4.571   1.300   2.965
 3356TIP3    H210075   4.434   1.262   2.914
 3357TIP3   OH210076   4.474   5.230   4.804
 3357TIP3    H110077   4.387   5.261   4.827
 3357TIP3    H210078   4.460   5.167   4.733
 3358TIP3   OH210079   1.809   5.061   3.404
 3358TIP3    H110080   1.773   4.978   3.437
 3358TIP3    H210081   1.847   5.038   3.319
 3359TIP3   OH210082   4.124   5.632   0.870
 3359TIP3    H110083   4.141   5.579   0.792
 3359TIP3    H210084   4.180   5.593   0.938
 3360TIP3   OH210085   1.093   3.231   4.260
 3360TIP3    H110086   1.173   3.240   4.208
 3360TIP3    H210087   1.052   3.318   4.255
 3361TIP3   OH210088   6.051   1.165   4.649
 3361TIP3    H110089   6.066   1.171   4.555
 3361TIP3    H210090   6.128   1.120   4.683
 3362TIP3   OH210091   5.193   1.648   2.761
 3362TIP3    H110092   5.154   1.562   2.779
 3362TIP3    H210093   5.182   1.659   2.666
 3363TIP3   OH210094   3.054   2.011   4.419
 3363TIP3    H110095   3.077   2.102   4.435
 3363TIP3    H210096   3.055   2.002   4.323
 3364TIP3   OH210097   0.432   2.139   1.940
 3364TIP3    H110098   0.396   2.204   1.880
 3364TIP3    H210099   0.513   2.179   1.973
 3365TIP3   OH210100   5.847   3.953   3.227
 3365TIP3    H110101   5.857   3.874   3.175
 3365TIP3    H210102   5.753   3.959   3.245
 3366TIP3   OH210103   6.196   3.634   2.895
 3366TIP3    H110104   6.279   3.613   2.852
 3366TIP3    H210105   6.212   3.719   2.937
 3367TIP3   OH210106   3.730   1.521   1.047
 3367TIP3    H110107   3.811   1.504   1.096
 3367TIP3    H210108   3.682   1.584   1.101
 3368TIP3   OH210109   0.800   0.082   4.569
 3368TIP3    H110110   0.812   0.122   4.483
 3368TIP3    H210111   0.750   0.002   4.552
 3369TIP3   OH210112   0.064   1.362   4.662
 3369TIP3    H110113   0.069   1.424   4.590
 3369TIP3    H210114   0.154   1.333   4.675
 3370TIP3   OH210115   0.979   1.998   2.499
 3370TIP3    H110116   0.959   2.003   2.405
 3370TIP3    H210117   1.065   2.039   2.507
 3371TIP3   OH210118   5.909   1.597   4.078
 3371TIP3    H110119   5.851   1.522   4.070
 3371TIP3    H210120   5.934   1.598   4.170
 3372TIP3   OH210121   5.412   3.421   0.324
 3372TIP3    H110122   5.379   3.331   0.322
 3372TIP3    H210123   5.362   3.462   0.395
 3373TIP3   OH210124   5.618   1.589   4.346
 3373TIP3    H110125   5.712   1.601   4.355
 3373TIP3    H210126   5.598   1.618   4.257
 3374TIP3   OH210127   1.968   1.306   4.604
 3374TIP3    H110128   1.914   1.383   4.620
 3374TIP3    H210129   1.985   1.308   4.509
 3375TIP3   OH210130   5.753   3.280   1.709
 3375TIP3    H110131   5.701   3.345   1.662
 3375TIP3    H210132   5.836   3.323   1.728
 3376TIP3   OH210133   0.945   2.351   2.925
 3376TIP3    H110134   0.906   2.305   2.999
 3376TIP3    H210135   0.885   2.335   2.852
 3377TIP3   OH210136   4.612   3.241   1.773
 3377TIP3    H110137   4.589   3.165   1.827
 3377TIP3    H210138   4.661   3.298   1.832
 3378TIP3   OH210139   1.392   4.582   2.757
 3378TIP3    H110140   1.382   4.498   2.802
 3378TIP3    H210141   1.304   4.603   2.725
 3379TIP3   OH210142   5.670   1.382   4.921
 3379TIP3    H110143   5.760   1.408   4.943
 3379TIP3    H210144   5.655   1.302   4.971
 3380TIP3   OH210145   0.455   1.931   4.375
 3380TIP3    H110146   0.519   1.916   4.306
 3380TIP3    H210147   0.495   1.996   4.432
 3381TIP3   OH210148   4.862   5.089   2.285
 3381TIP3    H110149   4.917   5.017   2.315
 3381TIP3    H210150   4.858   5.149   2.360
 3382TIP3   OH210151   1.162   0.177   1.125
 3382TIP3    H110152   1.249   0.139   1.139
 3382TIP3    H210153   1.104   0.127   1.183
 3383TIP3   OH210154   2.041   1.110   4.807
 3383TIP3    H110155   2.017   1.033   4.755
 3383TIP3    H210156   2.024   1.184   4.749
 3384TIP3   OH210157   0.695   4.821   1.706
 3384TIP3    H110158   0.656   4.873   1.777
 3384TIP3    H210159   0.744   4.885   1.654
 3385TIP3   OH210160   5.765   5.004   0.325
 3385TIP3    H110161   5.795   5.090   0.354
 3385TIP3    H210162   5.699   5.023   0.258
 3386TIP3   OH210163   4.196   2.248   1.487
 3386TIP3    H110164   4.205   2.339   1.513
 3386TIP3    H210165   4.268   2.234   1.425
 3387TIP3   OH210166   1.651   0.658   1.557
 3387TIP3    H110167   1.575   0.604   1.578
 3387TIP3    H210168   1.620   0.748   1.565
 3388TIP3   OH210169   0.397   2.841   0.037
 3388TIP3    H110170   0.316   2.791   0.044
 3388TIP3    H210171   0.423   2.831  -0.055
 3389TIP3   OH210172   5.167   2.386   0.347
 3389TIP3    H110173   5.130   2.387   0.435
 3389TIP3    H210174   5.208   2.472   0.336
 3390TIP3   OH210175   3.790   0.716   4.668
 3390TIP3    H110176   3.832   0.658   4.605
 3390TIP3    H210177   3.728   0.767   4.617
 3391TIP3   OH210178   5.375   4.800   1.691
 3391TIP3    H110179   5.461   4.787   1.732
 3391TIP3    H210180   5.389   4.870   1.628
 3392TIP3   OH210181   2.381   1.758   3.609
 3392TIP3    H110182   2.380   1.832   3.548
 3392TIP3    H210183   2.310   1.701   3.580
 3393TIP3   OH210184   6.359   2.389   1.727
 3393TIP3    H110185   6.288   2.328   1.745
 3393TIP3    H210186   6.342   2.464   1.784
 3394TIP3   OH210187   3.998   2.098   1.559
 3394TIP3    H110188   4.074   2.147   1.527
 3394TIP3    H210189   3.955   2.158   1.620
 3395TIP3   OH210190   2.089   0.362   1.414
 3395TIP3    H110191   2.176   0.364   1.373
 3395TIP3    H210192   2.104   0.324   1.500
 3396TIP3   OH210193   4.647   1.724   2.533
 3396TIP3    H110194   4.678   1.766   2.613
 3396TIP3    H210195   4.724   1.720   2.476
 3397TIP3   OH210196   1.766   3.334   1.514
 3397TIP3    H110197   1.750   3.288   1.596
 3397TIP3    H210198   1.681   3.332   1.469
 3398TIP3   OH210199   2.906   1.851   4.895
 3398TIP3    H110200   2.934   1.893   4.813
 3398TIP3    H210201   2.929   1.759   4.883
 3399TIP3   OH210202   5.357   2.873   0.518
 3399TIP3    H110203   5.371   2.936   0.447
 3399TIP3    H210204   5.336   2.927   0.594
 3400TIP3   OH210205   2.040   4.471   3.629
 3400TIP3    H110206   1.978   4.417   3.678
 3400TIP3    H210207   2.056   4.423   3.548
 3401TIP3   OH210208   4.889   0.841   3.566
 3401TIP3    H110209   4.809   0.890   3.544
 3401TIP3    H210210   4.866   0.749   3.552
 3402TIP3   OH210211   4.631   4.404   1.906
 3402TIP3    H110212   4.648   4.422   1.814
 3402TIP3    H210213   4.708   4.355   1.936
 3403TIP3   OH210214   3.106   3.105   2.628
 3403TIP3    H110215   3.163   3.049   2.680
 3403TIP3    H210216   3.095   3.058   2.545
 3404TIP3   OH210217   0.804   5.128   1.983
 3404TIP3    H110218   0.761   5.199   1.935
 3404TIP3    H210219   0.897   5.151   1.981
 3405TIP3   OH210220   4.665   1.725   1.959
 3405TIP3    H110221   4.745   1.767   1.927
 3405TIP3    H210222   4.608   1.798   1.981
 3406TIP3   OH210223   1.620   3.134   1.271
 3406TIP3    H110224   1.699   3.156   1.320
 3406TIP3    H210225   1.549   3.179   1.318
 3407TIP3   OH210226   1.835   4.550   1.612
 3407TIP3    H110227   1.750   4.591   1.596
 3407TIP3    H210228   1.854   4.570   1.704
 3408TIP3   OH210229   1.642   2.558   1.080
 3408TIP3    H110230   1.722   2.562   1.134
 3408TIP3    H210231   1.646   2.636   1.025
 3409TIP3   OH210232   1.608   4.939   4.417
 3409TIP3    H110233   1.696   4.930   4.381
 3409TIP3    H210234   1.571   5.015   4.372
 3410TIP3   OH210235   6.033   1.418   1.289
 3410TIP3    H110236   5.960   1.367   1.325
 3410TIP3    H210237   6.066   1.365   1.216
 3411TIP3   OH210238   0.878   0.094   2.638
 3411TIP3    H110239   0.791   0.099   2.677
 3411TIP3    H210240   0.862   0.077   2.545
 3412TIP3   OH210241   6.155   2.978   0.684
 3412TIP3    H110242   6.213   2.908   0.653
 3412TIP3    H210243   6.212   3.040   0.727
 3413TIP3   OH210244   5.522   0.950   2.118
 3413TIP3    H110245   5.505   1.036   2.078
 3413TIP3    H210246   5.606   0.923   2.083
 3414TIP3   OH210247   5.584   5.692   5.052
 3414TIP3    H110248   5.657   5.714   5.111
 3414TIP3    H210249   5.521   5.645   5.108
 3415TIP3   OH210250   5.133   0.760   1.642
 3415TIP3    H110251   5.193   0.748   1.715
 3415TIP3    H210252   5.140   0.853   1.619
 3416TIP3   OH210253   0.505   0.812   0.625
 3416TIP3    H110254   0.556   0.853   0.695
 3416TIP3    H210255   0.570   0.769   0.570
 3417TIP3   OH210256   2.177   5.855   0.451
 3417TIP3    H110257   2.082   5.838   0.450
 3417TIP3    H210258   2.187   5.932   0.506
 3418TIP3   OH210259   3.429   3.546   5.010
 3418TIP3    H110260   3.402   3.479   4.948
 3418TIP3    H210261   3.352   3.601   5.022
 3419TIP3   OH210262   2.654   4.765   0.905
 3419TIP3    H110263   2.710   4.830   0.947
 3419TIP3    H210264   2.625   4.708   0.975
 3420TIP3   OH210265   0.760   3.798   1.726
 3420TIP3    H110266   0.846   3.832   1.704
 3420TIP3    H210267   0.767   3.774   1.819
 3421TIP3   OH210268   5.848   3.641   4.659
 3421TIP3    H110269   5.905   3.705   4.617
 3421TIP3    H210270   5.759   3.671   4.639
 3422TIP3   OH210271   3.837   2.015   4.611
 3422TIP3    H110272   3.918   2.047   4.571
 3422TIP3    H210273   3.773   2.085   4.595
 3423TIP3   OH210274   1.932   0.342   0.289
 3423TIP3    H110275   1.951   0.248   0.299
 3423TIP3    H210276   1.842   0.351   0.321
 3424TIP3   OH210277   1.226   4.506   1.699
 3424TIP3    H110278   1.260   4.581   1.650
 3424TIP3    H210279   1.300   4.445   1.703
 3425TIP3   OH210280   0.421   3.651   2.962
 3425TIP3    H110281   0.466   3.627   3.043
 3425TIP3    H210282   0.473   3.610   2.893
 3426TIP3   OH210283   2.320   5.977   4.035
 3426TIP3    H110284   2.348   5.925   3.960
 3426TIP3    H210285   2.398   6.024   4.063
 3427TIP3   OH210286   6.009   4.915   3.671
 3427TIP3    H110287   6.086   4.890   3.721
 3427TIP3    H210288   6.021   5.009   3.654
 3428TIP3   OH210289   3.022   5.893   1.523
 3428TIP3    H110290   3.088   5.960   1.510
 3428TIP3    H210291   2.939   5.937   1.504
 3429TIP3   OH210292   4.521   5.326   3.804
 3429TIP3    H110293   4.500   5.321   3.710
 3429TIP3    H210294   4.562   5.242   3.824
 3430TIP3   OH210295   3.815   3.768   5.014
 3430TIP3    H110296   3.876   3.834   4.980
 3430TIP3    H210297   3.790   3.801   5.100
 3431TIP3   OH210298   0.618   5.662   4.439
 3431TIP3    H110299   0.551   5.619   4.386
 3431TIP3    H210300   0.595   5.755   4.433
 3432TIP3   OH210301   0.273   0.558   3.139
 3432TIP3    H110302   0.346   0.584   3.082
 3432TIP3    H210303   0.224   0.495   3.087
 3433TIP3   OH210304   4.293   4.590   3.086
 3433TIP3    H110305   4.267   4.680   3.069
 3433TIP3    H210306   4.377   4.597   3.132
 3434TIP3   OH210307   5.549   1.283   1.619
 3434TIP3    H110308   5.491   1.269   1.694
 3434TIP3    H210309   5.533   1.374   1.593
 3435TIP3   OH210310   0.381   3.363   3.106
 3435TIP3    H110311   0.432   3.415   3.169
 3435TIP3    H210312   0.398   3.272   3.132
 3436TIP3   OH210313   0.404   1.354   1.201
 3436TIP3    H110314   0.382   1.323   1.113
 3436TIP3    H210315   0.369   1.443   1.205
 3437TIP3   OH210316   1.939   2.108   4.719
 3437TIP3    H110317   1.852   2.085   4.685
 3437TIP3    H210318   1.959   2.038   4.781
 3438TIP3   OH210319   5.668   5.978   4.621
 3438TIP3    H110320   5.705   5.935   4.699
 3438TIP3    H210321   5.574   5.962   4.628
 3439TIP3   OH210322   4.618   4.029   0.593
 3439TIP3    H110323   4.613   3.958   0.528
 3439TIP3    H210324   4.670   4.096   0.551
 3440TIP3   OH210325   4.561   1.514   5.206
 3440TIP3    H110326   4.522   1.547   5.125
 3440TIP3    H210327   4.650   1.490   5.181
 3441TIP3   OH210328   5.220   2.645   3.192
 3441TIP3    H110329   5.308   2.655   3.155
 3441TIP3    H210330   5.179   2.576   3.139
 3442TIP3   OH210331   3.851   5.922   0.749
 3442TIP3    H110332   3.917   5.872   0.701
 3442TIP3    H210333   3.825   5.992   0.689
 3443TIP3   OH210334   0.205   1.578   1.561
 3443TIP3    H110335   0.134   1.598   1.500
 3443TIP3    H210336   0.210   1.482   1.562
 3444TIP3   OH210337   3.482   5.207   3.843
 3444TIP3    H110338   3.457   5.288   3.887
 3444TIP3    H210339   3.426   5.204   3.766
 3445TIP3   OH210340   5.428   3.136   4.699
 3445TIP3    H110341   5.446   3.229   4.713
 3445TIP3    H210342   5.502   3.091   4.740
 3446TIP3   OH210343   4.079   3.118   0.977
 3446TIP3    H110344   4.036   3.046   0.932
 3446TIP3    H210345   4.089   3.086   1.067
 3447TIP3   OH210346   1.824   1.624   2.724
 3447TIP3    H110347   1.846   1.692   2.788
 3447TIP3    H210348   1.837   1.666   2.639
 3448TIP3   OH210349   1.558   0.310   4.037
 3448TIP3    H110350   1.589   0.385   4.087
 3448TIP3    H210351   1.523   0.249   4.103
 3449TIP3   OH210352   0.269   2.688   0.628
 3449TIP3    H110353   0.197   2.751   0.623
 3449TIP3    H210354   0.324   2.708   0.553
 3450TIP3   OH210355   1.079   3.725   4.968
 3450TIP3    H110356   1.086   3.821   4.969
 3450TIP3    H210357   0.987   3.708   4.947
 3451TIP3   OH210358   0.805   1.183   1.236
 3451TIP3    H110359   0.873   1.166   1.171
 3451TIP3    H210360   0.818   1.116   1.303
 3452TIP3   OH210361   1.295   2.268   2.086
 3452TIP3    H110362   1.301   2.214   2.164
 3452TIP3    H210363   1.295   2.358   2.118
 3453TIP3   OH210364   6.327   5.651   0.714
 3453TIP3    H110365   6.394   5.607   0.766
 3453TIP3    H210366   6.254   5.664   0.775
 3454TIP3   OH210367   5.962   5.878   2.071
 3454TIP3    H110368   5.974   5.915   2.158
 3454TIP3    H210369   5.930   5.951   2.017
 3455TIP3   OH210370   2.114   0.159   3.714
 3455TIP3    H110371   2.118   0.116   3.628
 3455TIP3    H210372   2.184   0.224   3.712
 3456TIP3   OH210373   4.675   2.267   0.095
 3456TIP3    H110374   4.763   2.281   0.129
 3456TIP3    H210375   4.674   2.175   0.069
 3457TIP3   OH210376   6.295   0.387   2.339
 3457TIP3    H110377   6.265   0.349   2.422
 3457TIP3    H210378   6.215   0.401   2.289
 3458TIP3   OH210379   5.060   5.074   4.055
 3458TIP3    H110380   5.009   4.998   4.026
 3458TIP3    H210381   5.149   5.041   4.064
 3459TIP3   OH210382   4.103   3.732   2.951
 3459TIP3    H110383   4.146   3.693   3.027
 3459TIP3    H210384   4.148   3.692   2.876
 3460TIP3   OH210385   1.735   4.955   4.826
 3460TIP3    H110386   1.799   5.008   4.777
 3460TIP3    H210387   1.675   4.922   4.759
 3461TIP3   OH210388   1.477   0.803   3.216
 3461TIP3    H110389   1.479   0.878   3.275
 3461TIP3    H210390   1.476   0.841   3.128
 3462TIP3   OH210391   4.566   4.564   3.217
 3462TIP3    H110392   4.626   4.637   3.200
 3462TIP3    H210393   4.620   4.486   3.206
 3463TIP3   OH210394   5.335   4.941   5.003
 3463TIP3    H110395   5.364   4.991   4.927
 3463TIP3    H210396   5.372   4.854   4.990
 3464TIP3   OH210397   5.707   1.663   0.260
 3464TIP3    H110398   5.623   1.694   0.226
 3464TIP3    H210399   5.693   1.656   0.354
 3465TIP3   OH210400   2.497   1.449   1.386
 3465TIP3    H110401   2.409   1.456   1.423
 3465TIP3    H210402   2.486   1.468   1.293
 3466TIP3   OH210403   6.173   5.339   2.984
 3466TIP3    H110404   6.129   5.411   3.029
 3466TIP3    H210405   6.107   5.271   2.976
 3467TIP3   OH210406   4.694   4.954   0.253
 3467TIP3    H110407   4.721   5.018   0.318
 3467TIP3    H210408   4.739   4.874   0.278
 3468TIP3   OH210409   5.201   1.098   3.066
 3468TIP3    H110410   5.256   1.135   2.997
 3468TIP3    H210411   5.240   1.129   3.148
 3469TIP3   OH210412   3.743   2.709   0.016
 3469TIP3    H110413   3.659   2.708   0.062
 3469TIP3    H210414   3.761   2.617  -0.005
 3470TIP3   OH210415   2.342   4.357   2.631
 3470TIP3    H110416   2.391   4.279   2.607
 3470TIP3    H210417   2.404   4.410   2.681
 3471TIP3   OH210418   4.086   3.382   3.226
 3471TIP3    H110419   4.028   3.384   3.150
 3471TIP3    H210420   4.028   3.400   3.300
 3472TIP3   OH210421   3.195   4.091   3.248
 3472TIP3    H110422   3.152   4.006   3.239
 3472TIP3    H210423   3.287   4.069   3.265
 3473TIP3   OH210424   4.702   4.304   3.116
 3473TIP3    H110425   4.720   4.319   3.023
 3473TIP3    H210426   4.694   4.208   3.124
 3474TIP3   OH210427   5.095   3.820   1.342
 3474TIP3    H110428   5.184   3.822   1.307
 3474TIP3    H210429   5.045   3.770   1.277
 3475TIP3   OH210430   3.361   5.132   1.021
 3475TIP3    H110431   3.321   5.142   0.934
 3475TIP3    H210432   3.452   5.160   1.008
 3476TIP3   OH210433   4.768   1.022   2.487
 3476TIP3    H110434   4.762   1.109   2.448
 3476TIP3    H210435   4.826   1.033   2.562
 3477TIP3   OH210436   4.125   5.192   4.562
 3477TIP3    H110437   4.110   5.247   4.485
 3477TIP3    H210438   4.043   5.146   4.575
 3478TIP3   OH210439   3.112   4.823   2.822
 3478TIP3    H110440   3.036   4.782   2.863
 3478TIP3    H210441   3.086   4.834   2.730
 3479TIP3   OH210442   3.230   2.679   5.009
 3479TIP3    H110443   3.149   2.726   4.987
 3479TIP3    H210444   3.210   2.633   5.091
 3480TIP3   OH210445   5.882   5.318   0.112
 3480TIP3    H110446   5.796   5.342   0.145
 3480TIP3    H210447   5.943   5.370   0.165
 3481TIP3   OH210448   2.949   5.078   1.758
 3481TIP3    H110449   2.855   5.094   1.755
 3481TIP3    H210450   2.982   5.146   1.818
 3482TIP3   OH210451   0.705   4.486   1.164
 3482TIP3    H110452   0.623   4.532   1.184
 3482TIP3    H210453   0.689   4.444   1.079
 3483TIP3   OH210454   6.156   4.943   2.955
 3483TIP3    H110455   6.207   4.964   3.033
 3483TIP3    H210456   6.105   4.866   2.979
 3484TIP3   OH210457   5.484   2.165   3.860
 3484TIP3    H110458   5.489   2.233   3.928
 3484TIP3    H210459   5.560   2.109   3.877
 3485TIP3   OH210460   6.224   1.626   3.806
 3485TIP3    H110461   6.144   1.675   3.823
 3485TIP3    H210462   6.274   1.633   3.888
 3486TIP3   OH210463   5.502   1.766   0.086
 3486TIP3    H110464   5.407   1.772   0.085
 3486TIP3    H210465   5.523   1.703   0.016
 3487TIP3   OH210466   1.327   5.468   2.061
 3487TIP3    H110467   1.284   5.493   2.143
 3487TIP3    H210468   1.405   5.524   2.057
 3488TIP3   OH210469   1.493   0.973   2.620
 3488TIP3    H110470   1.523   1.054   2.661
 3488TIP3    H210471   1.549   0.905   2.658
 3489TIP3   OH210472   2.138   2.348   3.893
 3489TIP3    H110473   2.075   2.305   3.834
 3489TIP3    H210474   2.113   2.318   3.980
 3490TIP3   OH210475   3.156   5.803   0.216
 3490TIP3    H110476   3.142   5.712   0.241
 3490TIP3    H210477   3.163   5.850   0.299
 3491TIP3   OH210478   5.233   4.514   3.738
 3491TIP3    H110479   5.219   4.443   3.800
 3491TIP3    H210480   5.192   4.590   3.779
 3492TIP3   OH210481   1.193   5.738   2.527
 3492TIP3    H110482   1.101   5.745   2.552
 3492TIP3    H210483   1.240   5.728   2.610
 3493TIP3   OH210484   1.617   3.043   0.038
 3493TIP3    H110485   1.622   3.138   0.025
 3493TIP3    H210486   1.602   3.033   0.132
 3494TIP3   OH210487   3.303   1.647   1.426
 3494TIP3    H110488   3.324   1.669   1.335
 3494TIP3    H210489   3.208   1.644   1.429
 3495TIP3   OH210490   4.351   5.186   2.711
 3495TIP3    H110491   4.256   5.186   2.718
 3495TIP3    H210492   4.381   5.149   2.794
 3496TIP3   OH210493   5.470   5.261   1.326
 3496TIP3    H110494   5.479   5.356   1.332
 3496TIP3    H210495   5.488   5.230   1.415
 3497TIP3   OH210496   5.424   1.593   1.812
 3497TIP3    H110497   5.509   1.638   1.822
 3497TIP3    H210498   5.397   1.613   1.722
 3498TIP3   OH210499   0.299   5.610   2.914
 3498TIP3    H110500   0.314   5.659   2.833
 3498TIP3    H210501   0.236   5.663   2.963
 3499TIP3   OH210502   3.324   3.065   1.774
 3499TIP3    H110503   3.379   2.986   1.772
 3499TIP3    H210504   3.329   3.100   1.685
 3500TIP3   OH210505   4.742   3.508   1.176
 3500TIP3    H110506   4.700   3.487   1.093
 3500TIP3    H210507   4.725   3.432   1.232
 3501TIP3   OH210508   5.586   4.406   3.290
 3501TIP3    H110509   5.609   4.419   3.382
 3501TIP3    H210510   5.525   4.477   3.270
 3502TIP3   OH210511   0.487   5.068   2.336
 3502TIP3    H110512   0.439   5.149   2.352
 3502TIP3    H210513   0.579   5.092   2.349
 3503TIP3   OH210514   0.318   0.023   1.154
 3503TIP3    H110515   0.318   0.115   1.127
 3503TIP3    H210516   0.293  -0.024   1.075
 3504TIP3   OH210517   1.556   4.389   1.180
 3504TIP3    H110518   1.515   4.445   1.245
 3504TIP3    H210519   1.525   4.301   1.202
 3505TIP3   OH210520   2.687   1.414   4.255
 3505TIP3    H110521   2.690   1.335   4.202
 3505TIP3    H210522   2.595   1.425   4.277
 3506TIP3   OH210523   1.470   5.160   4.315
 3506TIP3    H110524   1.511   5.207   4.388
 3506TIP3    H210525   1.435   5.228   4.259
 3507TIP3   OH210526   5.709   4.409   1.231
 3507TIP3    H110527   5.728   4.425   1.324
 3507TIP3    H210528   5.670   4.322   1.229
 3508TIP3   OH210529   1.173   3.571   3.989
 3508TIP3    H110530   1.081   3.585   4.009
 3508TIP3    H210531   1.214   3.555   4.074
 3509TIP3   OH210532   3.169   3.220   4.724
 3509TIP3    H110533   3.166   3.124   4.730
 3509TIP3    H210534   3.153   3.239   4.632
 3510TIP3   OH210535   1.238   2.801   2.742
 3510TIP3    H110536   1.179   2.863   2.783
 3510TIP3    H210537   1.193   2.717   2.748
 3511TIP3   OH210538   4.783   1.369   5.108
 3511TIP3    H110539   4.843   1.297   5.089
 3511TIP3    H210540   4.718   1.366   5.038
 3512TIP3   OH210541   0.456   5.974   3.398
 3512TIP3    H110542   0.495   5.886   3.399
 3512TIP3    H210543   0.494   6.018   3.474
 3513TIP3   OH210544   2.631   5.563   2.973
 3513TIP3    H110545   2.716   5.519   2.964
 3513TIP3    H210546   2.580   5.533   2.898
 3514TIP3   OH210547   3.082   1.679   3.841
 3514TIP3    H110548   3.096   1.623   3.764
 3514TIP3    H210549   3.168   1.687   3.881
 3515TIP3   OH210550   4.389   2.140   3.203
 3515TIP3    H110551   4.458   2.129   3.270
 3515TIP3    H210552   4.425   2.204   3.142
 3516TIP3   OH210553   4.683   3.978   4.085
 3516TIP3    H110554   4.704   3.898   4.133
 3516TIP3    H210555   4.655   4.040   4.152
 3517TIP3   OH210556   1.893   3.832   4.091
 3517TIP3    H110557   1.835   3.763   4.061
 3517TIP3    H210558   1.903   3.890   4.015
 3518TIP3   OH210559   0.395   4.929   0.705
 3518TIP3    H110560   0.446   4.852   0.731
 3518TIP3    H210561   0.460   4.996   0.684
 3519TIP3   OH210562   0.578   5.546   2.708
 3519TIP3    H110563   0.499   5.599   2.701
 3519TIP3    H210564   0.548   5.457   2.690
 3520TIP3   OH210565   1.900   5.169   4.270
 3520TIP3    H110566   1.880   5.100   4.207
 3520TIP3    H210567   1.964   5.129   4.330
 3521TIP3   OH210568   2.998   0.279   0.769
 3521TIP3    H110569   2.932   0.253   0.705
 3521TIP3    H210570   3.082   0.270   0.723
 3522TIP3   OH210571   0.986   5.663   3.823
 3522TIP3    H110572   1.067   5.611   3.827
 3522TIP3    H210573   0.993   5.710   3.740
 3523TIP3   OH210574   1.549   1.222   2.752
 3523TIP3    H110575   1.525   1.312   2.729
 3523TIP3    H210576   1.578   1.227   2.843
 3524TIP3   OH210577   1.347   5.245   4.027
 3524TIP3    H110578   1.256   5.220   4.046
 3524TIP3    H210579   1.373   5.299   4.101
 3525TIP3   OH210580   2.065   3.675   1.056
 3525TIP3    H110581   2.025   3.759   1.037
 3525TIP3    H210582   2.151   3.697   1.091
 3526TIP3   OH210583   0.668   0.934   1.874
 3526TIP3    H110584   0.741   0.981   1.835
 3526TIP3    H210585   0.604   0.924   1.803
 3527TIP3   OH210586   0.299   4.092   1.262
 3527TIP3    H110587   0.348   4.153   1.208
 3527TIP3    H210588   0.365   4.035   1.302
 3528TIP3   OH210589   5.172   0.314   2.265
 3528TIP3    H110590   5.260   0.289   2.237
 3528TIP3    H210591   5.186   0.382   2.330
 3529TIP3   OH210592   5.800   4.143   4.182
 3529TIP3    H110593   5.830   4.225   4.143
 3529TIP3    H210594   5.802   4.080   4.110
 3530TIP3   OH210595   5.840   4.667   1.177
 3530TIP3    H110596   5.771   4.730   1.158
 3530TIP3    H210597   5.793   4.589   1.207
 3531TIP3   OH210598   4.724   5.821   4.226
 3531TIP3    H110599   4.664   5.760   4.182
 3531TIP3    H210600   4.811   5.786   4.207
 3532TIP3   OH210601   6.042   4.540   0.310
 3532TIP3    H110602   5.974   4.483   0.344
 3532TIP3    H210603   6.003   4.581   0.233
 3533TIP3   OH210604   1.955   2.288   2.226
 3533TIP3    H110605   2.041   2.273   2.187
 3533TIP3    H210606   1.894   2.244   2.166
 3534TIP3   OH210607   4.292   4.437   2.268
 3534TIP3    H110608   4.298   4.373   2.339
 3534TIP3    H210609   4.312   4.521   2.310
 3535TIP3   OH210610   3.751   0.095   0.771
 3535TIP3    H110611   3.677   0.156   0.774
 3535TIP3    H210612   3.719   0.021   0.720
 3536TIP3   OH210613   5.656   3.891   2.858
 3536TIP3    H110614   5.670   3.976   2.900
 3536TIP3    H210615   5.686   3.827   2.923
 3537TIP3   OH210616   1.609   4.821   4.065
 3537TIP3    H110617   1.561   4.895   4.027
 3537TIP3    H210618   1.611   4.756   3.994
 3538TIP3   OH210619   0.545   0.409   4.417
 3538TIP3    H110620   0.561   0.457   4.499
 3538TIP3    H210621   0.612   0.341   4.415
 3539TIP3   OH210622   1.460   1.789   1.916
 3539TIP3    H110623   1.513   1.729   1.969
 3539TIP3    H210624   1.499   1.784   1.829
 3540TIP3   OH210625   0.844   4.435   2.463
 3540TIP3    H110626   0.877   4.513   2.419
 3540TIP3    H210627   0.913   4.412   2.525
 3541TIP3   OH210628   1.735   1.339   0.495
 3541TIP3    H110629   1.655   1.307   0.453
 3541TIP3    H210630   1.748   1.427   0.459
 3542TIP3   OH210631   2.187   1.757   4.113
 3542TIP3    H110632   2.216   1.773   4.023
 3542TIP3    H210633   2.190   1.662   4.123
 3543TIP3   OH210634   0.229   1.152   2.862
 3543TIP3    H110635   0.258   1.076   2.811
 3543TIP3    H210636   0.242   1.227   2.804
 3544TIP3   OH210637   4.946   3.550   2.972
 3544TIP3    H110638   4.939   3.611   3.045
 3544TIP3    H210639   4.989   3.473   3.010
 3545TIP3   OH210640   3.273   0.666   0.762
 3545TIP3    H110641   3.286   0.718   0.683
 3545TIP3    H210642   3.336   0.701   0.825
 3546TIP3   OH210643   4.878   0.662   4.608
 3546TIP3    H110644   4.852   0.583   4.561
 3546TIP3    H210645   4.894   0.633   4.698
 3547TIP3   OH210646   4.254   5.945   0.210
 3547TIP3    H110647   4.331   5.991   0.178
 3547TIP3    H210648   4.193   5.945   0.136
 3548TIP3   OH210649   0.408   4.023   0.520
 3548TIP3    H110650   0.399   3.994   0.611
 3548TIP3    H210651   0.336   3.981   0.474
 3549TIP3   OH210652   0.187   1.347   5.030
 3549TIP3    H110653   0.117   1.308   5.081
 3549TIP3    H210654   0.261   1.286   5.040
 3550TIP3   OH210655   6.124   5.728   0.888
 3550TIP3    H110656   6.127   5.823   0.887
 3550TIP3    H210657   6.069   5.707   0.964
 3551TIP3   OH210658   4.102   1.606   5.037
 3551TIP3    H110659   4.184   1.574   5.000
 3551TIP3    H210660   4.036   1.585   4.971
 3552TIP3   OH210661   2.444   5.108   1.421
 3552TIP3    H110662   2.519   5.072   1.374
 3552TIP3    H210663   2.373   5.106   1.358
 3553TIP3   OH210664   2.432   0.873   3.050
 3553TIP3    H110665   2.415   0.803   3.113
 3553TIP3    H210666   2.451   0.949   3.104
 3554TIP3   OH210667   4.930   3.216   1.131
 3554TIP3    H110668   4.872   3.220   1.207
 3554TIP3    H210669   5.012   3.180   1.164
 3555TIP3   OH210670   1.496   3.529   1.024
 3555TIP3    H110671   1.569   3.500   1.077
 3555TIP3    H210672   1.421   3.477   1.054
 3556TIP3   OH210673   0.352   2.458   3.784
 3556TIP3    H110674   0.440   2.458   3.746
 3556TIP3    H210675   0.365   2.477   3.877
 3557TIP3   OH210676   2.585   2.139   4.761
 3557TIP3    H110677   2.520   2.183   4.815
 3557TIP3    H210678   2.535   2.072   4.714
 3558TIP3   OH210679   2.923   1.255   3.759
 3558TIP3    H110680   3.010   1.282   3.729
 3558TIP3    H210681   2.868   1.331   3.743
 3559TIP3   OH210682   5.537   5.371   3.767
 3559TIP3    H110683   5.548   5.462   3.796
 3559TIP3    H210684   5.498   5.326   3.842
 3560TIP3   OH210685   0.753   3.153   0.452
 3560TIP3    H110686   0.821   3.216   0.473
 3560TIP3    H210687   0.799   3.084   0.403
 3561TIP3   OH210688   3.534   3.791   4.111
 3561TIP3    H110689   3.487   3.710   4.090
 3561TIP3    H210690   3.555   3.829   4.025
 3562TIP3   OH210691   6.169   1.910   3.643
 3562TIP3    H110692   6.261   1.938   3.639
 3562TIP3    H210693   6.132   1.959   3.717
 3563TIP3   OH210694   0.421   1.741   1.544
 3563TIP3    H110695   0.366   1.820   1.541
 3563TIP3    H210696   0.358   1.669   1.551
 3564TIP3   OH210697   3.292   0.986   0.751
 3564TIP3    H110698   3.304   0.927   0.676
 3564TIP3    H210699   3.210   1.032   0.732
 3565TIP3   OH210700   6.026   4.272   3.576
 3565TIP3    H110701   6.057   4.192   3.620
 3565TIP3    H210702   5.939   4.286   3.612
 3566TIP3   OH210703   5.354   4.337   2.359
 3566TIP3    H110704   5.410   4.263   2.337
 3566TIP3    H210705   5.276   4.297   2.398
 3567TIP3   OH210706   4.257   1.375   0.196
 3567TIP3    H110707   4.301   1.298   0.233
 3567TIP3    H210708   4.267   1.364   0.101
 3568TIP3   OH210709   5.559   5.713   4.093
 3568TIP3    H110710   5.477   5.685   4.133
 3568TIP3    H210711   5.540   5.800   4.056
 3569TIP3   OH210712   2.747   1.283   3.975
 3569TIP3    H110713   2.704   1.206   3.939
 3569TIP3    H210714   2.840   1.271   3.954
 3570TIP3   OH210715   3.306   0.039   1.496
 3570TIP3    H110716   3.224   0.045   1.449
 3570TIP3    H210717   3.374   0.047   1.429
 3571TIP3   OH210718   4.557   3.946   3.826
 3571TIP3    H110719   4.585   3.938   3.917
 3571TIP3    H210720   4.468   3.981   3.830
 3572TIP3   OH210721   4.788   4.852   5.026
 3572TIP3    H110722   4.759   4.761   5.021
 3572TIP3    H210723   4.867   4.856   4.973
 3573TIP3   OH210724   5.027   2.209   2.638
 3573TIP3    H110725   5.071   2.192   2.555
 3573TIP3    H210726   4.961   2.276   2.616
 3574TIP3   OH210727   0.962   2.768   4.922
 3574TIP3    H110728   0.970   2.679   4.954
 3574TIP3    H210729   0.973   2.823   5.000
 3575TIP3   OH210730   2.665   1.686   0.172
 3575TIP3    H110731   2.711   1.719   0.249
 3575TIP3    H210732   2.705   1.600   0.154
 3576TIP3   OH210733   3.126   0.511   3.624
 3576TIP3    H110734   3.165   0.487   3.540
 3576TIP3    H210735   3.077   0.591   3.605
 3577TIP3   OH210736   1.115   0.752   2.958
 3577TIP3    H110737   1.074   0.838   2.945
 3577TIP3    H210738   1.181   0.748   2.889
 3578TIP3   OH210739   6.048   2.334   3.249
 3578TIP3    H110740   6.013   2.254   3.288
 3578TIP3    H210741   6.138   2.311   3.224
 3579TIP3   OH210742   0.179   4.356   2.148
 3579TIP3    H110743   0.215   4.286   2.092
 3579TIP3    H210744   0.126   4.311   2.213
 3580TIP3   OH210745   5.332   2.367   1.048
 3580TIP3    H110746   5.394   2.295   1.054
 3580TIP3    H210747   5.292   2.372   1.135
 3581TIP3   OH210748   1.061   5.355   1.606
 3581TIP3    H110749   1.136   5.393   1.559
 3581TIP3    H210750   1.078   5.374   1.698
 3582TIP3   OH210751   3.594   2.234   4.785
 3582TIP3    H110752   3.630   2.147   4.802
 3582TIP3    H210753   3.562   2.264   4.870
 3583TIP3   OH210754   3.937   3.434   3.934
 3583TIP3    H110755   4.030   3.454   3.928
 3583TIP3    H210756   3.902   3.498   3.995
 3584TIP3   OH210757   2.914   2.842   4.328
 3584TIP3    H110758   2.861   2.916   4.359
 3584TIP3    H210759   2.916   2.854   4.233
 3585TIP3   OH210760   0.380   1.276   2.173
 3585TIP3    H110761   0.459   1.283   2.227
 3585TIP3    H210762   0.365   1.366   2.142
 3586TIP3   OH210763   0.912   3.665   0.512
 3586TIP3    H110764   0.822   3.697   0.509
 3586TIP3    H210765   0.951   3.709   0.587
 3587TIP3   OH210766   1.723   4.218   3.335
 3587TIP3    H110767   1.635   4.182   3.346
 3587TIP3    H210768   1.715   4.309   3.364
 3588TIP3   OH210769   3.843   2.180   1.206
 3588TIP3    H110770   3.798   2.098   1.187
 3588TIP3    H210771   3.773   2.240   1.232
 3589TIP3   OH210772   2.774   1.503   3.839
 3589TIP3    H110773   2.740   1.445   3.907
 3589TIP3    H210774   2.817   1.574   3.888
 3590TIP3   OH210775   2.214   5.642   3.992
 3590TIP3    H110776   2.237   5.560   3.949
 3590TIP3    H210777   2.196   5.703   3.921
 3591TIP3   OH210778   3.650   5.920   0.015
 3591TIP3    H110779   3.604   5.907   0.099
 3591TIP3    H210780   3.741   5.932   0.040
 3592TIP3   OH210781   3.405   3.276   0.188
 3592TIP3    H110782   3.323   3.322   0.171
 3592TIP3    H210783   3.379   3.188   0.215
 3593TIP3   OH210784   3.849   3.268   5.092
 3593TIP3    H110785   3.886   3.206   5.155
 3593TIP3    H210786   3.770   3.301   5.134
 3594TIP3   OH210787   4.911   0.221   0.683
 3594TIP3    H110788   4.935   0.208   0.592
 3594TIP3    H210789   4.964   0.295   0.712
 3595TIP3   OH210790   0.201   4.489   0.669
 3595TIP3    H110791   0.243   4.495   0.584
 3595TIP3    H210792   0.107   4.499   0.651
 3596TIP3   OH210793   1.825   2.732   0.486
 3596TIP3    H110794   1.909   2.705   0.450
 3596TIP3    H210795   1.837   2.729   0.581
 3597TIP3   OH210796   4.418   5.967   3.109
 3597TIP3    H110797   4.441   5.895   3.167
 3597TIP3    H210798   4.484   6.034   3.125
 3598TIP3   OH210799   4.067   0.390   0.498
 3598TIP3    H110800   4.159   0.396   0.521
 3598TIP3    H210801   4.030   0.329   0.563
 3599TIP3   OH210802   5.148   1.379   3.035
 3599TIP3    H110803   5.114   1.300   3.078
 3599TIP3    H210804   5.143   1.359   2.941
 3600TIP3   OH210805   6.071   0.796   0.615
 3600TIP3    H110806   6.116   0.717   0.647
 3600TIP3    H210807   6.070   0.786   0.519
 3601TIP3   OH210808   2.124   4.110   3.771
 3601TIP3    H110809   2.139   4.183   3.711
 3601TIP3    H210810   2.211   4.079   3.793
 3602TIP3   OH210811   5.715   2.106   4.523
 3602TIP3    H110812   5.684   2.146   4.604
 3602TIP3    H210813   5.796   2.061   4.549
 3603TIP3   OH210814   5.392   4.715   1.384
 3603TIP3    H110815   5.358   4.793   1.429
 3603TIP3    H210816   5.325   4.694   1.319
 3604TIP3   OH210817   0.082   1.714   3.628
 3604TIP3    H110818   0.051   1.804   3.627
 3604TIP3    H210819   0.018   1.667   3.681
 3605TIP3   OH210820   1.795   5.754   4.339
 3605TIP3    H110821   1.759   5.729   4.254
 3605TIP3    H210822   1.877   5.705   4.346
 3606TIP3   OH210823   5.395   4.802   0.849
 3606TIP3    H110824   5.429   4.884   0.887
 3606TIP3    H210825   5.469   4.766   0.801
 3607TIP3   OH210826   2.442   4.714   2.555
 3607TIP3    H110827   2.475   4.669   2.478
 3607TIP3    H210828   2.411   4.645   2.613
 3608TIP3   OH210829   4.281   4.049   4.814
 3608TIP3    H110830   4.292   4.090   4.900
 3608TIP3    H210831   4.281   3.955   4.831
 3609TIP3   OH210832   4.375   4.681   2.371
 3609TIP3    H110833   4.431   4.634   2.433
 3609TIP3    H210834   4.413   4.769   2.368
 3610TIP3   OH210835   3.307   3.034   2.823
 3610TIP3    H110836   3.271   3.065   2.906
 3610TIP3    H210837   3.283   2.941   2.820
 3611TIP3   OH210838   5.233   5.264   2.225
 3611TIP3    H110839   5.272   5.185   2.262
 3611TIP3    H210840   5.158   5.233   2.175
 3612TIP3   OH210841   0.127   1.812   1.143
 3612TIP3    H110842   0.038   1.842   1.124
 3612TIP3    H210843   0.184   1.870   1.093
 3613TIP3   OH210844   1.931   4.514   5.047
 3613TIP3    H110845   1.930   4.610   5.050
 3613TIP3    H210846   1.851   4.491   5.000
 3614TIP3   OH210847   1.955   2.843   2.353
 3614TIP3    H110848   1.874   2.842   2.404
 3614TIP3    H210849   1.935   2.897   2.277
 3615TIP3   OH210850   0.462   2.893   2.661
 3615TIP3    H110851   0.471   2.798   2.660
 3615TIP3    H210852   0.494   2.920   2.747
 3616TIP3   OH210853   5.412   0.149   2.903
 3616TIP3    H110854   5.384   0.183   2.987
 3616TIP3    H210855   5.507   0.139   2.911
 3617TIP3   OH210856   0.103   5.292   1.292
 3617TIP3    H110857   0.151   5.239   1.228
 3617TIP3    H210858   0.069   5.366   1.241
 3618TIP3   OH210859   0.808   3.907   3.387
 3618TIP3    H110860   0.902   3.901   3.371
 3618TIP3    H210861   0.792   3.847   3.459
 3619TIP3   OH210862   1.809   0.273   2.023
 3619TIP3    H110863   1.867   0.237   2.091
 3619TIP3    H210864   1.774   0.353   2.061
 3620TIP3   OH210865   4.484   0.195   2.386
 3620TIP3    H110866   4.396   0.197   2.349
 3620TIP3    H210867   4.509   0.102   2.380
 3621TIP3   OH210868   3.573   3.817   2.730
 3621TIP3    H110869   3.507   3.858   2.675
 3621TIP3    H210870   3.523   3.775   2.800
 3622TIP3   OH210871   1.277   1.147   4.118
 3622TIP3    H110872   1.191   1.105   4.109
 3622TIP3    H210873   1.333   1.080   4.156
 3623TIP3   OH210874   2.305   5.457   3.056
 3623TIP3    H110875   2.305   5.511   2.977
 3623TIP3    H210876   2.219   5.473   3.095
 3624TIP3   OH210877   2.509   5.455   0.839
 3624TIP3    H110878   2.574   5.467   0.909
 3624TIP3    H210879   2.454   5.382   0.869
 3625TIP3   OH210880   2.744   3.851   2.797
 3625TIP3    H110881   2.705   3.818   2.878
 3625TIP3    H210882   2.756   3.774   2.742
 3626TIP3   OH210883   3.540   2.780   3.263
 3626TIP3    H110884   3.528   2.854   3.205
 3626TIP3    H210885   3.604   2.810   3.327
 3627TIP3   OH210886   4.055   1.376   1.370
 3627TIP3    H110887   4.134   1.405   1.415
 3627TIP3    H210888   4.079   1.293   1.330
 3628TIP3   OH210889   6.282   2.438   1.465
 3628TIP3    H110890   6.292   2.427   1.560
 3628TIP3    H210891   6.237   2.359   1.436
 3629TIP3   OH210892   6.358   0.246   0.888
 3629TIP3    H110893   6.353   0.152   0.872
 3629TIP3    H210894   6.288   0.264   0.950
 3630TIP3   OH210895   5.179   4.103   0.730
 3630TIP3    H110896   5.124   4.092   0.808
 3630TIP3    H210897   5.181   4.197   0.715
 3631TIP3   OH210898   6.183   1.552   0.919
 3631TIP3    H110899   6.101   1.594   0.892
 3631TIP3    H210900   6.243   1.568   0.847
 3632TIP3   OH210901   4.148   3.174   2.440
 3632TIP3    H110902   4.118   3.225   2.365
 3632TIP3    H210903   4.106   3.088   2.429
 3633TIP3   OH210904   5.689   5.418   2.511
 3633TIP3    H110905   5.706   5.324   2.506
 3633TIP3    H210906   5.748   5.457   2.447
 3634TIP3   OH210907   3.548   5.379   0.926
 3634TIP3    H110908   3.453   5.372   0.921
 3634TIP3    H210909   3.579   5.339   0.844
 3635TIP3   OH210910   4.086   2.390   4.299
 3635TIP3    H110911   4.039   2.434   4.370
 3635TIP3    H210912   4.064   2.297   4.310
 3636TIP3   OH210913   4.939   3.620   0.599
 3636TIP3    H110914   4.869   3.642   0.537
 3636TIP3    H210915   4.955   3.701   0.648
 3637TIP3   OH210916   5.127   4.401   3.517
 3637TIP3    H110917   5.051   4.384   3.572
 3637TIP3    H210918   5.197   4.424   3.578
 3638TIP3   OH210919   0.842   4.919   0.059
 3638TIP3    H110920   0.767   4.860   0.054
 3638TIP3    H210921   0.811   4.993   0.111
 3639TIP3   OH210922   0.126   5.775   3.038
 3639TIP3    H110923   0.033   5.797   3.044
 3639TIP3    H210924   0.167   5.826   3.108
 3640TIP3   OH210925   3.224   3.260   1.074
 3640TIP3    H110926   3.255   3.282   0.986
 3640TIP3    H210927   3.269   3.179   1.096
 3641TIP3   OH210928   3.410   3.975   0.883
 3641TIP3    H110929   3.347   4.045   0.901
 3641TIP3    H210930   3.441   3.948   0.970
 3642TIP3   OH210931   4.568   2.643   3.706
 3642TIP3    H110932   4.482   2.685   3.708
 3642TIP3    H210933   4.550   2.552   3.730
 3643TIP3   OH210934   6.135   0.428   3.882
 3643TIP3    H110935   6.081   0.440   3.804
 3643TIP3    H210936   6.205   0.369   3.853
 3644TIP3   OH210937   5.560   3.360   2.546
 3644TIP3    H110938   5.638   3.368   2.599
 3644TIP3    H210939   5.518   3.446   2.549
 3645TIP3   OH210940   3.187   5.462   4.097
 3645TIP3    H110941   3.186   5.379   4.146
 3645TIP3    H210942   3.116   5.513   4.135
 3646TIP3   OH210943   0.711   2.058   1.248
 3646TIP3    H110944   0.802   2.042   1.220
 3646TIP3    H210945   0.681   2.129   1.191
 3647TIP3   OH210946   3.632   4.416   4.185
 3647TIP3    H110947   3.566   4.438   4.119
 3647TIP3    H210948   3.582   4.374   4.255
 3648TIP3   OH210949   1.493   4.067   1.268
 3648TIP3    H110950   1.490   4.089   1.361
 3648TIP3    H210951   1.402   4.047   1.246
 3649TIP3   OH210952   5.121   0.325   3.116
 3649TIP3    H110953   5.066   0.247   3.124
 3649TIP3    H210954   5.210   0.291   3.104
 3650TIP3   OH210955   2.538   4.896   0.235
 3650TIP3    H110956   2.512   4.946   0.157
 3650TIP3    H210957   2.456   4.883   0.282
 3651TIP3   OH210958   2.696   4.566   2.027
 3651TIP3    H110959   2.719   4.653   1.995
 3651TIP3    H210960   2.759   4.550   2.098
 3652TIP3   OH210961   4.053   5.167   1.714
 3652TIP3    H110962   4.144   5.196   1.719
 3652TIP3    H210963   4.003   5.238   1.755
 3653TIP3   OH210964   1.725   3.611   4.071
 3653TIP3    H110965   1.755   3.520   4.070
 3653TIP3    H210966   1.632   3.606   4.091
 3654TIP3   OH210967   0.672   5.139   3.540
 3654TIP3    H110968   0.606   5.069   3.545
 3654TIP3    H210969   0.675   5.162   3.448
 3655TIP3   OH210970   0.777   2.769   3.375
 3655TIP3    H110971   0.827   2.720   3.441
 3655TIP3    H210972   0.842   2.799   3.312
 3656TIP3   OH210973   3.367   5.757   1.010
 3656TIP3    H110974   3.334   5.754   0.920
 3656TIP3    H210975   3.306   5.816   1.055
 3657TIP3   OH210976   3.156   5.015   0.556
 3657TIP3    H110977   3.091   5.049   0.617
 3657TIP3    H210978   3.200   5.093   0.521
 3658TIP3   OH210979   6.181   1.253   0.578
 3658TIP3    H110980   6.197   1.294   0.493
 3658TIP3    H210981   6.108   1.193   0.563
 3659TIP3   OH210982   1.682   2.243   4.529
 3659TIP3    H110983   1.637   2.277   4.451
 3659TIP3    H210984   1.774   2.235   4.502
 3660TIP3   OH210985   2.361   1.208   3.827
 3660TIP3    H110986   2.382   1.293   3.867
 3660TIP3    H210987   2.434   1.151   3.851
 3661TIP3   OH210988   1.802   3.777   4.581
 3661TIP3    H110989   1.820   3.704   4.523
 3661TIP3    H210990   1.722   3.752   4.628
 3662TIP3   OH210991   1.821   3.027   3.709
 3662TIP3    H110992   1.795   3.013   3.800
 3662TIP3    H210993   1.900   3.080   3.715
 3663TIP3   OH210994   4.909   5.525   0.440
 3663TIP3    H110995   4.929   5.516   0.347
 3663TIP3    H210996   4.983   5.482   0.485
 3664TIP3   OH210997   5.362   1.810   1.984
 3664TIP3    H110998   5.442   1.807   1.933
 3664TIP3    H210999   5.341   1.718   2.002
 3665TIP3   OH211000   4.778   3.671   0.375
 3665TIP3    H111001   4.748   3.759   0.353
 3665TIP3    H211002   4.785   3.626   0.291
 3666TIP3   OH211003   4.673   2.127   4.954
 3666TIP3    H111004   4.588   2.127   4.911
 3666TIP3    H211005   4.653   2.113   5.047
 3667TIP3   OH211006   1.141   2.813   1.128
 3667TIP3    H111007   1.088   2.771   1.060
 3667TIP3    H211008   1.143   2.906   1.104
 3668TIP3   OH211009   2.795   0.189   4.880
 3668TIP3    H111010   2.727   0.174   4.945
 3668TIP3    H211011   2.748   0.221   4.803
 3669TIP3   OH211012   3.656   4.477   2.014
 3669TIP3    H111013   3.601   4.467   2.091
 3669TIP3    H211014   3.725   4.410   2.025
 3670TIP3   OH211015   0.407   5.455   3.118
 3670TIP3    H111016   0.348   5.463   3.043
 3670TIP3    H211017   0.494   5.474   3.081
 3671TIP3   OH211018   2.985   0.326   4.711
 3671TIP3    H111019   3.049   0.373   4.764
 3671TIP3    H211020   2.919   0.295   4.774
 3672TIP3   OH211021   2.263   0.929   0.254
 3672TIP3    H111022   2.291   0.837   0.253
 3672TIP3    H211023   2.168   0.924   0.260
 3673TIP3   OH211024   2.268   0.695   2.278
 3673TIP3    H111025   2.212   0.738   2.212
 3673TIP3    H211026   2.237   0.730   2.361
 3674TIP3   OH211027   5.013   3.270   2.229
 3674TIP3    H111028   5.009   3.196   2.168
 3674TIP3    H211029   4.955   3.335   2.190
 3675TIP3   OH211030   4.106   2.650   0.211
 3675TIP3    H111031   4.118   2.690   0.297
 3675TIP3    H211032   4.186   2.600   0.196
 3676TIP3   OH211033   2.809   3.735   5.062
 3676TIP3    H111034   2.862   3.679   5.006
 3676TIP3    H211035   2.841   3.824   5.043
 3677TIP3   OH211036   5.860  -0.006   4.847
 3677TIP3    H111037   5.880   0.070   4.901
 3677TIP3    H211038   5.768  -0.025   4.865
 3678TIP3   OH211039   1.685   0.144   1.597
 3678TIP3    H111040   1.706   0.237   1.598
 3678TIP3    H211041   1.658   0.125   1.687
 3679TIP3   OH211042   5.443   5.542   3.108
 3679TIP3    H111043   5.350   5.565   3.096
 3679TIP3    H211044   5.489   5.626   3.107
 3680TIP3   OH211045   3.885   5.985   0.123
 3680TIP3    H111046   3.951   5.939   0.071
 3680TIP3    H211047   3.932   6.017   0.199
 3681TIP3   OH211048   4.193   2.120   0.621
 3681TIP3    H111049   4.210   2.042   0.567
 3681TIP3    H211050   4.159   2.085   0.703
 3682TIP3   OH211051   3.464   2.298   0.757
 3682TIP3    H111052   3.485   2.269   0.668
 3682TIP3    H211053   3.457   2.394   0.749
 3683TIP3   OH211054   3.690   5.181   0.289
 3683TIP3    H111055   3.651   5.112   0.343
 3683TIP3    H211056   3.630   5.188   0.215
 3684TIP3   OH211057   4.060   0.282   4.894
 3684TIP3    H111058   4.001   0.355   4.913
 3684TIP3    H211059   4.009   0.226   4.835
 3685TIP3   OH211060   1.399   3.962   3.773
 3685TIP3    H111061   1.490   3.937   3.754
 3685TIP3    H211062   1.364   3.888   3.822
 3686TIP3   OH211063   2.161   1.174   1.277
 3686TIP3    H111064   2.100   1.188   1.204
 3686TIP3    H211065   2.226   1.243   1.267
 3687TIP3   OH211066   5.432   0.496   2.950
 3687TIP3    H111067   5.363   0.465   2.891
 3687TIP3    H211068   5.502   0.431   2.941
 3688TIP3   OH211069   0.015   0.499   4.657
 3688TIP3    H111070  -0.057   0.562   4.652
 3688TIP3    H211071   0.092   0.553   4.678
 3689TIP3   OH211072   4.299   0.425   3.554
 3689TIP3    H111073   4.376   0.370   3.543
 3689TIP3    H211074   4.296   0.446   3.647
 3690TIP3   OH211075   3.628   5.663   0.208
 3690TIP3    H111076   3.648   5.687   0.299
 3690TIP3    H211077   3.668   5.576   0.198
 3691TIP3   OH211078   0.760   3.339   2.049
 3691TIP3    H111079   0.703   3.287   2.106
 3691TIP3    H211080   0.758   3.427   2.086
 3692TIP3   OH211081   1.601   1.475   2.681
 3692TIP3    H111082   1.685   1.516   2.701
 3692TIP3    H211083   1.545   1.547   2.652
 3693TIP3   OH211084   3.103   2.759   2.120
 3693TIP3    H111085   3.102   2.683   2.062
 3693TIP3    H211086   3.190   2.759   2.159
 3694TIP3   OH211087   5.086   0.921   1.985
 3694TIP3    H111088   5.144   0.969   1.926
 3694TIP3    H211089   5.032   0.988   2.027
 3695TIP3   OH211090   5.771   5.449   1.374
 3695TIP3    H111091   5.803   5.463   1.285
 3695TIP3    H211092   5.751   5.537   1.407
 3696TIP3   OH211093   2.945   0.300   2.324
 3696TIP3    H111094   2.897   0.224   2.357
 3696TIP3    H211095   2.886   0.337   2.258
 3697TIP3   OH211096   5.128   2.165   1.901
 3697TIP3    H111097   5.120   2.223   1.825
 3697TIP3    H211098   5.040   2.131   1.915
 3698TIP3   OH211099   4.324   1.040   2.844
 3698TIP3    H111100   4.345   0.990   2.923
 3698TIP3    H211101   4.403   1.037   2.791
 3699TIP3   OH211102   2.647   3.947   0.432
 3699TIP3    H111103   2.560   3.909   0.443
 3699TIP3    H211104   2.630   4.039   0.410
 3700TIP3   OH211105   5.522   0.290   0.483
 3700TIP3    H111106   5.469   0.364   0.515
 3700TIP3    H211107   5.564   0.324   0.404
 3701TIP3   OH211108   6.180   2.671   2.227
 3701TIP3    H111109   6.180   2.575   2.232
 3701TIP3    H211110   6.271   2.693   2.208
 3702TIP3   OH211111   1.228   0.108   0.829
 3702TIP3    H111112   1.146   0.082   0.787
 3702TIP3    H211113   1.201   0.159   0.905
 3703TIP3   OH211114   3.951   3.250   3.719
 3703TIP3    H111115   3.995   3.206   3.791
 3703TIP3    H211116   3.916   3.330   3.758
 3704TIP3   OH211117   4.698   1.062   1.847
 3704TIP3    H111118   4.673   1.045   1.756
 3704TIP3    H211119   4.791   1.085   1.843
 3705TIP3   OH211120   0.030   0.641   1.077
 3705TIP3    H111121   0.049   0.733   1.060
 3705TIP3    H211122   0.085   0.594   1.014
 3706TIP3   OH211123   4.303   2.523   1.098
 3706TIP3    H111124   4.213   2.548   1.118
 3706TIP3    H211125   4.357   2.574   1.159
 3707TIP3   OH211126   2.626   1.428   2.463
 3707TIP3    H111127   2.705   1.458   2.418
 3707TIP3    H211128   2.650   1.342   2.498
 3708TIP3   OH211129   4.060   4.825   2.660
 3708TIP3    H111130   4.155   4.840   2.660
 3708TIP3    H211131   4.041   4.797   2.750
 3709TIP3   OH211132   4.636   4.879   1.018
 3709TIP3    H111133   4.729   4.897   1.028
 3709TIP3    H211134   4.605   4.943   0.955
 3710TIP3   OH211135   5.754   4.377   4.831
 3710TIP3    H111136   5.738   4.304   4.770
 3710TIP3    H211137   5.668   4.395   4.869
 3711TIP3   OH211138   5.175   1.343   2.742
 3711TIP3    H111139   5.220   1.277   2.795
 3711TIP3    H211140   5.198   1.320   2.652
 3712TIP3   OH211141   0.461   2.091   3.772
 3712TIP3    H111142   0.406   2.044   3.834
 3712TIP3    H211143   0.474   2.177   3.812
 3713TIP3   OH211144   1.170   0.534   0.085
 3713TIP3    H111145   1.239   0.486   0.039
 3713TIP3    H211146   1.090   0.514   0.036
 3714TIP3   OH211147   5.228   4.578   1.645
 3714TIP3    H111148   5.291   4.647   1.666
 3714TIP3    H211149   5.203   4.542   1.730
 3715TIP3   OH211150   5.486   4.203   4.408
 3715TIP3    H111151   5.545   4.163   4.344
 3715TIP3    H211152   5.495   4.148   4.486
 3716TIP3   OH211153   1.924   0.872   1.748
 3716TIP3    H111154   1.861   0.899   1.815
 3716TIP3    H211155   1.995   0.936   1.754
 3717TIP3   OH211156   0.339   4.616   2.216
 3717TIP3    H111157   0.296   4.532   2.205
 3717TIP3    H211158   0.367   4.641   2.128
 3718TIP3   OH211159   3.392   0.353   1.374
 3718TIP3    H111160   3.361   0.271   1.335
 3718TIP3    H211161   3.417   0.407   1.300
 3719TIP3   OH211162   1.637   2.926   2.600
 3719TIP3    H111163   1.579   2.852   2.579
 3719TIP3    H211164   1.690   2.895   2.673
 3720TIP3   OH211165   2.136   5.184   1.558
 3720TIP3    H111166   2.060   5.231   1.591
 3720TIP3    H211167   2.198   5.184   1.631
 3721TIP3   OH211168   2.541   5.466   3.824
 3721TIP3    H111169   2.461   5.437   3.868
 3721TIP3    H211170   2.563   5.549   3.867
 3722TIP3   OH211171   2.622   4.667   3.549
 3722TIP3    H111172   2.545   4.623   3.586
 3722TIP3    H211173   2.641   4.737   3.610
 3723TIP3   OH211174   5.344   0.916   1.473
 3723TIP3    H111175   5.372   1.001   1.439
 3723TIP3    H211176   5.266   0.935   1.526
 3724TIP3   OH211177   6.324   2.020   2.903
 3724TIP3    H111178   6.319   1.924   2.906
 3724TIP3    H211179   6.244   2.049   2.946
 3725TIP3   OH211180   2.349   1.210   0.570
 3725TIP3    H111181   2.283   1.228   0.637
 3725TIP3    H211182   2.308   1.239   0.488
 3726TIP3   OH211183   6.149   3.179   2.218
 3726TIP3    H111184   6.193   3.256   2.254
 3726TIP3    H211185   6.095   3.214   2.146
 3727TIP3   OH211186   1.019   2.289   4.544
 3727TIP3    H111187   1.031   2.364   4.486
 3727TIP3    H211188   0.933   2.304   4.585
 3728TIP3   OH211189   2.119   5.307   1.838
 3728TIP3    H111190   2.078   5.233   1.882
 3728TIP3    H211191   2.204   5.316   1.881
 3729TIP3   OH211192   1.315   5.525   4.873
 3729TIP3    H111193   1.350   5.439   4.898
 3729TIP3    H211194   1.356   5.587   4.933
 3730TIP3   OH211195   0.143   0.570   2.878
 3730TIP3    H111196   0.059   0.567   2.833
 3730TIP3    H211197   0.191   0.495   2.845
 3731TIP3   OH211198   3.051   2.317   3.847
 3731TIP3    H111199   3.097   2.324   3.930
 3731TIP3    H211200   2.988   2.246   3.860
 3732TIP3   OH211201   3.363   4.344   2.986
 3732TIP3    H111202   3.328   4.368   2.901
 3732TIP3    H211203   3.304   4.385   3.049
 3733TIP3   OH211204   6.312   3.531   0.004
 3733TIP3    H111205   6.270   3.451   0.035
 3733TIP3    H211206   6.367   3.559   0.077
 3734TIP3   OH211207   3.735   0.791   2.151
 3734TIP3    H111208   3.781   0.781   2.068
 3734TIP3    H211209   3.804   0.792   2.217
 3735TIP3   OH211210   4.353   0.572   0.370
 3735TIP3    H111211   4.437   0.584   0.325
 3735TIP3    H211212   4.374   0.516   0.445
 3736TIP3   OH211213   1.240   2.991   4.363
 3736TIP3    H111214   1.228   3.085   4.354
 3736TIP3    H211215   1.308   2.968   4.300
 3737TIP3   OH211216   2.429   1.690   0.014
 3737TIP3    H111217   2.506   1.719   0.063
 3737TIP3    H211218   2.439   1.595   0.008
 3738TIP3   OH211219   3.179   4.583   2.221
 3738TIP3    H111220   3.177   4.506   2.277
 3738TIP3    H211221   3.255   4.570   2.164
 3739TIP3   OH211222   1.226   1.957   1.896
 3739TIP3    H111223   1.240   1.992   1.809
 3739TIP3    H211224   1.304   1.903   1.913
 3740TIP3   OH211225   4.370   2.073   0.182
 3740TIP3    H111226   4.432   2.123   0.236
 3740TIP3    H211227   4.336   2.136   0.119
 3741TIP3   OH211228   2.260   5.268   2.503
 3741TIP3    H111229   2.304   5.291   2.422
 3741TIP3    H211230   2.328   5.277   2.570
 3742TIP3   OH211231   0.506   0.448   2.785
 3742TIP3    H111232   0.433   0.441   2.723
 3742TIP3    H211233   0.583   0.418   2.735
 3743TIP3   OH211234   5.745   5.633   4.301
 3743TIP3    H111235   5.685   5.674   4.240
 3743TIP3    H211236   5.718   5.666   4.387
 3744TIP3   OH211237   4.235   0.106   4.195
 3744TIP3    H111238   4.291   0.061   4.132
 3744TIP3    H211239   4.160   0.048   4.208
 3745TIP3   OH211240   0.788   0.124   0.033
 3745TIP3    H111241   0.813   0.109   0.124
 3745TIP3    H211242   0.785   0.219   0.023
 3746TIP3   OH211243   1.905   4.251   2.780
 3746TIP3    H111244   1.850   4.321   2.815
 3746TIP3    H211245   1.991   4.291   2.767
 3747TIP3   OH211246   1.728   1.284   5.008
 3747TIP3    H111247   1.734   1.377   5.030
 3747TIP3    H211248   1.634   1.266   5.006
 3748TIP3   OH211249   0.767   4.331   4.185
 3748TIP3    H111250   0.857   4.309   4.207
 3748TIP3    H211251   0.764   4.427   4.190
 3749TIP3   OH211252   5.827   2.182   0.752
 3749TIP3    H111253   5.852   2.236   0.677
 3749TIP3    H211254   5.781   2.107   0.713
 3750TIP3   OH211255   5.011   5.721   4.235
 3750TIP3    H111256   5.007   5.689   4.145
 3750TIP3    H211257   5.077   5.791   4.232
 3751TIP3   OH211258   3.985   2.966   2.347
 3751TIP3    H111259   3.967   2.877   2.377
 3751TIP3    H211260   3.899   3.001   2.322
 3752TIP3   OH211261   1.804   5.219   3.829
 3752TIP3    H111262   1.708   5.215   3.829
 3752TIP3    H211263   1.826   5.244   3.919
 3753TIP3   OH211264   2.860   3.149   3.795
 3753TIP3    H111265   2.773   3.150   3.756
 3753TIP3    H211266   2.845   3.167   3.888
 3754TIP3   OH211267   1.453   0.774   1.166
 3754TIP3    H111268   1.547   0.763   1.155
 3754TIP3    H211269   1.425   0.822   1.088
 3755TIP3   OH211270   0.438   5.755   0.609
 3755TIP3    H111271   0.380   5.688   0.573
 3755TIP3    H211272   0.518   5.748   0.557
 3756TIP3   OH211273   0.025   5.680   3.617
 3756TIP3    H111274   0.005   5.738   3.690
 3756TIP3    H211275   0.091   5.727   3.566
 3757TIP3   OH211276   2.442   4.653   0.425
 3757TIP3    H111277   2.352   4.662   0.395
 3757TIP3    H211278   2.444   4.697   0.510
 3758TIP3   OH211279   3.996   0.811   3.231
 3758TIP3    H111280   4.077   0.796   3.184
 3758TIP3    H211281   3.953   0.725   3.234
 3759TIP3   OH211282   5.482   2.501   4.280
 3759TIP3    H111283   5.390   2.489   4.305
 3759TIP3    H211284   5.509   2.579   4.328
 3760TIP3   OH211285   3.729   1.032   2.829
 3760TIP3    H111286   3.680   0.985   2.897
 3760TIP3    H211287   3.714   0.981   2.749
 3761TIP3   OH211288   3.406   0.692   2.620
 3761TIP3    H111289   3.349   0.746   2.565
 3761TIP3    H211290   3.346   0.642   2.675
 3762TIP3   OH211291   0.306   0.235   4.785
 3762TIP3    H111292   0.241   0.175   4.749
 3762TIP3    H211293   0.293   0.316   4.736
 3763TIP3   OH211294   0.550   1.576   2.318
 3763TIP3    H111295   0.577   1.484   2.321
 3763TIP3    H211296   0.505   1.586   2.234
 3764TIP3   OH211297   1.122   1.447   2.039
 3764TIP3    H111298   1.055   1.512   2.017
 3764TIP3    H211299   1.074   1.378   2.084
 3765TIP3   OH211300   3.245   4.958   4.703
 3765TIP3    H111301   3.170   4.899   4.702
 3765TIP3    H211302   3.280   4.951   4.792
 3766TIP3   OH211303   3.653   4.182   2.031
 3766TIP3    H111304   3.611   4.099   2.055
 3766TIP3    H211305   3.708   4.204   2.106
 3767TIP3   OH211306   1.152   1.472   0.389
 3767TIP3    H111307   1.129   1.405   0.453
 3767TIP3    H211308   1.104   1.550   0.418
 3768TIP3   OH211309   0.458   2.493   4.781
 3768TIP3    H111310   0.486   2.480   4.872
 3768TIP3    H211311   0.439   2.587   4.775
 3769TIP3   OH211312   4.768   4.627   1.691
 3769TIP3    H111313   4.838   4.670   1.642
 3769TIP3    H211314   4.767   4.537   1.657
 3770TIP3   OH211315   5.399   3.863   1.176
 3770TIP3    H111316   5.388   3.932   1.110
 3770TIP3    H211317   5.421   3.911   1.256
 3771TIP3   OH211318   1.403   0.283   0.264
 3771TIP3    H111319   1.464   0.350   0.294
 3771TIP3    H211320   1.389   0.303   0.171
 3772TIP3   OH211321   1.391   5.297   4.576
 3772TIP3    H111322   1.373   5.206   4.552
 3772TIP3    H211323   1.486   5.300   4.590
 3773TIP3   OH211324   4.758   2.391   2.760
 3773TIP3    H111325   4.679   2.404   2.814
 3773TIP3    H211326   4.807   2.473   2.772
 3774TIP3   OH211327   4.999   2.016   4.411
 3774TIP3    H111328   4.944   1.958   4.463
 3774TIP3    H211329   4.938   2.058   4.350
 3775TIP3   OH211330   2.758   3.632   4.322
 3775TIP3    H111331   2.740   3.722   4.348
 3775TIP3    H211332   2.721   3.579   4.392
 3776TIP3   OH211333   5.710   0.517   3.462
 3776TIP3    H111334   5.715   0.587   3.527
 3776TIP3    H211335   5.732   0.559   3.379
 3777TIP3   OH211336   3.540   3.766   1.913
 3777TIP3    H111337   3.518   3.684   1.957
 3777TIP3    H211338   3.519   3.834   1.977
 3778TIP3   OH211339   1.454   2.052   3.229
 3778TIP3    H111340   1.434   1.995   3.302
 3778TIP3    H211341   1.500   2.127   3.268
 3779TIP3   OH211342   0.945   0.391   4.135
 3779TIP3    H111343   0.950   0.485   4.153
 3779TIP3    H211344   0.985   0.382   4.048
 3780TIP3   OH211345   5.664   4.050   0.335
 3780TIP3    H111346   5.620   4.134   0.322
 3780TIP3    H211347   5.727   4.045   0.263
 3781TIP3   OH211348   4.553   5.657   3.056
 3781TIP3    H111349   4.571   5.565   3.042
 3781TIP3    H211350   4.466   5.659   3.096
 3782TIP3   OH211351   5.856   5.182   3.161
 3782TIP3    H111352   5.805   5.109   3.195
 3782TIP3    H211353   5.800   5.259   3.173
 3783TIP3   OH211354   1.506   4.869   4.686
 3783TIP3    H111355   1.514   4.894   4.594
 3783TIP3    H211356   1.446   4.794   4.685
 3784TIP3   OH211357   5.261   5.748   4.862
 3784TIP3    H111358   5.244   5.688   4.790
 3784TIP3    H211359   5.346   5.720   4.897
 3785TIP3   OH211360   1.446   4.257   1.795
 3785TIP3    H111361   1.387   4.243   1.869
 3785TIP3    H211362   1.534   4.247   1.831
 3786TIP3   OH211363   0.306   0.739   1.658
 3786TIP3    H111364   0.236   0.731   1.594
 3786TIP3    H211365   0.302   0.658   1.709
 3787TIP3   OH211366   3.878   5.211   0.953
 3787TIP3    H111367   3.799   5.192   0.901
 3787TIP3    H211368   3.850   5.278   1.014
 3788TIP3   OH211369   4.644   0.544   4.958
 3788TIP3    H111370   4.682   0.486   5.024
 3788TIP3    H211371   4.705   0.539   4.884
 3789TIP3   OH211372   6.279   0.614   0.685
 3789TIP3    H111373   6.222   0.537   0.683
 3789TIP3    H211374   6.350   0.593   0.624
 3790TIP3   OH211375   2.109   3.981   2.452
 3790TIP3    H111376   2.125   3.894   2.416
 3790TIP3    H211377   2.015   3.985   2.464
 3791TIP3   OH211378   2.312   0.465   2.422
 3791TIP3    H111379   2.407   0.477   2.426
 3791TIP3    H211380   2.282   0.534   2.363
 3792TIP3   OH211381   3.098   1.431   1.720
 3792TIP3    H111382   3.185   1.417   1.682
 3792TIP3    H211383   3.103   1.389   1.806
 3793TIP3   OH211384   4.075   4.770   3.391
 3793TIP3    H111385   3.997   4.722   3.363
 3793TIP3    H211386   4.133   4.767   3.315
 3794TIP3   OH211387   5.100   5.062   0.629
 3794TIP3    H111388   5.092   5.009   0.550
 3794TIP3    H211389   5.112   4.999   0.700
 3795TIP3   OH211390   5.180   5.586   2.987
 3795TIP3    H111391   5.114   5.636   2.939
 3795TIP3    H211392   5.133   5.510   3.021
 3796TIP3   OH211393   5.720   1.751   2.460
 3796TIP3    H111394   5.703   1.822   2.399
 3796TIP3    H211395   5.713   1.671   2.407
 3797TIP3   OH211396   4.897   2.397   4.953
 3797TIP3    H111397   4.897   2.343   5.032
 3797TIP3    H211398   4.897   2.333   4.881
 3798TIP3   OH211399   4.719   2.359   4.366
 3798TIP3    H111400   4.642   2.324   4.409
 3798TIP3    H211401   4.755   2.286   4.316
 3799TIP3   OH211402   5.795   4.002   0.101
 3799TIP3    H111403   5.839   4.048   0.029
 3799TIP3    H211404   5.748   3.931   0.059
 3800TIP3   OH211405   1.181   2.227   4.090
 3800TIP3    H111406   1.151   2.317   4.102
 3800TIP3    H211407   1.151   2.181   4.168
 3801TIP3   OH211408   1.915   3.156   2.267
 3801TIP3    H111409   1.958   3.214   2.204
 3801TIP3    H211410   1.969   3.162   2.345
 3802TIP3   OH211411   3.615   1.929   4.352
 3802TIP3    H111412   3.674   1.900   4.282
 3802TIP3    H211413   3.607   2.023   4.339
 3803TIP3   OH211414   3.727   0.536   1.424
 3803TIP3    H111415   3.719   0.441   1.436
 3803TIP3    H211416   3.692   0.573   1.505
 3804TIP3   OH211417   2.729   4.108   0.161
 3804TIP3    H111418   2.774   4.030   0.193
 3804TIP3    H211419   2.712   4.160   0.239
 3805TIP3   OH211420   3.758   1.234   5.115
 3805TIP3    H111421   3.782   1.326   5.129
 3805TIP3    H211422   3.706   1.235   5.035
 3806TIP3   OH211423   6.113   3.535   0.638
 3806TIP3    H111424   6.028   3.564   0.604
 3806TIP3    H211425   6.116   3.571   0.727
 3807TIP3   OH211426   4.684   3.944   3.502
 3807TIP3    H111427   4.641   4.005   3.561
 3807TIP3    H211428   4.768   3.924   3.544
 3808TIP3   OH211429   2.178   4.795   2.435
 3808TIP3    H111430   2.274   4.795   2.439
 3808TIP3    H211431   2.154   4.704   2.418
 3809TIP3   OH211432   2.421   3.740   1.868
 3809TIP3    H111433   2.364   3.816   1.864
 3809TIP3    H211434   2.509   3.777   1.876
 3810TIP3   OH211435   2.040   5.029   4.459
 3810TIP3    H111436   2.030   4.935   4.471
 3810TIP3    H211437   2.131   5.040   4.432
 3811TIP3   OH211438   2.195   2.320   2.392
 3811TIP3    H111439   2.106   2.285   2.388
 3811TIP3    H211440   2.196   2.371   2.472
 3812TIP3   OH211441   0.233   1.499   2.466
 3812TIP3    H111442   0.186   1.423   2.498
 3812TIP3    H211443   0.325   1.482   2.488
 3813TIP3   OH211444   0.061   0.836   0.467
 3813TIP3    H111445   0.051   0.829   0.562
 3813TIP3    H211446   0.022   0.921   0.445
 3814TIP3   OH211447   2.487   4.591   0.097
 3814TIP3    H111448   2.460   4.568   0.008
 3814TIP3    H211449   2.496   4.686   0.096
 3815TIP3   OH211450   1.609   2.159   0.765
 3815TIP3    H111451   1.583   2.162   0.857
 3815TIP3    H211452   1.649   2.244   0.748
 3816TIP3   OH211453   6.228   3.352   3.464
 3816TIP3    H111454   6.141   3.385   3.485
 3816TIP3    H211455   6.248   3.290   3.534
 3817TIP3   OH211456   1.515   2.352   1.188
 3817TIP3    H111457   1.555   2.424   1.139
 3817TIP3    H211458   1.454   2.395   1.248
 3818TIP3   OH211459   4.255   4.261   0.309
 3818TIP3    H111460   4.185   4.313   0.349
 3818TIP3    H211461   4.215   4.222   0.231
 3819TIP3   OH211462   5.487   0.131   0.901
 3819TIP3    H111463   5.408   0.118   0.849
 3819TIP3    H211464   5.559   0.121   0.839
 3820TIP3   OH211465   5.294   1.180   4.405
 3820TIP3    H111466   5.287   1.177   4.500
 3820TIP3    H211467   5.373   1.231   4.388
 3821TIP3   OH211468   3.973   3.740   0.452
 3821TIP3    H111469   3.991   3.648   0.472
 3821TIP3    H211470   3.883   3.753   0.481
 3822TIP3   OH211471   2.330   3.759   1.108
 3822TIP3    H111472   2.381   3.829   1.150
 3822TIP3    H211473   2.360   3.758   1.017
 3823TIP3   OH211474   4.707   0.843   4.701
 3823TIP3    H111475   4.642   0.828   4.770
 3823TIP3    H211476   4.753   0.759   4.694
 3824TIP3   OH211477   4.570   4.135   1.811
 3824TIP3    H111478   4.546   4.227   1.823
 3824TIP3    H211479   4.519   4.088   1.877
 3825TIP3   OH211480   5.285   5.350   3.311
 3825TIP3    H111481   5.287   5.441   3.338
 3825TIP3    H211482   5.322   5.302   3.386
 3826TIP3   OH211483   6.086   2.833   4.298
 3826TIP3    H111484   6.044   2.750   4.321
 3826TIP3    H211485   6.165   2.835   4.351
 3827TIP3   OH211486   1.644   1.189   4.023
 3827TIP3    H111487   1.726   1.234   4.002
 3827TIP3    H211488   1.598   1.182   3.939
 3828TIP3   OH211489   4.721   3.269   1.326
 3828TIP3    H111490   4.704   3.224   1.408
 3828TIP3    H211491   4.650   3.241   1.268
 3829TIP3   OH211492   2.721   5.869   3.817
 3829TIP3    H111493   2.653   5.840   3.756
 3829TIP3    H211494   2.735   5.793   3.873
 3830TIP3   OH211495   1.449   4.148   3.310
 3830TIP3    H111496   1.399   4.210   3.257
 3830TIP3    H211497   1.392   4.128   3.384
 3831TIP3   OH211498   5.153   3.078   1.995
 3831TIP3    H111499   5.205   3.135   2.052
 3831TIP3    H211500   5.189   3.093   1.907
 3832TIP3   OH211501   3.164   1.298   0.378
 3832TIP3    H111502   3.231   1.340   0.431
 3832TIP3    H211503   3.103   1.259   0.441
 3833TIP3   OH211504   1.757   4.263   4.989
 3833TIP3    H111505   1.852   4.273   4.996
 3833TIP3    H211506   1.737   4.283   4.898
 3834TIP3   OH211507   1.032   5.581   4.942
 3834TIP3    H111508   1.035   5.594   5.037
 3834TIP3    H211509   1.124   5.572   4.917
 3835TIP3   OH211510   5.329   3.950   3.938
 3835TIP3    H111511   5.401   4.008   3.912
 3835TIP3    H211512   5.315   3.968   4.031
 3836TIP3   OH211513   3.537   2.831   1.321
 3836TIP3    H111514   3.551   2.890   1.247
 3836TIP3    H211515   3.514   2.747   1.282
 3837TIP3   OH211516   3.875   2.766   0.353
 3837TIP3    H111517   3.872   2.693   0.292
 3837TIP3    H211518   3.868   2.844   0.299
 3838TIP3   OH211519   5.845   4.142   0.771
 3838TIP3    H111520   5.790   4.210   0.810
 3838TIP3    H211521   5.789   4.065   0.767
 3839TIP3   OH211522   5.742   3.046   0.253
 3839TIP3    H111523   5.775   2.997   0.329
 3839TIP3    H211524   5.651   3.019   0.245
 3840TIP3   OH211525   1.934   2.615   1.433
 3840TIP3    H111526   1.945   2.672   1.509
 3840TIP3    H211527   1.851   2.570   1.447
 3841TIP3   OH211528   0.514   2.780   3.884
 3841TIP3    H111529   0.485   2.856   3.935
 3841TIP3    H211530   0.507   2.808   3.793
 3842TIP3   OH211531   3.808   3.251   0.813
 3842TIP3    H111532   3.738   3.295   0.860
 3842TIP3    H211533   3.872   3.228   0.881
 3843TIP3   OH211534   3.817   3.942   2.676
 3843TIP3    H111535   3.892   3.899   2.635
 3843TIP3    H211536   3.741   3.894   2.643
 3844TIP3   OH211537   1.287   1.406   2.814
 3844TIP3    H111538   1.253   1.495   2.820
 3844TIP3    H211539   1.333   1.393   2.897
 3845TIP3   OH211540   0.379   4.174   3.724
 3845TIP3    H111541   0.287   4.198   3.732
 3845TIP3    H211542   0.379   4.079   3.727
 3846TIP3   OH211543   5.608   4.673   0.666
 3846TIP3    H111544   5.529   4.640   0.624
 3846TIP3    H211545   5.648   4.731   0.601
 3847TIP3   OH211546   1.518   2.855   4.493
 3847TIP3    H111547   1.576   2.797   4.543
 3847TIP3    H211548   1.430   2.831   4.522
 3848TIP3   OH211549   5.451   5.225   4.548
 3848TIP3    H111550   5.362   5.242   4.515
 3848TIP3    H211551   5.449   5.134   4.577
 3849TIP3   OH211552   2.832   0.050   1.418
 3849TIP3    H111553   2.784   0.004   1.487
 3849TIP3    H211554   2.845   0.138   1.453
 3850TIP3   OH211555   5.212   4.332   3.964
 3850TIP3    H111556   5.148   4.374   4.022
 3850TIP3    H211557   5.278   4.298   4.023
 3851TIP3   OH211558   3.180   3.250   4.403
 3851TIP3    H111559   3.200   3.330   4.353
 3851TIP3    H211560   3.142   3.191   4.339
 3852TIP3   OH211561   4.155   0.754   2.998
 3852TIP3    H111562   4.110   0.835   2.974
 3852TIP3    H211563   4.133   0.693   2.928
 3853TIP3   OH211564   0.643   1.974   2.440
 3853TIP3    H111565   0.718   1.990   2.383
 3853TIP3    H211566   0.578   2.039   2.413
 3854TIP3   OH211567   4.574   0.624   4.428
 3854TIP3    H111568   4.532   0.666   4.503
 3854TIP3    H211569   4.626   0.553   4.467
 3855TIP3   OH211570   2.845   3.492   0.877
 3855TIP3    H111571   2.769   3.485   0.820
 3855TIP3    H211572   2.828   3.569   0.931
 3856TIP3   OH211573   1.259   3.265   5.114
 3856TIP3    H111574   1.338   3.212   5.104
 3856TIP3    H211575   1.242   3.300   5.027
 3857TIP3   OH211576   1.050   3.723   2.111
 3857TIP3    H111577   1.109   3.755   2.043
 3857TIP3    H211578   1.104   3.662   2.162
 3858TIP3   OH211579   0.190   0.780   4.195
 3858TIP3    H111580   0.153   0.725   4.126
 3858TIP3    H211581   0.191   0.724   4.272
 3859TIP3   OH211582   4.945   1.415   2.605
 3859TIP3    H111583   4.908   1.447   2.687
 3859TIP3    H211584   5.024   1.367   2.632
 3860TIP3   OH211585   6.287   5.628   3.982
 3860TIP3    H111586   6.347   5.702   3.974
 3860TIP3    H211587   6.216   5.660   4.038
 3861TIP3   OH211588   2.284   5.078   3.931
 3861TIP3    H111589   2.323   5.034   3.855
 3861TIP3    H211590   2.190   5.061   3.924
 3862TIP3   OH211591   1.256   1.632   0.119
 3862TIP3    H111592   1.310   1.637   0.198
 3862TIP3    H211593   1.203   1.553   0.131
 3863TIP3   OH211594   5.299   2.279   3.205
 3863TIP3    H111595   5.330   2.226   3.131
 3863TIP3    H211596   5.245   2.219   3.256
 3864TIP3   OH211597   0.448   1.414   3.707
 3864TIP3    H111598   0.475   1.498   3.670
 3864TIP3    H211599   0.391   1.436   3.780
 3865TIP3   OH211600   6.137   2.098   1.233
 3865TIP3    H111601   6.192   2.115   1.309
 3865TIP3    H211602   6.123   2.185   1.194
 3866TIP3   OH211603   0.585   0.342   2.326
 3866TIP3    H111604   0.662   0.312   2.278
 3866TIP3    H211605   0.615   0.346   2.417
 3867TIP3   OH211606   1.725   2.802   0.976
 3867TIP3    H111607   1.644   2.847   0.997
 3867TIP3    H211608   1.786   2.828   1.045
 3868TIP3   OH211609   2.849   3.610   2.681
 3868TIP3    H111610   2.901   3.638   2.606
 3868TIP3    H211611   2.834   3.516   2.667
 3869TIP3   OH211612   1.249   0.099   3.463
 3869TIP3    H111613   1.221   0.183   3.425
 3869TIP3    H211614   1.265   0.043   3.387
 3870TIP3   OH211615   3.621   4.021   2.898
 3870TIP3    H111616   3.581   3.959   2.837
 3870TIP3    H211617   3.708   3.986   2.915
 3871TIP3   OH211618   3.669   2.601   0.909
 3871TIP3    H111619   3.702   2.595   0.820
 3871TIP3    H211620   3.675   2.512   0.943
 3872TIP3   OH211621   1.599   3.392   1.841
 3872TIP3    H111622   1.603   3.393   1.937
 3872TIP3    H211623   1.511   3.358   1.822
 3873TIP3   OH211624   5.901   0.830   4.501
 3873TIP3    H111625   5.953   0.808   4.424
 3873TIP3    H211626   5.964   0.830   4.573
 3874TIP3   OH211627   5.791   0.177   3.467
 3874TIP3    H111628   5.874   0.202   3.427
 3874TIP3    H211629   5.763   0.255   3.515
 3875TIP3   OH211630   3.966   4.161   3.050
 3875TIP3    H111631   3.894   4.208   3.008
 3875TIP3    H211632   4.032   4.228   3.067
 3876TIP3   OH211633   0.888   4.096   0.288
 3876TIP3    H111634   0.935   4.024   0.328
 3876TIP3    H211635   0.888   4.076   0.194
 3877TIP3   OH211636   3.879   5.529   2.828
 3877TIP3    H111637   3.948   5.582   2.787
 3877TIP3    H211638   3.910   5.439   2.819
 3878TIP3   OH211639   2.093   5.596   2.253
 3878TIP3    H111640   2.080   5.690   2.266
 3878TIP3    H211641   2.051   5.555   2.328
 3879TIP3   OH211642   4.882   0.380   4.303
 3879TIP3    H111643   4.940   0.314   4.267
 3879TIP3    H211644   4.871   0.445   4.233
 3880TIP3   OH211645   5.725   4.954   0.634
 3880TIP3    H111646   5.639   4.995   0.628
 3880TIP3    H211647   5.780   5.004   0.573
 3881TIP3   OH211648   0.437   2.361   4.549
 3881TIP3    H111649   0.383   2.429   4.509
 3881TIP3    H211650   0.443   2.386   4.641
 3882TIP3   OH211651   2.278   5.731   5.128
 3882TIP3    H111652   2.209   5.670   5.102
 3882TIP3    H211653   2.235   5.817   5.124
 3883TIP3   OH211654   0.361   2.011   1.403
 3883TIP3    H111655   0.423   2.025   1.475
 3883TIP3    H211656   0.293   2.076   1.417
 3884TIP3   OH211657   5.348   0.917   1.027
 3884TIP3    H111658   5.308   0.868   1.100
 3884TIP3    H211659   5.402   0.983   1.070
 3885TIP3   OH211660   2.387   1.926   4.779
 3885TIP3    H111661   2.326   1.854   4.763
 3885TIP3    H211662   2.454   1.890   4.836
 3886TIP3   OH211663   1.016   4.290   4.922
 3886TIP3    H111664   1.107   4.268   4.942
 3886TIP3    H211665   0.988   4.346   4.994
 3887TIP3   OH211666   3.657   0.725   0.832
 3887TIP3    H111667   3.587   0.745   0.895
 3887TIP3    H211668   3.649   0.792   0.765
 3888TIP3   OH211669   4.541   3.124   0.580
 3888TIP3    H111670   4.575   3.201   0.626
 3888TIP3    H211671   4.464   3.098   0.631
 3889TIP3   OH211672   0.789   1.292   0.027
 3889TIP3    H111673   0.844   1.349   0.080
 3889TIP3    H211674   0.771   1.343  -0.053
 3890TIP3   OH211675   4.392   3.140   2.566
 3890TIP3    H111676   4.351   3.068   2.614
 3890TIP3    H211677   4.318   3.191   2.532
 3891TIP3   OH211678   2.760   2.927   5.057
 3891TIP3    H111679   2.817   2.996   5.090
 3891TIP3    H211680   2.773   2.854   5.118
 3892TIP3   OH211681   3.438   1.915   1.573
 3892TIP3    H111682   3.436   1.840   1.633
 3892TIP3    H211683   3.411   1.879   1.488
 3893TIP3   OH211684   0.601   2.550   5.011
 3893TIP3    H111685   0.686   2.526   5.048
 3893TIP3    H211686   0.611   2.640   4.982
 3894TIP3   OH211687   4.643   5.512   4.751
 3894TIP3    H111688   4.565   5.463   4.777
 3894TIP3    H211689   4.636   5.595   4.798
 3895TIP3   OH211690   3.456   0.144   0.762
 3895TIP3    H111691   3.454   0.155   0.857
 3895TIP3    H211692   3.430   0.229   0.727
 3896TIP3   OH211693   6.115   1.742   1.797
 3896TIP3    H111694   6.144   1.707   1.713
 3896TIP3    H211695   6.033   1.695   1.815
 3897TIP3   OH211696   5.442   1.705   2.678
 3897TIP3    H111697   5.486   1.744   2.754
 3897TIP3    H211698   5.369   1.656   2.715
 3898TIP3   OH211699   3.840   4.627   2.378
 3898TIP3    H111700   3.822   4.537   2.350
 3898TIP3    H211701   3.934   4.629   2.392
 3899TIP3   OH211702   6.159   4.480   3.799
 3899TIP3    H111703   6.085   4.483   3.738
 3899TIP3    H211704   6.172   4.387   3.817
 3900TIP3   OH211705   3.834   3.635   0.180
 3900TIP3    H111706   3.807   3.674   0.097
 3900TIP3    H211707   3.832   3.708   0.243
 3901TIP3   OH211708   6.202   4.221   0.288
 3901TIP3    H111709   6.188   4.193   0.379
 3901TIP3    H211710   6.235   4.311   0.295
 3902TIP3   OH211711   5.012   2.707   0.794
 3902TIP3    H111712   4.997   2.776   0.858
 3902TIP3    H211713   4.964   2.736   0.716
 3903TIP3   OH211714   4.034   3.073   1.987
 3903TIP3    H111715   3.959   3.036   2.034
 3903TIP3    H211716   4.058   3.151   2.037
 3904TIP3   OH211717   4.051   4.173   0.879
 3904TIP3    H111718   4.096   4.215   0.806
 3904TIP3    H211719   4.116   4.114   0.917
 3905TIP3   OH211720   3.001   4.260   0.381
 3905TIP3    H111721   2.997   4.199   0.454
 3905TIP3    H211722   3.089   4.297   0.385
 3906TIP3   OH211723   0.297   2.791   5.159
 3906TIP3    H111724   0.258   2.728   5.099
 3906TIP3    H211725   0.222   2.836   5.198
 3907TIP3   OH211726   4.644   2.750   4.501
 3907TIP3    H111727   4.588   2.672   4.505
 3907TIP3    H211728   4.684   2.746   4.414
 3908TIP3   OH211729   3.046   3.119   0.199
 3908TIP3    H111730   3.060   3.073   0.116
 3908TIP3    H211731   2.962   3.163   0.187
 3909TIP3   OH211732   2.781   5.687   0.683
 3909TIP3    H111733   2.730   5.693   0.763
 3909TIP3    H211734   2.780   5.594   0.660
 3910TIP3   OH211735   0.377   3.764   2.165
 3910TIP3    H111736   0.409   3.837   2.111
 3910TIP3    H211737   0.449   3.744   2.224
 3911TIP3   OH211738   0.288   2.321   5.033
 3911TIP3    H111739   0.306   2.415   5.036
 3911TIP3    H211740   0.195   2.316   5.010
 3912TIP3   OH211741   3.968   5.114   5.141
 3912TIP3    H111742   3.935   5.203   5.148
 3912TIP3    H211743   3.891   5.058   5.150
 3913TIP3   OH211744   4.452   1.827   0.098
 3913TIP3    H111745   4.360   1.822   0.122
 3913TIP3    H211746   4.470   1.920   0.088
 3914TIP3   OH211747   3.974   3.610   3.620
 3914TIP3    H111748   3.997   3.535   3.565
 3914TIP3    H211749   4.053   3.629   3.669
 3915TIP3   OH211750   2.147   1.341   2.020
 3915TIP3    H111751   2.212   1.396   2.064
 3915TIP3    H211752   2.100   1.400   1.961
 3916TIP3   OH211753   3.371   2.057   2.003
 3916TIP3    H111754   3.375   1.965   2.031
 3916TIP3    H211755   3.456   2.072   1.961
 3917TIP3   OH211756   2.436   0.839   1.656
 3917TIP3    H111757   2.414   0.769   1.718
 3917TIP3    H211758   2.371   0.829   1.586
 3918TIP3   OH211759   4.270   3.231   0.246
 3918TIP3    H111760   4.294   3.190   0.163
 3918TIP3    H211761   4.338   3.204   0.307
 3919TIP3   OH211762   2.685   3.710   2.124
 3919TIP3    H111763   2.722   3.797   2.111
 3919TIP3    H211764   2.759   3.650   2.111
 3920TIP3   OH211765   5.743   3.383   4.446
 3920TIP3    H111766   5.824   3.413   4.489
 3920TIP3    H211767   5.765   3.296   4.412
 3921TIP3   OH211768   2.181   4.135   1.202
 3921TIP3    H111769   2.208   4.175   1.284
 3921TIP3    H211770   2.107   4.188   1.172
 3922TIP3   OH211771   3.928   2.077   3.990
 3922TIP3    H111772   3.970   2.158   3.962
 3922TIP3    H211773   3.836   2.088   3.967
 3923TIP3   OH211774   6.176   2.411   4.772
 3923TIP3    H111775   6.157   2.504   4.762
 3923TIP3    H211776   6.104   2.377   4.825
 3924TIP3   OH211777   6.263   1.026   3.641
 3924TIP3    H111778   6.296   1.057   3.557
 3924TIP3    H211779   6.339   1.032   3.700
 3925TIP3   OH211780   6.034   0.936   3.427
 3925TIP3    H111781   6.101   1.004   3.414
 3925TIP3    H211782   5.961   0.964   3.372
 3926TIP3   OH211783   3.080   3.400   0.409
 3926TIP3    H111784   3.048   3.423   0.496
 3926TIP3    H211785   3.073   3.304   0.406
 3927TIP3   OH211786   6.217   2.347   3.910
 3927TIP3    H111787   6.272   2.361   3.833
 3927TIP3    H211788   6.137   2.308   3.876
 3928TIP3   OH211789   4.757   4.196   4.365
 3928TIP3    H111790   4.791   4.241   4.442
 3928TIP3    H211791   4.677   4.244   4.342
 3929TIP3   OH211792   1.168   1.804   0.469
 3929TIP3    H111793   1.166   1.756   0.552
 3929TIP3    H211794   1.079   1.836   0.457
 3930TIP3   OH211795   3.505   1.532   2.085
 3930TIP3    H111796   3.524   1.438   2.084
 3930TIP3    H211797   3.583   1.573   2.047
 3931TIP3   OH211798   0.627   4.225   0.264
 3931TIP3    H111799   0.596   4.153   0.210
 3931TIP3    H211800   0.720   4.209   0.275
 3932TIP3   OH211801   3.714   2.968   3.386
 3932TIP3    H111802   3.758   3.018   3.455
 3932TIP3    H211803   3.752   3.001   3.304
 3933TIP3   OH211804   3.047   2.486   1.436
 3933TIP3    H111805   3.119   2.534   1.395
 3933TIP3    H211806   2.981   2.479   1.366
 3934TIP3   OH211807   4.057   1.714   4.390
 3934TIP3    H111808   3.974   1.743   4.426
 3934TIP3    H211809   4.092   1.652   4.454
 3935TIP3   OH211810   3.006   4.127   4.293
 3935TIP3    H111811   2.950   4.089   4.225
 3935TIP3    H211812   3.073   4.060   4.308
 3936TIP3   OH211813   3.000   4.551   0.601
 3936TIP3    H111814   2.979   4.618   0.535
 3936TIP3    H211815   2.958   4.583   0.681
 3937TIP3   OH211816   1.216   4.063   1.206
 3937TIP3    H111817   1.179   4.045   1.119
 3937TIP3    H211818   1.142   4.096   1.257
 3938TIP3   OH211819   4.403   3.560   3.105
 3938TIP3    H111820   4.453   3.634   3.069
 3938TIP3    H211821   4.397   3.498   3.033
 3939TIP3   OH211822   3.687   1.321   3.497
 3939TIP3    H111823   3.663   1.270   3.420
 3939TIP3    H211824   3.622   1.391   3.501
 3940TIP3   OH211825   2.956   5.532   2.928
 3940TIP3    H111826   3.046   5.564   2.917
 3940TIP3    H211827   2.907   5.576   2.859
 3941TIP3   OH211828   4.358   3.475   4.978
 3941TIP3    H111829   4.412   3.488   5.056
 3941TIP3    H211830   4.417   3.432   4.915
 3942TIP3   OH211831   4.026   5.921   1.077
 3942TIP3    H111832   3.966   5.857   1.038
 3942TIP3    H211833   4.080   5.950   1.003
 3943TIP3   OH211834   3.546   5.437   1.616
 3943TIP3    H111835   3.617   5.462   1.676
 3943TIP3    H211836   3.558   5.493   1.539
 3944TIP3   OH211837   3.360   3.913   4.817
 3944TIP3    H111838   3.274   3.885   4.848
 3944TIP3    H211839   3.420   3.846   4.850
 3945TIP3   OH211840   3.412   4.284   3.545
 3945TIP3    H111841   3.384   4.199   3.579
 3945TIP3    H211842   3.382   4.284   3.454
 3946TIP3   OH211843   4.071   1.545   2.913
 3946TIP3    H111844   4.142   1.481   2.912
 3946TIP3    H211845   4.049   1.558   2.820
 3947TIP3   OH211846   3.455   0.436   4.178
 3947TIP3    H111847   3.451   0.484   4.261
 3947TIP3    H211848   3.546   0.405   4.173
 3948TIP3   OH211849   4.021   2.103   4.262
 3948TIP3    H111850   4.038   2.067   4.175
 3948TIP3    H211851   4.049   2.034   4.322
 3949TIP3   OH211852   0.313   2.841   1.625
 3949TIP3    H111853   0.313   2.882   1.539
 3949TIP3    H211854   0.246   2.774   1.619
 3950TIP3   OH211855   3.768   5.287   3.115
 3950TIP3    H111856   3.715   5.341   3.174
 3950TIP3    H211857   3.733   5.307   3.028
 3951TIP3   OH211858   2.073   3.174   1.923
 3951TIP3    H111859   2.073   3.269   1.908
 3951TIP3    H211860   2.115   3.164   2.009
 3952TIP3   OH211861   4.838   5.313   5.047
 3952TIP3    H111862   4.858   5.249   4.978
 3952TIP3    H211863   4.901   5.294   5.116
 3953TIP3   OH211864   2.364   4.450   1.249
 3953TIP3    H111865   2.340   4.542   1.240
 3953TIP3    H211866   2.285   4.408   1.284
 3954TIP3   OH211867   3.943   4.739   1.050
 3954TIP3    H111868   4.031   4.758   1.017
 3954TIP3    H211869   3.957   4.677   1.122
 3955TIP3   OH211870   1.174   4.796   3.293
 3955TIP3    H111871   1.227   4.872   3.320
 3955TIP3    H211872   1.122   4.775   3.371
 3956TIP3   OH211873   3.589   0.355   1.594
 3956TIP3    H111874   3.519   0.348   1.529
 3956TIP3    H211875   3.604   0.265   1.623
 3957TIP3   OH211876   5.796   0.538   2.421
 3957TIP3    H111877   5.706   0.563   2.400
 3957TIP3    H211878   5.824   0.601   2.488
 3958TIP3   OH211879   0.644   3.040   2.124
 3958TIP3    H111880   0.575   3.103   2.144
 3958TIP3    H211881   0.600   2.955   2.125
 3959TIP3   OH211882   2.804   1.286   4.761
 3959TIP3    H111883   2.840   1.210   4.807
 3959TIP3    H211884   2.710   1.269   4.757
 3960TIP3   OH211885   4.858   4.888   1.430
 3960TIP3    H111886   4.919   4.843   1.488
 3960TIP3    H211887   4.898   4.974   1.416
 3961TIP3   OH211888   3.303   5.877   3.289
 3961TIP3    H111889   3.299   5.796   3.239
 3961TIP3    H211890   3.391   5.911   3.273
 3962TIP3   OH211891   3.406   2.701   3.468
 3962TIP3    H111892   3.396   2.790   3.502
 3962TIP3    H211893   3.449   2.713   3.383
 3963TIP3   OH211894   0.005   0.874   2.436
 3963TIP3    H111895   0.085   0.830   2.404
 3963TIP3    H211896  -0.016   0.937   2.367
 3964TIP3   OH211897   0.192   2.181   4.120
 3964TIP3    H111898   0.159   2.097   4.088
 3964TIP3    H211899   0.232   2.160   4.204
 3965TIP3   OH211900   5.429   1.774   3.674
 3965TIP3    H111901   5.404   1.864   3.655
 3965TIP3    H211902   5.346   1.728   3.686
 3966TIP3   OH211903   0.112   4.462   3.075
 3966TIP3    H111904   0.098   4.538   3.132
 3966TIP3    H211905   0.037   4.462   3.015
 3967TIP3   OH211906   4.119   0.265   0.041
 3967TIP3    H111907   4.163   0.341   0.080
 3967TIP3    H211908   4.071   0.226   0.114
 3968TIP3   OH211909   0.574   1.277   0.584
 3968TIP3    H111910   0.482   1.304   0.583
 3968TIP3    H211911   0.573   1.189   0.548
 3969TIP3   OH211912   0.876   4.093   1.712
 3969TIP3    H111913   0.898   4.046   1.632
 3969TIP3    H211914   0.792   4.135   1.693
 3970TIP3   OH211915   1.838   0.155   3.771
 3970TIP3    H111916   1.925   0.168   3.734
 3970TIP3    H211917   1.799   0.243   3.771
 3971TIP3   OH211918   3.144   1.170   2.843
 3971TIP3    H111919   3.094   1.091   2.825
 3971TIP3    H211920   3.082   1.242   2.829
 3972TIP3   OH211921   5.481   3.724   2.010
 3972TIP3    H111922   5.434   3.681   1.939
 3972TIP3    H211923   5.481   3.817   1.986
 3973TIP3   OH211924   4.721   3.376   3.766
 3973TIP3    H111925   4.739   3.424   3.685
 3973TIP3    H211926   4.666   3.435   3.817
 3974TIP3   OH211927   5.235   1.804   3.419
 3974TIP3    H111928   5.251   1.767   3.505
 3974TIP3    H211929   5.244   1.730   3.359
 3975TIP3   OH211930   1.207   3.548   3.314
 3975TIP3    H111931   1.264   3.500   3.254
 3975TIP3    H211932   1.126   3.561   3.264
 3976TIP3   OH211933   4.186   5.265   4.848
 3976TIP3    H111934   4.151   5.240   4.763
 3976TIP3    H211935   4.110   5.273   4.905
 3977TIP3   OH211936   4.061   5.422   2.269
 3977TIP3    H111937   4.051   5.456   2.358
 3977TIP3    H211938   4.003   5.346   2.265
 3978TIP3   OH211939   0.199   0.581   2.556
 3978TIP3    H111940   0.205   0.496   2.600
 3978TIP3    H211941   0.170   0.560   2.467
 3979TIP3   OH211942   2.290   5.391   3.613
 3979TIP3    H111943   2.284   5.309   3.565
 3979TIP3    H211944   2.382   5.399   3.637
 3980TIP3   OH211945   2.749   4.864   2.375
 3980TIP3    H111946   2.820   4.803   2.355
 3980TIP3    H211947   2.778   4.908   2.456
 3981TIP3   OH211948   3.047   0.703   4.601
 3981TIP3    H111949   3.006   0.743   4.524
 3981TIP3    H211950   2.974   0.685   4.660
 3982TIP3   OH211951   1.880   2.663   3.796
 3982TIP3    H111952   1.967   2.645   3.761
 3982TIP3    H211953   1.837   2.714   3.727
 3983TIP3   OH211954   4.282   0.798   1.862
 3983TIP3    H111955   4.281   0.759   1.950
 3983TIP3    H211956   4.275   0.892   1.877
 3984TIP3   OH211957   6.231   5.480   5.009
 3984TIP3    H111958   6.204   5.389   5.013
 3984TIP3    H211959   6.197   5.513   4.926
 3985TIP3   OH211960   5.547   3.036   2.544
 3985TIP3    H111961   5.582   3.118   2.579
 3985TIP3    H211962   5.624   2.981   2.530
 3986TIP3   OH211963   5.466   5.298   3.506
 3986TIP3    H111964   5.487   5.325   3.596
 3986TIP3    H211965   5.532   5.342   3.452
 3987TIP3   OH211966   3.010   0.611   1.160
 3987TIP3    H111967   3.076   0.654   1.213
 3987TIP3    H211968   3.028   0.640   1.070
 3988TIP3   OH211969   4.651   3.779   1.131
 3988TIP3    H111970   4.687   3.704   1.179
 3988TIP3    H211971   4.583   3.741   1.076
 3989TIP3   OH211972   5.196   2.778   2.289
 3989TIP3    H111973   5.279   2.759   2.246
 3989TIP3    H211974   5.194   2.718   2.364
 3990TIP3   OH211975   4.967   0.149   1.617
 3990TIP3    H111976   4.949   0.122   1.527
 3990TIP3    H211977   4.912   0.091   1.670
 3991TIP3   OH211978   6.031   1.670   0.335
 3991TIP3    H111979   5.972   1.741   0.357
 3991TIP3    H211980   6.108   1.713   0.297
 3992TIP3   OH211981   0.639   1.767   0.362
 3992TIP3    H111982   0.585   1.805   0.431
 3992TIP3    H211983   0.585   1.698   0.324
 3993TIP3   OH211984   0.007   5.795   2.146
 3993TIP3    H111985  -0.065   5.771   2.087
 3993TIP3    H211986   0.085   5.786   2.092
 3994TIP3   OH211987   5.820   2.936   2.427
 3994TIP3    H111988   5.909   2.959   2.452
 3994TIP3    H211989   5.786   3.014   2.383
 3995TIP3   OH211990   1.531   0.744   4.581
 3995TIP3    H111991   1.524   0.829   4.538
 3995TIP3    H211992   1.517   0.762   4.673
 3996TIP3   OH211993   6.172   3.538   4.361
 3996TIP3    H111994   6.235   3.606   4.336
 3996TIP3    H211995   6.155   3.490   4.280
 3997TIP3   OH211996   0.798   4.360   3.165
 3997TIP3    H111997   0.745   4.284   3.191
 3997TIP3    H211998   0.794   4.419   3.241
 3998TIP3   OH211999   5.495   1.180   0.924
 3998TIP3    H112000   5.455   1.190   0.838
 3998TIP3    H212001   5.557   1.108   0.914
 3999TIP3   OH212002   5.953   1.021   0.837
 3999TIP3    H112003   5.977   0.965   0.763
 3999TIP3    H212004   6.022   1.005   0.902
 4000TIP3   OH212005   1.093   3.113   3.281
 4000TIP3    H112006   1.188   3.125   3.278
 4000TIP3    H212007   1.082   3.018   3.291
 4001TIP3   OH212008   2.949   4.639   4.442
 4001TIP3    H112009   2.977   4.566   4.498
 4001TIP3    H212010   3.026   4.696   4.437
 4002TIP3   OH212011   3.747   5.522   1.788
 4002TIP3    H112012   3.785   5.577   1.720
 4002TIP3    H212013   3.822   5.480   1.830
 4003TIP3   OH212014   2.704   0.294   4.227
 4003TIP3    H112015   2.795   0.304   4.202
 4003TIP3    H212016   2.667   0.382   4.221
 4004TIP3   OH212017   2.592   0.286   1.228
 4004TIP3    H112018   2.609   0.282   1.134
 4004TIP3    H212019   2.655   0.350   1.261
 4005TIP3   OH212020   5.415   3.915   0.869
 4005TIP3    H112021   5.347   3.983   0.864
 4005TIP3    H212022   5.368   3.835   0.892
 4006TIP3   OH212023   2.418   0.835   4.390
 4006TIP3    H112024   2.373   0.918   4.406
 4006TIP3    H212025   2.384   0.775   4.457
 4007TIP3   OH212026   5.401   3.130   3.066
 4007TIP3    H112027   5.398   3.203   3.128
 4007TIP3    H212028   5.383   3.053   3.120
 4008TIP3   OH212029   3.593   4.361   0.870
 4008TIP3    H112030   3.655   4.297   0.905
 4008TIP3    H212031   3.600   4.435   0.930
 4009TIP3   OH212032   2.090   4.342   3.096
 4009TIP3    H112033   2.134   4.354   3.011
 4009TIP3    H212034   2.029   4.270   3.081
 4010TIP3   OH212035   6.314   2.342   4.166
 4010TIP3    H112036   6.398   2.297   4.161
 4010TIP3    H212037   6.284   2.348   4.076
 4011TIP3   OH212038   2.212   1.499   0.876
 4011TIP3    H112039   2.178   1.415   0.844
 4011TIP3    H212040   2.268   1.531   0.805
 4012TIP3   OH212041   0.055   2.042   0.525
 4012TIP3    H112042   0.112   2.063   0.600
 4012TIP3    H212043  -0.030   2.024   0.565
 4013TIP3   OH212044   0.788   2.646   4.421
 4013TIP3    H112045   0.844   2.724   4.419
 4013TIP3    H212046   0.771   2.632   4.514
 4014TIP3   OH212047   5.857   5.583   0.794
 4014TIP3    H112048   5.854   5.532   0.874
 4014TIP3    H212049   5.778   5.638   0.797
 4015TIP3   OH212050   3.882   5.092   0.106
 4015TIP3    H112051   3.913   5.004   0.127
 4015TIP3    H212052   3.822   5.113   0.178
 4016TIP3   OH212053   5.624   3.504   3.171
 4016TIP3    H112054   5.604   3.499   3.078
 4016TIP3    H212055   5.568   3.438   3.212
 4017TIP3   OH212056   0.325   1.019   1.640
 4017TIP3    H112057   0.316   0.926   1.660
 4017TIP3    H212058   0.419   1.033   1.632
 4018TIP3   OH212059   5.004   5.004   3.353
 4018TIP3    H112060   5.028   5.095   3.371
 4018TIP3    H212061   5.033   4.956   3.431
 4019TIP3   OH212062   0.275   3.365   5.034
 4019TIP3    H112063   0.346   3.384   5.095
 4019TIP3    H212064   0.237   3.450   5.014
 4020TIP3   OH212065   3.905   3.696   1.671
 4020TIP3    H112066   3.919   3.740   1.587
 4020TIP3    H212067   3.838   3.631   1.653
 4021TIP3   OH212068   1.305   4.368   3.691
 4021TIP3    H112069   1.284   4.439   3.630
 4021TIP3    H212070   1.246   4.382   3.765
 4022TIP3   OH212071   4.239   1.635   2.687
 4022TIP3    H112072   4.237   1.577   2.611
 4022TIP3    H212073   4.319   1.609   2.734
 4023TIP3   OH212074   4.787   5.575   2.882
 4023TIP3    H112075   4.784   5.535   2.969
 4023TIP3    H212076   4.842   5.652   2.893
 4024TIP3   OH212077   0.133   1.688   2.233
 4024TIP3    H112078   0.082   1.626   2.182
 4024TIP3    H212079   0.180   1.634   2.296
 4025TIP3   OH212080   4.833   0.405   3.687
 4025TIP3    H112081   4.757   0.347   3.684
 4025TIP3    H212082   4.840   0.440   3.599
 4026TIP3   OH212083   1.629   1.329   2.997
 4026TIP3    H112084   1.556   1.388   3.014
 4026TIP3    H212085   1.702   1.366   3.047
 4027TIP3   OH212086   3.427   1.141   2.966
 4027TIP3    H112087   3.485   1.210   2.932
 4027TIP3    H212088   3.344   1.156   2.923
 4028TIP3   OH212089   3.982   0.159   0.348
 4028TIP3    H112090   4.037   0.220   0.396
 4028TIP3    H212091   3.893   0.195   0.357
 4029TIP3   OH212092   0.812   3.577   3.377
 4029TIP3    H112093   0.727   3.595   3.336
 4029TIP3    H212094   0.826   3.650   3.437
 4030TIP3   OH212095   1.326   4.017   4.169
 4030TIP3    H112096   1.282   4.073   4.105
 4030TIP3    H212097   1.415   4.008   4.135
 4031TIP3   OH212098   0.162   1.177   1.420
 4031TIP3    H112099   0.172   1.163   1.325
 4031TIP3    H212100   0.244   1.144   1.457
 4032TIP3   OH212101   0.031   3.522   3.648
 4032TIP3    H112102   0.047   3.440   3.601
 4032TIP3    H212103   0.118   3.560   3.659
 4033TIP3   OH212104   1.873   1.904   1.387
 4033TIP3    H112105   1.863   1.852   1.307
 4033TIP3    H212106   1.820   1.858   1.452
 4034TIP3   OH212107   4.427   4.984   1.556
 4034TIP3    H112108   4.341   5.020   1.536
 4034TIP3    H212109   4.484   5.018   1.486
 4035TIP3   OH212110   6.189   5.789   3.081
 4035TIP3    H112111   6.107   5.746   3.056
 4035TIP3    H212112   6.190   5.784   3.177
 4036TIP3   OH212113   5.918   0.726   0.051
 4036TIP3    H112114   5.906   0.651   0.110
 4036TIP3    H212115   6.011   0.724   0.027
 4037TIP3   OH212116   0.151   4.362   3.990
 4037TIP3    H112117   0.157   4.418   3.912
 4037TIP3    H212118   0.153   4.422   4.064
 4038TIP3   OH212119   2.721   3.532   0.091
 4038TIP3    H112120   2.635   3.554   0.127
 4038TIP3    H212121   2.770   3.614   0.093
 4039TIP3   OH212122   5.694   1.565   3.865
 4039TIP3    H112123   5.641   1.638   3.897
 4039TIP3    H212124   5.700   1.505   3.940
 4040TIP3   OH212125   2.736   0.666   0.347
 4040TIP3    H112126   2.752   0.572   0.333
 4040TIP3    H212127   2.661   0.670   0.406
 4041TIP3   OH212128   6.272   1.686   1.542
 4041TIP3    H112129   6.198   1.704   1.484
 4041TIP3    H212130   6.304   1.600   1.513
 4042TIP3   OH212131   3.407   0.658   4.343
 4042TIP3    H112132   3.422   0.731   4.284
 4042TIP3    H212133   3.348   0.692   4.410
 4043TIP3   OH212134   1.608   4.203   3.044
 4043TIP3    H112135   1.516   4.176   3.045
 4043TIP3    H212136   1.609   4.290   3.084
 4044TIP3   OH212137   5.118   3.377   1.310
 4044TIP3    H112138   5.059   3.402   1.381
 4044TIP3    H212139   5.108   3.282   1.303
 4045TIP3   OH212140   4.201   1.978   0.372
 4045TIP3    H112141   4.141   1.912   0.336
 4045TIP3    H212142   4.263   1.994   0.301
 4046TIP3   OH212143   1.018   4.260   4.302
 4046TIP3    H112144   1.065   4.291   4.379
 4046TIP3    H212145   1.086   4.223   4.246
 4047TIP3   OH212146   5.706   4.577   1.896
 4047TIP3    H112147   5.692   4.565   1.990
 4047TIP3    H212148   5.785   4.631   1.889
 4048TIP3   OH212149   3.223   3.174   3.072
 4048TIP3    H112150   3.268   3.252   3.039
 4048TIP3    H212151   3.226   3.183   3.167
 4049TIP3   OH212152   2.175   0.855   5.158
 4049TIP3    H112153   2.217   0.783   5.204
 4049TIP3    H212154   2.081   0.839   5.170
 4050TIP3   OH212155   5.988   2.589   0.538
 4050TIP3    H112156   6.010   2.640   0.615
 4050TIP3    H212157   5.894   2.573   0.546
 4051TIP3   OH212158   3.462   2.237   3.142
 4051TIP3    H112159   3.530   2.223   3.076
 4051TIP3    H212160   3.490   2.315   3.189
 4052TIP3   OH212161   4.550   0.283   2.881
 4052TIP3    H112162   4.621   0.347   2.870
 4052TIP3    H212163   4.564   0.247   2.968
 4053TIP3   OH212164   0.885   5.654   0.701
 4053TIP3    H112165   0.809   5.682   0.753
 4053TIP3    H212166   0.947   5.727   0.708
 4054TIP3   OH212167   2.289   4.921   2.867
 4054TIP3    H112168   2.286   4.937   2.773
 4054TIP3    H212169   2.208   4.959   2.900
 4055TIP3   OH212170   0.969   3.474   4.243
 4055TIP3    H112171   0.909   3.504   4.175
 4055TIP3    H212172   0.985   3.552   4.296
 4056TIP3   OH212173   2.630   4.883   1.651
 4056TIP3    H112174   2.581   4.939   1.591
 4056TIP3    H212175   2.631   4.797   1.609
 4057TIP3   OH212176   4.739   1.093   4.288
 4057TIP3    H112177   4.670   1.089   4.354
 4057TIP3    H212178   4.723   1.018   4.231
 4058TIP3   OH212179   0.486   0.706   3.747
 4058TIP3    H112180   0.399   0.742   3.733
 4058TIP3    H212181   0.486   0.678   3.839
 4059TIP3   OH212182   1.304   2.293   0.726
 4059TIP3    H112183   1.212   2.279   0.745
 4059TIP3    H212184   1.349   2.275   0.809
 4060TIP3   OH212185   1.126   5.664   0.341
 4060TIP3    H112186   1.094   5.740   0.389
 4060TIP3    H212187   1.222   5.672   0.344
 4061TIP3   OH212188   0.523   2.517   3.137
 4061TIP3    H112189   0.609   2.518   3.177
 4061TIP3    H212190   0.518   2.433   3.092
 4062TIP3   OH212191   1.201   2.133   3.431
 4062TIP3    H112192   1.191   2.100   3.521
 4062TIP3    H212193   1.233   2.058   3.382
 4063TIP3   OH212194   0.177   2.282   1.337
 4063TIP3    H112195   0.124   2.256   1.413
 4063TIP3    H212196   0.212   2.368   1.361
 4064TIP3   OH212197   0.474   5.896   3.722
 4064TIP3    H112198   0.444   5.817   3.676
 4064TIP3    H212199   0.569   5.891   3.717
 4065TIP3   OH212200   3.113   5.918   1.136
 4065TIP3    H112201   3.102   5.867   1.217
 4065TIP3    H212202   3.053   5.992   1.147
 4066TIP3   OH212203   0.625   0.120   2.755
 4066TIP3    H112204   0.610   0.040   2.805
 4066TIP3    H212205   0.572   0.109   2.675
 4067TIP3   OH212206   5.149   1.278   0.347
 4067TIP3    H112207   5.219   1.242   0.292
 4067TIP3    H212208   5.147   1.222   0.424
 4068TIP3   OH212209   6.134   0.191   3.044
 4068TIP3    H112210   6.100   0.279   3.065
 4068TIP3    H212211   6.228   0.204   3.032
 4069TIP3   OH212212   0.188   4.962   0.539
 4069TIP3    H112213   0.254   4.945   0.606
 4069TIP3    H212214   0.163   4.875   0.507
 4070TIP3   OH212215   2.844   2.536   3.832
 4070TIP3    H112216   2.799   2.502   3.909
 4070TIP3    H212217   2.897   2.462   3.801
 4071TIP3   OH212218   2.672   2.631   0.104
 4071TIP3    H112219   2.746   2.679   0.141
 4071TIP3    H212220   2.703   2.602   0.018
 4072TIP3   OH212221   1.538   2.272   4.285
 4072TIP3    H112222   1.550   2.325   4.206
 4072TIP3    H212223   1.563   2.183   4.258
 4073TIP3   OH212224   4.051   3.334   1.723
 4073TIP3    H112225   4.063   3.417   1.676
 4073TIP3    H212226   4.140   3.301   1.735
 4074TIP3   OH212227   0.024   4.107   2.024
 4074TIP3    H112228  -0.052   4.122   1.968
 4074TIP3    H212229   0.059   4.023   1.994
 4075TIP3   OH212230   2.042   3.436   4.029
 4075TIP3    H112231   1.954   3.410   4.056
 4075TIP3    H212232   2.084   3.464   4.110
 4076TIP3   OH212233   3.122   4.360   1.243
 4076TIP3    H112234   3.050   4.404   1.289
 4076TIP3    H212235   3.088   4.273   1.224
 4077TIP3   OH212236   3.680   1.354   4.655
 4077TIP3    H112237   3.623   1.428   4.676
 4077TIP3    H212238   3.751   1.392   4.604
 4078TIP3   OH212239   5.039   5.178   0.329
 4078TIP3    H112240   5.048   5.233   0.408
 4078TIP3    H212241   4.948   5.150   0.329
 4079TIP3   OH212242   5.739   5.603   0.508
 4079TIP3    H112243   5.703   5.630   0.593
 4079TIP3    H212244   5.816   5.551   0.530
 4080TIP3   OH212245   2.855   0.077   2.746
 4080TIP3    H112246   2.898   0.005   2.701
 4080TIP3    H212247   2.882   0.067   2.838
 4081TIP3   OH212248   2.230   3.612   2.055
 4081TIP3    H112249   2.139   3.636   2.036
 4081TIP3    H212250   2.282   3.663   1.993
 4082TIP3   OH212251   2.201   2.205   2.886
 4082TIP3    H112252   2.237   2.245   2.966
 4082TIP3    H212253   2.272   2.150   2.853
 4083TIP3   OH212254   0.252   3.602   3.774
 4083TIP3    H112255   0.344   3.616   3.750
 4083TIP3    H212256   0.254   3.530   3.836
 4084TIP3   OH212257   5.424   0.158   3.625
 4084TIP3    H112258   5.468   0.236   3.592
 4084TIP3    H212259   5.493   0.108   3.668
 4085TIP3   OH212260   3.171   5.442   2.377
 4085TIP3    H112261   3.199   5.508   2.314
 4085TIP3    H212262   3.215   5.466   2.458
 4086TIP3   OH212263   1.765   4.404   4.229
 4086TIP3    H112264   1.673   4.425   4.246
 4086TIP3    H212265   1.763   4.326   4.175
 4087TIP3   OH212266   2.506   4.381   0.594
 4087TIP3    H112267   2.411   4.385   0.591
 4087TIP3    H212268   2.534   4.472   0.583
 4088TIP3   OH212269   2.760   2.946   1.078
 4088TIP3    H112270   2.667   2.966   1.088
 4088TIP3    H212271   2.777   2.875   1.141
 4089TIP3   OH212272   2.299   3.464   2.377
 4089TIP3    H112273   2.318   3.491   2.467
 4089TIP3    H212274   2.383   3.470   2.331
 4090TIP3   OH212275   6.119   5.459   0.914
 4090TIP3    H112276   6.112   5.549   0.882
 4090TIP3    H212277   6.048   5.450   0.977
 4091TIP3   OH212278   3.561   1.829   0.111
 4091TIP3    H112279   3.513   1.794   0.186
 4091TIP3    H212280   3.614   1.899   0.147
 4092TIP3   OH212281   2.188   0.578   3.602
 4092TIP3    H112282   2.120   0.610   3.543
 4092TIP3    H212283   2.248   0.530   3.546
 4093TIP3   OH212284   4.314   1.675   0.857
 4093TIP3    H112285   4.336   1.748   0.914
 4093TIP3    H212286   4.241   1.631   0.901
 4094TIP3   OH212287   0.287   4.711   4.501
 4094TIP3    H112288   0.196   4.740   4.493
 4094TIP3    H212289   0.285   4.618   4.481
 4095TIP3   OH212290   3.546   0.526   4.639
 4095TIP3    H112291   3.555   0.605   4.692
 4095TIP3    H212292   3.454   0.501   4.648
 4096TIP3   OH212293   2.992   5.690   4.771
 4096TIP3    H112294   3.070   5.646   4.804
 4096TIP3    H212295   3.024   5.750   4.704
 4097TIP3   OH212296   4.983   2.317   1.111
 4097TIP3    H112297   5.021   2.298   1.026
 4097TIP3    H212298   4.975   2.413   1.113
 4098TIP3   OH212299   2.912   1.153   4.303
 4098TIP3    H112300   2.922   1.086   4.371
 4098TIP3    H212301   2.876   1.229   4.349
 4099TIP3   OH212302   0.888   4.269   1.213
 4099TIP3    H112303   0.827   4.342   1.217
 4099TIP3    H212304   0.958   4.299   1.155
 4100TIP3   OH212305   5.930   1.203   1.064
 4100TIP3    H112306   5.944   1.133   1.129
 4100TIP3    H212307   5.916   1.156   0.982
 4101TIP3   OH212308   1.488   0.021   0.813
 4101TIP3    H112309   1.512   0.052   0.901
 4101TIP3    H212310   1.405   0.063   0.794
 4102TIP3   OH212311   2.733   4.812   1.899
 4102TIP3    H112312   2.746   4.839   1.808
 4102TIP3    H212313   2.734   4.894   1.948
 4103TIP3   OH212314   3.580   0.157   3.220
 4103TIP3    H112315   3.633   0.092   3.267
 4103TIP3    H212316   3.599   0.240   3.263
 4104TIP3   OH212317   5.417   5.761   4.345
 4104TIP3    H112318   5.327   5.794   4.341
 4104TIP3    H212319   5.419   5.690   4.281
 4105TIP3   OH212320   5.834   0.663   1.798
 4105TIP3    H112321   5.837   0.677   1.892
 4105TIP3    H212322   5.749   0.696   1.771
 4106TIP3   OH212323   2.391   5.148   1.702
 4106TIP3    H112324   2.365   5.060   1.728
 4106TIP3    H212325   2.401   5.142   1.607
 4107TIP3   OH212326   4.385   5.490   0.310
 4107TIP3    H112327   4.294   5.490   0.341
 4107TIP3    H212328   4.386   5.558   0.242
 4108TIP3   OH212329   3.022   2.288   2.048
 4108TIP3    H112330   2.931   2.272   2.024
 4108TIP3    H212331   3.071   2.219   2.003
 4109TIP3   OH212332   3.106   3.006   1.296
 4109TIP3    H112333   3.034   2.983   1.355
 4109TIP3    H212334   3.139   2.922   1.265
 4110TIP3   OH212335   3.835   1.366   2.396
 4110TIP3    H112336   3.840   1.424   2.472
 4110TIP3    H212337   3.918   1.319   2.396
 4111TIP3   OH212338   4.119   0.524   2.763
 4111TIP3    H112339   4.105   0.470   2.685
 4111TIP3    H212340   4.211   0.551   2.757
 4112TIP3   OH212341   4.646   4.457   4.150
 4112TIP3    H112342   4.587   4.388   4.179
 4112TIP3    H212343   4.593   4.510   4.090
 4113TIP3   OH212344   0.830   5.368   5.158
 4113TIP3    H112345   0.782   5.296   5.117
 4113TIP3    H212346   0.905   5.326   5.200
 4114TIP3   OH212347   4.165   5.936   0.854
 4114TIP3    H112348   4.135   5.846   0.840
 4114TIP3    H212349   4.173   5.972   0.766
 4115TIP3   OH212350   4.835   0.821   0.904
 4115TIP3    H112351   4.798   0.888   0.962
 4115TIP3    H212352   4.820   0.739   0.949
 4116TIP3   OH212353   3.441   2.176   1.494
 4116TIP3    H112354   3.463   2.089   1.526
 4116TIP3    H212355   3.345   2.178   1.494
 4117TIP3   OH212356   4.426   1.524   4.661
 4117TIP3    H112357   4.520   1.540   4.655
 4117TIP3    H212358   4.414   1.437   4.623
 4118TIP3   OH212359   5.540   3.431   4.004
 4118TIP3    H112360   5.525   3.425   4.099
 4118TIP3    H212361   5.562   3.523   3.989
 4119TIP3   OH212362   0.611   5.255   4.782
 4119TIP3    H112363   0.672   5.329   4.778
 4119TIP3    H212364   0.621   5.221   4.871
 4120TIP3   OH212365   1.412   0.010   1.179
 4120TIP3    H112366   1.458   0.056   1.108
 4120TIP3    H212367   1.456   0.040   1.258
 4121TIP3   OH212368   3.896   1.717   3.006
 4121TIP3    H112369   3.843   1.685   2.933
 4121TIP3    H212370   3.981   1.673   2.995
 4122TIP3   OH212371   5.662   3.191   2.793
 4122TIP3    H112372   5.698   3.273   2.828
 4122TIP3    H212373   5.729   3.161   2.731
 4123TIP3   OH212374   5.801   4.063   5.101
 4123TIP3    H112375   5.771   4.102   5.183
 4123TIP3    H212376   5.726   4.012   5.070
 4124TIP3   OH212377   4.965   2.027   0.093
 4124TIP3    H112378   4.973   2.071   0.177
 4124TIP3    H212379   5.032   1.958   0.095
 4125TIP3   OH212380   4.948   2.507   2.539
 4125TIP3    H112381   5.036   2.536   2.515
 4125TIP3    H212382   4.920   2.453   2.466
 4126TIP3   OH212383   6.121   2.065   4.688
 4126TIP3    H112384   6.093   2.144   4.733
 4126TIP3    H212385   6.157   2.009   4.757
 4127TIP3   OH212386   4.557   5.118   1.789
 4127TIP3    H112387   4.647   5.095   1.764
 4127TIP3    H212388   4.502   5.074   1.724
 4128TIP3   OH212389   2.694   5.900   4.607
 4128TIP3    H112390   2.738   5.847   4.673
 4128TIP3    H212391   2.632   5.840   4.565
 4129TIP3   OH212392   5.955   3.249   0.932
 4129TIP3    H112393   5.913   3.179   0.882
 4129TIP3    H212394   5.986   3.206   1.012
 4130TIP3   OH212395   1.613   5.240   1.046
 4130TIP3    H112396   1.667   5.229   1.125
 4130TIP3    H212397   1.579   5.329   1.054
 4131TIP3   OH212398   1.885   3.766   3.119
 4131TIP3    H112399   1.920   3.701   3.180
 4131TIP3    H212400   1.833   3.714   3.057
 4132TIP3   OH212401   5.800   2.064   5.040
 4132TIP3    H112402   5.713   2.104   5.035
 4132TIP3    H212403   5.827   2.079   5.131
 4133TIP3   OH212404   3.627   1.843   0.836
 4133TIP3    H112405   3.574   1.766   0.857
 4133TIP3    H212406   3.590   1.875   0.754
 4134TIP3   OH212407   5.110   3.028   2.367
 4134TIP3    H112408   5.149   2.943   2.350
 4134TIP3    H212409   5.018   3.018   2.343
 4135TIP3   OH212410   1.741   3.090   3.440
 4135TIP3    H112411   1.732   3.055   3.528
 4135TIP3    H212412   1.728   3.184   3.450
 4136TIP3   OH212413   2.871   0.587   2.540
 4136TIP3    H112414   2.858   0.655   2.473
 4136TIP3    H212415   2.850   0.631   2.623
 4137TIP3   OH212416   3.997   4.768   2.910
 4137TIP3    H112417   3.919   4.810   2.946
 4137TIP3    H212418   3.988   4.676   2.934
 4138TIP3   OH212419   2.915   2.355   1.745
 4138TIP3    H112420   2.864   2.309   1.679
 4138TIP3    H212421   2.886   2.446   1.739
 4139TIP3   OH212422   3.984   2.876   4.303
 4139TIP3    H112423   4.061   2.819   4.317
 4139TIP3    H212424   3.998   2.949   4.363
 4140TIP3   OH212425   2.674   1.865   3.170
 4140TIP3    H112426   2.683   1.780   3.127
 4140TIP3    H212427   2.696   1.847   3.262
 4141TIP3   OH212428   0.431   5.787   3.137
 4141TIP3    H112429   0.415   5.730   3.062
 4141TIP3    H212430   0.525   5.781   3.153
 4142TIP3   OH212431   2.685   3.729   1.038
 4142TIP3    H112432   2.653   3.816   1.063
 4142TIP3    H212433   2.617   3.694   0.980
 4143TIP3   OH212434   3.565   3.063   0.429
 4143TIP3    H112435   3.479   3.065   0.387
 4143TIP3    H212436   3.572   2.974   0.463
 4144TIP3   OH212437   5.041   2.513   4.112
 4144TIP3    H112438   5.126   2.516   4.068
 4144TIP3    H212439   5.033   2.422   4.143
 4145TIP3   OH212440   5.619   5.324   2.030
 4145TIP3    H112441   5.704   5.352   1.996
 4145TIP3    H212442   5.571   5.406   2.044
 4146TIP3   OH212443   5.803   1.858   4.828
 4146TIP3    H112444   5.803   1.915   4.905
 4146TIP3    H212445   5.711   1.848   4.805
 4147TIP3   OH212446   3.649   4.287   3.756
 4147TIP3    H112447   3.583   4.281   3.686
 4147TIP3    H212448   3.690   4.373   3.743
 4148TIP3   OH212449   1.537   3.627   4.368
 4148TIP3    H112450   1.479   3.667   4.432
 4148TIP3    H212451   1.478   3.585   4.305
 4149TIP3   OH212452   0.222   2.241   3.021
 4149TIP3    H112453   0.237   2.271   2.931
 4149TIP3    H212454   0.222   2.321   3.073
 4150TIP3   OH212455   0.723   0.200   4.793
 4150TIP3    H112456   0.760   0.180   4.707
 4150TIP3    H212457   0.799   0.214   4.850
 4151TIP3   OH212458   5.097   5.251   1.953
 4151TIP3    H112459   5.010   5.230   1.989
 4151TIP3    H212460   5.088   5.341   1.922
 4152TIP3   OH212461   0.678   0.312   0.302
 4152TIP3    H112462   0.768   0.301   0.334
 4152TIP3    H212463   0.689   0.341   0.211
 4153TIP3   OH212464   4.428   2.930   3.488
 4153TIP3    H112465   4.423   2.990   3.562
 4153TIP3    H212466   4.393   2.847   3.523
 4154TIP3   OH212467   3.638   2.343   1.393
 4154TIP3    H112468   3.571   2.294   1.439
 4154TIP3    H212469   3.618   2.435   1.411
 4155TIP3   OH212470   4.254   1.374   3.697
 4155TIP3    H112471   4.177   1.317   3.706
 4155TIP3    H212472   4.321   1.331   3.750
 4156TIP3   OH212473   2.278   1.003   4.075
 4156TIP3    H112474   2.366   0.974   4.099
 4156TIP3    H212475   2.266   1.085   4.122
 4157TIP3   OH212476   0.903   5.867   1.050
 4157TIP3    H112477   0.877   5.922   1.123
 4157TIP3    H212478   0.949   5.926   0.990
 4158TIP3   OH212479   0.589   3.698   1.102
 4158TIP3    H112480   0.652   3.717   1.172
 4158TIP3    H212481   0.604   3.606   1.081
 4159TIP3   OH212482   1.887   2.420   0.660
 4159TIP3    H112483   1.939   2.391   0.735
 4159TIP3    H212484   1.874   2.514   0.675
 4160TIP3   OH212485   0.668   2.674   2.816
 4160TIP3    H112486   0.713   2.641   2.738
 4160TIP3    H212487   0.719   2.639   2.889
 4161TIP3   OH212488   6.322   5.350   4.326
 4161TIP3    H112489   6.319   5.255   4.311
 4161TIP3    H212490   6.232   5.378   4.314
 4162TIP3   OH212491   2.783   3.811   4.753
 4162TIP3    H112492   2.734   3.796   4.673
 4162TIP3    H212493   2.809   3.724   4.782
 4163TIP3   OH212494   5.078   2.235   0.856
 4163TIP3    H112495   5.044   2.148   0.839
 4163TIP3    H212496   5.173   2.224   0.856
 4164TIP3   OH212497   3.623   5.543   2.686
 4164TIP3    H112498   3.702   5.545   2.740
 4164TIP3    H212499   3.647   5.587   2.605
 4165TIP3   OH212500   5.426   2.175   1.829
 4165TIP3    H112501   5.338   2.148   1.804
 4165TIP3    H212502   5.483   2.131   1.766
 4166TIP3   OH212503   5.291   3.965   4.206
 4166TIP3    H112504   5.241   3.994   4.282
 4166TIP3    H212505   5.270   3.872   4.197
 4167TIP3   OH212506   3.164   3.651   1.673
 4167TIP3    H112507   3.121   3.610   1.749
 4167TIP3    H212508   3.172   3.580   1.609
 4168TIP3   OH212509   2.799   1.244   2.623
 4168TIP3    H112510   2.724   1.247   2.682
 4168TIP3    H212511   2.807   1.151   2.600
 4169TIP3   OH212512   0.796   1.826   3.319
 4169TIP3    H112513   0.813   1.741   3.278
 4169TIP3    H212514   0.784   1.806   3.411
 4170TIP3   OH212515   2.266   0.276   0.378
 4170TIP3    H112516   2.335   0.233   0.327
 4170TIP3    H212517   2.209   0.315   0.312
 4171TIP3   OH212518   0.790   2.824   0.908
 4171TIP3    H112519   0.873   2.776   0.910
 4171TIP3    H212520   0.791   2.869   0.824
 4172TIP3   OH212521   5.516   1.823   4.778
 4172TIP3    H112522   5.452   1.893   4.765
 4172TIP3    H212523   5.519   1.778   4.693
 4173TIP3   OH212524   3.991   4.397   3.653
 4173TIP3    H112525   3.960   4.315   3.613
 4173TIP3    H212526   3.926   4.462   3.628
 4174TIP3   OH212527   0.505   0.337   3.160
 4174TIP3    H112528   0.432   0.347   3.098
 4174TIP3    H212529   0.462   0.316   3.243
 4175TIP3   OH212530   2.590   2.432   0.772
 4175TIP3    H112531   2.601   2.506   0.831
 4175TIP3    H212532   2.611   2.467   0.686
 4176TIP3   OH212533   3.191   1.860   0.381
 4176TIP3    H112534   3.275   1.828   0.349
 4176TIP3    H212535   3.169   1.802   0.454
 4177TIP3   OH212536   0.799   3.166   0.972
 4177TIP3    H112537   0.772   3.225   0.902
 4177TIP3    H212538   0.721   3.114   0.992
 4178TIP3   OH212539   1.951   4.670   1.107
 4178TIP3    H112540   1.961   4.663   1.202
 4178TIP3    H212541   2.032   4.631   1.072
 4179TIP3   OH212542   4.287   5.757   1.653
 4179TIP3    H112543   4.266   5.840   1.611
 4179TIP3    H212544   4.203   5.712   1.661
 4180TIP3   OH212545   0.778   1.049   4.572
 4180TIP3    H112546   0.708   1.104   4.536
 4180TIP3    H212547   0.732   0.978   4.617
 4181TIP3   OH212548   0.538   5.257   2.658
 4181TIP3    H112549   0.529   5.285   2.566
 4181TIP3    H212550   0.563   5.164   2.652
 4182TIP3   OH212551   0.830   5.417   4.798
 4182TIP3    H112552   0.913   5.400   4.841
 4182TIP3    H212553   0.824   5.512   4.794
 4183TIP3   OH212554   3.072   1.313   1.970
 4183TIP3    H112555   3.000   1.278   2.022
 4183TIP3    H212556   3.149   1.262   1.996
 4184TIP3   OH212557   3.790   3.193   0.526
 4184TIP3    H112558   3.786   3.183   0.621
 4184TIP3    H212559   3.716   3.142   0.492
 4185TIP3   OH212560   1.216  -0.014   0.061
 4185TIP3    H112561   1.161   0.014  -0.012
 4185TIP3    H212562   1.301   0.026   0.044
 4186TIP3   OH212563   3.094   2.323   2.326
 4186TIP3    H112564   3.071   2.301   2.235
 4186TIP3    H212565   3.035   2.395   2.349
 4187TIP3   OH212566   5.146   2.215   3.700
 4187TIP3    H112567   5.213   2.146   3.706
 4187TIP3    H212568   5.068   2.175   3.738
 4188TIP3   OH212569   5.813   4.073   3.533
 4188TIP3    H112570   5.808   4.011   3.460
 4188TIP3    H212571   5.723   4.104   3.544
 4189TIP3   OH212572   3.352   3.800   1.333
 4189TIP3    H112573   3.313   3.747   1.263
 4189TIP3    H212574   3.436   3.758   1.351
 4190TIP3   OH212575   5.658   2.952   0.956
 4190TIP3    H112576   5.635   3.043   0.976
 4190TIP3    H212577   5.740   2.937   1.004
 4191TIP3   OH212578   1.241   0.498   1.042
 4191TIP3    H112579   1.194   0.415   1.051
 4191TIP3    H212580   1.284   0.510   1.126
 4192TIP3   OH212581   1.189   5.458   4.627
 4192TIP3    H112582   1.191   5.487   4.719
 4192TIP3    H212583   1.275   5.418   4.613
 4193TIP3   OH212584   5.981   5.158   2.927
 4193TIP3    H112585   6.033   5.077   2.932
 4193TIP3    H212586   5.907   5.142   2.986
 4194TIP3   OH212587   4.093   4.937   0.677
 4194TIP3    H112588   4.074   4.851   0.640
 4194TIP3    H212589   4.093   4.924   0.771
 4195TIP3   OH212590   0.794   3.006   3.049
 4195TIP3    H112591   0.747   2.936   3.094
 4195TIP3    H212592   0.816   3.068   3.119
 4196TIP3   OH212593   0.481   3.174   3.563
 4196TIP3    H112594   0.489   3.260   3.522
 4196TIP3    H212595   0.442   3.191   3.648
 4197TIP3   OH212596   1.352   5.017   5.105
 4197TIP3    H112597   1.416   4.946   5.094
 4197TIP3    H212598   1.267   4.974   5.095
 4198TIP3   OH212599   0.071   3.400   3.267
 4198TIP3    H112600   0.123   3.319   3.270
 4198TIP3    H212601   0.006   3.388   3.336
 4199TIP3   OH212602   1.377   2.519   1.357
 4199TIP3    H112603   1.396   2.600   1.309
 4199TIP3    H212604   1.316   2.546   1.425
 4200TIP3   OH212605   4.369   2.337   1.867
 4200TIP3    H112606   4.308   2.409   1.884
 4200TIP3    H212607   4.443   2.356   1.925
 4201TIP3   OH212608   2.957   5.183   0.756
 4201TIP3    H112609   3.001   5.213   0.835
 4201TIP3    H212610   2.864   5.201   0.772
 4202TIP3   OH212611   4.982   2.578   1.148
 4202TIP3    H112612   4.890   2.588   1.124
 4202TIP3    H212613   5.022   2.661   1.124
 4203TIP3   OH212614   4.346   2.365   0.277
 4203TIP3    H112615   4.362   2.408   0.194
 4203TIP3    H212616   4.345   2.436   0.342
 4204TIP3   OH212617   3.190   4.477   0.430
 4204TIP3    H112618   3.189   4.561   0.385
 4204TIP3    H212619   3.119   4.484   0.494
 4205TIP3   OH212620   3.207   5.170   1.659
 4205TIP3    H112621   3.221   5.264   1.647
 4205TIP3    H212622   3.113   5.162   1.678
 4206TIP3   OH212623   5.694   3.567   1.715
 4206TIP3    H112624   5.651   3.544   1.633
 4206TIP3    H212625   5.625   3.604   1.769
 4207TIP3   OH212626   1.932   1.372   1.663
 4207TIP3    H112627   1.967   1.288   1.635
 4207TIP3    H212628   2.009   1.422   1.692
 4208TIP3   OH212629   1.051   5.510   1.195
 4208TIP3    H112630   1.111   5.439   1.218
 4208TIP3    H212631   0.979   5.466   1.151
 4209TIP3   OH212632   1.487   3.634   4.914
 4209TIP3    H112633   1.470   3.642   5.008
 4209TIP3    H212634   1.573   3.675   4.901
 4210TIP3   OH212635   2.060   1.813   3.542
 4210TIP3    H112636   2.140   1.854   3.574
 4210TIP3    H212637   2.088   1.726   3.512
 4211TIP3   OH212638   3.186   0.667   3.180
 4211TIP3    H112639   3.175   0.731   3.250
 4211TIP3    H212640   3.161   0.713   3.100
 4212TIP3   OH212641   3.502   1.961   0.630
 4212TIP3    H112642   3.544   2.046   0.622
 4212TIP3    H212643   3.480   1.937   0.540
 4213TIP3   OH212644   1.728   4.178   2.535
 4213TIP3    H112645   1.758   4.200   2.623
 4213TIP3    H212646   1.645   4.226   2.526
 4214TIP3   OH212647   4.215   1.356   3.435
 4214TIP3    H112648   4.123   1.360   3.410
 4214TIP3    H212649   4.219   1.396   3.522
 4215TIP3   OH212650   1.100   1.214   2.692
 4215TIP3    H112651   1.169   1.280   2.700
 4215TIP3    H212652   1.028   1.248   2.745
 4216TIP3   OH212653   3.550   5.015   2.014
 4216TIP3    H112654   3.504   5.054   2.088
 4216TIP3    H212655   3.511   5.057   1.937
 4217TIP3   OH212656   2.716   5.738   4.210
 4217TIP3    H112657   2.770   5.680   4.264
 4217TIP3    H212658   2.774   5.811   4.187
 4218TIP3   OH212659   1.153   0.702   4.420
 4218TIP3    H112660   1.220   0.751   4.372
 4218TIP3    H212661   1.143   0.749   4.503
 4219TIP3   OH212662   2.841   5.291   2.020
 4219TIP3    H112663   2.925   5.337   2.018
 4219TIP3    H212664   2.778   5.357   2.046
 4220TIP3   OH212665   0.465   0.842   4.238
 4220TIP3    H112666   0.485   0.843   4.144
 4220TIP3    H212667   0.387   0.787   4.245
 4221TIP3   OH212668   3.056   2.406   3.585
 4221TIP3    H112669   3.121   2.351   3.541
 4221TIP3    H212670   3.038   2.361   3.667
 4222TIP3   OH212671   3.512   5.159   1.676
 4222TIP3    H112672   3.511   5.253   1.656
 4222TIP3    H212673   3.422   5.130   1.660
 4223TIP3   OH212674   3.557   1.575   4.541
 4223TIP3    H112675   3.591   1.593   4.453
 4223TIP3    H212676   3.467   1.546   4.526
 4224TIP3   OH212677   0.645   0.785   2.734
 4224TIP3    H112678   0.626   0.856   2.796
 4224TIP3    H212679   0.727   0.748   2.766
 4225TIP3   OH212680   3.127   3.828   0.994
 4225TIP3    H112681   3.205   3.778   0.969
 4225TIP3    H212682   3.069   3.762   1.033
 4226TIP3   OH212683   3.589   4.482   2.814
 4226TIP3    H112684   3.630   4.554   2.765
 4226TIP3    H212685   3.521   4.525   2.866
 4227TIP3   OH212686   4.218   3.986   0.510
 4227TIP3    H112687   4.206   4.081   0.513
 4227TIP3    H212688   4.176   3.954   0.590
 4228TIP3   OH212689   5.097   3.595   2.678
 4228TIP3    H112690   5.028   3.590   2.744
 4228TIP3    H212691   5.097   3.509   2.637
 4229TIP3   OH212692   3.585   4.089   4.967
 4229TIP3    H112693   3.586   4.102   4.872
 4229TIP3    H212694   3.541   4.004   4.979
 4230TIP3   OH212695   6.053   0.791   1.022
 4230TIP3    H112696   6.127   0.735   1.046
 4230TIP3    H212697   5.994   0.735   0.972
 4231TIP3   OH212698   2.630   2.323   2.654
 4231TIP3    H112699   2.693   2.257   2.626
 4231TIP3    H212700   2.549   2.300   2.608
 4232TIP3   OH212701   4.693   4.657   1.329
 4232TIP3    H112702   4.758   4.725   1.348
 4232TIP3    H212703   4.746   4.578   1.311
 4233TIP3   OH212704   6.120   4.807   4.439
 4233TIP3    H112705   6.073   4.890   4.448
 4233TIP3    H212706   6.063   4.742   4.480
 4234TIP3   OH212707   5.963   5.679   3.260
 4234TIP3    H112708   5.884   5.729   3.282
 4234TIP3    H212709   5.973   5.618   3.333
 4235TIP3   OH212710   2.793   3.567   0.434
 4235TIP3    H112711   2.784   3.623   0.357
 4235TIP3    H212712   2.832   3.486   0.400
 4236TIP3   OH212713   0.595   5.807   1.906
 4236TIP3    H112714   0.641   5.867   1.964
 4236TIP3    H212715   0.555   5.863   1.839
 4237TIP3   OH212716   3.997   4.555   5.130
 4237TIP3    H112717   4.041   4.493   5.071
 4237TIP3    H212718   4.067   4.608   5.166
 4238TIP3   OH212719   0.346   0.247   2.463
 4238TIP3    H112720   0.314   0.176   2.406
 4238TIP3    H212721   0.436   0.263   2.432
 4239TIP3   OH212722   5.999   4.442   1.623
 4239TIP3    H112723   6.012   4.458   1.529
 4239TIP3    H212724   6.049   4.512   1.666
 4240TIP3   OH212725   3.095   2.593   4.180
 4240TIP3    H112726   3.135   2.514   4.144
 4240TIP3    H212727   3.003   2.587   4.156
 4241TIP3   OH212728   0.206   0.531   2.269
 4241TIP3    H112729   0.272   0.478   2.224
 4241TIP3    H212730   0.148   0.466   2.311
 4242TIP3   OH212731   1.050   5.933   4.278
 4242TIP3    H112732   1.066   5.988   4.355
 4242TIP3    H212733   1.096   5.851   4.297
 4243TIP3   OH212734   5.248   2.630   2.726
 4243TIP3    H112735   5.178   2.662   2.783
 4243TIP3    H212736   5.312   2.701   2.725
 4244TIP3   OH212737   4.585   1.404   0.206
 4244TIP3    H112738   4.654   1.345   0.236
 4244TIP3    H212739   4.523   1.407   0.280
 4245TIP3   OH212740   6.186   3.724   3.234
 4245TIP3    H112741   6.215   3.633   3.226
 4245TIP3    H212742   6.121   3.723   3.304
 4246TIP3   OH212743   6.259   2.170   1.458
 4246TIP3    H112744   6.193   2.181   1.526
 4246TIP3    H212745   6.331   2.124   1.501
 4247TIP3   OH212746   4.392   4.922   1.198
 4247TIP3    H112747   4.434   4.849   1.153
 4247TIP3    H212748   4.459   4.955   1.258
 4248TIP3   OH212749   5.075   5.274   3.861
 4248TIP3    H112750   5.070   5.196   3.916
 4248TIP3    H212751   4.984   5.297   3.843
 4249TIP3   OH212752   0.647   2.274   0.188
 4249TIP3    H112753   0.684   2.271   0.276
 4249TIP3    H212754   0.583   2.344   0.191
 4250TIP3   OH212755   1.310   4.715   1.529
 4250TIP3    H112756   1.223   4.745   1.504
 4250TIP3    H212757   1.369   4.778   1.486
 4251TIP3   OH212758   0.349   1.310   0.896
 4251TIP3    H112759   0.306   1.371   0.837
 4251TIP3    H212760   0.359   1.230   0.845
 4252TIP3   OH212761   0.424   3.591   0.431
 4252TIP3    H112762   0.477   3.617   0.356
 4252TIP3    H212763   0.388   3.505   0.406
 4253TIP3   OH212764   5.646   2.373   1.620
 4253TIP3    H112765   5.671   2.323   1.698
 4253TIP3    H212766   5.703   2.339   1.551
 4254TIP3   OH212767   3.024   3.493   2.388
 4254TIP3    H112768   2.952   3.436   2.416
 4254TIP3    H212769   2.986   3.581   2.386
 4255TIP3   OH212770   1.176   2.278   4.825
 4255TIP3    H112771   1.131   2.343   4.770
 4255TIP3    H212772   1.197   2.206   4.765
 4256TIP3   OH212773   1.862   5.531   3.899
 4256TIP3    H112774   1.928   5.472   3.935
 4256TIP3    H212775   1.826   5.484   3.824
 4257TIP3   OH212776   0.324   3.918   3.501
 4257TIP3    H112777   0.347   3.997   3.453
 4257TIP3    H212778   0.338   3.847   3.437
 4258TIP3   OH212779   3.232   1.874   4.996
 4258TIP3    H112780   3.261   1.795   4.949
 4258TIP3    H212781   3.141   1.886   4.967
 4259TIP3   OH212782   1.980   3.331   0.387
 4259TIP3    H112783   1.919   3.405   0.386
 4259TIP3    H212784   1.924   3.254   0.376
 4260TIP3   OH212785   3.448   4.203   2.404
 4260TIP3    H112786   3.528   4.156   2.428
 4260TIP3    H212787   3.395   4.138   2.358
 4261TIP3   OH212788   3.658   5.595   2.992
 4261TIP3    H112789   3.582   5.537   2.997
 4261TIP3    H212790   3.730   5.538   2.965
 4262TIP3   OH212791   6.015   0.101   2.068
 4262TIP3    H112792   5.974   0.187   2.063
 4262TIP3    H212793   6.084   0.103   2.002
 4263TIP3   OH212794   1.533   3.031   3.829
 4263TIP3    H112795   1.532   2.939   3.803
 4263TIP3    H212796   1.453   3.043   3.879
 4264TIP3   OH212797   1.363   5.005   0.448
 4264TIP3    H112798   1.377   5.028   0.356
 4264TIP3    H212799   1.304   4.929   0.445
 4265TIP3   OH212800   1.641   5.583   2.940
 4265TIP3    H112801   1.680   5.612   2.858
 4265TIP3    H212802   1.624   5.664   2.989
 4266TIP3   OH212803   3.341   1.730   3.912
 4266TIP3    H112804   3.401   1.775   3.853
 4266TIP3    H212805   3.398   1.681   3.971
 4267TIP3   OH212806   0.621   1.726   4.178
 4267TIP3    H112807   0.677   1.801   4.201
 4267TIP3    H212808   0.591   1.745   4.089
 4268TIP3   OH212809   0.004   1.505   2.658
 4268TIP3    H112810  -0.004   1.600   2.650
 4268TIP3    H212811   0.086   1.492   2.706
 4269TIP3   OH212812   0.718   4.006   2.884
 4269TIP3    H112813   0.805   4.045   2.877
 4269TIP3    H212814   0.733   3.922   2.928
 4270TIP3   OH212815   1.893   5.375   4.448
 4270TIP3    H112816   1.940   5.372   4.531
 4270TIP3    H212817   1.913   5.291   4.407
 4271TIP3   OH212818   3.821   1.827   2.578
 4271TIP3    H112819   3.896   1.883   2.557
 4271TIP3    H212820   3.750   1.860   2.523
 4272TIP3   OH212821   4.890   1.414   3.097
 4272TIP3    H112822   4.905   1.375   3.183
 4272TIP3    H212823   4.964   1.473   3.084
 4273TIP3   OH212824   0.535   4.339   4.648
 4273TIP3    H112825   0.460   4.398   4.643
 4273TIP3    H212826   0.593   4.377   4.714
 4274TIP3   OH212827   4.028   4.101   4.604
 4274TIP3    H112828   3.938   4.087   4.576
 4274TIP3    H212829   4.069   4.145   4.529
 4275TIP3   OH212830   3.663   1.913   2.197
 4275TIP3    H112831   3.757   1.924   2.186
 4275TIP3    H212832   3.651   1.821   2.221
 4276TIP3   OH212833   3.482   4.050   0.436
 4276TIP3    H112834   3.562   4.094   0.408
 4276TIP3    H212835   3.441   4.110   0.499
 4277TIP3   OH212836   5.704   3.468   1.179
 4277TIP3    H112837   5.628   3.523   1.161
 4277TIP3    H212838   5.765   3.488   1.108
 4278TIP3   OH212839   3.433   2.983   4.029
 4278TIP3    H112840   3.468   2.903   4.067
 4278TIP3    H212841   3.338   2.968   4.026
 4279TIP3   OH212842   5.959   4.960   3.381
 4279TIP3    H112843   5.944   5.041   3.430
 4279TIP3    H212844   5.945   4.890   3.445
 4280TIP3   OH212845   1.951   1.031   3.348
 4280TIP3    H112846   1.982   1.019   3.438
 4280TIP3    H212847   1.874   0.974   3.342
 4281TIP3   OH212848   3.544   2.725   0.196
 4281TIP3    H112849   3.592   2.734   0.279
 4281TIP3    H212850   3.454   2.749   0.218
 4282TIP3   OH212851   2.355   0.106   2.614
 4282TIP3    H112852   2.373   0.106   2.708
 4282TIP3    H212853   2.260   0.119   2.608
 4283TIP3   OH212854   3.537   5.609   1.403
 4283TIP3    H112855   3.621   5.622   1.447
 4283TIP3    H212856   3.556   5.625   1.310
 4284TIP3   OH212857   3.504   0.216   1.911
 4284TIP3    H112858   3.555   0.203   1.991
 4284TIP3    H212859   3.545   0.157   1.847
 4285TIP3   OH212860   0.984   2.491   2.112
 4285TIP3    H112861   1.030   2.471   2.193
 4285TIP3    H212862   0.994   2.413   2.058
 4286TIP3   OH212863   4.953  -0.002   3.530
 4286TIP3    H112864   4.866   0.031   3.507
 4286TIP3    H212865   5.012   0.042   3.469
 4287TIP3   OH212866   5.963   3.853   3.687
 4287TIP3    H112867   5.958   3.946   3.664
 4287TIP3    H212868   6.053   3.828   3.666
 4288TIP3   OH212869   5.867   2.294   1.478
 4288TIP3    H112870   5.944   2.276   1.532
 4288TIP3    H212871   5.871   2.387   1.459
 4289TIP3   OH212872   0.742   1.730   1.755
 4289TIP3    H112873   0.667   1.712   1.812
 4289TIP3    H212874   0.705   1.733   1.667
 4290TIP3   OH212875   4.490   3.630   2.004
 4290TIP3    H112876   4.427   3.615   2.075
 4290TIP3    H212877   4.551   3.695   2.039
 4291TIP3   OH212878   3.187   4.787   3.457
 4291TIP3    H112879   3.222   4.706   3.494
 4291TIP3    H212880   3.143   4.759   3.377
 4292TIP3   OH212881   3.393   2.420   2.585
 4292TIP3    H112882   3.428   2.344   2.632
 4292TIP3    H212883   3.314   2.444   2.634
 4293TIP3   OH212884   5.351   5.602   3.459
 4293TIP3    H112885   5.437   5.636   3.483
 4293TIP3    H212886   5.290   5.670   3.489
 4294TIP3   OH212887   4.099   1.858   2.793
 4294TIP3    H112888   4.163   1.891   2.857
 4294TIP3    H212889   4.128   1.768   2.775
 4295TIP3   OH212890   5.577   0.985   4.935
 4295TIP3    H112891   5.617   1.029   4.861
 4295TIP3    H212892   5.631   0.907   4.949
 4296TIP3   OH212893   1.312   1.700   1.414
 4296TIP3    H112894   1.352   1.651   1.342
 4296TIP3    H212895   1.337   1.651   1.493
 4297TIP3   OH212896   1.811   1.915   1.097
 4297TIP3    H112897   1.887   1.964   1.064
 4297TIP3    H212898   1.788   1.856   1.025
 4298TIP3   OH212899   4.367   3.700   0.711
 4298TIP3    H112900   4.339   3.613   0.683
 4298TIP3    H212901   4.382   3.748   0.630
 4299TIP3   OH212902   5.719   4.155   2.642
 4299TIP3    H112903   5.667   4.215   2.695
 4299TIP3    H212904   5.786   4.123   2.701
 4300TIP3   OH212905   3.941   1.438   2.646
 4300TIP3    H112906   3.930   1.354   2.691
 4300TIP3    H212907   4.035   1.446   2.632
 4301TIP3   OH212908   0.941   3.421   2.300
 4301TIP3    H112909   0.963   3.357   2.232
 4301TIP3    H212910   1.026   3.447   2.337
 4302TIP3   OH212911   1.387   1.857   4.870
 4302TIP3    H112912   1.419   1.901   4.791
 4302TIP3    H212913   1.406   1.764   4.855
 4303TIP3   OH212914   0.666   0.069   5.022
 4303TIP3    H112915   0.677   0.090   4.929
 4303TIP3    H212916   0.571   0.067   5.035
 4304TIP3   OH212917   0.056   3.683   0.260
 4304TIP3    H112918   0.006   3.624   0.317
 4304TIP3    H212919  -0.008   3.750   0.234
 4305TIP3   OH212920   1.820   4.146   1.996
 4305TIP3    H112921   1.831   4.207   2.069
 4305TIP3    H212922   1.804   4.202   1.920
 4306TIP3   OH212923   5.228   3.700   4.164
 4306TIP3    H112924   5.247   3.616   4.122
 4306TIP3    H212925   5.146   3.729   4.124
 4307TIP3   OH212926   5.464   0.581   4.932
 4307TIP3    H112927   5.438   0.632   5.008
 4307TIP3    H212928   5.436   0.492   4.951
 4308TIP3   OH212929   1.400   3.178   2.059
 4308TIP3    H112930   1.367   3.121   1.990
 4308TIP3    H212931   1.380   3.132   2.140
 4309TIP3   OH212932   2.644   2.307   3.163
 4309TIP3    H112933   2.563   2.354   3.183
 4309TIP3    H212934   2.616   2.232   3.110
 4310TIP3   OH212935   5.441   5.787   1.075
 4310TIP3    H112936   5.505   5.718   1.055
 4310TIP3    H212937   5.492   5.855   1.118
 4311TIP3   OH212938   2.473   5.583   0.551
 4311TIP3    H112939   2.418   5.566   0.628
 4311TIP3    H212940   2.555   5.617   0.588
 4312TIP3   OH212941   5.782   4.515   1.488
 4312TIP3    H112942   5.725   4.593   1.486
 4312TIP3    H212943   5.819   4.515   1.576
 4313TIP3   OH212944   3.965   5.906   5.130
 4313TIP3    H112945   3.895   5.964   5.160
 4313TIP3    H212946   4.001   5.868   5.211
 4314TIP3   OH212947   4.978   5.447   0.728
 4314TIP3    H112948   5.056   5.455   0.783
 4314TIP3    H212949   4.929   5.527   0.744
 4315TIP3   OH212950   4.896   3.278   4.845
 4315TIP3    H112951   4.981   3.237   4.826
 4315TIP3    H212952   4.881   3.335   4.770
 4316TIP3   OH212953   4.525   4.979   4.105
 4316TIP3    H112954   4.498   5.061   4.147
 4316TIP3    H212955   4.567   5.007   4.023
 4317TIP3   OH212956   5.847   1.265   3.566
 4317TIP3    H112957   5.840   1.360   3.564
 4317TIP3    H212958   5.817   1.240   3.654
 4318TIP3   OH212959   5.704   0.648   4.412
 4318TIP3    H112960   5.768   0.604   4.467
 4318TIP3    H212961   5.756   0.709   4.360
 4319TIP3   OH212962   3.847   1.634   4.906
 4319TIP3    H112963   3.762   1.664   4.874
 4319TIP3    H212964   3.901   1.624   4.827
 4320TIP3   OH212965   1.084   2.943   0.723
 4320TIP3    H112966   1.084   3.025   0.773
 4320TIP3    H212967   0.994   2.933   0.693
 4321TIP3   OH212968   3.250   1.037   3.156
 4321TIP3    H112969   3.207   1.121   3.140
 4321TIP3    H212970   3.340   1.051   3.124
 4322TIP3   OH212971   3.194   0.610   2.782
 4322TIP3    H112972   3.130   0.539   2.777
 4322TIP3    H212973   3.162   0.666   2.852
 4323TIP3   OH212974   4.569   2.168   1.226
 4323TIP3    H112975   4.529   2.239   1.176
 4323TIP3    H212976   4.615   2.115   1.160
 4324TIP3   OH212977   3.415   5.264   2.630
 4324TIP3    H112978   3.354   5.218   2.686
 4324TIP3    H212979   3.367   5.342   2.601
 4325TIP3   OH212980   1.089   1.689   0.725
 4325TIP3    H112981   1.072   1.643   0.807
 4325TIP3    H212982   1.080   1.782   0.748
 4326TIP3   OH212983   2.435   3.385   0.579
 4326TIP3    H112984   2.411   3.318   0.515
 4326TIP3    H212985   2.368   3.452   0.570
 4327TIP3   OH212986   5.812   3.693   4.006
 4327TIP3    H112987   5.846   3.642   4.079
 4327TIP3    H212988   5.717   3.681   4.011
 4328TIP3   OH212989   0.352   4.445   4.417
 4328TIP3    H112990   0.395   4.429   4.333
 4328TIP3    H212991   0.404   4.396   4.481
 4329TIP3   OH212992   1.206   3.345   4.831
 4329TIP3    H112993   1.122   3.311   4.800
 4329TIP3    H212994   1.199   3.440   4.822
 4330TIP3   OH212995   1.622   4.397   0.912
 4330TIP3    H112996   1.635   4.487   0.880
 4330TIP3    H212997   1.607   4.407   1.006
 4331TIP3   OH212998   1.284   4.983   4.199
 4331TIP3    H112999   1.265   4.917   4.266
 4331TIP3    H213000   1.338   5.048   4.243
 4332TIP3   OH213001   0.165   4.308   1.005
 4332TIP3    H113002   0.219   4.379   0.970
 4332TIP3    H213003   0.151   4.331   1.097
 4333TIP3   OH213004   4.725   5.846   3.595
 4333TIP3    H113005   4.768   5.882   3.673
 4333TIP3    H213006   4.640   5.890   3.592
 4334TIP3   OH213007   5.572   4.329   1.484
 4334TIP3    H113008   5.647   4.270   1.478
 4334TIP3    H213009   5.574   4.361   1.575
 4335TIP3   OH213010   3.297   5.413   1.368
 4335TIP3    H113011   3.354   5.340   1.343
 4335TIP3    H213012   3.354   5.470   1.420
 4336TIP3   OH213013   3.900   1.542   1.803
 4336TIP3    H113014   3.884   1.603   1.731
 4336TIP3    H213015   3.876   1.456   1.768
 4337TIP3   OH213016   2.537   1.153   0.128
 4337TIP3    H113017   2.607   1.190   0.074
 4337TIP3    H213018   2.578   1.138   0.213
 4338TIP3   OH213019   4.846   1.892   1.306
 4338TIP3    H113020   4.866   1.884   1.399
 4338TIP3    H213021   4.918   1.945   1.271
 4339TIP3   OH213022   2.948   3.614   1.889
 4339TIP3    H113023   2.913   3.564   1.962
 4339TIP3    H213024   2.878   3.614   1.824
 4340TIP3   OH213025   0.544   1.105   1.132
 4340TIP3    H113026   0.638   1.115   1.148
 4340TIP3    H213027   0.504   1.172   1.187
 4341TIP3   OH213028   5.705   4.673   3.533
 4341TIP3    H113029   5.696   4.668   3.438
 4341TIP3    H213030   5.625   4.633   3.567
 4342TIP3   OH213031   0.183   5.526   0.830
 4342TIP3    H113032   0.209   5.478   0.752
 4342TIP3    H213033   0.251   5.505   0.895
 4343TIP3   OH213034   0.304   5.426   1.463
 4343TIP3    H113035   0.234   5.371   1.427
 4343TIP3    H213036   0.319   5.493   1.396
 4344TIP3   OH213037   6.044   1.729   0.040
 4344TIP3    H113038   6.044   1.801  -0.023
 4344TIP3    H213039   6.108   1.755   0.106
 4345TIP3   OH213040   5.547   2.890   2.910
 4345TIP3    H113041   5.517   2.965   2.962
 4345TIP3    H213042   5.586   2.830   2.973
 4346TIP3   OH213043   1.946   3.292   3.718
 4346TIP3    H113044   1.901   3.342   3.786
 4346TIP3    H213045   2.038   3.315   3.728
 4347TIP3   OH213046   2.283   0.904   1.018
 4347TIP3    H113047   2.282   0.974   0.953
 4347TIP3    H213048   2.363   0.920   1.069
 4348TIP3   OH213049   1.052   4.625   4.561
 4348TIP3    H113050   1.130   4.609   4.613
 4348TIP3    H213051   1.052   4.556   4.495
 4349TIP3   OH213052   3.201   4.790   1.316
 4349TIP3    H113053   3.105   4.790   1.314
 4349TIP3    H213054   3.226   4.784   1.224
 4350TIP3   OH213055   1.499   3.305   4.277
 4350TIP3    H113056   1.430   3.303   4.210
 4350TIP3    H213057   1.455   3.336   4.356
 4351TIP3   OH213058   4.980   3.103   5.146
 4351TIP3    H113059   5.032   3.183   5.141
 4351TIP3    H213060   5.011   3.059   5.224
 4352TIP3   OH213061   4.021   2.693   0.646
 4352TIP3    H113062   3.944   2.637   0.658
 4352TIP3    H213063   4.010   2.730   0.558
 4353TIP3   OH213064   1.469   5.026   2.792
 4353TIP3    H113065   1.499   5.011   2.702
 4353TIP3    H213066   1.429   5.112   2.789
 4354TIP3   OH213067   3.487   4.851   3.386
 4354TIP3    H113068   3.494   4.792   3.311
 4354TIP3    H213069   3.395   4.874   3.391
 4355TIP3   OH213070   4.311   4.858   1.898
 4355TIP3    H113071   4.226   4.822   1.873
 4355TIP3    H213072   4.364   4.852   1.819
 4356TIP3   OH213073   1.252   2.233   3.728
 4356TIP3    H113074   1.282   2.243   3.819
 4356TIP3    H213075   1.237   2.139   3.718
 4357TIP3   OH213076   3.013   5.431   1.392
 4357TIP3    H113077   3.107   5.415   1.387
 4357TIP3    H213078   2.974   5.344   1.387
 4358TIP3   OH213079   0.313   0.504   1.816
 4358TIP3    H113080   0.234   0.470   1.859
 4358TIP3    H213081   0.385   0.465   1.865
 4359TIP3   OH213082   4.366   0.558   2.780
 4359TIP3    H113083   4.372   0.463   2.777
 4359TIP3    H213084   4.429   0.584   2.848
 4360TIP3   OH213085   2.142   2.901   3.735
 4360TIP3    H113086   2.139   2.807   3.749
 4360TIP3    H213087   2.118   2.939   3.819
 4361TIP3   OH213088   0.039   5.575   1.113
 4361TIP3    H113089  -0.040   5.567   1.060
 4361TIP3    H213090   0.015   5.633   1.185
 4362TIP3   OH213091   3.610   1.865   2.881
 4362TIP3    H113092   3.606   1.859   2.785
 4362TIP3    H213093   3.694   1.907   2.899
 4363TIP3   OH213094   5.282   5.115   4.240
 4363TIP3    H113095   5.240   5.196   4.270
 4363TIP3    H213096   5.258   5.050   4.307
 4364TIP3   OH213097   3.344   4.706   0.567
 4364TIP3    H113098   3.309   4.629   0.611
 4364TIP3    H213099   3.273   4.734   0.508
 4365TIP3   OH213100   2.243   1.477   1.464
 4365TIP3    H113101   2.243   1.470   1.560
 4365TIP3    H213102   2.155   1.450   1.438
 4366TIP3   OH213103   5.727   1.130   2.473
 4366TIP3    H113104   5.649   1.102   2.521
 4366TIP3    H213105   5.696   1.198   2.413
 4367TIP3   OH213106   2.046   2.576   1.785
 4367TIP3    H113107   2.137   2.561   1.759
 4367TIP3    H213108   2.041   2.544   1.875
 4368TIP3   OH213109   5.483   5.061   0.148
 4368TIP3    H113110   5.524   5.082   0.064
 4368TIP3    H213111   5.397   5.104   0.144
 4369TIP3   OH213112   1.642   3.918   3.593
 4369TIP3    H113113   1.642   3.872   3.508
 4369TIP3    H213114   1.721   3.972   3.590
 4370TIP3   OH213115   5.572   4.733   2.492
 4370TIP3    H113116   5.524   4.722   2.574
 4370TIP3    H213117   5.659   4.765   2.519
 4371TIP3   OH213118   2.932   0.411   4.177
 4371TIP3    H113119   3.023   0.431   4.198
 4371TIP3    H213120   2.934   0.374   4.088
 4372TIP3   OH213121   4.549   1.861   3.085
 4372TIP3    H113122   4.609   1.910   3.142
 4372TIP3    H213123   4.519   1.788   3.139
 4373TIP3   OH213124   1.288   1.983   3.002
 4373TIP3    H113125   1.354   2.011   2.938
 4373TIP3    H213126   1.320   2.015   3.086
 4374TIP3   OH213127   5.879   2.449   2.074
 4374TIP3    H113128   5.950   2.392   2.101
 4374TIP3    H213129   5.829   2.465   2.154
 4375TIP3   OH213130   1.012   5.015   0.339
 4375TIP3    H113131   1.058   5.033   0.258
 4375TIP3    H213132   0.919   5.012   0.314
 4376TIP3   OH213133   2.453   2.995   2.309
 4376TIP3    H113134   2.411   2.909   2.317
 4376TIP3    H213135   2.541   2.982   2.345
 4377TIP3   OH213136   1.550   2.376   4.727
 4377TIP3    H113137   1.465   2.367   4.684
 4377TIP3    H213138   1.612   2.343   4.662
 4378TIP3   OH213139   2.692   3.308   2.167
 4378TIP3    H113140   2.628   3.378   2.181
 4378TIP3    H213141   2.639   3.235   2.134
 4379TIP3   OH213142   6.038   2.718   1.807
 4379TIP3    H113143   5.960   2.721   1.861
 4379TIP3    H213144   6.045   2.805   1.769
 4380TIP3   OH213145   2.538   2.787   0.362
 4380TIP3    H113146   2.600   2.828   0.302
 4380TIP3    H213147   2.584   2.709   0.395
 4381TIP3   OH213148   1.152   2.335   2.649
 4381TIP3    H113149   1.172   2.283   2.572
 4381TIP3    H213150   1.105   2.276   2.707
 4382TIP3   OH213151   3.316   3.549   1.134
 4382TIP3    H113152   3.300   3.574   1.043
 4382TIP3    H213153   3.254   3.478   1.151
 4383TIP3   OH213154   1.342   5.500   1.217
 4383TIP3    H113155   1.418   5.508   1.160
 4383TIP3    H213156   1.277   5.558   1.177
 4384TIP3   OH213157   3.072   0.273   4.463
 4384TIP3    H113158   3.001   0.263   4.399
 4384TIP3    H213159   3.027   0.285   4.546
 4385TIP3   OH213160   4.356   3.304   2.215
 4385TIP3    H113161   4.274   3.259   2.235
 4385TIP3    H213162   4.328   3.388   2.177
 4386TIP3   OH213163   5.554   2.767   3.870
 4386TIP3    H113164   5.520   2.799   3.953
 4386TIP3    H213165   5.641   2.734   3.891
 4387TIP3   OH213166   3.192   0.571   0.036
 4387TIP3    H113167   3.121   0.630   0.010
 4387TIP3    H213168   3.244   0.623   0.098
 4388TIP3   OH213169   2.345   5.898   2.017
 4388TIP3    H113170   2.284   5.971   2.025
 4388TIP3    H213171   2.428   5.938   1.992
 4389TIP3   OH213172   6.287   4.777   0.058
 4389TIP3    H113173   6.206   4.810   0.097
 4389TIP3    H213174   6.258   4.715  -0.009
 4390TIP3   OH213175   6.054   4.084   0.593
 4390TIP3    H113176   5.988   4.097   0.661
 4390TIP3    H213177   6.011   4.030   0.527
 4391TIP3   OH213178   5.529   1.731   0.489
 4391TIP3    H113179   5.555   1.720   0.580
 4391TIP3    H213180   5.443   1.688   0.483
 4392TIP3   OH213181   5.726   2.107   4.045
 4392TIP3    H113182   5.729   2.016   4.074
 4392TIP3    H213183   5.693   2.155   4.121
 4393TIP3   OH213184   1.045   2.883   2.162
 4393TIP3    H113185   1.108   2.942   2.122
 4393TIP3    H213186   1.091   2.846   2.237
 4394TIP3   OH213187   2.415   1.885   0.832
 4394TIP3    H113188   2.378   1.944   0.898
 4394TIP3    H213189   2.405   1.797   0.869
 4395TIP3   OH213190   4.468   2.317   1.425
 4395TIP3    H113191   4.499   2.256   1.358
 4395TIP3    H213192   4.501   2.403   1.397
 4396TIP3   OH213193   6.163   3.857   1.177
 4396TIP3    H113194   6.187   3.798   1.249
 4396TIP3    H213195   6.240   3.912   1.165
 4397TIP3   OH213196   0.996   5.223   0.998
 4397TIP3    H113197   1.050   5.280   0.943
 4397TIP3    H213198   1.041   5.139   0.997
 4398TIP3   OH213199   0.381   5.555   4.347
 4398TIP3    H113200   0.316   5.535   4.415
 4398TIP3    H213201   0.432   5.475   4.338
 4399TIP3   OH213202   4.851   2.606   4.735
 4399TIP3    H113203   4.792   2.662   4.686
 4399TIP3    H213204   4.807   2.521   4.738
 4400TIP3   OH213205  -0.012   0.835   4.778
 4400TIP3    H113206  -0.012   0.927   4.804
 4400TIP3    H213207   0.055   0.828   4.710
 4401TIP3   OH213208   5.315   0.971   2.331
 4401TIP3    H113209   5.397   0.934   2.299
 4401TIP3    H213210   5.287   1.032   2.263
 4402TIP3   OH213211   2.833   2.278   0.912
 4402TIP3    H113212   2.789   2.357   0.879
 4402TIP3    H213213   2.762   2.221   0.940
 4403TIP3   OH213214   5.932   0.937   2.904
 4403TIP3    H113215   5.964   1.009   2.850
 4403TIP3    H213216   5.887   0.979   2.977
 4404TIP3   OH213217   5.475   4.695   2.734
 4404TIP3    H113218   5.402   4.634   2.721
 4404TIP3    H213219   5.449   4.748   2.810
 4405TIP3   OH213220   1.923   3.043   2.762
 4405TIP3    H113221   1.961   3.023   2.676
 4405TIP3    H213222   1.988   3.098   2.805
 4406TIP3   OH213223   5.994   3.845   4.286
 4406TIP3    H113224   6.067   3.876   4.340
 4406TIP3    H213225   6.027   3.852   4.196
 4407TIP3   OH213226   3.308   3.006   0.344
 4407TIP3    H113227   3.216   3.032   0.336
 4407TIP3    H213228   3.334   2.983   0.255
 4408TIP3   OH213229   1.052   2.512   4.414
 4408TIP3    H113230   1.091   2.567   4.482
 4408TIP3    H213231   0.958   2.530   4.419
 4409TIP3   OH213232   5.084   4.604   2.030
 4409TIP3    H113233   5.029   4.583   1.955
 4409TIP3    H213234   5.141   4.675   2.000
 4410TIP3   OH213235   0.168   5.854   4.467
 4410TIP3    H113236   0.254   5.861   4.507
 4410TIP3    H213237   0.107   5.880   4.537
 4411TIP3   OH213238   1.602   0.867   4.135
 4411TIP3    H113239   1.585   0.930   4.066
 4411TIP3    H213240   1.692   0.885   4.162
 4412TIP3   OH213241   4.219   3.549   2.082
 4412TIP3    H113242   4.220   3.628   2.027
 4412TIP3    H213243   4.168   3.575   2.159
 4413TIP3   OH213244   1.582   0.466   0.362
 4413TIP3    H113245   1.650   0.526   0.330
 4413TIP3    H213246   1.620   0.426   0.440
 4414TIP3   OH213247   3.732   5.156   4.950
 4414TIP3    H113248   3.716   5.084   5.012
 4414TIP3    H213249   3.786   5.117   4.882
 4415TIP3   OH213250   2.550   1.641   0.962
 4415TIP3    H113251   2.482   1.617   1.025
 4415TIP3    H213252   2.539   1.578   0.890
 4416TIP3   OH213253   1.627   0.745   2.720
 4416TIP3    H113254   1.667   0.740   2.807
 4416TIP3    H213255   1.680   0.687   2.666
 4417TIP3   OH213256   0.876   0.521   3.746
 4417TIP3    H113257   0.965   0.533   3.713
 4417TIP3    H213258   0.824   0.587   3.699
 4418TIP3   OH213259   1.946   3.590   3.511
 4418TIP3    H113260   2.019   3.546   3.555
 4418TIP3    H213261   1.885   3.614   3.581
 4419TIP3   OH213262   2.916   3.196   4.069
 4419TIP3    H113263   2.868   3.240   4.139
 4419TIP3    H213264   2.883   3.106   4.070
 4420TIP3   OH213265   1.109   1.030   2.304
 4420TIP3    H113266   1.168   0.964   2.266
 4420TIP3    H213267   1.136   1.035   2.396
 4421TIP3   OH213268   0.204   3.626   5.009
 4421TIP3    H113269   0.282   3.682   5.002
 4421TIP3    H213270   0.132   3.681   4.979
 4422TIP3   OH213271   2.467   3.003   4.466
 4422TIP3    H113272   2.508   2.925   4.503
 4422TIP3    H213273   2.421   2.971   4.388
 4423TIP3   OH213274   3.632   3.722   1.360
 4423TIP3    H113275   3.616   3.767   1.443
 4423TIP3    H213276   3.728   3.722   1.351
 4424TIP3   OH213277   3.410   2.232   2.227
 4424TIP3    H113278   3.382   2.192   2.145
 4424TIP3    H213279   3.399   2.162   2.293
 4425TIP3   OH213280   5.894   3.808   0.790
 4425TIP3    H113281   5.963   3.745   0.772
 4425TIP3    H213282   5.914   3.842   0.877
 4426TIP3   OH213283   3.231   3.932   0.670
 4426TIP3    H113284   3.264   3.882   0.745
 4426TIP3    H213285   3.282   4.013   0.670
 4427TIP3   OH213286   4.594   1.977   0.499
 4427TIP3    H113287   4.560   2.062   0.469
 4427TIP3    H213288   4.593   1.922   0.421
 4428TIP3   OH213289   0.498   2.963   5.049
 4428TIP3    H113290   0.471   3.000   4.965
 4428TIP3    H213291   0.419   2.962   5.102
 4429TIP3   OH213292   3.602   4.856   1.360
 4429TIP3    H113293   3.648   4.939   1.377
 4429TIP3    H213294   3.587   4.818   1.446
 4430TIP3   OH213295   5.418   0.577   2.111
 4430TIP3    H113296   5.343   0.635   2.096
 4430TIP3    H213297   5.488   0.612   2.057
 4431TIP3   OH213298   4.068   3.404   0.979
 4431TIP3    H113299   4.077   3.419   0.885
 4431TIP3    H213300   4.094   3.313   0.992
 4432TIP3   OH213301   0.593   2.843   4.281
 4432TIP3    H113302   0.512   2.802   4.250
 4432TIP3    H213303   0.663   2.794   4.238
 4433TIP3   OH213304   3.888   1.949   3.157
 4433TIP3    H113305   3.863   1.867   3.115
 4433TIP3    H213306   3.972   1.972   3.117
 4434TIP3   OH213307   4.550   2.770   0.965
 4434TIP3    H113308   4.457   2.784   0.981
 4434TIP3    H213309   4.567   2.809   0.880
 4435TIP3   OH213310   0.410   1.082   0.734
 4435TIP3    H113311   0.336   1.055   0.679
 4435TIP3    H213312   0.451   0.999   0.759
 4436TIP3   OH213313   2.483   4.762   4.914
 4436TIP3    H113314   2.577   4.758   4.897
 4436TIP3    H213315   2.461   4.675   4.947
 4437TIP3   OH213316   1.875   3.689   1.265
 4437TIP3    H113317   1.915   3.747   1.200
 4437TIP3    H213318   1.941   3.621   1.280
 4438TIP3   OH213319   3.996   2.825   1.464
 4438TIP3    H113320   3.970   2.868   1.546
 4438TIP3    H213321   4.090   2.842   1.456
 4439TIP3   OH213322   4.577   5.725   2.473
 4439TIP3    H113323   4.662   5.680   2.469
 4439TIP3    H213324   4.538   5.693   2.554
 4440TIP3   OH213325   6.239   1.365   0.345
 4440TIP3    H113326   6.165   1.389   0.289
 4440TIP3    H213327   6.308   1.427   0.322
 4441TIP3   OH213328   0.889   5.302   1.419
 4441TIP3    H113329   0.803   5.304   1.460
 4441TIP3    H213330   0.950   5.324   1.490
 4442TIP3   OH213331   2.274   1.231   4.232
 4442TIP3    H113332   2.230   1.197   4.310
 4442TIP3    H213333   2.319   1.310   4.262
 4443TIP3   OH213334   0.576   5.617   1.696
 4443TIP3    H113335   0.634   5.668   1.751
 4443TIP3    H213336   0.508   5.678   1.668
 4444TIP3   OH213337   1.998   5.313   0.212
 4444TIP3    H113338   1.987   5.360   0.130
 4444TIP3    H213339   1.934   5.353   0.271
 4445TIP3   OH213340   3.809   2.933   3.977
 4445TIP3    H113341   3.758   2.886   4.043
 4445TIP3    H213342   3.790   3.025   3.995
 4446TIP3   OH213343   3.922   3.684   1.338
 4446TIP3    H113344   4.010   3.669   1.373
 4446TIP3    H213345   3.913   3.622   1.266
 4447TIP3   OH213346   5.778   1.900   0.948
 4447TIP3    H113347   5.775   1.995   0.939
 4447TIP3    H213348   5.819   1.885   1.033
 4448TIP3   OH213349   1.133   3.857   3.114
 4448TIP3    H113350   1.076   3.781   3.130
 4448TIP3    H213351   1.195   3.827   3.049
 4449TIP3   OH213352   0.010   1.175   4.095
 4449TIP3    H113353   0.085   1.116   4.090
 4449TIP3    H213354  -0.066   1.120   4.075
 4450TIP3   OH213355   3.156   2.842   4.075
 4450TIP3    H113356   3.112   2.835   3.990
 4450TIP3    H213357   3.135   2.760   4.119
 4451TIP3   OH213358   5.075   5.580   4.451
 4451TIP3    H113359   4.981   5.572   4.470
 4451TIP3    H213360   5.078   5.642   4.377
 4452TIP3   OH213361   2.614   5.671   2.559
 4452TIP3    H113362   2.679   5.656   2.627
 4452TIP3    H213363   2.546   5.606   2.575
 4453TIP3   OH213364   6.159   4.483   3.460
 4453TIP3    H113365   6.099   4.423   3.505
 4453TIP3    H213366   6.243   4.438   3.462
 4454TIP3   OH213367   1.551   5.042   1.659
 4454TIP3    H113368   1.542   5.123   1.709
 4454TIP3    H213369   1.499   5.057   1.580
 4455TIP3   OH213370   4.235   1.029   3.844
 4455TIP3    H113371   4.169   1.098   3.837
 4455TIP3    H213372   4.240   1.011   3.938
 4456TIP3   OH213373   0.540   0.992   4.934
 4456TIP3    H113374   0.513   0.923   4.873
 4456TIP3    H213375   0.475   1.061   4.921
 4457TIP3   OH213376   6.096   2.993   2.417
 4457TIP3    H113377   6.100   3.058   2.346
 4457TIP3    H213378   6.182   2.998   2.459
 4458TIP3   OH213379   4.816   4.014   1.177
 4458TIP3    H113380   4.778   3.928   1.161
 4458TIP3    H213381   4.761   4.075   1.128
 4459TIP3   OH213382   5.409   5.119   0.926
 4459TIP3    H113383   5.475   5.169   0.974
 4459TIP3    H213384   5.332   5.121   0.982
 4460TIP3   OH213385   1.421   0.965   0.541
 4460TIP3    H113386   1.409   1.054   0.575
 4460TIP3    H213387   1.344   0.917   0.573
 4461TIP3   OH213388   3.447   4.238   1.839
 4461TIP3    H113389   3.500   4.242   1.918
 4461TIP3    H213390   3.369   4.291   1.858
 4462TIP3   OH213391   3.526   2.001   5.112
 4462TIP3    H113392   3.587   2.059   5.067
 4462TIP3    H213393   3.454   1.989   5.049
 4463TIP3   OH213394   3.724   4.969   5.133
 4463TIP3    H113395   3.728   4.893   5.191
 4463TIP3    H213396   3.638   5.007   5.150
 4464TIP3   OH213397   4.662   0.460   2.215
 4464TIP3    H113398   4.602   0.517   2.263
 4464TIP3    H213399   4.747   0.504   2.222
 4465TIP3   OH213400   0.466   3.844   0.920
 4465TIP3    H113401   0.491   3.768   0.972
 4465TIP3    H213402   0.546   3.896   0.912
 4466TIP3   OH213403   6.285   4.560   1.697
 4466TIP3    H113404   6.260   4.476   1.660
 4466TIP3    H213405   6.345   4.538   1.769
 4467TIP3   OH213406   3.946   5.229   0.643
 4467TIP3    H113407   3.859   5.193   0.655
 4467TIP3    H213408   3.983   5.179   0.570
 4468TIP3   OH213409   1.660   5.265   4.549
 4468TIP3    H113410   1.723   5.290   4.481
 4468TIP3    H213411   1.711   5.212   4.611
 4469TIP3   OH213412   1.330   2.847   0.853
 4469TIP3    H113413   1.249   2.878   0.812
 4469TIP3    H213414   1.301   2.799   0.930
 4470TIP3   OH213415   4.821   4.668   4.659
 4470TIP3    H113416   4.895   4.612   4.681
 4470TIP3    H213417   4.772   4.619   4.593
 4471TIP3   OH213418   2.767   5.103   2.971
 4471TIP3    H113419   2.681   5.099   3.011
 4471TIP3    H213420   2.803   5.188   2.998
 4472TIP3   OH213421   4.820   4.011   0.116
 4472TIP3    H113422   4.873   4.063   0.057
 4472TIP3    H213423   4.791   3.936   0.063
 4473TIP3   OH213424   2.232   1.152   4.517
 4473TIP3    H113425   2.311   1.104   4.544
 4473TIP3    H213426   2.161   1.107   4.563
 4474TIP3   OH213427   3.535   2.823   3.790
 4474TIP3    H113428   3.587   2.743   3.791
 4474TIP3    H213429   3.520   2.842   3.883
 4475TIP3   OH213430   1.389   5.239   3.551
 4475TIP3    H113431   1.402   5.255   3.457
 4475TIP3    H213432   1.363   5.323   3.586
 4476TIP3   OH213433   4.778   3.532   3.552
 4476TIP3    H113434   4.717   3.584   3.498
 4476TIP3    H213435   4.834   3.488   3.488
 4477TIP3   OH213436   4.978   3.777   4.122
 4477TIP3    H113437   4.945   3.760   4.034
 4477TIP3    H213438   4.900   3.796   4.174
 4478TIP3   OH213439   0.126   4.453   1.859
 4478TIP3    H113440   0.181   4.389   1.815
 4478TIP3    H213441   0.133   4.431   1.952
 4479TIP3   OH213442   3.193   1.414   4.061
 4479TIP3    H113443   3.243   1.453   4.132
 4479TIP3    H213444   3.183   1.322   4.086
 4480TIP3   OH213445   4.457   3.957   2.314
 4480TIP3    H113446   4.510   3.877   2.309
 4480TIP3    H213447   4.410   3.949   2.397
 4481TIP3   OH213448   3.941   0.052   1.108
 4481TIP3    H113449   4.013   0.111   1.085
 4481TIP3    H213450   3.891   0.100   1.174
 4482TIP3   OH213451   1.683   1.500   1.700
 4482TIP3    H113452   1.691   1.547   1.782
 4482TIP3    H213453   1.770   1.463   1.684
 4483TIP3   OH213454   0.509   5.454   0.581
 4483TIP3    H113455   0.565   5.480   0.507
 4483TIP3    H213456   0.420   5.457   0.545
 4484TIP3   OH213457   0.480   1.761   2.526
 4484TIP3    H113458   0.543   1.832   2.517
 4484TIP3    H213459   0.513   1.693   2.467
 4485TIP3   OH213460   5.181   5.402   2.706
 4485TIP3    H113461   5.095   5.402   2.750
 4485TIP3    H213462   5.179   5.478   2.649
 4486TIP3   OH213463   4.271   2.592   1.487
 4486TIP3    H113464   4.297   2.631   1.404
 4486TIP3    H213465   4.335   2.625   1.551
 4487TIP3   OH213466   5.141   5.354   0.526
 4487TIP3    H113467   5.225   5.320   0.558
 4487TIP3    H213468   5.084   5.350   0.603
 4488TIP3   OH213469   1.559   3.080   3.137
 4488TIP3    H113470   1.581   3.160   3.088
 4488TIP3    H213471   1.514   3.025   3.073
 4489TIP3   OH213472   5.794   1.765   3.286
 4489TIP3    H113473   5.844   1.769   3.367
 4489TIP3    H213474   5.783   1.672   3.268
 4490TIP3   OH213475   6.313   4.691   1.058
 4490TIP3    H113476   6.325   4.648   1.142
 4490TIP3    H213477   6.223   4.671   1.033
 4491TIP3   OH213478   3.438   1.897   1.228
 4491TIP3    H113479   3.508   1.832   1.234
 4491TIP3    H213480   3.366   1.850   1.185
 4492TIP3   OH213481   4.021   0.029   5.060
 4492TIP3    H113482   3.970  -0.004   5.133
 4492TIP3    H213483   3.962   0.025   4.985
 4493TIP3   OH213484   3.308   1.516   2.416
 4493TIP3    H113485   3.242   1.464   2.463
 4493TIP3    H213486   3.258   1.585   2.373
 4494TIP3   OH213487   4.880   4.999   2.641
 4494TIP3    H113488   4.907   4.949   2.564
 4494TIP3    H213489   4.877   5.090   2.610
 4495TIP3   OH213490   2.259   3.106   5.063
 4495TIP3    H113491   2.277   3.096   5.156
 4495TIP3    H213492   2.279   3.021   5.024
 4496TIP3   OH213493   5.800   5.756   1.878
 4496TIP3    H113494   5.708   5.783   1.889
 4496TIP3    H213495   5.850   5.826   1.919
 4497TIP3   OH213496   1.315   3.951   2.022
 4497TIP3    H113497   1.401   3.911   2.032
 4497TIP3    H213498   1.264   3.887   1.972
 4498TIP3   OH213499   3.106   2.149   3.006
 4498TIP3    H113500   3.032   2.209   3.012
 4498TIP3    H213501   3.101   2.112   2.918
 4499TIP3   OH213502   4.835   0.599   0.557
 4499TIP3    H113503   4.870   0.558   0.478
 4499TIP3    H213504   4.740   0.587   0.552
 4500TIP3   OH213505   1.310   4.739   2.111
 4500TIP3    H113506   1.260   4.665   2.076
 4500TIP3    H213507   1.319   4.799   2.037
 4501TIP3   OH213508   6.252   4.879   0.727
 4501TIP3    H113509   6.313   4.934   0.679
 4501TIP3    H213510   6.227   4.931   0.804
 4502TIP3   OH213511   3.849   2.293   0.490
 4502TIP3    H113512   3.940   2.271   0.470
 4502TIP3    H213513   3.807   2.303   0.404
 4503TIP3   OH213514   4.899   2.167   3.858
 4503TIP3    H113515   4.872   2.082   3.892
 4503TIP3    H213516   4.833   2.229   3.890
 4504TIP3   OH213517   0.255   4.415   5.129
 4504TIP3    H113518   0.347   4.407   5.101
 4504TIP3    H213519   0.259   4.411   5.224
 4505TIP3   OH213520   1.319   5.751   1.554
 4505TIP3    H113521   1.278   5.837   1.556
 4505TIP3    H213522   1.390   5.759   1.489
 4506TIP3   OH213523   2.395   0.076   3.928
 4506TIP3    H113524   2.362   0.156   3.888
 4506TIP3    H213525   2.455   0.040   3.863
 4507TIP3   OH213526   4.180   0.067   0.622
 4507TIP3    H113527   4.104   0.124   0.626
 4507TIP3    H213528   4.189   0.032   0.710
 4508TIP3   OH213529   0.228   4.681   1.389
 4508TIP3    H113530   0.242   4.697   1.482
 4508TIP3    H213531   0.291   4.737   1.344
 4509TIP3   OH213532   2.727   5.050   2.050
 4509TIP3    H113533   2.664   5.055   2.122
 4509TIP3    H213534   2.777   5.131   2.057
 4510TIP3   OH213535   2.239   0.721   4.600
 4510TIP3    H113536   2.164   0.780   4.601
 4510TIP3    H213537   2.275   0.726   4.689
 4511TIP3   OH213538   5.061   0.679   3.789
 4511TIP3    H113539   5.011   0.748   3.831
 4511TIP3    H213540   5.043   0.689   3.695
 4512TIP3   OH213541   2.879   1.656   4.365
 4512TIP3    H113542   2.818   1.631   4.434
 4512TIP3    H213543   2.963   1.667   4.410
 4513TIP3   OH213544   3.040   5.896   4.562
 4513TIP3    H113545   3.040   5.832   4.492
 4513TIP3    H213546   2.994   5.972   4.526
 4514TIP3   OH213547   3.317   2.165   3.816
 4514TIP3    H113548   3.282   2.129   3.898
 4514TIP3    H213549   3.242   2.165   3.756
 4515TIP3   OH213550   3.880   5.651   1.039
 4515TIP3    H113551   3.815   5.635   0.971
 4515TIP3    H213552   3.964   5.653   0.993
 4516TIP3   OH213553   2.431   2.371   3.816
 4516TIP3    H113554   2.343   2.350   3.850
 4516TIP3    H213555   2.485   2.296   3.843
 4517TIP3   OH213556   2.724   0.748   1.910
 4517TIP3    H113557   2.669   0.670   1.922
 4517TIP3    H213558   2.663   0.822   1.918
 4518TIP3   OH213559   5.962   2.226   4.004
 4518TIP3    H113560   5.877   2.185   4.019
 4518TIP3    H213561   5.962   2.303   4.060
 4519TIP3   OH213562   6.204   2.887   1.073
 4519TIP3    H113563   6.171   2.798   1.058
 4519TIP3    H213564   6.286   2.890   1.024
 4520TIP3   OH213565   4.196   0.806   3.425
 4520TIP3    H113566   4.177   0.830   3.516
 4520TIP3    H213567   4.113   0.818   3.379
 4521TIP3   OH213568   2.326   3.486   4.881
 4521TIP3    H113569   2.378   3.411   4.910
 4521TIP3    H213570   2.387   3.559   4.881
 4522TIP3   OH213571   1.762   5.557   4.603
 4522TIP3    H113572   1.789   5.473   4.564
 4522TIP3    H213573   1.842   5.594   4.639
 4523TIP3   OH213574   3.359   5.096   4.433
 4523TIP3    H113575   3.327   5.104   4.523
 4523TIP3    H213576   3.415   5.019   4.435
 4524TIP3   OH213577   2.248   1.236   3.591
 4524TIP3    H113578   2.317   1.300   3.574
 4524TIP3    H213579   2.264   1.207   3.681
 4525TIP3   OH213580   5.922   4.046   2.777
 4525TIP3    H113581   5.962   4.116   2.828
 4525TIP3    H213582   5.994   3.988   2.755
 4526TIP3   OH213583   5.743   4.475   4.294
 4526TIP3    H113584   5.721   4.568   4.305
 4526TIP3    H213585   5.713   4.433   4.374
 4527TIP3   OH213586   4.882   3.337   0.691
 4527TIP3    H113587   4.883   3.433   0.690
 4527TIP3    H213588   4.884   3.312   0.598
 4528TIP3   OH213589   1.377   0.337   2.487
 4528TIP3    H113590   1.380   0.421   2.442
 4528TIP3    H213591   1.439   0.281   2.439
 4529TIP3   OH213592   2.412   3.828   0.320
 4529TIP3    H113593   2.347   3.889   0.285
 4529TIP3    H213594   2.478   3.822   0.251
 4530TIP3   OH213595   2.962   4.964   1.519
 4530TIP3    H113596   3.028   4.897   1.539
 4530TIP3    H213597   2.937   5.000   1.604
 4531TIP3   OH213598   4.491   0.975   2.641
 4531TIP3    H113599   4.586   0.981   2.633
 4531TIP3    H213600   4.464   0.918   2.569
 4532TIP3   OH213601   1.441   0.289   0.657
 4532TIP3    H113602   1.379   0.361   0.665
 4532TIP3    H213603   1.483   0.284   0.743
 4533TIP3   OH213604   3.989   0.292   3.927
 4533TIP3    H113605   4.058   0.335   3.977
 4533TIP3    H213606   4.024   0.205   3.908
 4534TIP3   OH213607   2.978   5.933   1.928
 4534TIP3    H113608   2.898   5.985   1.920
 4534TIP3    H213609   3.041   5.991   1.971
 4535TIP3   OH213610   0.644   3.468   3.989
 4535TIP3    H113611   0.559   3.427   3.972
 4535TIP3    H213612   0.680   3.419   4.063
 4536TIP3   OH213613   0.732   3.575   4.365
 4536TIP3    H113614   0.794   3.502   4.355
 4536TIP3    H213615   0.736   3.620   4.280
 4537TIP3   OH213616   2.835   0.659   3.049
 4537TIP3    H113617   2.816   0.593   3.115
 4537TIP3    H213618   2.826   0.743   3.095
 4538TIP3   OH213619   3.482   3.342   0.569
 4538TIP3    H113620   3.538   3.315   0.496
 4538TIP3    H213621   3.423   3.268   0.583
 4539TIP3   OH213622   5.772   0.634   3.225
 4539TIP3    H113623   5.839   0.670   3.166
 4539TIP3    H213624   5.692   0.633   3.173
 4540TIP3   OH213625   0.206   3.338   2.467
 4540TIP3    H113626   0.296   3.308   2.479
 4540TIP3    H213627   0.153   3.259   2.480
 4541TIP3   OH213628   6.311   5.182   4.055
 4541TIP3    H113629   6.237   5.242   4.058
 4541TIP3    H213630   6.388   5.237   4.064
 4542TIP3   OH213631   1.814   0.076   3.116
 4542TIP3    H113632   1.799   0.016   3.043
 4542TIP3    H213633   1.752   0.148   3.101
 4543TIP3   OH213634   2.395   0.969   4.680
 4543TIP3    H113635   2.474   0.926   4.713
 4543TIP3    H213636   2.335   0.971   4.754
 4544TIP3   OH213637   3.320   5.001   1.444
 4544TIP3    H113638   3.288   4.912   1.431
 4544TIP3    H213639   3.261   5.039   1.508
 4545TIP3   OH213640   0.782   0.636   4.130
 4545TIP3    H113641   0.824   0.696   4.068
 4545TIP3    H213642   0.794   0.678   4.216
 4546TIP3   OH213643   6.322   1.088   0.344
 4546TIP3    H113644   6.313   1.178   0.312
 4546TIP3    H213645   6.310   1.034   0.266
 4547TIP3   OH213646   0.727   0.164   3.123
 4547TIP3    H113647   0.682   0.083   3.149
 4547TIP3    H213648   0.657   0.227   3.107
 4548TIP3   OH213649   2.402   1.739   3.112
 4548TIP3    H113650   2.473   1.681   3.088
 4548TIP3    H213651   2.445   1.819   3.142
 4549TIP3   OH213652   4.983   0.636   2.773
 4549TIP3    H113653   4.950   0.565   2.718
 4549TIP3    H213654   4.915   0.703   2.770
 4550TIP3   OH213655   1.916   2.188   1.829
 4550TIP3    H113656   1.878   2.222   1.747
 4550TIP3    H213657   1.840   2.157   1.879
 4551TIP3   OH213658   5.485   2.143   0.971
 4551TIP3    H113659   5.511   2.128   0.880
 4551TIP3    H213660   5.567   2.154   1.019
 4552TIP3   OH213661   5.601   4.120   3.205
 4552TIP3    H113662   5.622   4.203   3.248
 4552TIP3    H213663   5.610   4.139   3.112
 4553TIP3   OH213664   1.369   2.369   3.941
 4553TIP3    H113665   1.451   2.381   3.989
 4553TIP3    H213666   1.313   2.320   4.002
 4554TIP3   OH213667   3.967   0.037   4.257
 4554TIP3    H113668   3.892   0.057   4.200
 4554TIP3    H213669   3.942  -0.044   4.301
 4555TIP3   OH213670   0.123   1.489   0.261
 4555TIP3    H113671   0.154   1.448   0.180
 4555TIP3    H213672   0.202   1.520   0.304
 4556TIP3   OH213673   2.094   1.347   3.357
 4556TIP3    H113674   2.127   1.425   3.313
 4556TIP3    H213675   2.148   1.276   3.324
 4557TIP3   OH213676   0.367   5.198   3.268
 4557TIP3    H113677   0.408   5.271   3.221
 4557TIP3    H213678   0.283   5.233   3.299
 4558TIP3   OH213679   3.927   5.357   4.995
 4558TIP3    H113680   3.897   5.436   4.949
 4558TIP3    H213681   3.850   5.301   5.000
 4559TIP3   OH213682   0.813   2.959   0.666
 4559TIP3    H113683   0.812   3.037   0.610
 4559TIP3    H213684   0.780   2.889   0.609
 4560TIP3   OH213685   3.937   0.261   1.503
 4560TIP3    H113686   4.029   0.239   1.490
 4560TIP3    H213687   3.925   0.253   1.598
 4561TIP3   OH213688   1.613  -0.004   3.827
 4561TIP3    H113689   1.700   0.034   3.839
 4561TIP3    H213690   1.568   0.057   3.768
 4562TIP3   OH213691   2.865   3.902   2.024
 4562TIP3    H113692   2.877   3.995   2.046
 4562TIP3    H213693   2.951   3.863   2.041
 4563TIP3   OH213694   2.059   2.439   2.863
 4563TIP3    H113695   2.100   2.355   2.883
 4563TIP3    H213696   2.121   2.504   2.896
 4564TIP3   OH213697   3.481   3.772   0.478
 4564TIP3    H113698   3.453   3.713   0.408
 4564TIP3    H213699   3.431   3.852   0.465
 4565TIP3   OH213700   0.416   4.304   2.438
 4565TIP3    H113701   0.343   4.361   2.463
 4565TIP3    H213702   0.383   4.215   2.452
 4566TIP3   OH213703   1.402   3.232   0.175
 4566TIP3    H113704   1.464   3.261   0.108
 4566TIP3    H213705   1.444   3.154   0.214
 4567TIP3   OH213706   2.527   2.953   1.243
 4567TIP3    H113707   2.517   3.042   1.276
 4567TIP3    H213708   2.529   2.898   1.321
 4568TIP3   OH213709   3.023   0.611   1.478
 4568TIP3    H113710   3.050   0.703   1.471
 4568TIP3    H213711   3.089   0.564   1.427
 4569TIP3   OH213712   1.781   4.314   2.207
 4569TIP3    H113713   1.691   4.335   2.182
 4569TIP3    H213714   1.773   4.279   2.295
 4570TIP3   OH213715   4.376   3.985   1.186
 4570TIP3    H113716   4.393   4.012   1.096
 4570TIP3    H213717   4.417   4.053   1.240
 4571TIP3   OH213718   5.867   1.816   1.621
 4571TIP3    H113719   5.792   1.813   1.680
 4571TIP3    H213720   5.844   1.756   1.550
 4572TIP3   OH213721   1.514   4.859   0.697
 4572TIP3    H113722   1.581   4.807   0.741
 4572TIP3    H213723   1.543   4.950   0.708
 4573TIP3   OH213724   6.124   5.185   0.034
 4573TIP3    H113725   6.038   5.200   0.072
 4573TIP3    H213726   6.165   5.272   0.032
 4574TIP3   OH213727   2.170   2.870   1.244
 4574TIP3    H113728   2.108   2.817   1.293
 4574TIP3    H213729   2.213   2.923   1.311
 4575TIP3   OH213730   0.949   5.619   4.357
 4575TIP3    H113731   0.919   5.537   4.396
 4575TIP3    H213732   0.893   5.631   4.281
 4576TIP3   OH213733   3.939   5.627   1.324
 4576TIP3    H113734   4.007   5.694   1.334
 4576TIP3    H213735   3.907   5.639   1.235
 4577TIP3   OH213736   4.870   2.435   1.624
 4577TIP3    H113737   4.907   2.384   1.552
 4577TIP3    H213738   4.777   2.441   1.603
 4578TIP3   OH213739   1.520   2.937   1.075
 4578TIP3    H113740   1.532   3.004   1.143
 4578TIP3    H213741   1.441   2.965   1.029
 4579TIP3   OH213742   5.350   2.023   3.107
 4579TIP3    H113743   5.286   1.956   3.131
 4579TIP3    H213744   5.434   1.977   3.106
 4580TIP3   OH213745   0.830   5.309   4.552
 4580TIP3    H113746   0.865   5.350   4.631
 4580TIP3    H213747   0.902   5.256   4.518
 4581TIP3   OH213748   2.346   0.387   4.063
 4581TIP3    H113749   2.286   0.452   4.026
 4581TIP3    H213750   2.289   0.319   4.100
 4582TIP3   OH213751   5.648   1.322   1.096
 4582TIP3    H113752   5.577   1.289   1.040
 4582TIP3    H213753   5.707   1.366   1.036
 4583TIP3   OH213754   4.968   2.080   3.123
 4583TIP3    H113755   5.023   2.009   3.092
 4583TIP3    H213756   4.964   2.141   3.049
 4584TIP3   OH213757   5.130   1.275   4.959
 4584TIP3    H113758   5.177   1.252   4.878
 4584TIP3    H213759   5.170   1.357   4.986
 4585TIP3   OH213760   2.262   4.520   1.677
 4585TIP3    H113761   2.243   4.543   1.768
 4585TIP3    H213762   2.357   4.525   1.670
 4586TIP3   OH213763   2.548   4.485   2.771
 4586TIP3    H113764   2.577   4.546   2.838
 4586TIP3    H213765   2.623   4.476   2.712
 4587TIP3   OH213766   0.235   5.195   2.123
 4587TIP3    H113767   0.258   5.213   2.214
 4587TIP3    H213768   0.143   5.167   2.127
 4588TIP3   OH213769   5.168   0.723   4.889
 4588TIP3    H113770   5.145   0.756   4.802
 4588TIP3    H213771   5.126   0.784   4.949
 4589TIP3   OH213772   4.057   3.016   2.851
 4589TIP3    H113773   4.092   3.085   2.907
 4589TIP3    H213774   4.056   2.938   2.907
 4590TIP3   OH213775   4.556   0.370   4.262
 4590TIP3    H113776   4.593   0.432   4.325
 4590TIP3    H213777   4.484   0.328   4.309
 4591TIP3   OH213778   2.287   2.024   1.051
 4591TIP3    H113779   2.336   2.097   1.090
 4591TIP3    H213780   2.255   1.974   1.126
 4592TIP3   OH213781   5.389   2.375   4.757
 4592TIP3    H113782   5.399   2.364   4.662
 4592TIP3    H213783   5.377   2.469   4.769
 4593TIP3   OH213784   4.106   3.477   2.777
 4593TIP3    H113785   4.048   3.480   2.853
 4593TIP3    H213786   4.083   3.396   2.732
 4594TIP3   OH213787   0.030   0.255   4.508
 4594TIP3    H113788   0.050   0.331   4.563
 4594TIP3    H213789   0.112   0.234   4.464
 4595TIP3   OH213790   5.404   4.201   4.951
 4595TIP3    H113791   5.446   4.119   4.925
 4595TIP3    H213792   5.406   4.199   5.047
 4596TIP3   OH213793   0.845   1.495   0.851
 4596TIP3    H113794   0.780   1.459   0.911
 4596TIP3    H213795   0.839   1.589   0.863
 4597TIP3   OH213796   1.983   4.103   1.539
 4597TIP3    H113797   2.018   4.174   1.593
 4597TIP3    H213798   1.917   4.146   1.484
 4598TIP3   OH213799   2.561   1.823   2.635
 4598TIP3    H113800   2.573   1.733   2.666
 4598TIP3    H213801   2.540   1.814   2.543
 4599TIP3   OH213802  -0.025   5.920   3.910
 4599TIP3    H113803   0.047   5.897   3.969
 4599TIP3    H213804   0.010   5.991   3.856
 4600TIP3   OH213805   0.454   1.924   0.799
 4600TIP3    H113806   0.436   1.851   0.858
 4600TIP3    H213807   0.483   1.995   0.856
 4601TIP3   OH213808   0.774   2.482   0.403
 4601TIP3    H113809   0.746   2.500   0.314
 4601TIP3    H213810   0.744   2.392   0.419
 4602TIP3   OH213811   5.866   3.567   4.242
 4602TIP3    H113812   5.849   3.490   4.297
 4602TIP3    H213813   5.943   3.608   4.282
 4603TIP3   OH213814   5.149   0.607   0.936
 4603TIP3    H113815   5.121   0.554   0.862
 4603TIP3    H213816   5.196   0.681   0.896
 4604TIP3   OH213817   1.389   5.949   2.084
 4604TIP3    H113818   1.312   5.912   2.040
 4604TIP3    H213819   1.375   5.930   2.176
 4605TIP3   OH213820   2.915   0.023   3.015
 4605TIP3    H113821   3.006   0.019   3.045
 4605TIP3    H213822   2.866  -0.027   3.080
 4606TIP3   OH213823   5.133   4.798   1.844
 4606TIP3    H113824   5.226   4.778   1.855
 4606TIP3    H213825   5.132   4.887   1.807
 4607TIP3   OH213826   3.765   0.324   4.664
 4607TIP3    H113827   3.844   0.357   4.706
 4607TIP3    H213828   3.699   0.391   4.681
 4608TIP3   OH213829   4.858   5.206   0.689
 4608TIP3    H113830   4.941   5.168   0.660
 4608TIP3    H213831   4.879   5.297   0.709
 4609TIP3   OH213832   2.792   1.673   1.097
 4609TIP3    H113833   2.786   1.587   1.138
 4609TIP3    H213834   2.703   1.693   1.069
 4610TIP3   OH213835   4.075   5.050   3.143
 4610TIP3    H113836   3.994   5.024   3.098
 4610TIP3    H213837   4.078   5.145   3.135
 4611TIP3   OH213838   2.535   0.891   4.147
 4611TIP3    H113839   2.628   0.870   4.143
 4611TIP3    H213840   2.506   0.861   4.233
 4612TIP3   OH213841   4.727   4.587   0.404
 4612TIP3    H113842   4.659   4.554   0.345
 4612TIP3    H213843   4.684   4.655   0.454
 4613TIP3   OH213844   5.564   3.609   4.264
 4613TIP3    H113845   5.545   3.702   4.251
 4613TIP3    H213846   5.659   3.605   4.274
 4614TIP3   OH213847   5.335   5.696   2.130
 4614TIP3    H113848   5.396   5.734   2.193
 4614TIP3    H213849   5.280   5.637   2.182
 4615TIP3   OH213850   3.876   4.817   0.171
 4615TIP3    H113851   3.924   4.817   0.254
 4615TIP3    H213852   3.802   4.758   0.186
 4616TIP3   OH213853   1.674   1.865   4.416
 4616TIP3    H113854   1.663   1.939   4.357
 4616TIP3    H213855   1.613   1.799   4.384
 4617TIP3   OH213856   5.173   4.651   2.313
 4617TIP3    H113857   5.149   4.633   2.222
 4617TIP3    H213858   5.268   4.648   2.314
 4618TIP3   OH213859   4.743   0.339   0.210
 4618TIP3    H113860   4.709   0.252   0.189
 4618TIP3    H213861   4.835   0.336   0.182
 4619TIP3   OH213862   0.625   3.575   0.777
 4619TIP3    H113863   0.549   3.624   0.808
 4619TIP3    H213864   0.642   3.610   0.689
 4620TIP3   OH213865   5.036   1.112   4.371
 4620TIP3    H113866   5.016   1.111   4.277
 4620TIP3    H213867   5.132   1.118   4.375
 4621TIP3   OH213868   3.898   5.228   2.336
 4621TIP3    H113869   3.934   5.139   2.332
 4621TIP3    H213870   3.804   5.215   2.347
 4622TIP3   OH213871   5.130   3.539   4.725
 4622TIP3    H113872   5.129   3.466   4.788
 4622TIP3    H213873   5.064   3.600   4.758
 4623TIP3   OH213874   3.748   3.075   3.636
 4623TIP3    H113875   3.670   3.087   3.689
 4623TIP3    H213876   3.808   3.144   3.665
 4624TIP3   OH213877   0.254   5.966   1.732
 4624TIP3    H113878   0.308   5.909   1.678
 4624TIP3    H213879   0.221   6.032   1.671
 4625TIP3   OH213880   1.730   3.017   1.633
 4625TIP3    H113881   1.815   2.990   1.597
 4625TIP3    H213882   1.671   2.945   1.611
 4626TIP3   OH213883   4.609   5.376   0.409
 4626TIP3    H113884   4.526   5.416   0.381
 4626TIP3    H213885   4.666   5.450   0.427
 4627TIP3   OH213886   2.672   2.033   2.263
 4627TIP3    H113887   2.642   1.962   2.206
 4627TIP3    H213888   2.657   2.112   2.211
 4628TIP3   OH213889   4.506   3.004   2.349
 4628TIP3    H113890   4.436   3.049   2.395
 4628TIP3    H213891   4.461   2.935   2.299
 4629TIP3   OH213892   2.395   2.868   3.307
 4629TIP3    H113893   2.378   2.936   3.242
 4629TIP3    H213894   2.488   2.847   3.297
 4630TIP3   OH213895   1.153   3.029   0.397
 4630TIP3    H113896   1.204   2.986   0.466
 4630TIP3    H213897   1.166   3.122   0.412
 4631TIP3   OH213898   2.955   1.391   2.783
 4631TIP3    H113899   2.883   1.366   2.725
 4631TIP3    H213900   3.024   1.422   2.724
 4632TIP3   OH213901   1.797   2.129   4.042
 4632TIP3    H113902   1.873   2.157   4.092
 4632TIP3    H213903   1.798   2.183   3.963
 4633TIP3   OH213904   3.369   3.636   3.761
 4633TIP3    H113905   3.426   3.627   3.684
 4633TIP3    H213906   3.306   3.565   3.753
 4634TIP3   OH213907   1.544   1.764   1.111
 4634TIP3    H113908   1.611   1.772   1.044
 4634TIP3    H213909   1.549   1.847   1.160
 4635TIP3   OH213910   1.028   5.093   2.284
 4635TIP3    H113911   0.934   5.096   2.301
 4635TIP3    H213912   1.035   5.088   2.188
 4636TIP3   OH213913   0.430   0.693   0.139
 4636TIP3    H113914   0.386   0.687   0.224
 4636TIP3    H213915   0.515   0.732   0.158
 4637TIP3   OH213916   1.815   5.385   2.667
 4637TIP3    H113917   1.875   5.458   2.652
 4637TIP3    H213918   1.868   5.307   2.649
 4638TIP3   OH213919   3.580   0.917   3.039
 4638TIP3    H113920   3.600   0.939   3.130
 4638TIP3    H213921   3.526   0.989   3.008
 4639TIP3   OH213922   2.578   3.196   5.137
 4639TIP3    H113923   2.650   3.157   5.088
 4639TIP3    H213924   2.560   3.133   5.207
 4640TIP3   OH213925   0.500   1.591   1.808
 4640TIP3    H113926   0.559   1.519   1.785
 4640TIP3    H213927   0.452   1.609   1.726
 4641TIP3   OH213928   3.778   3.621   2.783
 4641TIP3    H113929   3.734   3.705   2.773
 4641TIP3    H213930   3.707   3.557   2.787
 4642TIP3   OH213931   0.132   3.280   4.804
 4642TIP3    H113932   0.171   3.336   4.737
 4642TIP3    H213933   0.184   3.297   4.883
 4643TIP3   OH213934   0.033   4.474   4.766
 4643TIP3    H113935   0.034   4.493   4.860
 4643TIP3    H213936  -0.049   4.427   4.752
 4644TIP3   OH213937   2.258   2.445   0.393
 4644TIP3    H113938   2.301   2.473   0.312
 4644TIP3    H213939   2.310   2.371   0.424
 4645TIP3   OH213940   4.298   1.468   4.233
 4645TIP3    H113941   4.284   1.511   4.318
 4645TIP3    H213942   4.378   1.509   4.199
 4646TIP3   OH213943   0.413   1.681   0.923
 4646TIP3    H113944   0.405   1.658   1.015
 4646TIP3    H213945   0.361   1.615   0.877
 4647TIP3   OH213946   5.392   5.296   3.976
 4647TIP3    H113947   5.357   5.209   3.959
 4647TIP3    H213948   5.457   5.284   4.046
 4648TIP3   OH213949   4.304   3.024   0.683
 4648TIP3    H113950   4.211   3.042   0.668
 4648TIP3    H213951   4.306   2.933   0.711
 4649TIP3   OH213952   6.353   1.966   4.068
 4649TIP3    H113953   6.298   2.032   4.110
 4649TIP3    H213954   6.367   1.900   4.136
 4650TIP3   OH213955   1.620   0.159   4.303
 4650TIP3    H113956   1.693   0.216   4.279
 4650TIP3    H213957   1.650   0.071   4.281
 4651TIP3   OH213958   1.620   4.637   2.620
 4651TIP3    H113959   1.549   4.590   2.663
 4651TIP3    H213960   1.690   4.572   2.609
 4652TIP3   OH213961   0.516   3.868   2.549
 4652TIP3    H113962   0.608   3.888   2.560
 4652TIP3    H213963   0.477   3.949   2.515
 4653TIP3   OH213964   1.695   0.658   3.602
 4653TIP3    H113965   1.606   0.682   3.629
 4653TIP3    H213966   1.745   0.656   3.684
 4654TIP3   OH213967   2.185   1.055   1.701
 4654TIP3    H113968   2.190   0.974   1.649
 4654TIP3    H213969   2.128   1.112   1.650
 4655TIP3   OH213970   5.087   1.214   3.535
 4655TIP3    H113971   4.993   1.201   3.538
 4655TIP3    H213972   5.124   1.128   3.556
 4656TIP3   OH213973   0.725   0.760   3.609
 4656TIP3    H113974   0.641   0.758   3.654
 4656TIP3    H213975   0.717   0.694   3.540
 4657TIP3   OH213976   2.536   0.217   0.632
 4657TIP3    H113977   2.494   0.290   0.678
 4657TIP3    H213978   2.507   0.140   0.680
 4658TIP3   OH213979   1.840   1.033   0.412
 4658TIP3    H113980   1.832   1.104   0.348
 4658TIP3    H213981   1.762   0.979   0.397
 4659TIP3   OH213982   2.646   0.668   4.022
 4659TIP3    H113983   2.610   0.581   4.008
 4659TIP3    H213984   2.647   0.708   3.935
 4660TIP3   OH213985   3.570   2.197   4.121
 4660TIP3    H113986   3.623   2.183   4.043
 4660TIP3    H213987   3.633   2.208   4.192
 4661TIP3   OH213988   3.107   3.874   1.512
 4661TIP3    H113989   3.109   3.801   1.574
 4661TIP3    H213990   3.015   3.879   1.485
 4662TIP3   OH213991   5.937   4.448   2.341
 4662TIP3    H113992   6.003   4.405   2.395
 4662TIP3    H213993   5.898   4.514   2.398
 4663TIP3   OH213994   2.019   2.365   4.664
 4663TIP3    H113995   1.976   2.283   4.690
 4663TIP3    H213996   2.079   2.340   4.595
 4664TIP3   OH213997   6.174   5.213   5.009
 4664TIP3    H113998   6.156   5.205   4.915
 4664TIP3    H213999   6.100   5.170   5.051
 4665TIP3   OH214000   3.125   2.948   4.724
 4665TIP3    H114001   3.052   2.905   4.769
 4665TIP3    H214002   3.091   2.966   4.636
 4666TIP3   OH214003   0.320   0.723   0.405
 4666TIP3    H114004   0.331   0.698   0.497
 4666TIP3    H214005   0.240   0.775   0.404
 4667TIP3   OH214006   0.825   4.675   2.280
 4667TIP3    H114007   0.764   4.745   2.257
 4667TIP3    H214008   0.860   4.645   2.196
 4668TIP3   OH214009   0.952   0.779   0.233
 4668TIP3    H114010   0.963   0.828   0.314
 4668TIP3    H214011   1.004   0.700   0.245
 4669TIP3   OH214012   5.591   1.910   3.160
 4669TIP3    H114013   5.593   1.832   3.103
 4669TIP3    H214014   5.651   1.889   3.231
 4670TIP3   OH214015   4.335   0.688   3.191
 4670TIP3    H114016   4.282   0.745   3.135
 4670TIP3    H214017   4.336   0.732   3.276
 4671TIP3   OH214018   2.000   0.173   1.717
 4671TIP3    H114019   2.056   0.155   1.792
 4671TIP3    H214020   1.955   0.090   1.701
 4672TIP3   OH214021   6.179   0.675   2.501
 4672TIP3    H114022   6.243   0.745   2.510
 4672TIP3    H214023   6.151   0.679   2.409
 4673TIP3   OH214024   0.256   0.057   0.117
 4673TIP3    H114025   0.333  -0.001   0.117
 4673TIP3    H214026   0.266   0.110   0.196
 4674TIP3   OH214027   1.345   0.326   3.848
 4674TIP3    H114028   1.362   0.253   3.787
 4674TIP3    H214029   1.423   0.329   3.903
 4675TIP3   OH214030   1.974   5.127   0.682
 4675TIP3    H114031   2.012   5.088   0.760
 4675TIP3    H214032   2.044   5.182   0.645
 4676TIP3   OH214033   4.562   2.432   1.658
 4676TIP3    H114034   4.488   2.452   1.716
 4676TIP3    H214035   4.523   2.380   1.588
 4677TIP3   OH214036   5.600   1.196   5.104
 4677TIP3    H114037   5.572   1.168   5.191
 4677TIP3    H214038   5.582   1.120   5.048
 4678TIP3   OH214039   0.737   3.316   0.759
 4678TIP3    H114040   0.801   3.321   0.688
 4678TIP3    H214041   0.678   3.389   0.743
 4679TIP3   OH214042   0.805   0.593   1.609
 4679TIP3    H114043   0.763   0.517   1.649
 4679TIP3    H214044   0.895   0.565   1.592
 4680TIP3   OH214045   5.914   5.541   4.633
 4680TIP3    H114046   5.824   5.552   4.662
 4680TIP3    H214047   5.921   5.597   4.555
 4681TIP3   OH214048   6.187   1.886   1.080
 4681TIP3    H114049   6.199   1.948   1.152
 4681TIP3    H214050   6.122   1.927   1.023
 4682TIP3   OH214051   3.588   1.260   1.463
 4682TIP3    H114052   3.564   1.190   1.523
 4682TIP3    H214053   3.665   1.226   1.417
 4683TIP3   OH214054   5.196   2.125   4.564
 4683TIP3    H114055   5.164   2.081   4.485
 4683TIP3    H214056   5.130   2.192   4.582
 4684TIP3   OH214057   5.053   1.393   1.985
 4684TIP3    H114058   5.004   1.467   2.021
 4684TIP3    H214059   5.013   1.377   1.900
 4685TIP3   OH214060   0.218   0.471   0.934
 4685TIP3    H114061   0.158   0.396   0.927
 4685TIP3    H214062   0.230   0.501   0.844
 4686TIP3   OH214063   3.421   5.536   4.604
 4686TIP3    H114064   3.439   5.548   4.511
 4686TIP3    H214065   3.445   5.445   4.621
 4687TIP3   OH214066   4.171   2.160   4.893
 4687TIP3    H114067   4.170   2.071   4.929
 4687TIP3    H214068   4.116   2.210   4.953
 4688TIP3   OH214069   6.126   5.040   0.439
 4688TIP3    H114070   6.099   4.948   0.440
 4688TIP3    H214071   6.087   5.077   0.519
 4689TIP3   OH214072   1.728   0.700   1.198
 4689TIP3    H114073   1.800   0.643   1.225
 4689TIP3    H214074   1.764   0.788   1.203
 4690TIP3   OH214075   0.857   0.020   1.935
 4690TIP3    H114076   0.837   0.049   1.846
 4690TIP3    H214077   0.828   0.092   1.991
 4691TIP3   OH214078   3.018   2.848   1.636
 4691TIP3    H114079   3.109   2.852   1.608
 4691TIP3    H214080   3.020   2.867   1.729
 4692TIP3   OH214081   6.107   1.665   2.368
 4692TIP3    H114082   6.088   1.708   2.285
 4692TIP3    H214083   6.150   1.583   2.344
 4693TIP3   OH214084   5.677   0.971   4.516
 4693TIP3    H114085   5.753   0.913   4.519
 4693TIP3    H214086   5.682   1.022   4.597
 4694TIP3   OH214087   1.476   2.016   2.108
 4694TIP3    H114088   1.468   1.929   2.070
 4694TIP3    H214089   1.419   2.014   2.185
 4695TIP3   OH214090   5.781   3.570   2.411
 4695TIP3    H114091   5.734   3.594   2.491
 4695TIP3    H214092   5.715   3.577   2.342
 4696TIP3   OH214093   4.357   2.877   4.955
 4696TIP3    H114094   4.321   2.808   5.011
 4696TIP3    H214095   4.306   2.955   4.977
 4697TIP3   OH214096   0.673   0.793   0.174
 4697TIP3    H114097   0.763   0.766   0.191
 4697TIP3    H214098   0.666   0.791   0.078
 4698TIP3   OH214099   4.444   2.746   1.681
 4698TIP3    H114100   4.474   2.764   1.770
 4698TIP3    H214101   4.520   2.765   1.626
 4699TIP3   OH214102   2.718   5.270   1.223
 4699TIP3    H114103   2.742   5.353   1.182
 4699TIP3    H214104   2.798   5.241   1.266
 4700TIP3   OH214105   2.620   5.361   1.525
 4700TIP3    H114106   2.638   5.304   1.600
 4700TIP3    H214107   2.581   5.303   1.460
 4701TIP3   OH214108   4.486   1.885   1.708
 4701TIP3    H114109   4.520   1.875   1.797
 4701TIP3    H214110   4.427   1.960   1.713
 4702TIP3   OH214111   1.016   1.926   3.027
 4702TIP3    H114112   1.017   1.958   3.117
 4702TIP3    H214113   1.088   1.972   2.984
 4703TIP3   OH214114   4.633   4.382   2.265
 4703TIP3    H114115   4.685   4.312   2.304
 4703TIP3    H214116   4.698   4.443   2.229
 4704TIP3   OH214117   4.437   2.992   4.715
 4704TIP3    H114118   4.505   3.046   4.755
 4704TIP3    H214119   4.418   2.926   4.782
 4705TIP3   OH214120   6.066   1.154   3.809
 4705TIP3    H114121   6.141   1.129   3.754
 4705TIP3    H214122   6.050   1.246   3.789
 4706TIP3   OH214123   2.505   2.134   1.520
 4706TIP3    H114124   2.473   2.220   1.496
 4706TIP3    H214125   2.467   2.116   1.606
 4707TIP3   OH214126  -0.007   2.286   3.147
 4707TIP3    H114127   0.001   2.234   3.227
 4707TIP3    H214128   0.060   2.251   3.088
 4708TIP3   OH214129   4.600   0.556   1.459
 4708TIP3    H114130   4.653   0.508   1.522
 4708TIP3    H214131   4.560   0.627   1.510
 4709TIP3   OH214132   1.122   2.345   0.982
 4709TIP3    H114133   1.089   2.395   1.056
 4709TIP3    H214134   1.052   2.282   0.961
 4710TIP3   OH214135   5.366   0.162   3.930
 4710TIP3    H114136   5.306   0.152   3.856
 4710TIP3    H214137   5.454   0.159   3.890
 4711TIP3   OH214138   3.922   3.162   4.779
 4711TIP3    H114139   4.005   3.116   4.767
 4711TIP3    H214140   3.936   3.216   4.857
 4712TIP3   OH214141   6.328   3.960   3.878
 4712TIP3    H114142   6.268   3.892   3.908
 4712TIP3    H214143   6.407   3.913   3.851
 4713TIP3   OH214144   3.896   4.462   0.754
 4713TIP3    H114145   3.863   4.465   0.843
 4713TIP3    H214146   3.869   4.377   0.720
 4714TIP3   OH214147   2.202   5.551   0.088
 4714TIP3    H114148   2.286   5.523   0.125
 4714TIP3    H214149   2.216   5.550  -0.006
 4715TIP3   OH214150   2.434   2.120   4.516
 4715TIP3    H114151   2.434   2.027   4.493
 4715TIP3    H214152   2.355   2.132   4.568
 4716TIP3   OH214153   2.158   3.999   4.826
 4716TIP3    H114154   2.136   4.092   4.822
 4716TIP3    H214155   2.249   3.997   4.857
 4717TIP3   OH214156   5.332   2.983   1.768
 4717TIP3    H114157   5.350   2.943   1.683
 4717TIP3    H214158   5.392   3.058   1.772
 4718TIP3   OH214159   5.034   2.665   4.407
 4718TIP3    H114160   5.039   2.759   4.425
 4718TIP3    H214161   5.010   2.659   4.314
 4719TIP3   OH214162   4.782   5.910   2.940
 4719TIP3    H114163   4.746   5.969   3.006
 4719TIP3    H214164   4.707   5.860   2.908
 4720TIP3   OH214165   0.842   5.537   3.627
 4720TIP3    H114166   0.787   5.562   3.701
 4720TIP3    H214167   0.780   5.526   3.554
 4721TIP3   OH214168   4.106   5.043   2.826
 4721TIP3    H114169   4.036   4.994   2.867
 4721TIP3    H214170   4.075   5.060   2.737
 4722TIP3   OH214171   2.710   5.529   1.004
 4722TIP3    H114172   2.802   5.550   0.986
 4722TIP3    H214173   2.679   5.603   1.056
 4723TIP3   OH214174   4.855   5.532   2.601
 4723TIP3    H114175   4.943   5.569   2.597
 4723TIP3    H214176   4.829   5.542   2.692
 4724TIP3   OH214177   1.032   2.295   1.935
 4724TIP3    H114178   1.050   2.289   1.841
 4724TIP3    H214179   1.117   2.280   1.976
 4725TIP3   OH214180   4.600   3.047   4.923
 4725TIP3    H114181   4.691   3.017   4.930
 4725TIP3    H214182   4.549   2.976   4.962
 4726TIP3   OH214183   6.064   3.529   2.022
 4726TIP3    H114184   6.130   3.546   2.090
 4726TIP3    H214185   5.983   3.567   2.057
 4727TIP3   OH214186   2.370   4.431   3.492
 4727TIP3    H114187   2.409   4.345   3.475
 4727TIP3    H214188   2.378   4.443   3.587
 4728TIP3   OH214189   1.762   1.386   1.335
 4728TIP3    H114190   1.692   1.357   1.276
 4728TIP3    H214191   1.829   1.318   1.327
 4729TIP3   OH214192   4.801   2.753   3.601
 4729TIP3    H114193   4.750   2.722   3.676
 4729TIP3    H214194   4.805   2.677   3.542
 4730TIP3   OH214195   4.349   2.123   1.700
 4730TIP3    H114196   4.306   2.146   1.618
 4730TIP3    H214197   4.341   2.201   1.754
 4731TIP3   OH214198   2.483   4.361   4.866
 4731TIP3    H114199   2.529   4.423   4.808
 4731TIP3    H214200   2.400   4.404   4.886
 4732TIP3   OH214201   5.606   2.991   4.926
 4732TIP3    H114202   5.655   2.958   4.851
 4732TIP3    H214203   5.654   2.959   5.002
 4733TIP3   OH214204   3.362   4.377   1.574
 4733TIP3    H114205   3.289   4.380   1.635
 4733TIP3    H214206   3.420   4.310   1.610
 4734TIP3   OH214207   1.180   3.353   1.918
 4734TIP3    H114208   1.237   3.277   1.926
 4734TIP3    H214209   1.221   3.421   1.971
 4735TIP3   OH214210   2.286   0.157   1.548
 4735TIP3    H114211   2.275   0.112   1.464
 4735TIP3    H214212   2.371   0.200   1.540
 4736TIP3   OH214213   4.263   5.408   3.726
 4736TIP3    H114214   4.317   5.342   3.682
 4736TIP3    H214215   4.260   5.481   3.664
 4737TIP3   OH214216   5.313   4.508   2.648
 4737TIP3    H114217   5.388   4.448   2.648
 4737TIP3    H214218   5.283   4.509   2.558
 4738TIP3   OH214219   2.994   1.866   2.002
 4738TIP3    H114220   3.041   1.793   1.961
 4738TIP3    H214221   3.020   1.943   1.951
 4739TIP3   OH214222   0.602   2.124   4.534
 4739TIP3    H114223   0.558   2.209   4.537
 4739TIP3    H214224   0.672   2.136   4.470
 4740TIP3   OH214225   0.175   2.194   0.334
 4740TIP3    H114226   0.115   2.161   0.400
 4740TIP3    H214227   0.251   2.224   0.384
 4741TIP3   OH214228   0.123   4.064   2.728
 4741TIP3    H114229   0.056   4.115   2.774
 4741TIP3    H214230   0.112   3.975   2.760
 4742TIP3   OH214231   1.114   0.772   4.678
 4742TIP3    H114232   1.125   0.847   4.735
 4742TIP3    H214233   1.150   0.698   4.728
 4743TIP3   OH214234   3.576   5.031   4.652
 4743TIP3    H114235   3.583   4.967   4.581
 4743TIP3    H214236   3.524   4.986   4.719
 4744TIP3   OH214237   5.835   0.215   4.529
 4744TIP3    H114238   5.839   0.120   4.534
 4744TIP3    H214239   5.869   0.236   4.442
 4745TIP3   OH214240   0.346   2.549   3.405
 4745TIP3    H114241   0.370   2.479   3.465
 4745TIP3    H214242   0.413   2.616   3.417
 4746TIP3   OH214243   0.587   2.294   2.971
 4746TIP3    H114244   0.680   2.312   2.979
 4746TIP3    H214245   0.582   2.206   2.935
 4747TIP3   OH214246   0.170   3.587   4.195
 4747TIP3    H114247   0.099   3.641   4.163
 4747TIP3    H214248   0.163   3.505   4.145
 4748TIP3   OH214249   5.536   0.886   0.417
 4748TIP3    H114250   5.516   0.853   0.330
 4748TIP3    H214251   5.463   0.855   0.472
 4749TIP3   OH214252   5.648   2.690   0.254
 4749TIP3    H114253   5.696   2.693   0.337
 4749TIP3    H214254   5.592   2.767   0.255
 4750TIP3   OH214255   2.248   0.073   0.104
 4750TIP3    H114256   2.194   0.148   0.078
 4750TIP3    H214257   2.185   0.008   0.136
 4751TIP3   OH214258   4.431   2.691   1.270
 4751TIP3    H114259   4.465   2.766   1.318
 4751TIP3    H214260   4.504   2.629   1.269
 4752TIP3   OH214261   4.153   1.273   2.854
 4752TIP3    H114262   4.075   1.238   2.812
 4752TIP3    H214263   4.218   1.203   2.845
 4753TIP3   OH214264   1.763   4.244   4.697
 4753TIP3    H114265   1.802   4.270   4.613
 4753TIP3    H214266   1.743   4.151   4.686
 4754TIP3   OH214267   2.213   2.162   4.711
 4754TIP3    H114268   2.244   2.141   4.799
 4754TIP3    H214269   2.125   2.123   4.707
 4755TIP3   OH214270   1.391   1.963   0.858
 4755TIP3    H114271   1.429   1.987   0.773
 4755TIP3    H214272   1.453   1.997   0.922
 4756TIP3   OH214273   4.779   3.307   0.423
 4756TIP3    H114274   4.785   3.359   0.343
 4756TIP3    H214275   4.690   3.323   0.455
 4757TIP3   OH214276   2.814   3.770   3.771
 4757TIP3    H114277   2.873   3.827   3.821
 4757TIP3    H214278   2.872   3.705   3.731
 4758TIP3   OH214279   3.583   1.696   4.792
 4758TIP3    H114280   3.580   1.670   4.700
 4758TIP3    H214281   3.551   1.786   4.793
 4759TIP3   OH214282   4.373   2.452   4.332
 4759TIP3    H114283   4.408   2.400   4.404
 4759TIP3    H214284   4.281   2.424   4.326
 4760TIP3   OH214285   0.328   0.298   2.950
 4760TIP3    H114286   0.411   0.311   2.903
 4760TIP3    H214287   0.289   0.221   2.909
 4761TIP3   OH214288   4.696   0.961   1.582
 4761TIP3    H114289   4.757   0.889   1.600
 4761TIP3    H214290   4.648   0.932   1.505
 4762TIP3   OH214291   1.856   1.360   2.797
 4762TIP3    H114292   1.764   1.333   2.809
 4762TIP3    H214293   1.850   1.452   2.770
 4763TIP3   OH214294   0.913   5.074   3.101
 4763TIP3    H114295   0.887   4.982   3.112
 4763TIP3    H214296   0.931   5.082   3.007
 4764TIP3   OH214297   4.833   5.039   4.489
 4764TIP3    H114298   4.767   5.000   4.430
 4764TIP3    H214299   4.790   5.117   4.523
 4765TIP3   OH214300   0.706   5.530   2.270
 4765TIP3    H114301   0.651   5.519   2.348
 4765TIP3    H214302   0.772   5.461   2.278
 4766TIP3   OH214303   2.376   1.499   2.391
 4766TIP3    H114304   2.374   1.595   2.388
 4766TIP3    H214305   2.464   1.478   2.425
 4767TIP3   OH214306   3.775   2.425   3.115
 4767TIP3    H114307   3.728   2.359   3.064
 4767TIP3    H214308   3.726   2.433   3.197
 4768TIP3   OH214309   5.197   4.503   2.915
 4768TIP3    H114310   5.208   4.497   2.820
 4768TIP3    H214311   5.260   4.441   2.951
 4769TIP3   OH214312   1.787   0.404   1.558
 4769TIP3    H114313   1.757   0.495   1.557
 4769TIP3    H214314   1.861   0.404   1.619
 4770TIP3   OH214315   5.244   0.439   0.143
 4770TIP3    H114316   5.333   0.438   0.109
 4770TIP3    H214317   5.227   0.531   0.163
 4771TIP3   OH214318   3.600   5.944   1.130
 4771TIP3    H114319   3.555   5.952   1.215
 4771TIP3    H214320   3.541   5.889   1.078
 4772TIP3   OH214321   5.854   5.871   4.159
 4772TIP3    H114322   5.801   5.891   4.081
 4772TIP3    H214323   5.789   5.853   4.227
 4773TIP3   OH214324   4.588   4.263   4.873
 4773TIP3    H114325   4.668   4.306   4.844
 4773TIP3    H214326   4.609   4.170   4.876
 4774TIP3   OH214327   0.991   0.876   1.925
 4774TIP3    H114328   1.015   0.919   1.843
 4774TIP3    H214329   0.969   0.948   1.984
 4775TIP3   OH214330   3.070   1.356   4.711
 4775TIP3    H114331   3.093   1.266   4.688
 4775TIP3    H214332   2.975   1.357   4.710
 4776TIP3   OH214333   3.456   1.421   0.827
 4776TIP3    H114334   3.479   1.511   0.850
 4776TIP3    H214335   3.361   1.419   0.831
 4777TIP3   OH214336   1.139   4.240   0.326
 4777TIP3    H114337   1.063   4.212   0.275
 4777TIP3    H214338   1.146   4.334   0.310
 4778TIP3   OH214339   0.183   2.132   1.584
 4778TIP3    H114340   0.241   2.151   1.658
 4778TIP3    H214341   0.189   2.037   1.572
 4779TIP3   OH214342   3.833   3.220   2.831
 4779TIP3    H114343   3.869   3.137   2.861
 4779TIP3    H214344   3.876   3.237   2.748
 4780TIP3   OH214345   2.681   2.044   2.740
 4780TIP3    H114346   2.720   2.077   2.659
 4780TIP3    H214347   2.655   1.954   2.718
 4781TIP3   OH214348   0.101   2.657   1.615
 4781TIP3    H114349   0.045   2.579   1.617
 4781TIP3    H214350   0.082   2.701   1.698
 4782TIP3   OH214351   4.043   0.024   2.586
 4782TIP3    H114352   4.051   0.061   2.674
 4782TIP3    H214353   3.993   0.089   2.537
 4783TIP3   OH214354   3.165   5.185   2.068
 4783TIP3    H114355   3.106   5.250   2.030
 4783TIP3    H214356   3.252   5.224   2.060
 4784TIP3   OH214357   3.889   4.848   3.626
 4784TIP3    H114358   3.972   4.838   3.579
 4784TIP3    H214359   3.835   4.902   3.568
 4785TIP3   OH214360   1.880   0.965   4.123
 4785TIP3    H114361   1.915   0.977   4.211
 4785TIP3    H214362   1.887   1.052   4.082
 4786TIP3   OH214363   2.326   5.224   2.887
 4786TIP3    H114364   2.290   5.144   2.847
 4786TIP3    H214365   2.249   5.272   2.917
 4787TIP3   OH214366   3.866   3.965   0.928
 4787TIP3    H114367   3.860   3.993   1.020
 4787TIP3    H214368   3.947   4.006   0.897
 4788TIP3   OH214369   4.039   2.784   1.908
 4788TIP3    H114370   4.029   2.778   1.813
 4788TIP3    H214371   3.955   2.816   1.939
 4789TIP3   OH214372   4.794   2.381   0.436
 4789TIP3    H114373   4.830   2.330   0.509
 4789TIP3    H214374   4.701   2.357   0.434
 4790TIP3   OH214375   4.408   5.327   4.461
 4790TIP3    H114376   4.408   5.235   4.489
 4790TIP3    H214377   4.316   5.347   4.446
 4791TIP3   OH214378   5.873   3.087   2.671
 4791TIP3    H114379   5.915   3.164   2.633
 4791TIP3    H214380   5.945   3.036   2.710
 4792TIP3   OH214381   2.637   4.588   4.472
 4792TIP3    H114382   2.565   4.650   4.480
 4792TIP3    H214383   2.675   4.606   4.386
 4793TIP3   OH214384   5.552   4.464   2.946
 4793TIP3    H114385   5.638   4.503   2.966
 4793TIP3    H214386   5.490   4.517   2.995
 4794TIP3   OH214387   4.505   1.977   3.610
 4794TIP3    H114388   4.443   1.953   3.541
 4794TIP3    H214389   4.580   1.918   3.597
 4795TIP3   OH214390   0.232   5.206   0.748
 4795TIP3    H114391   0.233   5.112   0.762
 4795TIP3    H214392   0.247   5.217   0.654
 4796TIP3   OH214393   0.672   0.814   4.659
 4796TIP3    H114394   0.757   0.771   4.670
 4796TIP3    H214395   0.611   0.755   4.703
 4797TIP3   OH214396   0.994   1.529   2.976
 4797TIP3    H114397   0.934   1.475   2.924
 4797TIP3    H214398   1.023   1.597   2.915
 4798TIP3   OH214399   0.953   3.790   2.426
 4798TIP3    H114400   1.006   3.746   2.359
 4798TIP3    H214401   1.012   3.854   2.465
 4799TIP3   OH214402   5.830   1.436   0.928
 4799TIP3    H114403   5.854   1.367   0.990
 4799TIP3    H214404   5.893   1.427   0.856
 4800TIP3   OH214405   5.325   4.294   3.031
 4800TIP3    H114406   5.308   4.314   3.123
 4800TIP3    H214407   5.413   4.331   3.015
 4801TIP3   OH214408   4.939   4.671   3.726
 4801TIP3    H114409   4.852   4.666   3.766
 4801TIP3    H214410   4.999   4.675   3.800
 4802TIP3   OH214411   5.633   0.110   0.653
 4802TIP3    H114412   5.587   0.148   0.578
 4802TIP3    H214413   5.690   0.180   0.684
 4803TIP3   OH214414   5.254   1.510   3.256
 4803TIP3    H114415   5.201   1.466   3.190
 4803TIP3    H214416   5.340   1.470   3.249
 4804TIP3   OH214417   0.334   4.656   3.837
 4804TIP3    H114418   0.278   4.689   3.907
 4804TIP3    H214419   0.274   4.614   3.775
 4805TIP3   OH214420   0.428   5.518   2.430
 4805TIP3    H114421   0.408   5.584   2.363
 4805TIP3    H214422   0.417   5.564   2.513
 4806TIP3   OH214423   2.469   0.467   3.491
 4806TIP3    H114424   2.462   0.426   3.405
 4806TIP3    H214425   2.553   0.512   3.490
 4807TIP3   OH214426   4.606   3.502   5.127
 4807TIP3    H114427   4.660   3.510   5.206
 4807TIP3    H214428   4.624   3.413   5.095
 4808TIP3   OH214429   3.110   3.472   0.757
 4808TIP3    H114430   3.032   3.466   0.812
 4808TIP3    H214431   3.156   3.389   0.773
 4809TIP3   OH214432   3.475   1.867   3.723
 4809TIP3    H114433   3.388   1.859   3.683
 4809TIP3    H214434   3.502   1.957   3.703
 4810TIP3   OH214435   3.524   3.497   2.790
 4810TIP3    H114436   3.455   3.563   2.794
 4810TIP3    H214437   3.500   3.441   2.716
 4811TIP3   OH214438   4.575   5.269   2.284
 4811TIP3    H114439   4.647   5.317   2.243
 4811TIP3    H214440   4.534   5.221   2.211
 4812TIP3   OH214441   4.305   2.965   2.023
 4812TIP3    H114442   4.223   3.000   1.988
 4812TIP3    H214443   4.372   3.025   1.992
 4813TIP3   OH214444   1.514   4.844   1.160
 4813TIP3    H114445   1.460   4.839   1.239
 4813TIP3    H214446   1.500   4.932   1.126
 4814TIP3   OH214447   0.202   3.802   2.435
 4814TIP3    H114448   0.250   3.761   2.363
 4814TIP3    H214449   0.218   3.745   2.510
 4815TIP3   OH214450   4.472   3.582   3.685
 4815TIP3    H114451   4.492   3.665   3.641
 4815TIP3    H214452   4.495   3.515   3.622
 4816TIP3   OH214453   0.849   3.636   0.063
 4816TIP3    H114454   0.922   3.648   0.124
 4816TIP3    H214455   0.843   3.720   0.017
 4817TIP3   OH214456   0.212   0.746   3.754
 4817TIP3    H114457   0.139   0.702   3.712
 4817TIP3    H214458   0.177   0.832   3.780
 4818TIP3   OH214459   6.045   0.158   1.701
 4818TIP3    H114460   6.130   0.188   1.732
 4818TIP3    H214461   6.031   0.207   1.620
 4819TIP3   OH214462   2.919   2.245   1.171
 4819TIP3    H114463   2.920   2.223   1.078
 4819TIP3    H214464   2.909   2.161   1.215
 4820TIP3   OH214465   5.994   2.606   4.931
 4820TIP3    H114466   5.982   2.620   4.837
 4820TIP3    H214467   5.909   2.574   4.962
 4821TIP3   OH214468   4.734  -0.001   0.683
 4821TIP3    H114469   4.813   0.053   0.683
 4821TIP3    H214470   4.717  -0.019   0.591
 4822TIP3   OH214471   2.880   3.906   0.313
 4822TIP3    H114472   2.807   3.924   0.372
 4822TIP3    H214473   2.954   3.890   0.372
 4823TIP3   OH214474   3.764   0.220   1.273
 4823TIP3    H114475   3.760   0.287   1.205
 4823TIP3    H214476   3.830   0.252   1.334
 4824TIP3   OH214477   6.145   2.580   2.770
 4824TIP3    H114478   6.125   2.618   2.685
 4824TIP3    H214479   6.240   2.591   2.780
 4825TIP3   OH214480   3.303   3.640   0.880
 4825TIP3    H114481   3.239   3.612   0.814
 4825TIP3    H214482   3.377   3.673   0.829
 4826TIP3   OH214483   2.980   0.779   3.963
 4826TIP3    H114484   2.907   0.734   4.006
 4826TIP3    H214485   3.018   0.714   3.905
 4827TIP3   OH214486   2.903   0.321   1.513
 4827TIP3    H114487   2.880   0.362   1.596
 4827TIP3    H214488   2.998   0.329   1.508
 4828TIP3   OH214489   4.866   2.153   1.979
 4828TIP3    H114490   4.819   2.230   1.946
 4828TIP3    H214491   4.813   2.122   2.052
 4829TIP3   OH214492   2.469   2.182   2.461
 4829TIP3    H114493   2.523   2.120   2.412
 4829TIP3    H214494   2.383   2.140   2.467
 4830TIP3   OH214495   2.882   5.693   3.555
 4830TIP3    H114496   2.837   5.773   3.528
 4830TIP3    H214497   2.817   5.646   3.608
 4831TIP3   OH214498   2.898   4.574   1.652
 4831TIP3    H114499   2.886   4.519   1.729
 4831TIP3    H214500   2.946   4.650   1.684
 4832TIP3   OH214501   0.758   2.715   4.686
 4832TIP3    H114502   0.704   2.780   4.641
 4832TIP3    H214503   0.764   2.747   4.776
 4833TIP3   OH214504   1.588   5.955   4.148
 4833TIP3    H114505   1.498   5.925   4.145
 4833TIP3    H214506   1.640   5.875   4.149
 4834TIP3   OH214507   0.727   4.081   3.198
 4834TIP3    H114508   0.754   4.019   3.266
 4834TIP3    H214509   0.766   4.046   3.118
 4835TIP3   OH214510   0.699   5.220   3.267
 4835TIP3    H114511   0.783   5.242   3.227
 4835TIP3    H214512   0.661   5.156   3.207
 4836TIP3   OH214513   0.575   4.979   2.635
 4836TIP3    H114514   0.608   4.889   2.626
 4836TIP3    H214515   0.510   4.973   2.705
 4837TIP3   OH214516   4.564   2.820   3.042
 4837TIP3    H114517   4.613   2.873   3.105
 4837TIP3    H214518   4.476   2.814   3.079
 4838TIP3   OH214519   2.811   0.075   3.916
 4838TIP3    H114520   2.813   0.169   3.930
 4838TIP3    H214521   2.852   0.038   3.994
 4839TIP3   OH214522   4.486   2.588   4.756
 4839TIP3    H114523   4.395   2.561   4.742
 4839TIP3    H214524   4.536   2.507   4.750
 4840TIP3   OH214525   4.033   3.936   3.205
 4840TIP3    H114526   4.022   4.025   3.172
 4840TIP3    H214527   4.040   3.947   3.300
 4841TIP3   OH214528   4.443   0.422   2.512
 4841TIP3    H114529   4.456   0.362   2.439
 4841TIP3    H214530   4.429   0.365   2.588
 4842TIP3   OH214531   0.655   1.728   0.091
 4842TIP3    H114532   0.654   1.777   0.174
 4842TIP3    H214533   0.745   1.697   0.083
 4843TIP3   OH214534   3.103   4.232   4.680
 4843TIP3    H114535   3.178   4.193   4.635
 4843TIP3    H214536   3.040   4.253   4.611
 4844TIP3   OH214537   5.889   2.622   1.529
 4844TIP3    H114538   5.957   2.589   1.587
 4844TIP3    H214539   5.936   2.674   1.464
 4845TIP3   OH214540   2.381   3.098   1.880
 4845TIP3    H114541   2.305   3.057   1.840
 4845TIP3    H214542   2.412   3.162   1.815
 4846TIP3   OH214543   4.901   4.046   2.562
 4846TIP3    H114544   4.837   3.998   2.509
 4846TIP3    H214545   4.971   3.982   2.578
 4847TIP3   OH214546   4.535   5.313   2.561
 4847TIP3    H114547   4.472   5.258   2.608
 4847TIP3    H214548   4.534   5.279   2.471
 4848TIP3   OH214549   5.549   3.864   4.172
 4848TIP3    H114550   5.475   3.924   4.178
 4848TIP3    H214551   5.613   3.897   4.235
 4849TIP3   OH214552   3.894   5.873   4.297
 4849TIP3    H114553   3.976   5.900   4.337
 4849TIP3    H214554   3.845   5.831   4.368
 4850TIP3   OH214555   4.187   1.946   4.124
 4850TIP3    H114556   4.192   1.850   4.127
 4850TIP3    H214557   4.179   1.966   4.031
 4851TIP3   OH214558   4.267   2.845   2.261
 4851TIP3    H114559   4.194   2.900   2.290
 4851TIP3    H214560   4.278   2.867   2.169
 4852TIP3   OH214561   4.954   3.762   1.868
 4852TIP3    H114562   5.021   3.801   1.925
 4852TIP3    H214563   5.003   3.703   1.811
 4853TIP3   OH214564   4.765   1.123   2.847
 4853TIP3    H114565   4.852   1.101   2.812
 4853TIP3    H214566   4.753   1.215   2.824
 4854TIP3   OH214567   3.695   5.273   3.701
 4854TIP3    H114568   3.692   5.191   3.651
 4854TIP3    H214569   3.617   5.269   3.756
 4855TIP3   OH214570   1.612   0.702   3.906
 4855TIP3    H114571   1.558   0.745   3.973
 4855TIP3    H214572   1.566   0.620   3.886
 4856TIP3   OH214573   2.260   2.411   1.014
 4856TIP3    H114574   2.330   2.473   1.033
 4856TIP3    H214575   2.289   2.367   0.934
 4857TIP3   OH214576   6.092   1.408   3.701
 4857TIP3    H114577   6.147   1.481   3.731
 4857TIP3    H214578   6.030   1.448   3.640
 4858TIP3   OH214579   5.718   0.153   1.428
 4858TIP3    H114580   5.700   0.226   1.488
 4858TIP3    H214581   5.810   0.130   1.446
 4859TIP3   OH214582   0.986   0.276   4.904
 4859TIP3    H114583   1.019   0.349   4.957
 4859TIP3    H214584   0.960   0.317   4.822
 4860TIP3   OH214585   0.045   2.577   3.433
 4860TIP3    H114586   0.137   2.566   3.411
 4860TIP3    H214587   0.001   2.591   3.349
 4861TIP3   OH214588   0.131   3.414   3.961
 4861TIP3    H114589   0.057   3.469   3.937
 4861TIP3    H214590   0.107   3.326   3.930
 4862TIP3   OH214591   1.530   1.798   3.024
 4862TIP3    H114592   1.450   1.851   3.022
 4862TIP3    H214593   1.595   1.850   2.977
 4863TIP3   OH214594   6.205   1.460   2.998
 4863TIP3    H114595   6.131   1.476   2.940
 4863TIP3    H214596   6.262   1.401   2.949
 4864TIP3   OH214597   2.073   0.281   0.059
 4864TIP3    H114598   2.057   0.364   0.104
 4864TIP3    H214599   2.049   0.298  -0.032
 4865TIP3   OH214600   4.315   1.708   3.985
 4865TIP3    H114601   4.220   1.713   3.973
 4865TIP3    H214602   4.347   1.796   3.964
 4866TIP3   OH214603   4.354   5.209   3.196
 4866TIP3    H114604   4.263   5.218   3.225
 4866TIP3    H214605   4.381   5.124   3.230
 4867TIP3   OH214606   2.430   5.470   5.185
 4867TIP3    H114607   2.390   5.556   5.176
 4867TIP3    H214608   2.502   5.470   5.121
 4868TIP3   OH214609   0.307   4.774   1.636
 4868TIP3    H114610   0.317   4.868   1.620
 4868TIP3    H214611   0.333   4.762   1.727
 4869TIP3   OH214612   4.012   5.029   4.887
 4869TIP3    H114613   3.998   5.059   4.977
 4869TIP3    H214614   4.106   5.015   4.880
 4870TIP3   OH214615   5.810   2.474   2.338
 4870TIP3    H114616   5.871   2.510   2.402
 4870TIP3    H214617   5.758   2.410   2.386
 4871TIP3   OH214618   3.097   4.687   4.970
 4871TIP3    H114619   3.050   4.716   4.891
 4871TIP3    H214620   3.095   4.592   4.965
 4872TIP3   OH214621   5.225   5.522   2.296
 4872TIP3    H114622   5.308   5.527   2.343
 4872TIP3    H214623   5.208   5.428   2.286
 4873TIP3   OH214624   4.118   0.512   3.220
 4873TIP3    H114625   4.212   0.527   3.212
 4873TIP3    H214626   4.100   0.517   3.314
 4874TIP3   OH214627   3.482   5.339   0.119
 4874TIP3    H114628   3.484   5.276   0.047
 4874TIP3    H214629   3.436   5.415   0.082
 4875TIP3   OH214630   1.684   5.448   1.273
 4875TIP3    H114631   1.779   5.444   1.266
 4875TIP3    H214632   1.656   5.489   1.191
 4876TIP3   OH214633   1.247   2.522   4.202
 4876TIP3    H114634   1.193   2.546   4.277
 4876TIP3    H214635   1.184   2.503   4.132
 4877TIP3   OH214636   0.547   5.342   1.581
 4877TIP3    H114637   0.456   5.364   1.602
 4877TIP3    H214638   0.592   5.426   1.575
 4878TIP3   OH214639   0.317   5.244   0.481
 4878TIP3    H114640   0.407   5.273   0.495
 4878TIP3    H214641   0.321   5.188   0.403
 4879TIP3   OH214642   0.019   5.853   1.556
 4879TIP3    H114643   0.070   5.817   1.629
 4879TIP3    H214644  -0.065   5.876   1.594
 4880TIP3   OH214645   3.831   3.792   2.224
 4880TIP3    H114646   3.876   3.874   2.202
 4880TIP3    H214647   3.850   3.734   2.150
 4881TIP3   OH214648   2.815   0.951   4.129
 4881TIP3    H114649   2.843   1.031   4.173
 4881TIP3    H214650   2.885   0.933   4.065
 4882TIP3   OH214651   4.448   3.063   3.732
 4882TIP3    H114652   4.427   3.051   3.825
 4882TIP3    H214653   4.442   3.158   3.719
 4883TIP3   OH214654   0.798   1.112   2.378
 4883TIP3    H114655   0.754   1.088   2.459
 4883TIP3    H214656   0.845   1.032   2.353
 4884TIP3   OH214657   4.697   2.011   1.041
 4884TIP3    H114658   4.690   1.917   1.058
 4884TIP3    H214659   4.767   2.018   0.975
 4885TIP3   OH214660   4.356   1.271   4.552
 4885TIP3    H114661   4.428   1.217   4.518
 4885TIP3    H214662   4.350   1.246   4.645
 4886TIP3   OH214663   3.711   3.668   4.283
 4886TIP3    H114664   3.652   3.708   4.219
 4886TIP3    H214665   3.684   3.705   4.367
 4887TIP3   OH214666   3.153   4.916   1.886
 4887TIP3    H114667   3.074   4.959   1.854
 4887TIP3    H214668   3.198   4.983   1.938
 4888TIP3   OH214669   2.775   2.721   3.072
 4888TIP3    H114670   2.734   2.798   3.033
 4888TIP3    H214671   2.716   2.697   3.144
 4889TIP3   OH214672   5.537   4.994   4.213
 4889TIP3    H114673   5.578   5.066   4.165
 4889TIP3    H214674   5.444   5.019   4.220
 4890TIP3   OH214675   3.452   4.800   2.808
 4890TIP3    H114676   3.527   4.766   2.759
 4890TIP3    H214677   3.377   4.751   2.774
 4891TIP3   OH214678   0.385   3.414   3.458
 4891TIP3    H114679   0.385   3.469   3.380
 4891TIP3    H214680   0.442   3.460   3.520
 4892TIP3   OH214681   4.700   3.828   1.976
 4892TIP3    H114682   4.783   3.820   1.930
 4892TIP3    H214683   4.725   3.840   2.068
 4893TIP3   OH214684   0.478   1.067   2.406
 4893TIP3    H114685   0.497   0.978   2.436
 4893TIP3    H214686   0.485   1.062   2.311
 4894TIP3   OH214687   2.506   2.814   1.954
 4894TIP3    H114688   2.584   2.767   1.982
 4894TIP3    H214689   2.533   2.905   1.947
 4895TIP3   OH214690   5.495   5.361   4.788
 4895TIP3    H114691   5.422   5.379   4.848
 4895TIP3    H214692   5.453   5.337   4.705
 4896TIP3   OH214693   5.427   2.424   2.403
 4896TIP3    H114694   5.401   2.342   2.444
 4896TIP3    H214695   5.499   2.456   2.458
 4897TIP3   OH214696   0.093   3.144   1.722
 4897TIP3    H114697   0.124   3.133   1.632
 4897TIP3    H214698   0.037   3.221   1.719
 4898TIP3   OH214699   2.776   0.146   2.454
 4898TIP3    H114700   2.767   0.116   2.544
 4898TIP3    H214701   2.697   0.114   2.409
 4899TIP3   OH214702   0.598   2.933   2.406
 4899TIP3    H114703   0.546   2.909   2.330
 4899TIP3    H214704   0.548   2.901   2.481
 4900TIP3   OH214705   3.183   3.821   0.068
 4900TIP3    H114706   3.275   3.799   0.052
 4900TIP3    H214707   3.169   3.800   0.160
 4901TIP3   OH214708   1.926   2.879   3.396
 4901TIP3    H114709   1.972   2.945   3.448
 4901TIP3    H214710   1.870   2.833   3.459
 4902TIP3   OH214711   4.567   0.674   2.984
 4902TIP3    H114712   4.635   0.651   3.047
 4902TIP3    H214713   4.491   0.696   3.038
 4903TIP3   OH214714   2.822   3.523   1.624
 4903TIP3    H114715   2.754   3.457   1.619
 4903TIP3    H214716   2.775   3.606   1.635
 4904TIP3   OH214717   4.260   2.914   1.499
 4904TIP3    H114718   4.312   2.991   1.521
 4904TIP3    H214719   4.299   2.843   1.549
 4905TIP3   OH214720   2.433   1.933   4.129
 4905TIP3    H114721   2.499   1.915   4.196
 4905TIP3    H214722   2.369   1.863   4.141
 4906TIP3   OH214723   2.532   5.694   3.997
 4906TIP3    H114724   2.585   5.683   4.076
 4906TIP3    H214725   2.443   5.703   4.030
 4907TIP3   OH214726   0.958   0.351   4.607
 4907TIP3    H114727   1.045   0.314   4.595
 4907TIP3    H214728   0.914   0.336   4.523
 4908TIP3   OH214729   4.017   0.493   4.621
 4908TIP3    H114730   4.099   0.543   4.623
 4908TIP3    H214731   4.039   0.412   4.575
 4909TIP3   OH214732   6.076   3.495   1.152
 4909TIP3    H114733   6.151   3.485   1.210
 4909TIP3    H214734   6.000   3.486   1.209
 4910TIP3   OH214735   2.443   1.447   3.449
 4910TIP3    H114736   2.468   1.438   3.357
 4910TIP3    H214737   2.525   1.438   3.498
 4911TIP3   OH214738   3.618   1.222   2.493
 4911TIP3    H114739   3.650   1.135   2.470
 4911TIP3    H214740   3.687   1.282   2.463
 4912TIP3   OH214741   0.929   4.783   3.151
 4912TIP3    H114742   0.923   4.756   3.059
 4912TIP3    H214743   1.023   4.789   3.168
 4913TIP3   OH214744   6.137   4.600   4.203
 4913TIP3    H114745   6.112   4.652   4.279
 4913TIP3    H214746   6.150   4.664   4.133
 4914TIP3   OH214747   3.238   5.604   2.865
 4914TIP3    H114748   3.268   5.542   2.931
 4914TIP3    H214749   3.305   5.673   2.865
 4915TIP3   OH214750   0.796   2.460   4.227
 4915TIP3    H114751   0.780   2.526   4.159
 4915TIP3    H214752   0.789   2.509   4.310
 4916TIP3   OH214753   2.112   0.718   3.369
 4916TIP3    H114754   2.078   0.641   3.324
 4916TIP3    H214755   2.039   0.779   3.370
 4917TIP3   OH214756   2.479   5.128   5.088
 4917TIP3    H114757   2.513   5.170   5.009
 4917TIP3    H214758   2.557   5.101   5.137
 4918TIP3   OH214759   1.368   1.248   0.547
 4918TIP3    H114760   1.278   1.280   0.548
 4918TIP3    H214761   1.388   1.238   0.454
 4919TIP3   OH214762   3.183   2.382   0.593
 4919TIP3    H114763   3.140   2.355   0.512
 4919TIP3    H214764   3.253   2.441   0.565
 4920TIP3   OH214765   0.586   4.968   2.076
 4920TIP3    H114766   0.532   5.023   2.133
 4920TIP3    H214767   0.662   5.023   2.055
 4921TIP3   OH214768   5.672   5.884   4.354
 4921TIP3    H114769   5.590   5.839   4.375
 4921TIP3    H214770   5.686   5.944   4.427
 4922TIP3   OH214771   3.049   1.634   1.015
 4922TIP3    H114772   2.955   1.617   1.024
 4922TIP3    H214773   3.056   1.730   1.017
 4923TIP3   OH214774   0.846   2.018   3.694
 4923TIP3    H114775   0.810   2.054   3.775
 4923TIP3    H214776   0.814   2.077   3.626
 4924TIP3   OH214777   0.493   0.686   1.085
 4924TIP3    H114778   0.558   0.680   1.155
 4924TIP3    H214779   0.509   0.608   1.031
 4925TIP3   OH214780   3.542   0.383   2.980
 4925TIP3    H114781   3.622   0.339   3.009
 4925TIP3    H214782   3.530   0.453   3.044
 4926TIP3   OH214783   5.497   1.964   4.229
 4926TIP3    H114784   5.591   1.945   4.236
 4926TIP3    H214785   5.492   2.060   4.230
 4927TIP3   OH214786   0.359   2.355   2.815
 4927TIP3    H114787   0.409   2.342   2.735
 4927TIP3    H214788   0.425   2.358   2.884
 4928TIP3   OH214789   1.759   2.562   4.837
 4928TIP3    H114790   1.711   2.594   4.913
 4928TIP3    H214791   1.702   2.495   4.799
 4929TIP3   OH214792   4.637   3.596   0.901
 4929TIP3    H114793   4.719   3.646   0.903
 4929TIP3    H214794   4.571   3.657   0.935
 4930TIP3   OH214795   2.613   3.135   3.668
 4930TIP3    H114796   2.601   3.187   3.589
 4930TIP3    H214797   2.534   3.081   3.675
 4931TIP3   OH214798   1.799   1.067   1.452
 4931TIP3    H114799   1.814   0.973   1.461
 4931TIP3    H214800   1.734   1.075   1.382
 4932TIP3   OH214801   4.262   5.800   2.086
 4932TIP3    H114802   4.244   5.883   2.042
 4932TIP3    H214803   4.317   5.752   2.024
 4933TIP3   OH214804   5.133   5.358   4.114
 4933TIP3    H114805   5.117   5.270   4.149
 4933TIP3    H214806   5.151   5.344   4.022
 4934TIP3   OH214807   4.073   4.584   1.751
 4934TIP3    H114808   4.054   4.534   1.672
 4934TIP3    H214809   4.110   4.519   1.811
 4935TIP3   OH214810   2.533   0.493   0.231
 4935TIP3    H114811   2.519   0.399   0.242
 4935TIP3    H214812   2.537   0.528   0.320
 4936TIP3   OH214813   6.123   2.977   3.918
 4936TIP3    H114814   6.118   2.889   3.881
 4936TIP3    H214815   6.095   3.035   3.847
 4937TIP3   OH214816   0.098   0.816   0.811
 4937TIP3    H114817   0.060   0.903   0.816
 4937TIP3    H214818   0.024   0.758   0.795
 4938TIP3   OH214819   3.900   5.941   3.803
 4938TIP3    H114820   3.882   5.941   3.897
 4938TIP3    H214821   3.813   5.934   3.762
 4939TIP3   OH214822   3.057   1.251   2.300
 4939TIP3    H114823   2.999   1.175   2.299
 4939TIP3    H214824   3.142   1.217   2.271
 4940TIP3   OH214825   0.308   5.513   3.379
 4940TIP3    H114826   0.231   5.567   3.362
 4940TIP3    H214827   0.348   5.500   3.293
 4941TIP3   OH214828   4.115   1.521   0.911
 4941TIP3    H114829   4.120   1.458   0.839
 4941TIP3    H214830   4.025   1.555   0.906
 4942TIP3   OH214831   2.266   3.881   0.707
 4942TIP3    H114832   2.337   3.935   0.672
 4942TIP3    H214833   2.251   3.915   0.795
 4943TIP3   OH214834   0.383   0.215   3.385
 4943TIP3    H114835   0.447   0.250   3.447
 4943TIP3    H214836   0.315   0.177   3.441
 4944TIP3   OH214837   0.566   4.699   4.751
 4944TIP3    H114838   0.623   4.667   4.821
 4944TIP3    H214839   0.541   4.787   4.779
 4945TIP3   OH214840   3.635   2.582   4.964
 4945TIP3    H114841   3.592   2.502   4.992
 4945TIP3    H214842   3.727   2.569   4.989
 4946TIP3   OH214843   4.762   0.673   1.271
 4946TIP3    H114844   4.835   0.732   1.293
 4946TIP3    H214845   4.720   0.655   1.355
 4947TIP3   OH214846   5.525   4.350   2.632
 4947TIP3    H114847   5.609   4.385   2.663
 4947TIP3    H214848   5.548   4.288   2.564
 4948TIP3   OH214849   4.106   2.304   3.295
 4948TIP3    H114850   4.015   2.275   3.303
 4948TIP3    H214851   4.153   2.259   3.364
 4949TIP3   OH214852   2.865   4.530   0.959
 4949TIP3    H114853   2.878   4.449   0.910
 4949TIP3    H214854   2.830   4.501   1.044
 4950TIP3   OH214855   0.287   0.058   4.252
 4950TIP3    H114856   0.256   0.056   4.161
 4950TIP3    H214857   0.326  -0.029   4.266
 4951TIP3   OH214858   1.537   5.256   3.811
 4951TIP3    H114859   1.503   5.223   3.728
 4951TIP3    H214860   1.465   5.244   3.873
 4952TIP3   OH214861   5.761   2.845   2.748
 4952TIP3    H114862   5.831   2.909   2.735
 4952TIP3    H214863   5.699   2.888   2.807
 4953TIP3   OH214864   5.654   2.257   4.284
 4953TIP3    H114865   5.667   2.214   4.369
 4953TIP3    H214866   5.587   2.324   4.301
 4954TIP3   OH214867   1.117   1.272   1.542
 4954TIP3    H114868   1.208   1.258   1.568
 4954TIP3    H214869   1.122   1.337   1.472
 4955TIP3   OH214870   5.855   0.926   3.810
 4955TIP3    H114871   5.881   0.863   3.742
 4955TIP3    H214872   5.919   0.997   3.802
 4956TIP3   OH214873   3.419   1.668   0.927
 4956TIP3    H114874   3.406   1.667   1.022
 4956TIP3    H214875   3.347   1.721   0.893
 4957TIP3   OH214876   4.800   3.618   3.204
 4957TIP3    H114877   4.777   3.680   3.273
 4957TIP3    H214878   4.741   3.544   3.218
 4958TIP3   OH214879   3.229   4.176   0.951
 4958TIP3    H114880   3.246   4.270   0.963
 4958TIP3    H214881   3.145   4.174   0.905
 4959TIP3   OH214882   4.125   3.314   4.966
 4959TIP3    H114883   4.057   3.382   4.959
 4959TIP3    H214884   4.205   3.357   4.936
 4960TIP3   OH214885   0.688   3.616   1.527
 4960TIP3    H114886   0.708   3.682   1.462
 4960TIP3    H214887   0.724   3.650   1.609
 4961TIP3   OH214888   4.915   5.957   3.409
 4961TIP3    H114889   4.848   5.916   3.464
 4961TIP3    H214890   4.951   6.027   3.463
 4962TIP3   OH214891   4.339   0.504   0.805
 4962TIP3    H114892   4.408   0.467   0.861
 4962TIP3    H214893   4.258   0.491   0.855
 4963TIP3   OH214894   2.802   3.550   3.471
 4963TIP3    H114895   2.868   3.619   3.470
 4963TIP3    H214896   2.852   3.469   3.472
 4964TIP3   OH214897   4.400   3.832   3.309
 4964TIP3    H114898   4.403   3.857   3.216
 4964TIP3    H214899   4.381   3.914   3.355
 4965TIP3   OH214900   3.374   4.585   0.168
 4965TIP3    H114901   3.339   4.501   0.137
 4965TIP3    H214902   3.328   4.651   0.116
 4966TIP3   OH214903   0.601   2.007   2.888
 4966TIP3    H114904   0.594   1.919   2.926
 4966TIP3    H214905   0.694   2.016   2.867
 4967TIP3   OH214906   1.801   3.523   0.415
 4967TIP3    H114907   1.744   3.510   0.491
 4967TIP3    H214908   1.815   3.618   0.411
 4968TIP3   OH214909   5.210   5.833   2.422
 4968TIP3    H114910   5.283   5.868   2.372
 4968TIP3    H214911   5.138   5.893   2.406
 4969TIP3   OH214912   1.337   2.136   1.474
 4969TIP3    H114913   1.335   2.057   1.527
 4969TIP3    H214914   1.247   2.147   1.443
 4970TIP3   OH214915   0.588   3.529   5.150
 4970TIP3    H114916   0.568   3.590   5.221
 4970TIP3    H214917   0.613   3.586   5.077
 4971TIP3   OH214918   4.246   5.028   4.325
 4971TIP3    H114919   4.272   5.045   4.416
 4971TIP3    H214920   4.299   5.090   4.274
 4972TIP3   OH214921   4.631   1.276   3.144
 4972TIP3    H114922   4.707   1.321   3.181
 4972TIP3    H214923   4.556   1.317   3.187
 4973TIP3   OH214924   0.455   0.655   2.939
 4973TIP3    H114925   0.487   0.582   2.886
 4973TIP3    H214926   0.406   0.710   2.878
 4974TIP3   OH214927   3.017   1.630   3.370
 4974TIP3    H114928   3.062   1.569   3.429
 4974TIP3    H214929   3.086   1.689   3.340
 4975TIP3   OH214930   6.207   0.046   4.059
 4975TIP3    H114931   6.118   0.013   4.069
 4975TIP3    H214932   6.197   0.141   4.054
 4976TIP3   OH214933   3.830   1.587   3.680
 4976TIP3    H114934   3.744   1.610   3.645
 4976TIP3    H214935   3.891   1.604   3.608
 4977TIP3   OH214936   4.864   4.123   3.660
 4977TIP3    H114937   4.811   4.143   3.737
 4977TIP3    H214938   4.948   4.094   3.695
 4978TIP3   OH214939   6.038   3.200   1.207
 4978TIP3    H114940   6.113   3.203   1.267
 4978TIP3    H214941   5.971   3.252   1.250
 4979TIP3   OH214942   1.598   1.700   0.091
 4979TIP3    H114943   1.666   1.633   0.094
 4979TIP3    H214944   1.532   1.671   0.154
 4980TIP3   OH214945   1.901   6.016   3.828
 4980TIP3    H114946   1.805   6.012   3.829
 4980TIP3    H214947   1.929   5.925   3.835
 4981TIP3   OH214948   5.121   4.100   3.828
 4981TIP3    H114949   5.140   4.171   3.889
 4981TIP3    H214950   5.186   4.033   3.847
 4982TIP3   OH214951   3.203   2.032   0.121
 4982TIP3    H114952   3.189   1.979   0.042
 4982TIP3    H214953   3.186   1.972   0.194
 4983TIP3   OH214954   0.996   2.674   3.526
 4983TIP3    H114955   1.016   2.735   3.454
 4983TIP3    H214956   1.043   2.709   3.601
 4984TIP3   OH214957   2.406   2.068   3.167
 4984TIP3    H114958   2.355   2.149   3.164
 4984TIP3    H214959   2.483   2.087   3.113
 4985TIP3   OH214960   5.955   2.659   2.962
 4985TIP3    H114961   5.920   2.577   2.997
 4985TIP3    H214962   6.015   2.631   2.893
 4986TIP3   OH214963   3.293   1.807   4.687
 4986TIP3    H114964   3.286   1.898   4.717
 4986TIP3    H214965   3.299   1.814   4.592
 4987TIP3   OH214966   3.073   4.403   3.526
 4987TIP3    H114967   3.028   4.373   3.447
 4987TIP3    H214968   3.166   4.399   3.504
 4988TIP3   OH214969   5.483   1.033   3.694
 4988TIP3    H114970   5.436   0.950   3.709
 4988TIP3    H214971   5.547   1.011   3.626
 4989TIP3   OH214972   3.384   3.918   5.116
 4989TIP3    H114973   3.290   3.901   5.108
 4989TIP3    H214974   3.391   4.014   5.118
 4990TIP3   OH214975   5.811   0.272   3.968
 4990TIP3    H114976   5.795   0.330   3.894
 4990TIP3    H214977   5.795   0.325   4.045
 4991TIP3   OH214978   2.192   5.849   3.107
 4991TIP3    H114979   2.276   5.884   3.137
 4991TIP3    H214980   2.203   5.835   3.013
 4992TIP3   OH214981   2.591   3.743   3.453
 4992TIP3    H114982   2.666   3.711   3.503
 4992TIP3    H214983   2.581   3.834   3.480
 4993TIP3   OH214984   0.971   3.149   4.728
 4993TIP3    H114985   1.065   3.133   4.724
 4993TIP3    H214986   0.948   3.182   4.641
 4994TIP3   OH214987   2.842   4.286   3.986
 4994TIP3    H114988   2.933   4.272   4.013
 4994TIP3    H214989   2.800   4.324   4.063
 4995TIP3   OH214990   3.384   5.582   5.138
 4995TIP3    H114991   3.432   5.535   5.071
 4995TIP3    H214992   3.410   5.541   5.221
 4996TIP3   OH214993   0.306   3.108   4.613
 4996TIP3    H114994   0.250   3.071   4.545
 4996TIP3    H214995   0.376   3.152   4.566
 4997TIP3   OH214996   2.211   3.562   0.290
 4997TIP3    H114997   2.228   3.468   0.291
 4997TIP3    H214998   2.230   3.591   0.379
 4998TIP3   OH214999   4.795   1.835   1.586
 4998TIP3    H115000   4.803   1.844   1.681
 4998TIP3    H215001   4.705   1.861   1.566
 4999TIP3   OH215002   0.463   0.026   3.179
 4999TIP3    H115003   0.435   0.095   3.239
 4999TIP3    H215004   0.530  -0.023   3.227
 5000TIP3   OH215005   4.356   0.959   4.938
 5000TIP3    H115006   4.272   0.982   4.978
 5000TIP3    H215007   4.341   0.872   4.900
 5001TIP3   OH215008   5.928   1.934   2.528
 5001TIP3    H115009   5.926   2.025   2.499
 5001TIP3    H215010   5.842   1.899   2.505
 5002TIP3   OH215011   3.734   5.676   0.489
 5002TIP3    H115012   3.807   5.724   0.528
 5002TIP3    H215013   3.768   5.588   0.475
 5003TIP3   OH215014   4.410   1.237   1.799
 5003TIP3    H115015   4.326   1.195   1.819
 5003TIP3    H215016   4.439   1.274   1.883
 5004TIP3   OH215017   3.542   4.809   4.828
 5004TIP3    H115018   3.623   4.779   4.870
 5004TIP3    H215019   3.478   4.812   4.899
 5005TIP3   OH215020   3.487   0.770   4.810
 5005TIP3    H115021   3.554   0.788   4.876
 5005TIP3    H215022   3.499   0.839   4.745
 5006TIP3   OH215023   5.218   0.203   4.916
 5006TIP3    H115024   5.292   0.245   4.872
 5006TIP3    H215025   5.185   0.270   4.976
 5007TIP3   OH215026   2.782   4.078   2.623
 5007TIP3    H115027   2.748   4.000   2.666
 5007TIP3    H215028   2.870   4.089   2.659
 5008TIP3   OH215029   3.877   3.450   4.411
 5008TIP3    H115030   3.814   3.505   4.365
 5008TIP3    H215031   3.831   3.420   4.489
 5009TIP3   OH215032   2.850   5.019   2.707
 5009TIP3    H115033   2.783   4.953   2.692
 5009TIP3    H215034   2.834   5.050   2.797
 5010TIP3   OH215035   4.416   1.272   3.910
 5010TIP3    H115036   4.469   1.351   3.920
 5010TIP3    H215037   4.473   1.210   3.866
 5011TIP3   OH215038   6.216   1.667   4.565
 5011TIP3    H115039   6.160   1.674   4.488
 5011TIP3    H215040   6.182   1.591   4.613
 5012TIP3   OH215041   1.893   3.741   1.601
 5012TIP3    H115042   1.829   3.776   1.539
 5012TIP3    H215043   1.917   3.816   1.655
 5013TIP3   OH215044   5.767   1.101   3.356
 5013TIP3    H115045   5.760   1.125   3.263
 5013TIP3    H215046   5.789   1.182   3.401
 5014TIP3   OH215047   1.403   3.118   3.357
 5014TIP3    H115048   1.423   3.035   3.401
 5014TIP3    H215049   1.451   3.114   3.275
 5015TIP3   OH215050   1.328   0.573   0.471
 5015TIP3    H115051   1.392   0.519   0.424
 5015TIP3    H215052   1.379   0.617   0.539
 5016TIP3   OH215053   4.101   5.450   0.651
 5016TIP3    H115054   4.095   5.486   0.563
 5016TIP3    H215055   4.051   5.368   0.647
 5017TIP3   OH215056   4.108   4.654   2.440
 5017TIP3    H115057   4.076   4.720   2.501
 5017TIP3    H215058   4.177   4.698   2.390
 5018TIP3   OH215059   2.938   3.170   3.079
 5018TIP3    H115060   2.933   3.142   3.170
 5018TIP3    H215061   3.030   3.194   3.066
 5019TIP3   OH215062   6.315   0.747   1.806
 5019TIP3    H115063   6.352   0.721   1.891
 5019TIP3    H215064   6.333   0.840   1.800
 5020TIP3   OH215065   6.247   3.924   2.939
 5020TIP3    H115066   6.165   3.943   2.984
 5020TIP3    H215067   6.297   4.005   2.943
 5021TIP3   OH215068   6.140   0.698   3.956
 5021TIP3    H115069   6.061   0.736   3.994
 5021TIP3    H215070   6.114   0.610   3.929
 5022TIP3   OH215071   2.305   4.991   2.607
 5022TIP3    H115072   2.389   4.944   2.605
 5022TIP3    H215073   2.256   4.956   2.532
 5023TIP3   OH215074   6.251   2.036   4.952
 5023TIP3    H115075   6.308   1.961   4.967
 5023TIP3    H215076   6.171   2.015   5.001
 5024TIP3   OH215077   0.238   4.866   0.036
 5024TIP3    H115078   0.297   4.880   0.110
 5024TIP3    H215079   0.154   4.846   0.076
 5025TIP3   OH215080   2.104   0.309   4.928
 5025TIP3    H115081   2.015   0.288   4.955
 5025TIP3    H215082   2.148   0.224   4.922
 5026TIP3   OH215083   5.302   3.178   2.186
 5026TIP3    H115084   5.392   3.211   2.195
 5026TIP3    H215085   5.275   3.159   2.276
 5027TIP3   OH215086   4.917   1.366   0.252
 5027TIP3    H115087   5.006   1.342   0.280
 5027TIP3    H215088   4.925   1.458   0.225
 5028TIP3   OH215089   2.962   0.478   2.875
 5028TIP3    H115090   2.897   0.446   2.812
 5028TIP3    H215091   2.919   0.549   2.921
 5029TIP3   OH215092   1.631   2.255   3.265
 5029TIP3    H115093   1.714   2.240   3.220
 5029TIP3    H215094   1.657   2.283   3.353
 5030TIP3   OH215095   4.606   2.684   0.323
 5030TIP3    H115096   4.615   2.670   0.229
 5030TIP3    H215097   4.685   2.645   0.361
 5031TIP3   OH215098   4.855   1.719   3.181
 5031TIP3    H115099   4.772   1.754   3.150
 5031TIP3    H215100   4.854   1.734   3.276
 5032TIP3   OH215101   4.842   1.244   3.322
 5032TIP3    H115102   4.850   1.156   3.284
 5032TIP3    H215103   4.792   1.231   3.402
 5033TIP3   OH215104   2.541   5.029   2.277
 5033TIP3    H115105   2.568   5.088   2.347
 5033TIP3    H215106   2.570   4.943   2.305
 5034TIP3   OH215107   0.564   0.896   0.905
 5034TIP3    H115108   0.532   0.818   0.950
 5034TIP3    H215109   0.561   0.965   0.971
 5035TIP3   OH215110   0.779   4.710   0.503
 5035TIP3    H115111   0.789   4.627   0.458
 5035TIP3    H215112   0.868   4.748   0.505
 5036TIP3   OH215113   3.075   2.272   4.471
 5036TIP3    H115114   3.106   2.339   4.409
 5036TIP3    H215115   3.022   2.321   4.534
 5037TIP3   OH215116   3.604   1.673   2.328
 5037TIP3    H115117   3.549   1.666   2.406
 5037TIP3    H215118   3.572   1.604   2.271
 5038TIP3   OH215119   4.144   4.247   0.613
 5038TIP3    H115120   4.220   4.298   0.639
 5038TIP3    H215121   4.090   4.308   0.562
 5039TIP3   OH215122   6.038   2.912   2.805
 5039TIP3    H115123   6.015   2.822   2.829
 5039TIP3    H215124   6.036   2.960   2.888
 5040TIP3   OH215125   1.525   4.185   3.930
 5040TIP3    H115126   1.569   4.123   3.988
 5040TIP3    H215127   1.451   4.136   3.893
 5041TIP3   OH215128   0.636   0.409   0.636
 5041TIP3    H115129   0.708   0.432   0.578
 5041TIP3    H215130   0.565   0.382   0.578
 5042TIP3   OH215131   3.731   5.591   4.875
 5042TIP3    H115132   3.735   5.667   4.933
 5042TIP3    H215133   3.753   5.626   4.788
 5043TIP3   OH215134   4.937   1.823   0.631
 5043TIP3    H115135   4.956   1.803   0.540
 5043TIP3    H215136   4.893   1.745   0.665
 5044TIP3   OH215137   4.156   0.416   4.116
 5044TIP3    H115138   4.063   0.411   4.140
 5044TIP3    H215139   4.188   0.494   4.161
 5045TIP3   OH215140   5.435   5.561   2.470
 5045TIP3    H115141   5.523   5.549   2.506
 5045TIP3    H215142   5.410   5.650   2.494
 5046TIP3   OH215143   3.821   0.887   1.640
 5046TIP3    H115144   3.862   0.891   1.554
 5046TIP3    H215145   3.780   0.801   1.643
 5047TIP3   OH215146   1.026   0.622   3.349
 5047TIP3    H115147   1.095   0.687   3.333
 5047TIP3    H215148   1.032   0.563   3.274
 5048TIP3   OH215149   1.328   0.585   1.318
 5048TIP3    H115150   1.408   0.555   1.360
 5048TIP3    H215151   1.356   0.649   1.253
 5049TIP3   OH215152   2.702   4.388   4.206
 5049TIP3    H115153   2.739   4.475   4.219
 5049TIP3    H215154   2.683   4.356   4.294
 5050TIP3   OH215155   1.320   0.612   2.393
 5050TIP3    H115156   1.290   0.552   2.325
 5050TIP3    H215157   1.278   0.695   2.371
 5051TIP3   OH215158   4.448   1.472   0.461
 5051TIP3    H115159   4.485   1.496   0.546
 5051TIP3    H215160   4.355   1.493   0.468
 5052TIP3   OH215161   4.726   4.276   2.841
 5052TIP3    H115162   4.647   4.243   2.800
 5052TIP3    H215163   4.770   4.326   2.772
 5053TIP3   OH215164   5.186   2.106   3.383
 5053TIP3    H115165   5.192   2.017   3.347
 5053TIP3    H215166   5.242   2.104   3.461
 5054TIP3   OH215167   0.097   3.166   0.190
 5054TIP3    H115168   0.014   3.184   0.146
 5054TIP3    H215169   0.138   3.098   0.136
 5055TIP3   OH215170   4.024   0.713   2.278
 5055TIP3    H115171   4.052   0.627   2.245
 5055TIP3    H215172   4.094   0.773   2.253
 5056TIP3   OH215173   2.219   1.583   1.139
 5056TIP3    H115174   2.229   1.517   1.071
 5056TIP3    H215175   2.150   1.548   1.196
 5057TIP3   OH215176   3.603   2.504   2.036
 5057TIP3    H115177   3.522   2.479   1.992
 5057TIP3    H215178   3.578   2.521   2.126
 5058TIP3   OH215179   0.183   5.823   3.455
 5058TIP3    H115180   0.275   5.819   3.430
 5058TIP3    H215181   0.168   5.915   3.477
 5059TIP3   OH215182   1.072   2.520   4.685
 5059TIP3    H115183   1.012   2.497   4.756
 5059TIP3    H215184   1.094   2.612   4.701
 5060TIP3   OH215185   4.153   3.670   0.992
 5060TIP3    H115186   4.061   3.665   0.969
 5060TIP3    H215187   4.172   3.588   1.037
 5061TIP3   OH215188   3.412   2.557   3.127
 5061TIP3    H115189   3.478   2.618   3.159
 5061TIP3    H215190   3.357   2.540   3.203
 5062TIP3   OH215191   1.947   2.156   1.298
 5062TIP3    H115192   1.983   2.205   1.371
 5062TIP3    H215193   1.918   2.073   1.336
 5063TIP3   OH215194   2.112   5.248   0.474
 5063TIP3    H115195   2.199   5.210   0.461
 5063TIP3    H215196   2.085   5.276   0.387
 5064TIP3   OH215197   4.978   1.112   1.820
 5064TIP3    H115198   4.972   1.198   1.779
 5064TIP3    H215199   5.029   1.059   1.758
 5065TIP3   OH215200   3.275   1.626   4.886
 5065TIP3    H115201   3.277   1.639   4.792
 5065TIP3    H215202   3.362   1.596   4.909
 5066TIP3   OH215203   4.380   5.492   3.323
 5066TIP3    H115204   4.455   5.550   3.334
 5066TIP3    H215205   4.400   5.416   3.378
 5067TIP3   OH215206   0.101   1.236   2.596
 5067TIP3    H115207   0.075   1.145   2.611
 5067TIP3    H215208   0.026   1.276   2.552
 5068TIP3   OH215209   5.101   0.124   4.363
 5068TIP3    H115210   5.157   0.172   4.425
 5068TIP3    H215211   5.134   0.150   4.276
 5069TIP3   OH215212   5.702   3.589   0.208
 5069TIP3    H115213   5.790   3.606   0.176
 5069TIP3    H215214   5.689   3.495   0.194
 5070TIP3   OH215215   5.910   1.514   4.954
 5070TIP3    H115216   5.979   1.579   4.967
 5070TIP3    H215217   5.839   1.543   5.012
 5071TIP3   OH215218   2.154   1.235   0.771
 5071TIP3    H115219   2.159   1.176   0.846
 5071TIP3    H215220   2.061   1.239   0.750
 5072TIP3   OH215221   4.777   3.784   4.296
 5072TIP3    H115222   4.719   3.820   4.363
 5072TIP3    H215223   4.757   3.691   4.295
 5073TIP3   OH215224   3.658   0.486   4.403
 5073TIP3    H115225   3.727   0.433   4.443
 5073TIP3    H215226   3.612   0.526   4.477
 5074TIP3   OH215227   5.048   5.499   1.838
 5074TIP3    H115228   4.991   5.440   1.788
 5074TIP3    H215229   4.991   5.572   1.863
 5075TIP3   OH215230   3.379   1.792   2.117
 5075TIP3    H115231   3.285   1.775   2.126
 5075TIP3    H215232   3.420   1.706   2.123
 5076TIP3   OH215233   2.553   0.876   1.171
 5076TIP3    H115234   2.645   0.902   1.163
 5076TIP3    H215235   2.548   0.834   1.257
 5077TIP3   OH215236   3.009   5.840   0.584
 5077TIP3    H115237   2.934   5.798   0.625
 5077TIP3    H215238   2.972   5.893   0.513
 5078TIP3   OH215239   3.291   0.125   2.263
 5078TIP3    H115240   3.335   0.048   2.299
 5078TIP3    H215241   3.362   0.181   2.232
 5079TIP3   OH215242   3.272   1.212   3.869
 5079TIP3    H115243   3.316   1.296   3.859
 5079TIP3    H215244   3.198   1.230   3.927
 5080TIP3   OH215245   5.854   4.236   4.446
 5080TIP3    H115246   5.944   4.267   4.438
 5080TIP3    H215247   5.833   4.200   4.360
 5081TIP3   OH215248   5.411   4.547   2.172
 5081TIP3    H115249   5.443   4.482   2.234
 5081TIP3    H215250   5.472   4.621   2.180
 5082TIP3   OH215251   2.505   0.817   2.188
 5082TIP3    H115252   2.496   0.886   2.122
 5082TIP3    H215253   2.415   0.799   2.215
 5083TIP3   OH215254   2.414   4.377   0.263
 5083TIP3    H115255   2.432   4.404   0.353
 5083TIP3    H215256   2.427   4.456   0.211
 5084TIP3   OH215257   6.144   3.893   1.848
 5084TIP3    H115258   6.158   3.983   1.817
 5084TIP3    H215259   6.051   3.890   1.870
 5085TIP3   OH215260   0.133   1.224   2.108
 5085TIP3    H115261   0.220   1.229   2.147
 5085TIP3    H215262   0.103   1.315   2.105
 5086TIP3   OH215263   5.145   1.190   2.497
 5086TIP3    H115264   5.145   1.126   2.427
 5086TIP3    H215265   5.153   1.275   2.453
 5087TIP3   OH215266   0.415   5.854   2.281
 5087TIP3    H115267   0.324   5.854   2.312
 5087TIP3    H215268   0.411   5.814   2.194
 5088TIP3   OH215269   1.191   3.613   1.104
 5088TIP3    H115270   1.260   3.675   1.080
 5088TIP3    H215271   1.109   3.659   1.085
 5089TIP3   OH215272   3.123   3.700   4.777
 5089TIP3    H115273   3.173   3.641   4.721
 5089TIP3    H215274   3.039   3.655   4.791
 5090TIP3   OH215275   5.457   0.284   2.519
 5090TIP3    H115276   5.413   0.299   2.603
 5090TIP3    H215277   5.479   0.372   2.488
 5091TIP3   OH215278   4.549   3.379   0.723
 5091TIP3    H115279   4.539   3.397   0.629
 5091TIP3    H215280   4.596   3.455   0.757
 5092TIP3   OH215281   0.864   3.271   3.875
 5092TIP3    H115282   0.830   3.318   3.799
 5092TIP3    H215283   0.786   3.236   3.918
 5093TIP3   OH215284   3.687   4.112   2.486
 5093TIP3    H115285   3.733   4.175   2.431
 5093TIP3    H215286   3.754   4.079   2.546
 5094TIP3   OH215287   1.774   0.449   4.486
 5094TIP3    H115288   1.772   0.544   4.477
 5094TIP3    H215289   1.775   0.416   4.396
 5095TIP3   OH215290   0.307   4.810   0.965
 5095TIP3    H115291   0.351   4.862   1.032
 5095TIP3    H215292   0.214   4.831   0.975
 5096TIP3   OH215293   3.718   3.440   3.676
 5096TIP3    H115294   3.646   3.495   3.647
 5096TIP3    H215295   3.785   3.501   3.706
 5097TIP3   OH215296   1.017   5.012   3.557
 5097TIP3    H115297   0.960   5.055   3.620
 5097TIP3    H215298   0.964   4.940   3.522
 5098TIP3   OH215299   3.737   2.414   3.833
 5098TIP3    H115300   3.723   2.468   3.755
 5098TIP3    H215301   3.807   2.458   3.881
 5099TIP3   OH215302   2.298   5.504   4.390
 5099TIP3    H115303   2.249   5.586   4.394
 5099TIP3    H215304   2.341   5.498   4.474
 5100TIP3   OH215305   5.220   3.496   2.090
 5100TIP3    H115306   5.284   3.456   2.031
 5100TIP3    H215307   5.217   3.588   2.064
 5101TIP3   OH215308   0.493   4.070   4.351
 5101TIP3    H115309   0.516   3.982   4.382
 5101TIP3    H215310   0.564   4.126   4.381
 5102TIP3   OH215311   6.149   5.138   4.704
 5102TIP3    H115312   6.183   5.220   4.668
 5102TIP3    H215313   6.120   5.088   4.628
 5103TIP3   OH215314   2.178   2.603   3.068
 5103TIP3    H115315   2.118   2.540   3.109
 5103TIP3    H215316   2.202   2.663   3.138
 5104TIP3   OH215317   5.262   1.765   1.548
 5104TIP3    H115318   5.239   1.804   1.463
 5104TIP3    H215319   5.184   1.781   1.602
 5105TIP3   OH215320   3.434   2.500   2.323
 5105TIP3    H115321   3.447   2.414   2.283
 5105TIP3    H215322   3.418   2.481   2.415
 5106TIP3   OH215323   3.740   2.790   1.954
 5106TIP3    H115324   3.654   2.829   1.938
 5106TIP3    H215325   3.723   2.718   2.014
 5107TIP3   OH215326   1.807   1.972   0.743
 5107TIP3    H115327   1.732   2.030   0.731
 5107TIP3    H215328   1.778   1.907   0.808
 5108TIP3   OH215329   0.878   0.510   0.498
 5108TIP3    H115330   0.925   0.467   0.569
 5108TIP3    H215331   0.947   0.556   0.449
 5109TIP3   OH215332   3.903   4.631   3.203
 5109TIP3    H115333   3.894   4.617   3.108
 5109TIP3    H215334   3.874   4.548   3.241
 5110TIP3   OH215335   1.508   4.071   4.546
 5110TIP3    H115336   1.539   4.065   4.637
 5110TIP3    H215337   1.505   4.165   4.529
 5111TIP3   OH215338   0.817   3.753   3.615
 5111TIP3    H115339   0.767   3.738   3.696
 5111TIP3    H215340   0.908   3.762   3.644
 5112TIP3   OH215341   5.224   4.098   4.664
 5112TIP3    H115342   5.311   4.058   4.656
 5112TIP3    H215343   5.232   4.181   4.617
 5113TIP3   OH215344   1.797   5.375   2.967
 5113TIP3    H115345   1.782   5.359   2.873
 5113TIP3    H215346   1.738   5.447   2.988
 5114TIP3   OH215347   5.750   5.787   3.355
 5114TIP3    H115348   5.674   5.831   3.317
 5114TIP3    H215349   5.718   5.750   3.437
 5115TIP3   OH215350   0.885   4.167   0.913
 5115TIP3    H115351   0.913   4.189   1.002
 5115TIP3    H215352   0.851   4.249   0.877
 5116TIP3   OH215353   2.316   1.917   1.957
 5116TIP3    H115354   2.392   1.903   2.014
 5116TIP3    H215355   2.341   1.989   1.901
 5117TIP3   OH215356   4.616   1.715   3.589
 5117TIP3    H115357   4.671   1.638   3.572
 5117TIP3    H215358   4.532   1.678   3.618
 5118TIP3   OH215359   2.493   0.349   3.251
 5118TIP3    H115360   2.567   0.300   3.286
 5118TIP3    H215361   2.435   0.283   3.214
 5119TIP3   OH215362   5.174   4.373   0.681
 5119TIP3    H115363   5.087   4.386   0.719
 5119TIP3    H215364   5.233   4.419   0.741
 5120TIP3   OH215365   3.922   3.711   3.380
 5120TIP3    H115366   3.910   3.688   3.472
 5120TIP3    H215367   4.017   3.717   3.369
 5121TIP3   OH215368   3.044   5.159   4.637
 5121TIP3    H115369   3.110   5.094   4.658
 5121TIP3    H215370   3.092   5.228   4.592
 5122TIP3   OH215371   2.177   1.796   2.636
 5122TIP3    H115372   2.237   1.723   2.650
 5122TIP3    H215373   2.139   1.813   2.722
 5123TIP3   OH215374   5.918   5.323   4.771
 5123TIP3    H115375   5.989   5.261   4.753
 5123TIP3    H215376   5.924   5.388   4.702
 5124TIP3   OH215377   2.227   3.219   4.374
 5124TIP3    H115378   2.245   3.202   4.467
 5124TIP3    H215379   2.158   3.157   4.351
 5125TIP3   OH215380   2.459   2.466   1.810
 5125TIP3    H115381   2.394   2.488   1.743
 5125TIP3    H215382   2.423   2.502   1.891
 5126TIP3   OH215383   1.087   4.872   1.841
 5126TIP3    H115384   1.055   4.928   1.770
 5126TIP3    H215385   1.181   4.891   1.846
 5127TIP3   OH215386   2.377   0.811   3.324
 5127TIP3    H115387   2.288   0.781   3.343
 5127TIP3    H215388   2.388   0.888   3.381
 5128TIP3   OH215389   4.164   3.457   4.211
 5128TIP3    H115390   4.166   3.375   4.162
 5128TIP3    H215391   4.246   3.501   4.188
 5129TIP3   OH215392   4.250   1.100   0.596
 5129TIP3    H115393   4.325   1.115   0.538
 5129TIP3    H215394   4.285   1.107   0.684
 5130TIP3   OH215395   4.552   0.381   3.995
 5130TIP3    H115396   4.599   0.301   3.971
 5130TIP3    H215397   4.535   0.372   4.089
 5131TIP3   OH215398   5.463   0.414   1.847
 5131TIP3    H115399   5.488   0.502   1.875
 5131TIP3    H215400   5.370   0.407   1.869
 5132TIP3   OH215401   1.429   2.695   4.084
 5132TIP3    H115402   1.389   2.610   4.101
 5132TIP3    H215403   1.522   2.682   4.102
 5133TIP3   OH215404   6.141   0.463   1.974
 5133TIP3    H115405   6.093   0.481   1.893
 5133TIP3    H215406   6.083   0.406   2.024
 5134TIP3   OH215407   5.712   5.809   1.478
 5134TIP3    H115408   5.741   5.833   1.390
 5134TIP3    H215409   5.618   5.830   1.478
 5135TIP3   OH215410   1.772   0.779   3.041
 5135TIP3    H115411   1.722   0.860   3.028
 5135TIP3    H215412   1.851   0.791   2.988
 5136TIP3   OH215413   0.733   5.966   3.425
 5136TIP3    H115414   0.813   6.018   3.439
 5136TIP3    H215415   0.706   5.940   3.513
 5137TIP3   OH215416   4.058   1.988   2.545
 5137TIP3    H115417   4.080   1.943   2.626
 5137TIP3    H215418   4.134   1.977   2.489
 5138TIP3   OH215419   3.816   5.014   3.079
 5138TIP3    H115420   3.731   4.969   3.071
 5138TIP3    H215421   3.793   5.107   3.083
 5139TIP3   OH215422   1.172   5.690   2.963
 5139TIP3    H115423   1.218   5.671   2.881
 5139TIP3    H215424   1.239   5.680   3.031
 5140TIP3   OH215425   0.042   0.337   0.594
 5140TIP3    H115426   0.126   0.347   0.638
 5140TIP3    H215427   0.055   0.378   0.509
 5141TIP3   OH215428   3.545   4.173   3.097
 5141TIP3    H115429   3.552   4.113   3.023
 5141TIP3    H215430   3.478   4.236   3.071
 5142TIP3   OH215431   0.236   2.205   4.389
 5142TIP3    H115432   0.286   2.273   4.434
 5142TIP3    H215433   0.158   2.193   4.443
 5143TIP3   OH215434   1.264   3.270   3.516
 5143TIP3    H115435   1.334   3.235   3.461
 5143TIP3    H215436   1.236   3.350   3.470
 5144TIP3   OH215437   1.523   0.340   1.178
 5144TIP3    H115438   1.618   0.337   1.189
 5144TIP3    H215439   1.490   0.277   1.242
 5145TIP3   OH215440   0.766   4.599   4.213
 5145TIP3    H115441   0.711   4.646   4.150
 5145TIP3    H215442   0.735   4.628   4.299
 5146TIP3   OH215443   2.635   0.398   0.927
 5146TIP3    H115444   2.553   0.356   0.901
 5146TIP3    H215445   2.610   0.487   0.950
 5147TIP3   OH215446   1.879   4.920   5.061
 5147TIP3    H115447   1.829   4.944   4.983
 5147TIP3    H215448   1.913   5.003   5.095
 5148TIP3   OH215449   4.790   3.472   2.746
 5148TIP3    H115450   4.842   3.510   2.817
 5148TIP3    H215451   4.731   3.410   2.790
 5149TIP3   OH215452   5.566   2.805   3.419
 5149TIP3    H115453   5.654   2.806   3.383
 5149TIP3    H215454   5.549   2.713   3.439
 5150TIP3   OH215455   4.325   1.036   1.476
 5150TIP3    H115456   4.255   0.975   1.499
 5150TIP3    H215457   4.404   0.996   1.512
 5151TIP3   OH215458   0.379   3.577   4.364
 5151TIP3    H115459   0.431   3.499   4.348
 5151TIP3    H215460   0.300   3.564   4.311
 5152TIP3   OH215461   4.359   4.548   4.318
 5152TIP3    H115462   4.264   4.550   4.331
 5152TIP3    H215463   4.373   4.602   4.240
 5153TIP3   OH215464   3.084   0.366   1.100
 5153TIP3    H115465   3.062   0.451   1.136
 5153TIP3    H215466   3.002   0.334   1.061
 5154TIP3   OH215467   0.400   0.841   4.519
 5154TIP3    H115468   0.474   0.804   4.566
 5154TIP3    H215469   0.429   0.845   4.428
 5155TIP3   OH215470   1.545   5.756   1.396
 5155TIP3    H115471   1.605   5.782   1.467
 5155TIP3    H215472   1.597   5.762   1.317
 5156TIP3   OH215473   2.622   3.305   3.452
 5156TIP3    H115474   2.681   3.375   3.481
 5156TIP3    H215475   2.566   3.346   3.387
 5157TIP3   OH215476   4.423   5.043   4.560
 5157TIP3    H115477   4.371   4.978   4.607
 5157TIP3    H215478   4.491   4.992   4.516
 5158TIP3   OH215479   3.945   3.928   0.263
 5158TIP3    H115480   3.964   3.870   0.337
 5158TIP3    H215481   3.884   3.993   0.299
 5159TIP3   OH215482   3.675   1.428   2.954
 5159TIP3    H115483   3.698   1.513   2.916
 5159TIP3    H215484   3.646   1.375   2.880
 5160TIP3   OH215485   2.870   3.109   2.818
 5160TIP3    H115486   2.898   3.118   2.908
 5160TIP3    H215487   2.938   3.056   2.776
 5161TIP3   OH215488   3.565   3.738   4.886
 5161TIP3    H115489   3.536   3.671   4.949
 5161TIP3    H215490   3.657   3.753   4.908
 5162TIP3   OH215491   2.502   0.640   0.482
 5162TIP3    H115492   2.451   0.720   0.488
 5162TIP3    H215493   2.448   0.574   0.526
 5163TIP3   OH215494   2.322   3.673   4.505
 5163TIP3    H115495   2.241   3.701   4.548
 5163TIP3    H215496   2.323   3.578   4.514
 5164TIP3   OH215497   3.325   5.661   2.286
 5164TIP3    H115498   3.394   5.716   2.322
 5164TIP3    H215499   3.285   5.714   2.217
 5165TIP3   OH215500   2.937   2.772   3.469
 5165TIP3    H115501   2.983   2.735   3.544
 5165TIP3    H215502   2.856   2.807   3.506
 5166TIP3   OH215503   0.763   0.566   1.034
 5166TIP3    H115504   0.846   0.613   1.035
 5166TIP3    H215505   0.721   0.594   0.952
 5167TIP3   OH215506   3.248   5.198   4.211
 5167TIP3    H115507   3.310   5.178   4.141
 5167TIP3    H215508   3.292   5.171   4.291
 5168TIP3   OH215509   2.205   0.827   1.507
 5168TIP3    H115510   2.216   0.733   1.492
 5168TIP3    H215511   2.176   0.862   1.423
 5169TIP3   OH215512   2.037   0.943   0.844
 5169TIP3    H115513   2.019   0.938   0.938
 5169TIP3    H215514   1.979   1.012   0.811
 5170TIP3   OH215515   2.861   0.263   0.995
 5170TIP3    H115516   2.927   0.267   0.926
 5170TIP3    H215517   2.785   0.309   0.959
 5171TIP3   OH215518   2.981   5.860   2.466
 5171TIP3    H115519   2.980   5.802   2.390
 5171TIP3    H215520   2.935   5.939   2.436
 5172TIP3   OH215521   1.548   0.913   3.454
 5172TIP3    H115522   1.475   0.962   3.491
 5172TIP3    H215523   1.620   0.927   3.516
 5173TIP3   OH215524   3.199   4.340   2.365
 5173TIP3    H115525   3.279   4.344   2.417
 5173TIP3    H215526   3.129   4.332   2.430
 5174TIP3   OH215527   2.801   0.627   4.731
 5174TIP3    H115528   2.766   0.594   4.648
 5174TIP3    H215529   2.786   0.555   4.793
 5175TIP3   OH215530   1.562   3.733   1.224
 5175TIP3    H115531   1.610   3.668   1.172
 5175TIP3    H215532   1.532   3.797   1.159
 5176TIP3   OH215533   3.751   5.882   2.809
 5176TIP3    H115534   3.758   5.887   2.904
 5176TIP3    H215535   3.806   5.808   2.784
 5177TIP3   OH215536   3.839   2.039   3.623
 5177TIP3    H115537   3.851   1.978   3.696
 5177TIP3    H215538   3.761   2.089   3.646
 5178TIP3   OH215539   4.164   0.956   0.255
 5178TIP3    H115540   4.142   0.938   0.347
 5178TIP3    H215541   4.251   0.917   0.243
 5179TIP3   OH215542   5.634   4.362   4.045
 5179TIP3    H115543   5.607   4.411   4.122
 5179TIP3    H215544   5.595   4.410   3.971
 5180TIP3   OH215545   1.132   5.771   1.169
 5180TIP3    H115546   1.061   5.809   1.117
 5180TIP3    H215547   1.100   5.684   1.194
 5181TIP3   OH215548   6.159   2.877   0.377
 5181TIP3    H115549   6.068   2.851   0.363
 5181TIP3    H215550   6.210   2.799   0.351
 5182TIP3   OH215551   6.023   1.222   2.216
 5182TIP3    H115552   5.985   1.202   2.302
 5182TIP3    H215553   6.108   1.177   2.216
 5183TIP3   OH215554   4.310   3.351   1.810
 5183TIP3    H115555   4.282   3.407   1.883
 5183TIP3    H215556   4.405   3.346   1.821
 5184TIP3   OH215557   4.273   2.741   0.770
 5184TIP3    H115558   4.307   2.665   0.816
 5184TIP3    H215559   4.197   2.707   0.721
 5185TIP3   OH215560   3.960   3.265   0.114
 5185TIP3    H115561   4.045   3.223   0.098
 5185TIP3    H215562   3.967   3.349   0.068
 5186TIP3   OH215563   0.817   2.169   3.073
 5186TIP3    H115564   0.738   2.135   3.117
 5186TIP3    H215565   0.889   2.139   3.128
 5187TIP3   OH215566   4.879   4.876   3.963
 5187TIP3    H115567   4.816   4.945   3.940
 5187TIP3    H215568   4.844   4.797   3.921
 5188TIP3   OH215569   0.993   3.087   4.042
 5188TIP3    H115570   1.010   3.139   4.121
 5188TIP3    H215571   0.988   3.152   3.972
 5189TIP3   OH215572   0.605   2.887   4.545
 5189TIP3    H115573   0.604   2.860   4.453
 5189TIP3    H215574   0.522   2.854   4.580
 5190TIP3   OH215575   4.212   0.504   0.146
 5190TIP3    H115576   4.198   0.581   0.091
 5190TIP3    H215577   4.260   0.537   0.222
 5191TIP3   OH215578   5.012   2.057   1.169
 5191TIP3    H115579   5.094   2.021   1.135
 5191TIP3    H215580   5.008   2.146   1.134
 5192TIP3   OH215581   2.515   2.533   3.613
 5192TIP3    H115582   2.609   2.524   3.598
 5192TIP3    H215583   2.495   2.471   3.684
 5193TIP3   OH215584   2.433   4.458   0.928
 5193TIP3    H115585   2.462   4.542   0.963
 5193TIP3    H215586   2.435   4.399   1.003
 5194TIP3   OH215587   2.315   4.042   2.863
 5194TIP3    H115588   2.235   3.988   2.869
 5194TIP3    H215589   2.338   4.038   2.770
 5195TIP3   OH215590   1.187   4.215   1.464
 5195TIP3    H115591   1.120   4.147   1.478
 5195TIP3    H215592   1.268   4.166   1.449
 5196TIP3   OH215593   0.073   5.190   5.134
 5196TIP3    H115594  -0.003   5.235   5.097
 5196TIP3    H215595   0.149   5.231   5.092
 5197TIP3   OH215596   1.776   0.806   3.320
 5197TIP3    H115597   1.683   0.828   3.324
 5197TIP3    H215598   1.792   0.781   3.229
 5198TIP3   OH215599   2.507   2.666   5.085
 5198TIP3    H115600   2.582   2.608   5.067
 5198TIP3    H215601   2.431   2.608   5.079
 5199TIP3   OH215602   6.310   1.912   2.021
 5199TIP3    H115603   6.269   1.909   2.108
 5199TIP3    H215604   6.265   1.844   1.971
 5200TIP3   OH215605   0.882   5.013   4.839
 5200TIP3    H115606   0.861   4.954   4.766
 5200TIP3    H215607   0.922   5.089   4.797
 5201TIP3   OH215608   4.439   1.947   3.888
 5201TIP3    H115609   4.471   1.932   3.800
 5201TIP3    H215610   4.515   1.936   3.944
 5202TIP3   OH215611   4.082   1.554   0.264
 5202TIP3    H115612   4.164   1.513   0.238
 5202TIP3    H215613   4.092   1.569   0.358
 5203TIP3   OH215614   5.439   4.171   1.046
 5203TIP3    H115615   5.449   4.189   0.953
 5203TIP3    H215616   5.528   4.154   1.077
 5204TIP3   OH215617   2.044   4.991   3.844
 5204TIP3    H115618   1.991   5.062   3.807
 5204TIP3    H215619   2.073   4.941   3.767
 5205TIP3   OH215620   5.891   5.851   0.396
 5205TIP3    H115621   5.869   5.773   0.447
 5205TIP3    H215622   5.927   5.913   0.460
 5206TIP3   OH215623   6.290   2.609   1.854
 5206TIP3    H115624   6.295   2.649   1.940
 5206TIP3    H215625   6.200   2.623   1.825
 5207TIP3   OH215626   1.591   0.552   3.138
 5207TIP3    H115627   1.598   0.515   3.226
 5207TIP3    H215628   1.618   0.643   3.149
 5208TIP3   OH215629   3.909   0.672   4.377
 5208TIP3    H115630   3.928   0.591   4.329
 5208TIP3    H215631   3.854   0.723   4.317
 5209TIP3   OH215632   2.611   0.878   0.883
 5209TIP3    H115633   2.704   0.863   0.899
 5209TIP3    H215634   2.572   0.790   0.887
 5210TIP3   OH215635   0.519   3.019   0.473
 5210TIP3    H115636   0.476   3.039   0.556
 5210TIP3    H215637   0.590   3.083   0.467
 5211TIP3   OH215638   4.172   3.995   2.919
 5211TIP3    H115639   4.146   3.904   2.929
 5211TIP3    H215640   4.091   4.045   2.931
 5212TIP3   OH215641   2.055   1.413   0.247
 5212TIP3    H115642   2.007   1.439   0.325
 5212TIP3    H215643   2.089   1.496   0.211
 5213TIP3   OH215644   1.863   4.442   0.592
 5213TIP3    H115645   1.860   4.513   0.528
 5213TIP3    H215646   1.918   4.375   0.551
 5214TIP3   OH215647   5.846   1.734   4.401
 5214TIP3    H115648   5.873   1.654   4.444
 5214TIP3    H215649   5.873   1.804   4.460
 5215TIP3   OH215650   5.755   1.105   1.528
 5215TIP3    H115651   5.842   1.119   1.564
 5215TIP3    H215652   5.695   1.143   1.593
 5216TIP3   OH215653   0.043   2.770   4.657
 5216TIP3    H115654   0.037   2.831   4.730
 5216TIP3    H215655   0.103   2.812   4.596
 5217TIP3   OH215656   1.554   0.491   1.833
 5217TIP3    H115657   1.569   0.485   1.928
 5217TIP3    H215658   1.603   0.569   1.806
 5218TIP3   OH215659   1.698   1.050   2.992
 5218TIP3    H115660   1.680   1.142   3.014
 5218TIP3    H215661   1.793   1.046   2.982
 5219TIP3   OH215662   4.593   2.615   2.210
 5219TIP3    H115663   4.599   2.632   2.304
 5219TIP3    H215664   4.565   2.524   2.204
 5220TIP3   OH215665   3.150   1.533   5.124
 5220TIP3    H115666   3.214   1.563   5.059
 5220TIP3    H215667   3.179   1.445   5.147
 5221TIP3   OH215668   4.984   0.091   0.458
 5221TIP3    H115669   4.914   0.042   0.414
 5221TIP3    H215670   5.040   0.121   0.386
 5222TIP3   OH215671   4.643   2.678   4.952
 5222TIP3    H115672   4.588   2.726   5.015
 5222TIP3    H215673   4.586   2.665   4.876
 5223TIP3   OH215674   1.554   3.315   3.747
 5223TIP3    H115675   1.460   3.330   3.760
 5223TIP3    H215676   1.568   3.225   3.776
 5224TIP3   OH215677   3.188   4.147   2.784
 5224TIP3    H115678   3.166   4.220   2.841
 5224TIP3    H215679   3.271   4.172   2.744
 5225TIP3   OH215680   6.051   4.443   4.721
 5225TIP3    H115681   5.969   4.402   4.749
 5225TIP3    H215682   6.041   4.453   4.626
 5226TIP3   OH215683   6.119   5.455   2.115
 5226TIP3    H115684   6.183   5.387   2.092
 5226TIP3    H215685   6.163   5.537   2.096
 5227TIP3   OH215686   5.680   4.452   2.228
 5227TIP3    H115687   5.766   4.441   2.267
 5227TIP3    H215688   5.674   4.546   2.208
 5228TIP3   OH215689   4.762   5.774   1.605
 5228TIP3    H115690   4.785   5.769   1.698
 5228TIP3    H215691   4.780   5.865   1.581
 5229TIP3   OH215692   2.818   5.469   4.391
 5229TIP3    H115693   2.867   5.396   4.355
 5229TIP3    H215694   2.727   5.452   4.364
 5230TIP3   OH215695   1.182   1.324   4.442
 5230TIP3    H115696   1.117   1.289   4.382
 5230TIP3    H215697   1.132   1.351   4.519
 5231TIP3   OH215698   1.084   4.909   4.988
 5231TIP3    H115699   1.018   4.958   4.938
 5231TIP3    H215700   1.036   4.867   5.058
 5232TIP3   OH215701   5.692   2.248   2.401
 5232TIP3    H115702   5.681   2.172   2.459
 5232TIP3    H215703   5.757   2.219   2.336
 5233TIP3   OH215704   1.761   4.846   0.996
 5233TIP3    H115705   1.834   4.824   1.055
 5233TIP3    H215706   1.686   4.859   1.054
 5234TIP3   OH215707   0.055   4.829   4.417
 5234TIP3    H115708  -0.039   4.848   4.413
 5234TIP3    H215709   0.094   4.893   4.357
 5235TIP3   OH215710   4.962   1.181   1.418
 5235TIP3    H115711   4.995   1.258   1.464
 5235TIP3    H215712   4.898   1.216   1.356
 5236TIP3   OH215713   3.937   5.149   1.287
 5236TIP3    H115714   3.929   5.225   1.230
 5236TIP3    H215715   3.897   5.077   1.238
 5237TIP3   OH215716   0.191   2.541   1.082
 5237TIP3    H115717   0.167   2.592   1.159
 5237TIP3    H215718   0.251   2.598   1.033
 5238TIP3   OH215719   1.267   1.904   1.606
 5238TIP3    H115720   1.178   1.926   1.635
 5238TIP3    H215721   1.254   1.836   1.541
 5239TIP3   OH215722   3.111   4.264   3.046
 5239TIP3    H115723   3.134   4.182   3.090
 5239TIP3    H215724   3.022   4.248   3.013
 5240TIP3   OH215725   1.482   4.570   2.287
 5240TIP3    H115726   1.429   4.628   2.232
 5240TIP3    H215727   1.497   4.621   2.366
 5241TIP3   OH215728   1.228   3.970   4.700
 5241TIP3    H115729   1.233   4.006   4.611
 5241TIP3    H215730   1.150   3.915   4.699
 5242TIP3   OH215731   1.358   4.928   1.843
 5242TIP3    H115732   1.383   5.009   1.887
 5242TIP3    H215733   1.418   4.922   1.769
 5243TIP3   OH215734   3.982   1.260   0.184
 5243TIP3    H115735   3.935   1.226   0.260
 5243TIP3    H215736   4.042   1.325   0.220
 5244TIP3   OH215737   1.038   3.108   5.173
 5244TIP3    H115738   1.105   3.173   5.152
 5244TIP3    H215739   0.967   3.126   5.111
 5245TIP3   OH215740   1.697   2.772   2.814
 5245TIP3    H115741   1.651   2.693   2.842
 5245TIP3    H215742   1.787   2.760   2.846
 5246TIP3   OH215743   2.475   5.018   3.051
 5246TIP3    H115744   2.455   5.103   3.013
 5246TIP3    H215745   2.424   4.955   3.000
 5247TIP3   OH215746   0.836   2.199   4.903
 5247TIP3    H115747   0.892   2.170   4.975
 5247TIP3    H215748   0.883   2.173   4.823
 5248TIP3   OH215749   1.969   1.060   3.018
 5248TIP3    H115750   1.985   1.017   3.102
 5248TIP3    H215751   2.028   1.016   2.957
 5249TIP3   OH215752   1.034   5.453   2.845
 5249TIP3    H115753   0.997   5.448   2.757
 5249TIP3    H215754   1.073   5.540   2.850
 5250TIP3   OH215755   1.059   4.348   2.678
 5250TIP3    H115756   1.135   4.396   2.645
 5250TIP3    H215757   1.024   4.403   2.748
 5251TIP3   OH215758   0.636   4.494   0.167
 5251TIP3    H115759   0.631   4.417   0.223
 5251TIP3    H215760   0.601   4.465   0.083
 5252TIP3   OH215761   0.069   3.781   2.149
 5252TIP3    H115762   0.122   3.711   2.112
 5252TIP3    H215763   0.132   3.848   2.175
 5253TIP3   OH215764   1.523   4.806   5.016
 5253TIP3    H115765   1.567   4.726   5.045
 5253TIP3    H215766   1.588   4.850   4.961
 5254TIP3   OH215767   5.285   2.076   1.383
 5254TIP3    H115768   5.378   2.053   1.373
 5254TIP3    H215769   5.238   1.998   1.353
 5255TIP3   OH215770   2.929   5.469   4.946
 5255TIP3    H115771   2.963   5.490   5.033
 5255TIP3    H215772   2.925   5.553   4.900
 5256TIP3   OH215773   3.272   4.157   4.170
 5256TIP3    H115774   3.253   4.115   4.087
 5256TIP3    H215775   3.218   4.236   4.171
 5257TIP3   OH215776   3.314   4.092   4.588
 5257TIP3    H115777   3.292   4.027   4.522
 5257TIP3    H215778   3.326   4.042   4.669
 5258TIP3   OH215779   3.378   5.948   0.391
 5258TIP3    H115780   3.380   5.855   0.409
 5258TIP3    H215781   3.462   5.966   0.347
 5259TIP3   OH215782   2.074   2.677   5.011
 5259TIP3    H115783   2.071   2.711   4.922
 5259TIP3    H215784   2.036   2.590   5.005
 5260TIP3   OH215785   2.355   3.982   4.549
 5260TIP3    H115786   2.330   3.890   4.539
 5260TIP3    H215787   2.382   4.009   4.461
 5261TIP3   OH215788   4.611   1.977   4.103
 5261TIP3    H115789   4.540   2.026   4.146
 5261TIP3    H215790   4.612   1.893   4.149
 5262TIP3   OH215791   3.665   4.060   0.754
 5262TIP3    H115792   3.579   4.028   0.781
 5262TIP3    H215793   3.722   4.040   0.828
 5263TIP3   OH215794   3.487   3.333   2.098
 5263TIP3    H115795   3.436   3.254   2.080
 5263TIP3    H215796   3.556   3.333   2.032
 5264TIP3   OH215797   2.376   2.627   4.553
 5264TIP3    H115798   2.326   2.579   4.619
 5264TIP3    H215799   2.348   2.589   4.469
 5265TIP3   OH215800   3.866   3.746   3.881
 5265TIP3    H115801   3.905   3.693   3.811
 5265TIP3    H215802   3.911   3.719   3.960
 5266TIP3   OH215803   0.439   3.171   0.997
 5266TIP3    H115804   0.446   3.089   1.046
 5266TIP3    H215805   0.430   3.238   1.066
 5267TIP3   OH215806   1.257   0.604   3.177
 5267TIP3    H115807   1.336   0.650   3.148
 5267TIP3    H215808   1.217   0.573   3.096
 5268TIP3   OH215809   4.357   4.780   0.124
 5268TIP3    H115810   4.388   4.870   0.135
 5268TIP3    H215811   4.366   4.741   0.211
 5269TIP3   OH215812   0.661   0.590   3.151
 5269TIP3    H115813   0.657   0.620   3.060
 5269TIP3    H215814   0.596   0.519   3.155
 5270TIP3   OH215815   4.817   1.340   4.751
 5270TIP3    H115816   4.773   1.274   4.697
 5270TIP3    H215817   4.755   1.358   4.822
 5271TIP3   OH215818   2.710   3.784   1.818
 5271TIP3    H115819   2.741   3.845   1.751
 5271TIP3    H215820   2.753   3.814   1.899
 5272TIP3   OH215821   5.727   5.138   2.436
 5272TIP3    H115822   5.664   5.102   2.498
 5272TIP3    H215823   5.760   5.061   2.389
 5273TIP3   OH215824   4.484   0.820   1.100
 5273TIP3    H115825   4.402   0.843   1.057
 5273TIP3    H215826   4.521   0.750   1.047
 5274TIP3   OH215827   1.694   4.477   3.424
 5274TIP3    H115828   1.750   4.512   3.494
 5274TIP3    H215829   1.609   4.518   3.438
 5275TIP3   OH215830   1.593   4.152   5.183
 5275TIP3    H115831   1.632   4.215   5.122
 5275TIP3    H215832   1.570   4.077   5.128
 5276TIP3   OH215833   1.944   2.078   2.949
 5276TIP3    H115834   1.947   2.117   3.036
 5276TIP3    H215835   2.000   2.134   2.895
 5277TIP3   OH215836   0.751   0.359   3.917
 5277TIP3    H115837   0.790   0.387   3.834
 5277TIP3    H215838   0.791   0.416   3.982
 5278TIP3   OH215839   0.578   1.012   0.464
 5278TIP3    H115840   0.509   1.028   0.399
 5278TIP3    H215841   0.542   0.943   0.520
 5279TIP3   OH215842   0.645   4.715   2.038
 5279TIP3    H115843   0.582   4.652   2.003
 5279TIP3    H215844   0.595   4.796   2.048
 5280TIP3   OH215845   4.920   2.587   0.312
 5280TIP3    H115846   4.866   2.584   0.233
 5280TIP3    H215847   4.880   2.524   0.371
 5281TIP3   OH215848   4.651   5.391   1.597
 5281TIP3    H115849   4.604   5.474   1.601
 5281TIP3    H215850   4.666   5.376   1.504
 5282TIP3   OH215851   5.001   1.968   0.872
 5282TIP3    H115852   5.030   1.929   0.955
 5282TIP3    H215853   4.975   1.893   0.818
 5283TIP3   OH215854   5.326   4.059   1.657
 5283TIP3    H115855   5.403   4.105   1.688
 5283TIP3    H215856   5.257   4.125   1.657
 5284TIP3   OH215857   0.296   5.153   1.857
 5284TIP3    H115858   0.249   5.153   1.940
 5284TIP3    H215859   0.267   5.233   1.813
 5285TIP3   OH215860   3.206   2.565   3.313
 5285TIP3    H115861   3.133   2.618   3.280
 5285TIP3    H215862   3.251   2.622   3.375
 5286TIP3   OH215863   5.992   5.320   2.564
 5286TIP3    H115864   6.049   5.257   2.519
 5286TIP3    H215865   5.959   5.377   2.494
 5287TIP3   OH215866   3.265   2.352   2.856
 5287TIP3    H115867   3.291   2.272   2.811
 5287TIP3    H215868   3.289   2.337   2.947
 5288TIP3   OH215869   1.805   5.538   3.262
 5288TIP3    H115870   1.733   5.475   3.265
 5288TIP3    H215871   1.866   5.508   3.330
 5289TIP3   OH215872   4.974   2.383   4.461
 5289TIP3    H115873   4.997   2.476   4.463
 5289TIP3    H215874   4.879   2.382   4.450
 5290TIP3   OH215875   0.475   1.012   3.953
 5290TIP3    H115876   0.453   1.063   3.876
 5290TIP3    H215877   0.391   0.995   3.996
 5291TIP3   OH215878   5.490   1.504   1.468
 5291TIP3    H115879   5.545   1.557   1.411
 5291TIP3    H215880   5.427   1.566   1.504
 5292TIP3   OH215881   0.232   3.936   1.791
 5292TIP3    H115882   0.322   3.925   1.759
 5292TIP3    H215883   0.200   3.847   1.804
 5293TIP3   OH215884   4.849   3.757   0.909
 5293TIP3    H115885   4.924   3.796   0.865
 5293TIP3    H215886   4.786   3.829   0.919
 5294TIP3   OH215887   4.210   2.537   3.248
 5294TIP3    H115888   4.136   2.580   3.205
 5294TIP3    H215889   4.201   2.444   3.225
 5295TIP3   OH215890   0.280   0.276   4.410
 5295TIP3    H115891   0.363   0.324   4.413
 5295TIP3    H215892   0.297   0.202   4.351
 5296TIP3   OH215893   5.115   4.293   0.197
 5296TIP3    H115894   5.054   4.353   0.241
 5296TIP3    H215895   5.192   4.291   0.254
 5297TIP3   OH215896   3.916  -0.017   2.287
 5297TIP3    H115897   3.994  -0.006   2.233
 5297TIP3    H215898   3.908   0.066   2.334
 5298TIP3   OH215899   2.995   2.408   2.640
 5298TIP3    H115900   2.988   2.463   2.718
 5298TIP3    H215901   3.081   2.367   2.647
 5299TIP3   OH215902   2.690   2.300   2.130
 5299TIP3    H115903   2.738   2.380   2.105
 5299TIP3    H215904   2.707   2.239   2.058
 5300TIP3   OH215905   2.429   4.757   1.888
 5300TIP3    H115906   2.524   4.747   1.896
 5300TIP3    H215907   2.393   4.678   1.929
 5301TIP3   OH215908   0.703   1.805   4.628
 5301TIP3    H115909   0.630   1.865   4.646
 5301TIP3    H215910   0.665   1.736   4.575
 5302TIP3   OH215911   0.239   1.918   3.045
 5302TIP3    H115912   0.250   1.888   2.955
 5302TIP3    H215913   0.227   2.013   3.037
 5303TIP3   OH215914   1.656   3.387   3.161
 5303TIP3    H115915   1.687   3.423   3.077
 5303TIP3    H215916   1.577   3.439   3.180
 5304TIP3   OH215917   6.282   0.611   4.305
 5304TIP3    H115918   6.246   0.527   4.336
 5304TIP3    H215919   6.325   0.589   4.222
 5305TIP3   OH215920   0.170   4.890   3.589
 5305TIP3    H115921   0.112   4.956   3.549
 5305TIP3    H215922   0.201   4.838   3.516
 5306TIP3   OH215923   0.725   1.920   0.942
 5306TIP3    H115924   0.679   1.916   0.858
 5306TIP3    H215925   0.801   1.863   0.930
 5307TIP3   OH215926   6.175   4.492   4.967
 5307TIP3    H115927   6.119   4.453   5.033
 5307TIP3    H215928   6.127   4.482   4.885
 5308TIP3   OH215929   4.779   2.849   1.966
 5308TIP3    H115930   4.854   2.832   2.024
 5308TIP3    H215931   4.785   2.780   1.900
 5309TIP3   OH215932   6.253   5.824   2.800
 5309TIP3    H115933   6.260   5.789   2.889
 5309TIP3    H215934   6.167   5.864   2.797
 5310TIP3   OH215935   5.534   4.871   1.956
 5310TIP3    H115936   5.492   4.954   1.979
 5310TIP3    H215937   5.625   4.893   1.940
 5311TIP3   OH215938   0.177   1.142   3.543
 5311TIP3    H115939   0.132   1.063   3.513
 5311TIP3    H215940   0.248   1.154   3.480
 5312TIP3   OH215941   2.119   5.557   5.014
 5312TIP3    H115942   2.060   5.482   5.020
 5312TIP3    H215943   2.079   5.614   4.948
 5313TIP3   OH215944   0.829   1.126   0.563
 5313TIP3    H115945   0.757   1.078   0.604
 5313TIP3    H215946   0.805   1.218   0.574
 5314TIP3   OH215947   1.662   0.388   3.708
 5314TIP3    H115948   1.677   0.360   3.617
 5314TIP3    H215949   1.591   0.452   3.701
 5315TIP3   OH215950   2.907   4.308   4.483
 5315TIP3    H115951   2.862   4.245   4.538
 5315TIP3    H215952   2.928   4.260   4.403
 5316TIP3   OH215953   2.441   5.924   2.333
 5316TIP3    H115954   2.355   5.915   2.290
 5316TIP3    H215955   2.499   5.869   2.281
 5317TIP3   OH215956   5.877   3.639   0.541
 5317TIP3    H115957   5.862   3.733   0.552
 5317TIP3    H215958   5.793   3.605   0.509
 5318TIP3   OH215959   5.217   0.722   2.326
 5318TIP3    H115960   5.243   0.814   2.331
 5318TIP3    H215961   5.214   0.702   2.232
 5319TIP3   OH215962   1.784   1.576   3.404
 5319TIP3    H115963   1.796   1.646   3.340
 5319TIP3    H215964   1.690   1.579   3.425
 5320TIP3   OH215965   2.014   2.055   2.400
 5320TIP3    H115966   2.015   2.081   2.308
 5320TIP3    H215967   1.942   2.106   2.438
 5321TIP3   OH215968   5.224   1.347   4.120
 5321TIP3    H115969   5.149   1.311   4.073
 5321TIP3    H215970   5.191   1.365   4.208
 5322TIP3   OH215971   5.538   5.776   1.919
 5322TIP3    H115972   5.482   5.754   1.992
 5322TIP3    H215973   5.513   5.715   1.850
 5323TIP3   OH215974   2.003   3.034   1.517
 5323TIP3    H115975   2.060   3.110   1.509
 5323TIP3    H215976   1.959   3.028   1.432
 5324TIP3   OH215977   5.345   4.651   4.974
 5324TIP3    H115978   5.405   4.643   5.048
 5324TIP3    H215979   5.305   4.564   4.967
 5325TIP3   OH215980   6.069   0.790   1.698
 5325TIP3    H115981   6.143   0.730   1.709
 5325TIP3    H215982   5.993   0.732   1.696
 5326TIP3   OH215983   4.023   5.660   2.127
 5326TIP3    H115984   4.054   5.588   2.183
 5326TIP3    H215985   4.102   5.689   2.081
 5327TIP3   OH215986   0.283   1.619   4.743
 5327TIP3    H115987   0.373   1.593   4.725
 5327TIP3    H215988   0.232   1.583   4.670
 5328TIP3   OH215989   0.404   2.374   4.038
 5328TIP3    H115990   0.430   2.392   4.128
 5328TIP3    H215991   0.315   2.339   4.044
 5329TIP3   OH215992   3.672   5.064   2.704
 5329TIP3    H115993   3.578   5.056   2.687
 5329TIP3    H215994   3.714   5.043   2.621
 5330TIP3   OH215995   3.015   3.019   1.027
 5330TIP3    H115996   3.047   3.038   1.115
 5330TIP3    H215997   2.920   3.034   1.032
 5331TIP3   OH215998   3.135   4.390   4.142
 5331TIP3    H115999   3.150   4.444   4.065
 5331TIP3    H216000   3.166   4.443   4.215
 5332TIP3   OH216001   1.693   0.862   0.903
 5332TIP3    H116002   1.781   0.860   0.940
 5332TIP3    H216003   1.707   0.887   0.811
 5333TIP3   OH216004   3.006   5.275   4.300
 5333TIP3    H116005   3.069   5.210   4.270
 5333TIP3    H216006   3.048   5.315   4.376
 5334TIP3   OH216007   4.179   3.071   5.034
 5334TIP3    H116008   4.119   3.055   5.107
 5334TIP3    H216009   4.187   3.166   5.028
 5335TIP3   OH216010   3.839   4.303   1.014
 5335TIP3    H116011   3.876   4.375   1.065
 5335TIP3    H216012   3.915   4.257   0.978
 5336TIP3   OH216013   0.239   1.142   0.448
 5336TIP3    H116014   0.145   1.140   0.432
 5336TIP3    H216015   0.278   1.110   0.366
 5337TIP3   OH216016   4.433   1.715   2.383
 5337TIP3    H116017   4.418   1.625   2.412
 5337TIP3    H216018   4.517   1.739   2.424
 5338TIP3   OH216019   5.613   2.581   2.511
 5338TIP3    H116020   5.608   2.629   2.428
 5338TIP3    H216021   5.704   2.593   2.540
 5339TIP3   OH216022   4.514   2.306   0.778
 5339TIP3    H116023   4.423   2.327   0.755
 5339TIP3    H216024   4.514   2.211   0.790
 5340TIP3   OH216025   4.837   3.690   3.897
 5340TIP3    H116026   4.879   3.633   3.833
 5340TIP3    H216027   4.805   3.764   3.846
 5341TIP3   OH216028   0.373   2.186   3.251
 5341TIP3    H116029   0.354   2.203   3.159
 5341TIP3    H216030   0.452   2.133   3.250
 5342TIP3   OH216031   0.649   2.957   2.829
 5342TIP3    H116032   0.653   2.864   2.804
 5342TIP3    H216033   0.703   2.963   2.908
 5343TIP3   OH216034   4.791   5.422   4.168
 5343TIP3    H116035   4.746   5.476   4.233
 5343TIP3    H216036   4.875   5.466   4.154
 5344TIP3   OH216037   2.275   0.104   2.213
 5344TIP3    H116038   2.364   0.120   2.181
 5344TIP3    H216039   2.286   0.035   2.278
 5345TIP3   OH216040   5.999   3.442   1.776
 5345TIP3    H116041   6.029   3.466   1.864
 5345TIP3    H216042   6.028   3.515   1.720
 5346TIP3   OH216043   5.790   4.495   2.588
 5346TIP3    H116044   5.845   4.513   2.664
 5346TIP3    H216045   5.745   4.578   2.570
 5347TIP3   OH216046   0.667   1.959   2.036
 5347TIP3    H116047   0.737   1.964   1.971
 5347TIP3    H216048   0.599   1.906   1.995
 5348TIP3   OH216049   2.749   2.025   4.099
 5348TIP3    H116050   2.757   1.947   4.045
 5348TIP3    H216051   2.719   1.992   4.184
 5349TIP3   OH216052   1.939   0.348   0.806
 5349TIP3    H116053   1.912   0.435   0.777
 5349TIP3    H216054   1.990   0.312   0.733
 5350TIP3   OH216055   1.642   3.464   2.468
 5350TIP3    H116056   1.658   3.452   2.561
 5350TIP3    H216057   1.665   3.380   2.429
 5351TIP3   OH216058   6.066   1.562   3.301
 5351TIP3    H116059   6.100   1.651   3.305
 5351TIP3    H216060   6.008   1.555   3.377
 5352TIP3   OH216061   5.945   5.740   3.778
 5352TIP3    H116062   5.895   5.819   3.798
 5352TIP3    H216063   6.023   5.771   3.732
 5353TIP3   OH216064   0.409   1.528   2.066
 5353TIP3    H116065   0.467   1.543   1.992
 5353TIP3    H216066   0.321   1.531   2.028
 5354TIP3   OH216067   1.142   2.989   1.427
 5354TIP3    H116068   1.130   2.921   1.361
 5354TIP3    H216069   1.055   3.000   1.466
 5355TIP3   OH216070   1.801   1.521   4.605
 5355TIP3    H116071   1.783   1.564   4.689
 5355TIP3    H216072   1.717   1.483   4.579
 5356TIP3   OH216073   2.883   5.778   3.200
 5356TIP3    H116074   2.966   5.774   3.247
 5356TIP3    H216075   2.907   5.777   3.107
 5357TIP3   OH216076   2.671   1.160   3.449
 5357TIP3    H116077   2.669   1.255   3.460
 5357TIP3    H216078   2.751   1.144   3.398
 5358TIP3   OH216079   1.598   4.140   0.172
 5358TIP3    H116080   1.677   4.139   0.226
 5358TIP3    H216081   1.560   4.053   0.185
 5359TIP3   OH216082   2.455   1.149   3.070
 5359TIP3    H116083   2.362   1.159   3.090
 5359TIP3    H216084   2.497   1.221   3.117
 5360TIP3   OH216085   1.091   0.315   2.848
 5360TIP3    H116086   1.099   0.222   2.826
 5360TIP3    H216087   1.177   0.351   2.829
 5361TIP3   OH216088   2.286   4.139   1.484
 5361TIP3    H116089   2.207   4.158   1.536
 5361TIP3    H216090   2.270   4.052   1.447
 5362TIP3   OH216091   0.872   3.674   0.834
 5362TIP3    H116092   0.888   3.705   0.923
 5362TIP3    H216093   0.784   3.635   0.838
 5363TIP3   OH216094   5.757   0.462   3.766
 5363TIP3    H116095   5.839   0.440   3.722
 5363TIP3    H216096   5.731   0.546   3.729
 5364TIP3   OH216097   5.723   3.307   0.120
 5364TIP3    H116098   5.726   3.222   0.163
 5364TIP3    H216099   5.705   3.287   0.028
 5365TIP3   OH216100   3.629   1.091   0.923
 5365TIP3    H116101   3.597   1.064   0.837
 5365TIP3    H216102   3.557   1.141   0.961
 5366TIP3   OH216103   2.937   0.885   0.318
 5366TIP3    H116104   2.870   0.826   0.353
 5366TIP3    H216105   2.910   0.900   0.227
 5367TIP3   OH216106   5.072   4.991   4.660
 5367TIP3    H116107   4.982   4.977   4.630
 5367TIP3    H216108   5.074   5.083   4.689
 5368TIP3   OH216109   5.902   5.444   2.825
 5368TIP3    H116110   5.917   5.355   2.857
 5368TIP3    H216111   5.901   5.435   2.730
 5369TIP3   OH216112   5.349   0.842   3.287
 5369TIP3    H116113   5.312   0.793   3.361
 5369TIP3    H216114   5.292   0.919   3.278
 5370TIP3   OH216115   4.344   5.551   1.934
 5370TIP3    H116116   4.349   5.512   2.021
 5370TIP3    H216117   4.250   5.556   1.916
 5371TIP3   OH216118   3.222   1.845   3.583
 5371TIP3    H116119   3.211   1.754   3.609
 5371TIP3    H216120   3.135   1.883   3.594
 5372TIP3   OH216121   0.165   3.533   1.500
 5372TIP3    H116122   0.152   3.492   1.414
 5372TIP3    H216123   0.259   3.529   1.514
 5373TIP3   OH216124   5.163   0.401   0.501
 5373TIP3    H116125   5.179   0.307   0.497
 5373TIP3    H216126   5.245   0.439   0.532
 5374TIP3   OH216127   1.292   5.433   0.404
 5374TIP3    H116128   1.253   5.492   0.469
 5374TIP3    H216129   1.238   5.354   0.408
 5375TIP3   OH216130   0.861   5.347   3.906
 5375TIP3    H116131   0.766   5.340   3.897
 5375TIP3    H216132   0.882   5.433   3.870
 5376TIP3   OH216133   0.557   2.405   1.902
 5376TIP3    H116134   0.618   2.353   1.850
 5376TIP3    H216135   0.565   2.494   1.866
 5377TIP3   OH216136   3.241   0.014   1.785
 5377TIP3    H116137   3.233   0.091   1.842
 5377TIP3    H216138   3.316   0.034   1.730
 5378TIP3   OH216139   3.854   2.964   1.262
 5378TIP3    H116140   3.842   2.903   1.189
 5378TIP3    H216141   3.882   2.909   1.335
 5379TIP3   OH216142   2.786   2.538   4.302
 5379TIP3    H116143   2.694   2.561   4.287
 5379TIP3    H216144   2.813   2.593   4.374
 5380TIP3   OH216145   3.952   1.056   3.360
 5380TIP3    H116146   3.990   1.129   3.311
 5380TIP3    H216147   3.970   0.979   3.307
 5381TIP3   OH216148   0.517   4.815   3.708
 5381TIP3    H116149   0.455   4.751   3.742
 5381TIP3    H216150   0.463   4.891   3.685
 5382TIP3   OH216151   3.781   0.992   4.988
 5382TIP3    H116152   3.843   1.006   4.916
 5382TIP3    H216153   3.739   1.077   5.001
 5383TIP3   OH216154   0.267   2.884   4.420
 5383TIP3    H116155   0.323   2.937   4.362
 5383TIP3    H216156   0.180   2.892   4.382
 5384TIP3   OH216157   4.672   5.682   0.496
 5384TIP3    H116158   4.647   5.723   0.413
 5384TIP3    H216159   4.755   5.638   0.477
 5385TIP3   OH216160   5.751   5.169   1.415
 5385TIP3    H116161   5.739   5.256   1.377
 5385TIP3    H216162   5.779   5.185   1.505
 5386TIP3   OH216163   3.747   4.547   3.670
 5386TIP3    H116164   3.712   4.598   3.743
 5386TIP3    H216165   3.801   4.609   3.620
 5387TIP3   OH216166   5.753   3.459   2.018
 5387TIP3    H116167   5.768   3.546   2.055
 5387TIP3    H216168   5.718   3.476   1.931
 5388TIP3   OH216169   5.572   2.443   1.191
 5388TIP3    H116170   5.573   2.536   1.214
 5388TIP3    H216171   5.578   2.442   1.095
 5389TIP3   OH216172   1.041   3.650   1.398
 5389TIP3    H116173   1.084   3.588   1.340
 5389TIP3    H216174   0.982   3.700   1.341
 5390TIP3   OH216175   2.298   0.071   4.917
 5390TIP3    H116176   2.266  -0.016   4.896
 5390TIP3    H216177   2.326   0.108   4.834
 5391TIP3   OH216178   2.045   5.734   1.450
 5391TIP3    H116179   2.081   5.790   1.519
 5391TIP3    H216180   2.087   5.649   1.463
 5392TIP3   OH216181   0.434   1.905   0.534
 5392TIP3    H116182   0.448   1.923   0.627
 5392TIP3    H216183   0.362   1.843   0.532
 5393TIP3   OH216184   1.885   1.264   2.221
 5393TIP3    H116185   1.883   1.331   2.152
 5393TIP3    H216186   1.819   1.293   2.284
 5394TIP3   OH216187   3.633   3.078   1.946
 5394TIP3    H116188   3.572   3.023   1.897
 5394TIP3    H216189   3.665   3.142   1.882
 5395TIP3   OH216190   4.662   2.561   2.964
 5395TIP3    H116191   4.574   2.523   2.956
 5395TIP3    H216192   4.649   2.654   2.950
 5396TIP3   OH216193   1.148   5.409   0.109
 5396TIP3    H116194   1.153   5.488   0.163
 5396TIP3    H216195   1.210   5.424   0.037
 5397TIP3   OH216196   2.653   4.322   3.086
 5397TIP3    H116197   2.608   4.401   3.058
 5397TIP3    H216198   2.596   4.250   3.056
 5398TIP3   OH216199   1.182   3.463   2.409
 5398TIP3    H116200   1.230   3.538   2.444
 5398TIP3    H216201   1.209   3.389   2.464
 5399TIP3   OH216202   0.144   4.747   4.812
 5399TIP3    H116203   0.064   4.740   4.759
 5399TIP3    H216204   0.117   4.721   4.900
 5400TIP3   OH216205   2.570   3.926   1.429
 5400TIP3    H116206   2.566   3.998   1.491
 5400TIP3    H216207   2.576   3.847   1.483
 5401TIP3   OH216208   6.319   2.576   3.164
 5401TIP3    H116209   6.357   2.588   3.077
 5401TIP3    H216210   6.326   2.481   3.180
 5402TIP3   OH216211   0.904   0.135   3.898
 5402TIP3    H116212   0.993   0.168   3.908
 5402TIP3    H216213   0.848   0.209   3.920
 5403TIP3   OH216214   4.544   5.654   4.107
 5403TIP3    H116215   4.575   5.631   4.019
 5403TIP3    H216216   4.449   5.647   4.101
 5404TIP3   OH216217   2.806   4.259   0.846
 5404TIP3    H116218   2.828   4.187   0.906
 5404TIP3    H216219   2.886   4.273   0.795
 5405TIP3   OH216220   4.144   5.334   4.324
 5405TIP3    H116221   4.078   5.403   4.324
 5405TIP3    H216222   4.180   5.336   4.236
 5406TIP3   OH216223   6.106   0.182   3.650
 5406TIP3    H116224   6.109   0.144   3.562
 5406TIP3    H216225   6.055   0.119   3.701
 5407TIP3   OH216226   6.110   0.353   0.674
 5407TIP3    H116227   6.201   0.325   0.679
 5407TIP3    H216228   6.082   0.328   0.585
 5408TIP3   OH216229   3.109   3.457   3.411
 5408TIP3    H116230   3.064   3.425   3.334
 5408TIP3    H216231   3.085   3.395   3.480
 5409TIP3   OH216232   0.325   2.974   1.380
 5409TIP3    H116233   0.388   2.978   1.308
 5409TIP3    H216234   0.240   2.967   1.337
 5410TIP3   OH216235   4.134   5.067   3.800
 5410TIP3    H116236   4.126   5.161   3.813
 5410TIP3    H216237   4.054   5.031   3.839
 5411TIP3   OH216238   5.176   4.931   0.384
 5411TIP3    H116239   5.159   5.020   0.353
 5411TIP3    H216240   5.255   4.904   0.337
 5412TIP3   OH216241   5.749   5.491   1.735
 5412TIP3    H116242   5.791   5.472   1.819
 5412TIP3    H216243   5.697   5.569   1.751
 5413TIP3   OH216244   1.660   2.152   0.242
 5413TIP3    H116245   1.613   2.129   0.322
 5413TIP3    H216246   1.590   2.165   0.177
 5414TIP3   OH216247   2.591   2.933   4.736
 5414TIP3    H116248   2.630   2.847   4.718
 5414TIP3    H216249   2.653   2.975   4.795
 5415TIP3   OH216250   0.470   3.181   2.849
 5415TIP3    H116251   0.413   3.150   2.920
 5415TIP3    H216252   0.526   3.106   2.830
 5416TIP3   OH216253   0.323   1.269   4.631
 5416TIP3    H116254   0.400   1.262   4.688
 5416TIP3    H216255   0.351   1.233   4.547
 5417TIP3   OH216256   4.757   4.104   1.587
 5417TIP3    H116257   4.704   4.093   1.666
 5417TIP3    H216258   4.784   4.015   1.564
 5418TIP3   OH216259   3.767   4.434   3.335
 5418TIP3    H116260   3.754   4.339   3.333
 5418TIP3    H216261   3.685   4.469   3.369
 5419TIP3   OH216262   6.052   5.478   4.285
 5419TIP3    H116263   6.035   5.530   4.207
 5419TIP3    H216264   6.077   5.541   4.352
 5420TIP3   OH216265   3.310   5.790   4.263
 5420TIP3    H116266   3.384   5.776   4.204
 5420TIP3    H216267   3.287   5.882   4.250
 5421TIP3   OH216268   1.065   3.913   2.709
 5421TIP3    H116269   1.095   3.942   2.623
 5421TIP3    H216270   1.062   3.992   2.762
 5422TIP3   OH216271   0.023   5.051   0.346
 5422TIP3    H116272   0.078   5.023   0.420
 5422TIP3    H216273  -0.064   5.059   0.383
 5423TIP3   OH216274   0.963   2.002   4.714
 5423TIP3    H116275   0.969   1.906   4.723
 5423TIP3    H216276   0.869   2.018   4.701
 5424TIP3   OH216277   3.111   4.286   2.097
 5424TIP3    H116278   3.153   4.321   2.175
 5424TIP3    H216279   3.161   4.207   2.076
 5425TIP3   OH216280   1.035   1.140   3.689
 5425TIP3    H116281   0.996   1.170   3.771
 5425TIP3    H216282   1.127   1.164   3.696
 5426TIP3   OH216283   5.416   0.852   0.158
 5426TIP3    H116284   5.461   0.805   0.088
 5426TIP3    H216285   5.419   0.944   0.131
 5427TIP3   OH216286   1.064   5.199   4.063
 5427TIP3    H116287   1.066   5.104   4.046
 5427TIP3    H216288   1.010   5.235   3.992
 5428TIP3   OH216289   5.445   1.316   1.906
 5428TIP3    H116290   5.452   1.411   1.901
 5428TIP3    H216291   5.471   1.295   1.996
 5429TIP3   OH216292   4.343   1.880   2.592
 5429TIP3    H116293   4.346   1.853   2.500
 5429TIP3    H216294   4.321   1.800   2.640
 5430TIP3   OH216295   4.630   3.709   2.997
 5430TIP3    H116296   4.687   3.665   3.060
 5430TIP3    H216297   4.689   3.745   2.931
 5431TIP3   OH216298   4.442   2.337   4.084
 5431TIP3    H116299   4.443   2.390   4.164
 5431TIP3    H216300   4.401   2.255   4.111
 5432TIP3   OH216301   1.788   2.333   3.466
 5432TIP3    H116302   1.737   2.381   3.530
 5432TIP3    H216303   1.866   2.388   3.451
 5433TIP3   OH216304   2.308   1.303   0.286
 5433TIP3    H116305   2.232   1.327   0.233
 5433TIP3    H216306   2.369   1.263   0.224
 5434TIP3   OH216307   4.086   1.197   2.042
 5434TIP3    H116308   4.132   1.156   1.968
 5434TIP3    H216309   4.088   1.290   2.023
 5435TIP3   OH216310   2.715   5.836   2.358
 5435TIP3    H116311   2.669   5.911   2.395
 5435TIP3    H216312   2.702   5.766   2.422
 5436TIP3   OH216313   6.207   4.322   0.572
 5436TIP3    H116314   6.155   4.242   0.577
 5436TIP3    H216315   6.183   4.371   0.651
 5437TIP3   OH216316   6.317   3.202   3.692
 5437TIP3    H116317   6.373   3.211   3.769
 5437TIP3    H216318   6.331   3.111   3.664
 5438TIP3   OH216319   4.376   4.380   0.700
 5438TIP3    H116320   4.415   4.426   0.774
 5438TIP3    H216321   4.449   4.334   0.658
 5439TIP3   OH216322   2.203   4.303   0.898
 5439TIP3    H116323   2.162   4.387   0.921
 5439TIP3    H216324   2.287   4.328   0.860
 5440TIP3   OH216325   2.947   2.031   3.348
 5440TIP3    H116326   2.975   2.118   3.319
 5440TIP3    H216327   2.929   1.984   3.267
 5441TIP3   OH216328   5.153   1.039   1.604
 5441TIP3    H116329   5.094   1.073   1.536
 5441TIP3    H216330   5.201   1.116   1.634
 5442TIP3   OH216331   0.465   2.053   1.665
 5442TIP3    H116332   0.554   2.061   1.632
 5442TIP3    H216333   0.471   2.078   1.757
 5443TIP3   OH216334   5.100   5.833   2.150
 5443TIP3    H116335   5.112   5.900   2.082
 5443TIP3    H216336   5.184   5.789   2.157
 5444TIP3   OH216337   5.272   3.735   4.450
 5444TIP3    H116338   5.318   3.711   4.370
 5444TIP3    H216339   5.179   3.722   4.429
 5445TIP3   OH216340   4.013   2.576   2.120
 5445TIP3    H116341   4.041   2.624   2.042
 5445TIP3    H216342   4.078   2.598   2.186
 5446TIP3   OH216343   2.840   2.200   4.721
 5446TIP3    H116344   2.856   2.277   4.666
 5446TIP3    H216345   2.746   2.203   4.739
 5447TIP3   OH216346   2.463   1.929   3.414
 5447TIP3    H116347   2.440   1.979   3.336
 5447TIP3    H216348   2.548   1.890   3.394
 5448TIP3   OH216349   2.901   1.155   3.290
 5448TIP3    H116350   2.994   1.162   3.310
 5448TIP3    H216351   2.879   1.239   3.249
 5449TIP3   OH216352   2.216   4.004   3.508
 5449TIP3    H116353   2.173   3.966   3.584
 5449TIP3    H216354   2.178   3.957   3.433
 5450TIP3   OH216355   6.263   3.577   2.301
 5450TIP3    H116356   6.207   3.584   2.378
 5450TIP3    H216357   6.311   3.659   2.299
 5451TIP3   OH216358   3.977   5.841   4.795
 5451TIP3    H116359   3.902   5.899   4.811
 5451TIP3    H216360   4.050   5.886   4.837
 5452TIP3   OH216361   3.558   0.065   1.672
 5452TIP3    H116362   3.530   0.059   1.580
 5452TIP3    H216363   3.626  -0.001   1.681
 5453TIP3   OH216364   5.040   4.096   0.452
 5453TIP3    H116365   5.065   4.079   0.543
 5453TIP3    H216366   5.123   4.111   0.407
 5454TIP3   OH216367   4.480   4.206   1.368
 5454TIP3    H116368   4.535   4.138   1.407
 5454TIP3    H216369   4.528   4.235   1.291
 5455TIP3   OH216370   3.157   2.189   4.828
 5455TIP3    H116371   3.068   2.183   4.793
 5455TIP3    H216372   3.189   2.274   4.799
 5456TIP3   OH216373   3.691   2.148   3.881
 5456TIP3    H116374   3.712   2.239   3.861
 5456TIP3    H216375   3.623   2.125   3.817
 5457TIP3   OH216376   0.258   5.515   2.003
 5457TIP3    H116377   0.346   5.539   2.030
 5457TIP3    H216378   0.254   5.420   2.013
 5458TIP3   OH216379   6.156   2.713   2.537
 5458TIP3    H116380   6.062   2.722   2.524
 5458TIP3    H216381   6.194   2.727   2.450
 5459TIP3   OH216382   5.932   4.234   1.936
 5459TIP3    H116383   5.838   4.249   1.922
 5459TIP3    H216384   5.936   4.165   2.002
 5460TIP3   OH216385   3.404   2.424   3.822
 5460TIP3    H116386   3.382   2.331   3.819
 5460TIP3    H216387   3.415   2.444   3.915
 5461TIP3   OH216388   1.987   5.541   4.264
 5461TIP3    H116389   1.930   5.483   4.314
 5461TIP3    H216390   2.000   5.496   4.181
 5462TIP3   OH216391   0.989   3.841   4.668
 5462TIP3    H116392   0.915   3.871   4.615
 5462TIP3    H216393   0.951   3.773   4.725
 5463TIP3   OH216394   2.988   0.737   3.557
 5463TIP3    H116395   2.896   0.753   3.536
 5463TIP3    H216396   3.037   0.787   3.491
 5464TIP3   OH216397   1.859   5.287   1.608
 5464TIP3    H116398   1.829   5.277   1.698
 5464TIP3    H216399   1.807   5.360   1.574
 5465TIP3   OH216400   4.967   5.266   3.366
 5465TIP3    H116401   5.021   5.306   3.299
 5465TIP3    H216402   4.941   5.339   3.423
 5466TIP3   OH216403   2.192   4.436   1.930
 5466TIP3    H116404   2.121   4.449   1.993
 5466TIP3    H216405   2.272   4.432   1.984
 5467TIP3   OH216406   3.661   1.191   3.130
 5467TIP3    H116407   3.614   1.250   3.189
 5467TIP3    H216408   3.704   1.249   3.068
 5468TIP3   OH216409   2.718   0.237   3.329
 5468TIP3    H116410   2.717   0.142   3.314
 5468TIP3    H216411   2.756   0.248   3.416
 5469TIP3   OH216412   3.539   3.609   3.548
 5469TIP3    H116413   3.607   3.674   3.529
 5469TIP3    H216414   3.468   3.631   3.488
 5470TIP3   OH216415   4.329   0.439   4.475
 5470TIP3    H116416   4.296   0.505   4.414
 5470TIP3    H216417   4.329   0.357   4.426
 5471TIP3   OH216418   3.829   0.534   2.728
 5471TIP3    H116419   3.771   0.593   2.777
 5471TIP3    H216420   3.917   0.557   2.757
 5472TIP3   OH216421   3.172   3.719   1.998
 5472TIP3    H116422   3.089   3.698   1.956
 5472TIP3    H216423   3.210   3.633   2.020
 5473TIP3   OH216424   6.196   2.410   0.468
 5473TIP3    H116425   6.131   2.480   0.468
 5473TIP3    H216426   6.268   2.444   0.521
 5474TIP3   OH216427   2.330   4.733   3.111
 5474TIP3    H116428   2.386   4.734   3.033
 5474TIP3    H216429   2.389   4.754   3.184
 5475TIP3   OH216430   3.859   0.072   0.028
 5475TIP3    H116431   3.787   0.127   0.060
 5475TIP3    H216432   3.874   0.102  -0.061
 5476TIP3   OH216433   3.851   0.690   5.133
 5476TIP3    H116434   3.881   0.639   5.209
 5476TIP3    H216435   3.894   0.775   5.143
 5477TIP3   OH216436   2.897   5.669   2.242
 5477TIP3    H116437   2.828   5.733   2.259
 5477TIP3    H216438   2.896   5.656   2.147
 5478TIP3   OH216439   2.478   1.102   1.408
 5478TIP3    H116440   2.566   1.119   1.376
 5478TIP3    H216441   2.421   1.141   1.341
 5479TIP3   OH216442   0.490  -0.009   4.746
 5479TIP3    H116443   0.519  -0.028   4.656
 5479TIP3    H216444   0.470   0.084   4.746
 5480TIP3   OH216445   5.412   3.959   4.570
 5480TIP3    H116446   5.360   3.879   4.560
 5480TIP3    H216447   5.503   3.929   4.575
 5481TIP3   OH216448   1.679   2.792   3.913
 5481TIP3    H116449   1.768   2.762   3.894
 5481TIP3    H216450   1.625   2.714   3.898
 5482TIP3   OH216451   1.729   4.785   3.535
 5482TIP3    H116452   1.743   4.830   3.618
 5482TIP3    H216453   1.634   4.784   3.523
 5483TIP3   OH216454   2.497   1.488   4.616
 5483TIP3    H116455   2.538   1.402   4.618
 5483TIP3    H216456   2.403   1.470   4.611
 5484TIP3   OH216457   3.657   3.836   3.423
 5484TIP3    H116458   3.677   3.912   3.478
 5484TIP3    H216459   3.742   3.806   3.392
 5485TIP3   OH216460   4.996   5.444   1.548
 5485TIP3    H116461   5.055   5.519   1.548
 5485TIP3    H216462   4.929   5.468   1.484
 5486TIP3   OH216463   5.749   1.066   3.063
 5486TIP3    H116464   5.661   1.051   3.098
 5486TIP3    H216465   5.735   1.121   2.986
 5487TIP3   OH216466   0.765   3.903   2.264
 5487TIP3    H116467   0.762   3.880   2.171
 5487TIP3    H216468   0.838   3.853   2.299
 5488TIP3   OH216469   1.163   4.784   0.159
 5488TIP3    H116470   1.222   4.778   0.084
 5488TIP3    H216471   1.097   4.848   0.132
 5489TIP3   OH216472   4.440   2.400   3.783
 5489TIP3    H116473   4.394   2.340   3.841
 5489TIP3    H216474   4.381   2.414   3.710
 5490TIP3   OH216475   3.185   5.887   2.709
 5490TIP3    H116476   3.278   5.907   2.719
 5490TIP3    H216477   3.177   5.795   2.734
 5491TIP3   OH216478   0.798   0.959   5.002
 5491TIP3    H116479   0.818   1.020   5.073
 5491TIP3    H216480   0.702   0.961   4.995
 5492TIP3   OH216481   4.414   4.404   0.990
 5492TIP3    H116482   4.333   4.422   1.038
 5492TIP3    H216483   4.471   4.479   1.011
 5493TIP3   OH216484   2.526   0.077   4.179
 5493TIP3    H116485   2.496   0.088   4.089
 5493TIP3    H216486   2.588   0.149   4.193
 5494TIP3   OH216487   2.730   4.396   3.540
 5494TIP3    H116488   2.733   4.491   3.540
 5494TIP3    H216489   2.791   4.370   3.470
 5495TIP3   OH216490   5.860   5.267   4.370
 5495TIP3    H116491   5.928   5.335   4.364
 5495TIP3    H216492   5.784   5.312   4.407
 5496TIP3   OH216493   4.411   3.573   4.147
 5496TIP3    H116494   4.475   3.558   4.078
 5496TIP3    H216495   4.464   3.594   4.224
 5497TIP3   OH216496   6.298   4.779   1.997
 5497TIP3    H116497   6.300   4.684   1.991
 5497TIP3    H216498   6.367   4.809   1.938
 5498TIP3   OH216499   6.060   4.509   1.314
 5498TIP3    H116500   5.990   4.569   1.290
 5498TIP3    H216501   6.135   4.565   1.332
 5499TIP3   OH216502   0.520   4.375   3.609
 5499TIP3    H116503   0.490   4.296   3.654
 5499TIP3    H216504   0.612   4.357   3.588
 5500TIP3   OH216505   2.416   2.236   1.145
 5500TIP3    H116506   2.413   2.246   1.241
 5500TIP3    H216507   2.365   2.309   1.112
 5501TIP3   OH216508   1.198   1.153   3.301
 5501TIP3    H116509   1.147   1.198   3.234
 5501TIP3    H216510   1.288   1.152   3.267
 5502TIP3   OH216511   5.468   1.924   2.862
 5502TIP3    H116512   5.379   1.949   2.884
 5502TIP3    H216513   5.507   2.004   2.827
 5503TIP3   OH216514   3.603   0.652   2.407
 5503TIP3    H116515   3.538   0.658   2.477
 5503TIP3    H216516   3.561   0.693   2.331
 5504TIP3   OH216517   5.669   3.321   3.520
 5504TIP3    H116518   5.673   3.417   3.516
 5504TIP3    H216519   5.684   3.301   3.612
 5505TIP3   OH216520   3.497   4.253   4.369
 5505TIP3    H116521   3.453   4.296   4.443
 5505TIP3    H216522   3.426   4.211   4.321
 5506TIP3   OH216523   5.083   3.174   0.237
 5506TIP3    H116524   5.031   3.243   0.196
 5506TIP3    H216525   5.065   3.096   0.184
 5507TIP3   OH216526   5.316   5.769   3.221
 5507TIP3    H116527   5.362   5.698   3.265
 5507TIP3    H216528   5.234   5.778   3.269
 5508TIP3   OH216529   1.859   1.468   2.033
 5508TIP3    H116530   1.898   1.543   2.078
 5508TIP3    H216531   1.812   1.507   1.959
 5509TIP3   OH216532   3.908   0.216   2.418
 5509TIP3    H116533   3.830   0.270   2.408
 5509TIP3    H216534   3.971   0.272   2.464
 5510TIP3   OH216535   4.807   2.592   3.952
 5510TIP3    H116536   4.883   2.599   4.010
 5510TIP3    H216537   4.799   2.678   3.911
 5511TIP3   OH216538   3.776   4.624   3.963
 5511TIP3    H116539   3.698   4.570   3.951
 5511TIP3    H216540   3.747   4.696   4.019
 5512TIP3   OH216541   1.010   4.648   0.967
 5512TIP3    H116542   1.103   4.628   0.970
 5512TIP3    H216543   0.987   4.646   0.874
 5513TIP3   OH216544   1.916   3.038   1.249
 5513TIP3    H116545   1.958   3.075   1.171
 5513TIP3    H216546   1.897   2.947   1.225
 5514TIP3   OH216547   3.475   3.298   3.588
 5514TIP3    H116548   3.504   3.225   3.642
 5514TIP3    H216549   3.553   3.353   3.578
 5515TIP3   OH216550   1.068   1.301   3.111
 5515TIP3    H116551   0.983   1.256   3.108
 5515TIP3    H216552   1.047   1.392   3.093
 5516TIP3   OH216553   2.907   1.589   4.092
 5516TIP3    H116554   2.932   1.586   4.185
 5516TIP3    H216555   2.977   1.542   4.047
 5517TIP3   OH216556   0.225   1.557   0.794
 5517TIP3    H116557   0.206   1.650   0.804
 5517TIP3    H216558   0.150   1.522   0.748
 5518TIP3   OH216559   4.939   2.923   1.004
 5518TIP3    H116560   5.004   2.927   1.075
 5518TIP3    H216561   4.854   2.926   1.050
 5519TIP3   OH216562   0.454   2.135   2.291
 5519TIP3    H116563   0.474   2.083   2.213
 5519TIP3    H216564   0.358   2.136   2.296
 5520TIP3   OH216565   3.101   3.389   3.958
 5520TIP3    H116566   3.028   3.336   3.990
 5520TIP3    H216567   3.134   3.339   3.883
 5521TIP3   OH216568   0.515   0.177   3.968
 5521TIP3    H116569   0.547   0.253   3.919
 5521TIP3    H216570   0.430   0.158   3.929
 5522TIP3   OH216571   4.574   0.589   0.216
 5522TIP3    H116572   4.624   0.507   0.210
 5522TIP3    H216573   4.636   0.657   0.191
 5523TIP3   OH216574   2.639   5.780   3.369
 5523TIP3    H116575   2.591   5.707   3.329
 5523TIP3    H216576   2.727   5.773   3.332
 5524TIP3   OH216577   1.236   3.782   4.283
 5524TIP3    H116578   1.257   3.866   4.242
 5524TIP3    H216579   1.153   3.798   4.329
 5525TIP3   OH216580   3.045   1.919   1.007
 5525TIP3    H116581   3.096   1.997   0.985
 5525TIP3    H216582   2.958   1.936   0.971
 5526TIP3   OH216583   0.666   1.663   1.472
 5526TIP3    H116584   0.658   1.568   1.460
 5526TIP3    H216585   0.578   1.692   1.494
 5527TIP3   OH216586   4.017   4.423   0.428
 5527TIP3    H116587   4.065   4.504   0.408
 5527TIP3    H216588   3.926   4.444   0.408
 5528TIP3   OH216589   3.589   1.036   3.340
 5528TIP3    H116590   3.643   1.091   3.284
 5528TIP3    H216591   3.509   1.087   3.354
 5529TIP3   OH216592   4.402   0.801   4.594
 5529TIP3    H116593   4.307   0.803   4.578
 5529TIP3    H216594   4.410   0.773   4.685
 5530TIP3   OH216595   3.140   0.860   4.184
 5530TIP3    H116596   3.234   0.842   4.187
 5530TIP3    H216597   3.115   0.842   4.094
 5531TIP3   OH216598   3.860   2.838   3.695
 5531TIP3    H116599   3.855   2.848   3.791
 5531TIP3    H216600   3.827   2.922   3.662
 5532TIP3   OH216601   5.840   4.618   3.953
 5532TIP3    H116602   5.872   4.540   3.999
 5532TIP3    H216603   5.855   4.598   3.860
 5533TIP3   OH216604   5.046   0.557   1.278
 5533TIP3    H116605   5.070   0.646   1.251
 5533TIP3    H216606   5.053   0.505   1.198
 5534TIP3   OH216607   5.149   4.648   4.541
 5534TIP3    H116608   5.226   4.656   4.485
 5534TIP3    H216609   5.080   4.696   4.495
 5535TIP3   OH216610   3.470   1.067   1.693
 5535TIP3    H116611   3.422   0.988   1.669
 5535TIP3    H216612   3.535   1.037   1.757
 5536TIP3   OH216613   2.568   1.166   4.602
 5536TIP3    H116614   2.514   1.093   4.632
 5536TIP3    H216615   2.645   1.125   4.565
 5537TIP3   OH216616   5.343   4.888   3.626
 5537TIP3    H116617   5.391   4.896   3.543
 5537TIP3    H216618   5.264   4.839   3.603
 5538TIP3   OH216619   4.393   4.121   0.908
 5538TIP3    H116620   4.382   4.209   0.943
 5538TIP3    H216621   4.436   4.135   0.823
 5539TIP3   OH216622   3.909   0.773   1.925
 5539TIP3    H116623   3.911   0.679   1.941
 5539TIP3    H216624   3.857   0.783   1.845
 5540TIP3   OH216625   1.061   5.123   1.988
 5540TIP3    H116626   1.057   5.028   1.977
 5540TIP3    H216627   1.152   5.145   1.970
 5541TIP3   OH216628   3.954   1.869   1.051
 5541TIP3    H116629   3.907   1.817   0.985
 5541TIP3    H216630   4.015   1.807   1.091
 5542TIP3   OH216631   3.885   4.426   4.282
 5542TIP3    H116632   3.798   4.438   4.245
 5542TIP3    H216633   3.877   4.451   4.374
 5543TIP3   OH216634   5.277   0.064   0.736
 5543TIP3    H116635   5.293   0.106   0.652
 5543TIP3    H216636   5.264  -0.028   0.715
 5544TIP3   OH216637   0.334   4.286   2.789
 5544TIP3    H116638   0.253   4.234   2.791
 5544TIP3    H216639   0.399   4.231   2.833
 5545TIP3   OH216640   6.212   5.122   2.432
 5545TIP3    H116641   6.294   5.085   2.465
 5545TIP3    H216642   6.213   5.102   2.338
 5546TIP3   OH216643   6.011   4.174   3.298
 5546TIP3    H116644   5.956   4.098   3.283
 5546TIP3    H216645   6.000   4.193   3.392
 5547TIP3   OH216646   5.107   4.052   4.418
 5547TIP3    H116647   5.042   3.981   4.415
 5547TIP3    H216648   5.157   4.036   4.497
 5548TIP3   OH216649   1.344   2.240   0.451
 5548TIP3    H116650   1.305   2.245   0.538
 5548TIP3    H216651   1.430   2.201   0.464
 5549TIP3   OH216652   0.249   1.378   0.039
 5549TIP3    H116653   0.226   1.438  -0.032
 5549TIP3    H216654   0.344   1.367   0.031
 5550TIP3   OH216655   3.704   0.007   2.665
 5550TIP3    H116656   3.744   0.094   2.661
 5550TIP3    H216657   3.693  -0.011   2.758
 5551TIP3   OH216658   1.685   5.353  -0.008
 5551TIP3    H116659   1.776   5.380  -0.015
 5551TIP3    H216660   1.681   5.297   0.070
 5552TIP3   OH216661   1.217   0.983   2.562
 5552TIP3    H116662   1.171   1.036   2.628
 5552TIP3    H216663   1.309   0.992   2.584
 5553TIP3   OH216664   2.743   4.508   0.177
 5553TIP3    H116665   2.744   4.552   0.262
 5553TIP3    H216666   2.650   4.506   0.152
 5554TIP3   OH216667   4.402   0.740   1.590
 5554TIP3    H116668   4.382   0.745   1.684
 5554TIP3    H216669   4.316   0.732   1.548
 5555TIP3   OH216670   6.055   2.967   4.751
 5555TIP3    H116671   5.993   3.031   4.715
 5555TIP3    H216672   6.119   3.020   4.798
 5556TIP3   OH216673   1.033   1.125   0.206
 5556TIP3    H116674   0.941   1.149   0.217
 5556TIP3    H216675   1.031   1.053   0.143
 5557TIP3   OH216676   0.483   5.608   1.072
 5557TIP3    H116677   0.572   5.585   1.096
 5557TIP3    H216678   0.441   5.525   1.050
 5558TIP3   OH216679   0.321   4.853   2.410
 5558TIP3    H116680   0.322   4.801   2.329
 5558TIP3    H216681   0.366   4.934   2.388
 5559TIP3   OH216682   6.125   3.823   2.140
 5559TIP3    H116683   6.127   3.807   2.046
 5559TIP3    H216684   6.216   3.843   2.163
 5560TIP3   OH216685   1.654   5.296   3.369
 5560TIP3    H116686   1.692   5.210   3.386
 5560TIP3    H216687   1.580   5.279   3.310
 5561TIP3   OH216688   0.365   1.267   2.553
 5561TIP3    H116689   0.270   1.270   2.550
 5561TIP3    H216690   0.390   1.194   2.496
 5562TIP3   OH216691   2.940   5.316   3.801
 5562TIP3    H116692   2.972   5.265   3.875
 5562TIP3    H216693   3.004   5.387   3.791
 5563TIP3   OH216694   6.050   4.130   4.036
 5563TIP3    H116695   6.114   4.194   4.003
 5563TIP3    H216696   6.015   4.170   4.115
 5564TIP3   OH216697   1.260   5.801   4.391
 5564TIP3    H116698   1.306   5.732   4.439
 5564TIP3    H216699   1.240   5.867   4.458
 5565TIP3   OH216700   2.524   0.054   0.387
 5565TIP3    H116701   2.519   0.112   0.463
 5565TIP3    H216702   2.544   0.111   0.313
 5566TIP3   OH216703   5.725   2.750   3.076
 5566TIP3    H116704   5.800   2.730   3.020
 5566TIP3    H216705   5.762   2.789   3.154
 5567TIP3   OH216706   4.698   4.108   2.209
 5567TIP3    H116707   4.654   4.171   2.151
 5567TIP3    H216708   4.626   4.068   2.259
 5568TIP3   OH216709   0.250   2.267   0.967
 5568TIP3    H116710   0.187   2.216   1.018
 5568TIP3    H216711   0.252   2.352   1.010
 5569TIP3   OH216712   2.652   1.716   4.573
 5569TIP3    H116713   2.586   1.647   4.577
 5569TIP3    H216714   2.687   1.720   4.662
 5570TIP3   OH216715   2.871   3.123   2.002
 5570TIP3    H116716   2.852   3.140   1.910
 5570TIP3    H216717   2.786   3.129   2.046
 5571TIP3   OH216718   4.063   4.590   4.163
 5571TIP3    H116719   4.001   4.522   4.189
 5571TIP3    H216720   4.067   4.584   4.067
 5572TIP3   OH216721   4.043   1.166   2.359
 5572TIP3    H116722   4.117   1.150   2.417
 5572TIP3    H216723   4.078   1.153   2.271
 5573TIP3   OH216724   4.441   2.792   0.498
 5573TIP3    H116725   4.445   2.736   0.576
 5573TIP3    H216726   4.475   2.736   0.428
 5574TIP3   OH216727   3.004   2.853   2.800
 5574TIP3    H116728   3.022   2.806   2.882
 5574TIP3    H216729   2.914   2.830   2.779
 5575TIP3   OH216730   2.820   1.953   0.839
 5575TIP3    H116731   2.732   1.989   0.852
 5575TIP3    H216732   2.844   1.981   0.751
 5576TIP3   OH216733   3.909   4.512   1.214
 5576TIP3    H116734   3.862   4.566   1.277
 5576TIP3    H216735   3.917   4.427   1.257
 5577TIP3   OH216736   0.048   4.288   3.635
 5577TIP3    H116737   0.047   4.269   3.541
 5577TIP3    H216738  -0.027   4.239   3.669
 5578TIP3   OH216739   5.963   5.067   5.122
 5578TIP3    H116740   5.882   5.030   5.089
 5578TIP3    H216741   5.950   5.074   5.217
 5579TIP3   OH216742   2.823   0.740   2.791
 5579TIP3    H116743   2.743   0.792   2.781
 5579TIP3    H216744   2.822   0.711   2.882
 5580TIP3   OH216745   4.778   5.484   1.145
 5580TIP3    H116746   4.755   5.570   1.111
 5580TIP3    H216747   4.797   5.499   1.238
 5581TIP3   OH216748   5.198   3.705   3.809
 5581TIP3    H116749   5.216   3.632   3.869
 5581TIP3    H216750   5.244   3.779   3.846
 5582TIP3   OH216751   3.155   1.955   1.282
 5582TIP3    H116752   3.245   1.972   1.309
 5582TIP3    H216753   3.152   1.978   1.190
 5583TIP3   OH216754   3.085   3.654   4.375
 5583TIP3    H116755   3.021   3.594   4.413
 5583TIP3    H216756   3.120   3.607   4.299
 5584TIP3   OH216757   4.096   0.419   0.936
 5584TIP3    H116758   4.037   0.491   0.958
 5584TIP3    H216759   4.096   0.363   1.013
 5585TIP3   OH216760   0.925   4.114   1.997
 5585TIP3    H116761   0.947   4.027   1.963
 5585TIP3    H216762   0.877   4.156   1.925
 5586TIP3   OH216763   0.225   2.391   2.064
 5586TIP3    H116764   0.193   2.302   2.047
 5586TIP3    H216765   0.146   2.444   2.073
 5587TIP3   OH216766   1.322   1.909   5.129
 5587TIP3    H116767   1.343   1.896   5.037
 5587TIP3    H216768   1.249   1.849   5.146
 5588TIP3   OH216769   4.283  -0.010   5.122
 5588TIP3    H116770   4.195  -0.015   5.085
 5588TIP3    H216771   4.316   0.076   5.096
 5589TIP3   OH216772   0.052   1.791   0.438
 5589TIP3    H116773   0.052   1.876   0.483
 5589TIP3    H216774   0.129   1.746   0.472
 5590TIP3   OH216775   4.387   0.980   3.100
 5590TIP3    H116776   4.482   0.977   3.091
 5590TIP3    H216777   4.372   1.009   3.190
 5591TIP3   OH216778   4.327   1.642   3.659
 5591TIP3    H116779   4.323   1.547   3.657
 5591TIP3    H216780   4.298   1.666   3.747
 5592TIP3   OH216781   3.192   2.543   1.662
 5592TIP3    H116782   3.222   2.453   1.674
 5592TIP3    H216783   3.119   2.536   1.600
 5593TIP3   OH216784   1.708   0.331   0.561
 5593TIP3    H116785   1.746   0.244   0.545
 5593TIP3    H216786   1.617   0.313   0.586
 5594TIP3   OH216787   4.473   1.853   4.954
 5594TIP3    H116788   4.458   1.940   4.917
 5594TIP3    H216789   4.441   1.859   5.044
 5595TIP3   OH216790   1.456   1.519   4.023
 5595TIP3    H116791   1.452   1.455   4.094
 5595TIP3    H216792   1.392   1.586   4.046
 5596TIP3   OH216793   5.226   5.453   4.798
 5596TIP3    H116794   5.213   5.402   4.878
 5596TIP3    H216795   5.153   5.430   4.742
 5597TIP3   OH216796   3.501   4.437   1.321
 5597TIP3    H116797   3.460   4.404   1.400
 5597TIP3    H216798   3.551   4.363   1.286
 5598TIP3   OH216799   0.182   1.812   1.872
 5598TIP3    H116800   0.191   1.833   1.779
 5598TIP3    H216801   0.102   1.857   1.900
 5599TIP3   OH216802   2.689   2.480   5.003
 5599TIP3    H116803   2.703   2.500   4.911
 5599TIP3    H216804   2.609   2.427   5.005
 5600TIP3   OH216805   0.306   1.977   1.052
 5600TIP3    H116806   0.369   1.933   1.109
 5600TIP3    H216807   0.357   2.045   1.009
 5601TIP3   OH216808   3.426   1.451   3.104
 5601TIP3    H116809   3.510   1.451   3.058
 5601TIP3    H216810   3.377   1.523   3.064
 5602TIP3   OH216811   4.326   1.845   3.440
 5602TIP3    H116812   4.293   1.794   3.514
 5602TIP3    H216813   4.251   1.898   3.413
 5603TIP3   OH216814   5.708   2.685   0.529
 5603TIP3    H116815   5.624   2.641   0.516
 5603TIP3    H216816   5.708   2.712   0.620
 5604TIP3   OH216817   4.446   5.564   2.650
 5604TIP3    H116818   4.461   5.470   2.641
 5604TIP3    H216819   4.373   5.571   2.711
 5605TIP3   OH216820   3.740   4.443   1.686
 5605TIP3    H116821   3.825   4.399   1.679
 5605TIP3    H216822   3.711   4.425   1.776
 5606TIP3   OH216823   4.594   1.374   4.899
 5606TIP3    H116824   4.542   1.450   4.925
 5606TIP3    H216825   4.529   1.310   4.869
 5607TIP3   OH216826   0.519   2.973   1.167
 5607TIP3    H116827   0.593   3.003   1.220
 5607TIP3    H216828   0.538   2.881   1.147
 5608TIP3   OH216829   1.125   0.075   1.784
 5608TIP3    H116830   1.161   0.163   1.772
 5608TIP3    H216831   1.201   0.017   1.783
 5609TIP3   OH216832   3.990   3.281   2.612
 5609TIP3    H116833   3.942   3.329   2.545
 5609TIP3    H216834   4.062   3.240   2.564
 5610TIP3   OH216835   4.086   1.044   4.496
 5610TIP3    H116836   4.002   1.001   4.509
 5610TIP3    H216837   4.142   0.977   4.457
 5611TIP3   OH216838   1.971   2.703   2.868
 5611TIP3    H116839   2.001   2.698   2.958
 5611TIP3    H216840   1.982   2.614   2.834
 5612TIP3   OH216841   4.925   2.274   0.236
 5612TIP3    H116842   4.997   2.338   0.243
 5612TIP3    H216843   4.870   2.293   0.312
 5613TIP3   OH216844   1.990   0.256   3.211
 5613TIP3    H116845   2.065   0.231   3.156
 5613TIP3    H216846   1.928   0.184   3.199
 5614TIP3   OH216847   1.060   2.946   0.109
 5614TIP3    H116848   0.972   2.981   0.128
 5614TIP3    H216849   1.108   2.959   0.191
 5615TIP3   OH216850   0.517   0.427   1.996
 5615TIP3    H116851   0.533   0.510   2.041
 5615TIP3    H216852   0.585   0.368   2.029
 5616TIP3   OH216853   3.384   1.668   0.313
 5616TIP3    H116854   3.341   1.643   0.231
 5616TIP3    H216855   3.368   1.594   0.372
 5617TIP3   OH216856   1.745   4.311   1.493
 5617TIP3    H116857   1.737   4.296   1.399
 5617TIP3    H216858   1.770   4.403   1.501
 5618TIP3   OH216859   3.117   2.638   4.477
 5618TIP3    H116860   3.212   2.641   4.487
 5618TIP3    H216861   3.102   2.664   4.386
 5619TIP3   OH216862   3.169   0.862   3.387
 5619TIP3    H116863   3.192   0.938   3.333
 5619TIP3    H216864   3.239   0.857   3.452
 5620TIP3   OH216865   3.550   5.236   3.331
 5620TIP3    H116866   3.487   5.219   3.261
 5620TIP3    H216867   3.589   5.320   3.308
 5621TIP3   OH216868   2.078   1.458   3.854
 5621TIP3    H116869   1.996   1.471   3.805
 5621TIP3    H216870   2.139   1.421   3.790
 5622TIP3   OH216871   4.131   4.008   4.326
 5622TIP3    H116872   4.134   4.018   4.231
 5622TIP3    H216873   4.185   4.080   4.359
 5623TIP3   OH216874   1.433   3.608   3.801
 5623TIP3    H116875   1.416   3.633   3.710
 5623TIP3    H216876   1.365   3.543   3.820
 5624TIP3   OH216877   0.773   5.603   5.027
 5624TIP3    H116878   0.865   5.612   5.001
 5624TIP3    H216879   0.772   5.527   5.085
 5625TIP3   OH216880   0.019   5.833   4.243
 5625TIP3    H116881  -0.013   5.743   4.248
 5625TIP3    H216882   0.089   5.838   4.307
 5626TIP3   OH216883   4.298   3.825   4.079
 5626TIP3    H116884   4.354   3.748   4.086
 5626TIP3    H216885   4.253   3.815   3.996
 5627TIP3   OH216886   5.393   3.360   3.228
 5627TIP3    H116887   5.299   3.379   3.223
 5627TIP3    H216888   5.406   3.331   3.319
 5628TIP3   OH216889   5.212   1.833   0.649
 5628TIP3    H116890   5.254   1.786   0.576
 5628TIP3    H216891   5.121   1.843   0.622
 5629TIP3   OH216892   5.538   3.666   4.538
 5629TIP3    H116893   5.443   3.671   4.532
 5629TIP3    H216894   5.566   3.641   4.451
 5630TIP3   OH216895   1.914   3.972   2.725
 5630TIP3    H116896   1.883   4.060   2.748
 5630TIP3    H216897   1.892   3.963   2.632
 5631TIP3   OH216898   1.585   3.496   4.652
 5631TIP3    H116899   1.509   3.536   4.695
 5631TIP3    H216900   1.571   3.513   4.559
 5632TIP3   OH216901   6.157   4.428   0.843
 5632TIP3    H116902   6.166   4.491   0.914
 5632TIP3    H216903   6.166   4.342   0.886
 5633TIP3   OH216904   1.286   3.795   0.286
 5633TIP3    H116905   1.304   3.731   0.356
 5633TIP3    H216906   1.211   3.758   0.239
 5634TIP3   OH216907   6.246   4.972   3.222
 5634TIP3    H116908   6.229   4.982   3.316
 5634TIP3    H216909   6.258   5.061   3.190
 5635TIP3   OH216910   6.287   3.446   4.606
 5635TIP3    H116911   6.380   3.446   4.624
 5635TIP3    H216912   6.281   3.464   4.512
 5636TIP3   OH216913   4.806   1.176   0.945
 5636TIP3    H116914   4.763   1.115   1.004
 5636TIP3    H216915   4.896   1.182   0.978
 5637TIP3   OH216916   1.800   0.024   2.297
 5637TIP3    H116917   1.818  -0.030   2.373
 5637TIP3    H216918   1.878   0.078   2.286
 5638TIP3   OH216919   2.305   4.168   1.813
 5638TIP3    H116920   2.259   4.099   1.860
 5638TIP3    H216921   2.257   4.248   1.836
 5639TIP3   OH216922   4.516   2.212   2.397
 5639TIP3    H116923   4.555   2.193   2.482
 5639TIP3    H216924   4.437   2.262   2.417
 5640TIP3   OH216925   0.080   4.969   2.488
 5640TIP3    H116926   0.085   4.878   2.456
 5640TIP3    H216927   0.167   4.985   2.525
 5641TIP3   OH216928   5.654   4.729   0.022
 5641TIP3    H116929   5.558   4.725   0.026
 5641TIP3    H216930   5.673   4.819  -0.005
 5642TIP3   OH216931   5.218   2.622   1.370
 5642TIP3    H116932   5.175   2.544   1.334
 5642TIP3    H216933   5.301   2.589   1.403
 5643TIP3   OH216934   3.385   2.920   4.380
 5643TIP3    H116935   3.468   2.882   4.350
 5643TIP3    H216936   3.346   2.854   4.436
 5644TIP3   OH216937   3.592   0.981   3.674
 5644TIP3    H116938   3.627   0.978   3.763
 5644TIP3    H216939   3.576   1.074   3.658
 5645TIP3   OH216940   4.402   4.572   3.464
 5645TIP3    H116941   4.476   4.588   3.405
 5645TIP3    H216942   4.393   4.654   3.513
 5646TIP3   OH216943   4.675   4.326   0.631
 5646TIP3    H116944   4.680   4.420   0.648
 5646TIP3    H216945   4.709   4.316   0.542
 5647TIP3   OH216946   6.000   0.152   2.610
 5647TIP3    H116947   5.984   0.060   2.629
 5647TIP3    H216948   5.922   0.197   2.645
 5648TIP3   OH216949   1.205   1.760   4.372
 5648TIP3    H116950   1.277   1.717   4.325
 5648TIP3    H216951   1.177   1.696   4.437
 5649TIP3   OH216952   6.336   1.647   4.297
 5649TIP3    H116953   6.249   1.610   4.283
 5649TIP3    H216954   6.320   1.739   4.321
 5650TIP3   OH216955   4.190   4.077   2.230
 5650TIP3    H116956   4.270   4.033   2.258
 5650TIP3    H216957   4.185   4.156   2.285
 5651TIP3   OH216958   3.158   3.975   2.058
 5651TIP3    H116959   3.185   3.884   2.045
 5651TIP3    H216960   3.134   4.006   1.971
 5652TIP3   OH216961   0.563   3.787   4.441
 5652TIP3    H116962   0.474   3.752   4.454
 5652TIP3    H216963   0.609   3.718   4.392
 5653TIP3   OH216964   0.903   5.952   2.472
 5653TIP3    H116965   0.901   6.047   2.483
 5653TIP3    H216966   0.821   5.930   2.428
 5654TIP3   OH216967   0.711   4.011   4.156
 5654TIP3    H116968   0.648   4.071   4.118
 5654TIP3    H216969   0.732   4.049   4.242
 5655TIP3   OH216970   3.515   0.438   1.149
 5655TIP3    H116971   3.603   0.415   1.118
 5655TIP3    H216972   3.523   0.528   1.181
 5656TIP3   OH216973   4.422   4.913   2.154
 5656TIP3    H116974   4.452   4.993   2.112
 5656TIP3    H216975   4.376   4.865   2.086
 5657TIP3   OH216976   4.186   1.802   0.141
 5657TIP3    H116977   4.144   1.719   0.164
 5657TIP3    H216978   4.163   1.816   0.050
 5658TIP3   OH216979   4.882   1.563   2.105
 5658TIP3    H116980   4.886   1.488   2.164
 5658TIP3    H216981   4.799   1.552   2.058
 5659TIP3   OH216982   3.999   4.751   1.435
 5659TIP3    H116983   3.926   4.699   1.470
 5659TIP3    H216984   3.997   4.832   1.485
 5660TIP3   OH216985   4.192   3.192   4.147
 5660TIP3    H116986   4.139   3.159   4.074
 5660TIP3    H216987   4.234   3.114   4.183
 5661TIP3   OH216988   1.104   5.822   3.258
 5661TIP3    H116989   1.078   5.907   3.222
 5661TIP3    H216990   1.178   5.842   3.315
 5662TIP3   OH216991   3.555   3.020   1.600
 5662TIP3    H116992   3.512   2.937   1.623
 5662TIP3    H216993   3.533   3.034   1.508
 5663TIP3   OH216994   1.246   4.822   2.992
 5663TIP3    H116995   1.324   4.778   2.959
 5663TIP3    H216996   1.246   4.804   3.086
 5664TIP3   OH216997   5.089   3.907   0.241
 5664TIP3    H116998   5.129   3.989   0.211
 5664TIP3    H216999   5.026   3.935   0.308
 5665TIP3   OH217000   1.987   4.533   2.121
 5665TIP3    H117001   2.055   4.522   2.187
 5665TIP3    H217002   1.929   4.458   2.134
 5666TIP3   OH217003   2.615   1.064   3.872
 5666TIP3    H117004   2.580   1.018   3.948
 5666TIP3    H217005   2.690   1.012   3.845
 5667TIP3   OH217006   0.236   3.197   3.358
 5667TIP3    H117007   0.285   3.262   3.408
 5667TIP3    H217008   0.301   3.130   3.336
 5668TIP3   OH217009   5.318   3.081   0.703
 5668TIP3    H117010   5.242   3.072   0.761
 5668TIP3    H217011   5.370   3.151   0.742
 5669TIP3   OH217012   3.894   5.579   3.393
 5669TIP3    H117013   3.913   5.553   3.483
 5669TIP3    H217014   3.980   5.584   3.351
 5670TIP3   OH217015   2.169   4.697   2.784
 5670TIP3    H117016   2.115   4.758   2.735
 5670TIP3    H217017   2.231   4.753   2.832
 5671TIP3   OH217018   3.275   0.332   3.975
 5671TIP3    H117019   3.289   0.237   3.971
 5671TIP3    H217020   3.339   0.363   4.038
 5672TIP3   OH217021   3.274   5.637   4.836
 5672TIP3    H117022   3.349   5.693   4.857
 5672TIP3    H217023   3.306   5.580   4.765
 5673TIP3   OH217024   6.166   3.223   4.739
 5673TIP3    H117025   6.146   3.256   4.652
 5673TIP3    H217026   6.193   3.301   4.788
 5674TIP3   OH217027   5.460   5.091   3.093
 5674TIP3    H117028   5.403   5.097   3.170
 5674TIP3    H217029   5.414   5.139   3.025
 5675TIP3   OH217030   0.355   4.538   4.722
 5675TIP3    H117031   0.413   4.614   4.728
 5675TIP3    H217032   0.270   4.570   4.750
 5676TIP3   OH217033   6.189   3.838   0.189
 5676TIP3    H117034   6.150   3.913   0.235
 5676TIP3    H217035   6.124   3.768   0.197
 5677TIP3   OH217036   4.464   4.490   1.501
 5677TIP3    H117037   4.467   4.510   1.408
 5677TIP3    H217038   4.428   4.570   1.541
 5678TIP3   OH217039   1.458   5.511   2.412
 5678TIP3    H117040   1.456   5.598   2.451
 5678TIP3    H217041   1.397   5.459   2.465
 5679TIP3   OH217042   3.144   5.410   4.511
 5679TIP3    H117043   3.235   5.431   4.533
 5679TIP3    H217044   3.107   5.494   4.483
 5680TIP3   OH217045   1.391   3.566   2.528
 5680TIP3    H117046   1.479   3.546   2.496
 5680TIP3    H217047   1.394   3.544   2.621
 5681TIP3   OH217048   6.157   3.013   3.401
 5681TIP3    H117049   6.213   3.037   3.327
 5681TIP3    H217050   6.082   3.071   3.394
 5682TIP3   OH217051   3.038   0.508   1.750
 5682TIP3    H117052   3.109   0.447   1.770
 5682TIP3    H217053   3.071   0.561   1.677
 5683TIP3   OH217054   0.747   2.402   1.358
 5683TIP3    H117055   0.679   2.375   1.419
 5683TIP3    H217056   0.701   2.422   1.277
 5684TIP3   OH217057   3.100   5.702   3.384
 5684TIP3    H117058   3.023   5.703   3.441
 5684TIP3    H217059   3.171   5.735   3.438
 5685TIP3   OH217060   3.184   0.739   0.298
 5685TIP3    H117061   3.105   0.791   0.314
 5685TIP3    H217062   3.153   0.648   0.299
 5686TIP3   OH217063   4.901   3.386   2.514
 5686TIP3    H117064   4.856   3.429   2.441
 5686TIP3    H217065   4.861   3.423   2.592
 5687TIP3   OH217066   4.929   4.813   0.388
 5687TIP3    H117067   5.013   4.855   0.372
 5687TIP3    H217068   4.950   4.722   0.408
 5688TIP3   OH217069   0.591   5.054   1.587
 5688TIP3    H117070   0.613   5.146   1.604
 5688TIP3    H217071   0.644   5.031   1.510
 5689TIP3   OH217072   2.212   2.382   2.115
 5689TIP3    H117073   2.220   2.375   2.210
 5689TIP3    H217074   2.232   2.473   2.096
 5690TIP3   OH217075   0.016   0.990   3.359
 5690TIP3    H117076  -0.026   1.049   3.296
 5690TIP3    H217077   0.086   0.948   3.309
 5691TIP3   OH217078   2.576   3.609   4.827
 5691TIP3    H117079   2.585   3.642   4.738
 5691TIP3    H217080   2.658   3.563   4.844
 5692TIP3   OH217081   4.197   0.158   1.025
 5692TIP3    H117082   4.277   0.204   0.999
 5692TIP3    H217083   4.211   0.068   0.994
 5693TIP3   OH217084   3.325   4.504   0.752
 5693TIP3    H117085   3.405   4.556   0.753
 5693TIP3    H217086   3.308   4.483   0.844
 5694TIP3   OH217087   3.349   2.302   3.417
 5694TIP3    H117088   3.277   2.242   3.402
 5694TIP3    H217089   3.316   2.387   3.388
 5695TIP3   OH217090   2.781   0.557   2.202
 5695TIP3    H117091   2.699   0.525   2.167
 5695TIP3    H217092   2.839   0.566   2.126
 5696TIP3   OH217093   2.145   3.893   1.413
 5696TIP3    H117094   2.065   3.909   1.463
 5696TIP3    H217095   2.114   3.872   1.325
 5697TIP3   OH217096   5.420   4.817   3.385
 5697TIP3    H117097   5.424   4.734   3.337
 5697TIP3    H217098   5.498   4.864   3.356
 5698TIP3   OH217099   1.106   0.387   3.925
 5698TIP3    H117100   1.185   0.334   3.918
 5698TIP3    H217101   1.129   0.470   3.883
 5699TIP3   OH217102   1.027   2.500   2.490
 5699TIP3    H117103   1.054   2.451   2.413
 5699TIP3    H217104   1.079   2.463   2.562
 5700TIP3   OH217105   3.059   5.790   3.749
 5700TIP3    H117106   3.006   5.761   3.823
 5700TIP3    H217107   3.009   5.764   3.672
 5701TIP3   OH217108   3.014   1.718   1.432
 5701TIP3    H117109   2.919   1.714   1.429
 5701TIP3    H217110   3.036   1.802   1.392
 5702TIP3   OH217111   3.302   3.129   1.423
 5702TIP3    H117112   3.362   3.178   1.366
 5702TIP3    H217113   3.249   3.077   1.363
 5703TIP3   OH217114   5.005   5.561   4.007
 5703TIP3    H117115   5.050   5.501   4.066
 5703TIP3    H217116   5.063   5.568   3.931
 5704TIP3   OH217117   4.958   4.747   4.363
 5704TIP3    H117118   4.880   4.694   4.348
 5704TIP3    H217119   4.930   4.816   4.423
 5705TIP3   OH217120   4.153   4.346   3.164
 5705TIP3    H117121   4.158   4.427   3.114
 5705TIP3    H217122   4.147   4.374   3.256
 5706TIP3   OH217123   0.438   4.105   4.740
 5706TIP3    H117124   0.379   4.135   4.808
 5706TIP3    H217125   0.487   4.184   4.715
 5707TIP3   OH217126   2.775   6.004   1.389
 5707TIP3    H117127   2.782   5.975   1.298
 5707TIP3    H217128   2.722   5.937   1.432
 5708TIP3   OH217129   1.536   3.722   0.514
 5708TIP3    H117130   1.457   3.768   0.544
 5708TIP3    H217131   1.608   3.766   0.558
 5709TIP3   OH217132   2.725   1.134   2.273
 5709TIP3    H117133   2.662   1.134   2.346
 5709TIP3    H217134   2.671   1.149   2.195
 5710TIP3   OH217135   1.701   0.479   3.391
 5710TIP3    H117136   1.775   0.503   3.336
 5710TIP3    H217137   1.701   0.545   3.461
 5711TIP3   OH217138   3.043   3.586   2.911
 5711TIP3    H117139   2.980   3.601   2.840
 5711TIP3    H217140   3.128   3.583   2.867
 5712TIP3   OH217141   4.271   3.298   1.294
 5712TIP3    H117142   4.263   3.202   1.298
 5712TIP3    H217143   4.316   3.314   1.211
 5713TIP3   OH217144   2.082   0.945   3.879
 5713TIP3    H117145   2.004   0.925   3.930
 5713TIP3    H217146   2.148   0.968   3.944
 5714TIP3   OH217147   4.824   5.875   4.508
 5714TIP3    H117148   4.819   5.780   4.523
 5714TIP3    H217149   4.842   5.884   4.415
 5715TIP3   OH217150   1.261   5.961   4.666
 5715TIP3    H117151   1.241   6.033   4.606
 5715TIP3    H217152   1.184   5.905   4.662
 5716TIP3   OH217153   2.135   1.472   4.123
 5716TIP3    H117154   2.199   1.402   4.129
 5716TIP3    H217155   2.113   1.476   4.029
 5717TIP3   OH217156   1.329   0.431   2.780
 5717TIP3    H117157   1.341   0.524   2.794
 5717TIP3    H217158   1.355   0.416   2.689
 5718TIP3   OH217159   6.172   3.715   3.592
 5718TIP3    H117160   6.249   3.766   3.566
 5718TIP3    H217161   6.204   3.625   3.600
 5719TIP3   OH217162   5.446   3.899   0.278
 5719TIP3    H117163   5.411   3.914   0.365
 5719TIP3    H217164   5.528   3.948   0.276
 5720TIP3   OH217165   1.930   0.491   5.177
 5720TIP3    H117166   2.024   0.497   5.163
 5720TIP3    H217167   1.901   0.582   5.184
 5721TIP3   OH217168   3.711   0.409   0.716
 5721TIP3    H117169   3.701   0.459   0.798
 5721TIP3    H217170   3.768   0.463   0.662
 5722TIP3   OH217171   2.997   0.048   0.291
 5722TIP3    H117172   2.929   0.108   0.323
 5722TIP3    H217173   3.057   0.039   0.364
 5723TIP3   OH217174   4.950   0.384   2.081
 5723TIP3    H117175   4.997   0.313   2.125
 5723TIP3    H217176   4.940   0.452   2.148
 5724TIP3   OH217177   1.655   1.581   5.085
 5724TIP3    H117178   1.692   1.525   5.152
 5724TIP3    H217179   1.667   1.670   5.118
 5725TIP3   OH217180   3.144   0.091   0.026
 5725TIP3    H117181   3.129   0.063   0.116
 5725TIP3    H217182   3.100   0.025  -0.028
 5726TIP3   OH217183   6.252   2.737   4.975
 5726TIP3    H117184   6.253   2.833   4.966
 5726TIP3    H217185   6.160   2.713   4.959
 5727TIP3   OH217186   5.469   3.994   1.993
 5727TIP3    H117187   5.511   4.001   2.079
 5727TIP3    H217188   5.504   4.068   1.943
 5728TIP3   OH217189   5.520   4.903   3.837
 5728TIP3    H117190   5.465   4.915   3.759
 5728TIP3    H217191   5.599   4.952   3.817
 5729TIP3   OH217192   1.893   0.932   0.056
 5729TIP3    H117193   1.814   0.968   0.016
 5729TIP3    H217194   1.909   0.987   0.133
 5730TIP3   OH217195   4.218   1.429   2.531
 5730TIP3    H117196   4.207   1.336   2.553
 5730TIP3    H217197   4.181   1.438   2.444
 5731TIP3   OH217198   3.938   3.644   4.125
 5731TIP3    H117199   3.862   3.662   4.180
 5731TIP3    H217200   3.999   3.598   4.182
 5732TIP3   OH217201   3.974   5.757   0.290
 5732TIP3    H117202   3.925   5.820   0.237
 5732TIP3    H217203   3.976   5.678   0.236
 5733TIP3   OH217204   4.559   5.797   2.819
 5733TIP3    H117205   4.569   5.755   2.904
 5733TIP3    H217206   4.513   5.733   2.765
 5734TIP3   OH217207   0.690   5.238   0.933
 5734TIP3    H117208   0.775   5.215   0.971
 5734TIP3    H217209   0.707   5.316   0.881
 5735TIP3   OH217210   4.775   4.214   0.388
 5735TIP3    H117211   4.859   4.169   0.390
 5735TIP3    H217212   4.734   4.184   0.307
 5736TIP3   OH217213   2.841   0.411   0.334
 5736TIP3    H117214   2.935   0.421   0.318
 5736TIP3    H217215   2.833   0.324   0.373
 5737TIP3   OH217216   3.151   4.504   2.801
 5737TIP3    H117217   3.117   4.571   2.859
 5737TIP3    H217218   3.221   4.548   2.753
 5738TIP3   OH217219   4.578   3.564   3.937
 5738TIP3    H117220   4.535   3.579   3.853
 5738TIP3    H217221   4.646   3.632   3.941
 5739TIP3   OH217222   4.703   3.193   2.296
 5739TIP3    H117223   4.632   3.131   2.316
 5739TIP3    H217224   4.778   3.160   2.346
 5740TIP3   OH217225   5.315   5.572   0.811
 5740TIP3    H117226   5.408   5.562   0.793
 5740TIP3    H217227   5.292   5.496   0.864
 5741TIP3   OH217228   2.882   4.494   3.111
 5741TIP3    H117229   2.883   4.553   3.035
 5741TIP3    H217230   2.802   4.443   3.100
 5742TIP3   OH217231   0.500   4.479   1.503
 5742TIP3    H117232   0.543   4.412   1.450
 5742TIP3    H217233   0.537   4.561   1.472
 5743TIP3   OH217234   3.454   5.205   4.962
 5743TIP3    H117235   3.529   5.159   4.925
 5743TIP3    H217236   3.491   5.285   4.998
 5744TIP3   OH217237   0.227   4.728   3.374
 5744TIP3    H117238   0.285   4.652   3.364
 5744TIP3    H217239   0.192   4.743   3.286
 5745TIP3   OH217240   5.837   3.493   0.927
 5745TIP3    H117241   5.870   3.404   0.919
 5745TIP3    H217242   5.911   3.549   0.903
 5746TIP3   OH217243   3.447   3.234   2.691
 5746TIP3    H117244   3.420   3.158   2.743
 5746TIP3    H217245   3.367   3.286   2.682
 5747TIP3   OH217246   3.321   4.681   1.562
 5747TIP3    H117247   3.315   4.706   1.470
 5747TIP3    H217248   3.352   4.590   1.560
 5748TIP3   OH217249   3.918   0.952   1.384
 5748TIP3    H117250   3.960   0.909   1.310
 5748TIP3    H217251   3.897   1.040   1.353
 5749TIP3   OH217252   0.701   1.971   1.513
 5749TIP3    H117253   0.722   1.877   1.520
 5749TIP3    H217254   0.712   1.991   1.421
 5750TIP3   OH217255   5.577   5.398   0.804
 5750TIP3    H117256   5.566   5.366   0.894
 5750TIP3    H217257   5.665   5.369   0.779
 5751TIP3   OH217258   0.077   2.133   1.117
 5751TIP3    H117259   0.146   2.067   1.127
 5751TIP3    H217260   0.098   2.199   1.184
 5752TIP3   OH217261   2.400   2.896   4.973
 5752TIP3    H117262   2.418   2.893   4.880
 5752TIP3    H217263   2.470   2.844   5.013
 5753TIP3   OH217264   0.518   2.740   3.457
 5753TIP3    H117265   0.612   2.738   3.436
 5753TIP3    H217266   0.510   2.811   3.521
 5754TIP3   OH217267   5.804   4.740   0.393
 5754TIP3    H117268   5.774   4.829   0.376
 5754TIP3    H217269   5.885   4.750   0.442
 5755TIP3   OH217270   3.916   2.363   0.182
 5755TIP3    H117271   3.941   2.430   0.118
 5755TIP3    H217272   3.996   2.346   0.232
 5756TIP3   OH217273   3.860   5.803   1.867
 5756TIP3    H117274   3.905   5.800   1.783
 5756TIP3    H217275   3.920   5.760   1.928
 5757TIP3   OH217276   2.456   3.634   0.860
 5757TIP3    H117277   2.385   3.649   0.798
 5757TIP3    H217278   2.531   3.609   0.806
 5758TIP3   OH217279   4.596   3.729   0.084
 5758TIP3    H117280   4.508   3.760   0.108
 5758TIP3    H217281   4.608   3.648   0.134
 5759TIP3   OH217282   2.305   2.181   0.508
 5759TIP3    H117283   2.390   2.172   0.465
 5759TIP3    H217284   2.325   2.226   0.591
 5760TIP3   OH217285   4.049   4.414   2.071
 5760TIP3    H117286   4.121   4.456   2.118
 5760TIP3    H217287   3.991   4.383   2.140
 5761TIP3   OH217288   5.977   4.102   2.182
 5761TIP3    H117289   5.999   4.009   2.195
 5761TIP3    H217290   5.907   4.119   2.245
 5762TIP3   OH217291   2.680   3.057   3.285
 5762TIP3    H117292   2.682   3.109   3.204
 5762TIP3    H217293   2.673   3.122   3.355
 5763TIP3   OH217294   1.225   0.149   4.938
 5763TIP3    H117295   1.262   0.228   4.977
 5763TIP3    H217296   1.140   0.177   4.904
 5764TIP3   OH217297   4.642   2.858   0.732
 5764TIP3    H117298   4.639   2.953   0.723
 5764TIP3    H217299   4.701   2.829   0.663
 5765TIP3   OH217300   3.480   3.262   4.123
 5765TIP3    H117301   3.418   3.198   4.088
 5765TIP3    H217302   3.543   3.209   4.173
 5766TIP3   OH217303   0.010   4.837   1.637
 5766TIP3    H117304   0.078   4.848   1.571
 5766TIP3    H217305   0.031   4.753   1.679
 5767TIP3   OH217306   1.095   3.273   1.322
 5767TIP3    H117307   1.095   3.305   1.412
 5767TIP3    H217308   1.086   3.178   1.330
 5768TIP3   OH217309   2.270   5.255   4.790
 5768TIP3    H117310   2.364   5.268   4.796
 5768TIP3    H217311   2.245   5.221   4.876
 5769TIP3   OH217312   1.043   5.234   4.394
 5769TIP3    H117313   1.108   5.303   4.380
 5769TIP3    H217314   1.090   5.166   4.443
 5770TIP3   OH217315   2.207   5.225   3.209
 5770TIP3    H117316   2.147   5.299   3.202
 5770TIP3    H217317   2.291   5.259   3.178
 5771TIP3   OH217318   2.609   5.221   3.972
 5771TIP3    H117319   2.517   5.245   3.959
 5771TIP3    H217320   2.655   5.266   3.901
 5772TIP3   OH217321   2.353   2.599   2.033
 5772TIP3    H117322   2.271   2.645   2.019
 5772TIP3    H217323   2.420   2.667   2.028
 5773TIP3   OH217324   1.931   1.807   2.528
 5773TIP3    H117325   2.022   1.788   2.550
 5773TIP3    H217326   1.935   1.880   2.467
 5774TIP3   OH217327   4.339   1.116   3.341
 5774TIP3    H117328   4.286   1.067   3.404
 5774TIP3    H217329   4.316   1.207   3.357
 5775TIP3   OH217330   0.784   2.718   1.540
 5775TIP3    H117331   0.745   2.803   1.561
 5775TIP3    H217332   0.837   2.735   1.462
 5776TIP3   OH217333   2.998   3.719   3.397
 5776TIP3    H117334   3.059   3.792   3.410
 5776TIP3    H217335   3.052   3.641   3.410
 5777TIP3   OH217336   3.599   5.562   1.130
 5777TIP3    H117337   3.599   5.479   1.083
 5777TIP3    H217338   3.535   5.615   1.084
 5778TIP3   OH217339   5.606   5.064   3.499
 5778TIP3    H117340   5.636   5.041   3.587
 5778TIP3    H217341   5.550   5.140   3.513
 5779TIP3   OH217342   5.569   4.770   1.180
 5779TIP3    H117343   5.523   4.741   1.258
 5779TIP3    H217344   5.592   4.861   1.197
 5780TIP3   OH217345   5.100   2.488   0.596
 5780TIP3    H117346   5.089   2.553   0.665
 5780TIP3    H217347   5.032   2.423   0.613
 5781TIP3   OH217348   0.755   4.753   2.620
 5781TIP3    H117349   0.828   4.790   2.671
 5781TIP3    H217350   0.798   4.707   2.548
 5782TIP3   OH217351   5.095   2.427   3.057
 5782TIP3    H117352   5.031   2.363   3.026
 5782TIP3    H217353   5.151   2.378   3.116
 5783TIP3   OH217354   1.606   5.256   2.488
 5783TIP3    H117355   1.687   5.281   2.533
 5783TIP3    H217356   1.623   5.279   2.396
 5784TIP3   OH217357   2.843   1.435   1.210
 5784TIP3    H117358   2.860   1.452   1.303
 5784TIP3    H217359   2.880   1.348   1.195
 5785TIP3   OH217360   5.604   0.906   4.187
 5785TIP3    H117361   5.668   0.948   4.245
 5785TIP3    H217362   5.527   0.894   4.242
 5786TIP3   OH217363   3.510   4.514   3.350
 5786TIP3    H117364   3.428   4.467   3.367
 5786TIP3    H217365   3.488   4.574   3.279
 5787TIP3   OH217366   3.088   1.709   0.661
 5787TIP3    H117367   3.133   1.778   0.710
 5787TIP3    H217368   2.995   1.733   0.666
 5788TIP3   OH217369   0.100   5.284   2.616
 5788TIP3    H117370   0.035   5.355   2.621
 5788TIP3    H217371   0.048   5.204   2.626
 5789TIP3   OH217372   1.263   4.157   4.895
 5789TIP3    H117373   1.250   4.091   4.827
 5789TIP3    H217374   1.339   4.208   4.866
 5790TIP3   OH217375   5.381   1.009   4.761
 5790TIP3    H117376   5.402   0.921   4.728
 5790TIP3    H217377   5.416   1.010   4.850
 5791TIP3   OH217378   3.681   1.221   3.766
 5791TIP3    H117379   3.665   1.254   3.854
 5791TIP3    H217380   3.690   1.299   3.712
 5792TIP3   OH217381   5.249   1.004   3.911
 5792TIP3    H117382   5.306   1.003   3.987
 5792TIP3    H217383   5.274   0.927   3.861
 5793TIP3   OH217384   2.173   4.512   3.308
 5793TIP3    H117385   2.228   4.470   3.374
 5793TIP3    H217386   2.136   4.440   3.257
 5794TIP3   OH217387   1.517   5.301   1.739
 5794TIP3    H117388   1.561   5.330   1.659
 5794TIP3    H217389   1.586   5.300   1.805
 5795TIP3   OH217390   2.091   4.540   2.410
 5795TIP3    H117391   2.148   4.463   2.401
 5795TIP3    H217392   2.024   4.513   2.473
 5796TIP3   OH217393   3.847   1.995   2.856
 5796TIP3    H117394   3.932   1.952   2.869
 5796TIP3    H217395   3.853   2.035   2.769
 5797TIP3   OH217396   1.479   2.239   0.074
 5797TIP3    H117397   1.385   2.249   0.093
 5797TIP3    H217398   1.501   2.318   0.025
 5798TIP3   OH217399   5.996   1.420   0.725
 5798TIP3    H117400   6.050   1.347   0.695
 5798TIP3    H217401   6.045   1.499   0.702
 5799TIP3   OH217402   3.020   4.818   4.723
 5799TIP3    H117403   3.016   4.737   4.672
 5799TIP3    H217404   2.936   4.861   4.705
 5800TIP3   OH217405   2.334   1.007   0.007
 5800TIP3    H117406   2.300   0.985   0.094
 5800TIP3    H217407   2.426   1.028   0.022
 5801TIP3   OH217408   1.946   4.733   3.343
 5801TIP3    H117409   1.913   4.647   3.319
 5801TIP3    H217410   1.899   4.755   3.423
 5802TIP3   OH217411   5.197   2.336   4.308
 5802TIP3    H117412   5.148   2.291   4.239
 5802TIP3    H217413   5.134   2.343   4.381
 5803TIP3   OH217414   5.908   1.221   1.841
 5803TIP3    H117415   5.874   1.293   1.788
 5803TIP3    H217416   5.948   1.162   1.778
 5804TIP3   OH217417   5.357   3.720   2.962
 5804TIP3    H117418   5.405   3.793   3.003
 5804TIP3    H217419   5.271   3.722   3.003
 5805TIP3   OH217420   3.434   3.025   4.653
 5805TIP3    H117421   3.359   2.969   4.674
 5805TIP3    H217422   3.495   3.011   4.725
 5806TIP3   OH217423   2.057   2.057   2.106
 5806TIP3    H117424   2.132   2.029   2.055
 5806TIP3    H217425   1.983   2.008   2.069
 5807TIP3   OH217426   6.345   1.540   5.161
 5807TIP3    H117427   6.279   1.539   5.092
 5807TIP3    H217428   6.409   1.474   5.135
 5808TIP3   OH217429   4.231   2.420   0.761
 5808TIP3    H117430   4.200   2.347   0.708
 5808TIP3    H217431   4.157   2.441   0.819
 5809TIP3   OH217432   4.204   3.753   1.915
 5809TIP3    H117433   4.137   3.820   1.923
 5809TIP3    H217434   4.219   3.746   1.821
 5810TIP3   OH217435   0.846   4.694   4.900
 5810TIP3    H117436   0.862   4.738   4.817
 5810TIP3    H217437   0.876   4.755   4.967
 5811TIP3   OH217438   1.280   4.805   4.406
 5811TIP3    H117439   1.237   4.749   4.471
 5811TIP3    H217440   1.354   4.753   4.374
 5812TIP3   OH217441   2.196   2.049   1.654
 5812TIP3    H117442   2.140   2.124   1.632
 5812TIP3    H217443   2.248   2.079   1.728
 5813TIP3   OH217444   2.745   5.447   4.090
 5813TIP3    H117445   2.653   5.456   4.116
 5813TIP3    H217446   2.759   5.353   4.085
 5814TIP3   OH217447   2.489   4.125   0.701
 5814TIP3    H117448   2.517   4.198   0.648
 5814TIP3    H217449   2.566   4.069   0.708
 5815TIP3   OH217450   2.792   5.858   4.906
 5815TIP3    H117451   2.811   5.876   4.998
 5815TIP3    H217452   2.852   5.786   4.883
 5816TIP3   OH217453   2.218   2.782   2.753
 5816TIP3    H117454   2.140   2.813   2.799
 5816TIP3    H217455   2.282   2.765   2.822
 5817TIP3   OH217456   0.614   0.549   1.333
 5817TIP3    H117457   0.574   0.466   1.358
 5817TIP3    H217458   0.707   0.530   1.324
 5818TIP3   OH217459   1.311   5.925   3.840
 5818TIP3    H117460   1.283   5.905   3.929
 5818TIP3    H217461   1.328   6.019   3.841
 5819TIP3   OH217462   2.279   3.721   2.636
 5819TIP3    H117463   2.271   3.675   2.720
 5819TIP3    H217464   2.198   3.700   2.590
 5820TIP3   OH217465   1.329   0.863   1.383
 5820TIP3    H117466   1.361   0.819   1.304
 5820TIP3    H217467   1.408   0.879   1.435
 5821TIP3   OH217468   5.286   2.011   0.434
 5821TIP3    H117469   5.365   2.010   0.380
 5821TIP3    H217470   5.263   1.919   0.445
 5822TIP3   OH217471   5.882   3.889   1.820
 5822TIP3    H117472   5.844   3.813   1.776
 5822TIP3    H217473   5.858   3.963   1.764
 5823TIP3   OH217474   1.456   0.920   2.972
 5823TIP3    H117475   1.510   0.975   2.915
 5823TIP3    H217476   1.367   0.954   2.960
 5824TIP3   OH217477   5.951   4.608   3.673
 5824TIP3    H117478   5.877   4.629   3.617
 5824TIP3    H217479   6.015   4.677   3.655
 5825TIP3   OH217480   5.645   0.971   1.179
 5825TIP3    H117481   5.638   0.994   1.086
 5825TIP3    H217482   5.736   0.944   1.190
 5826TIP3   OH217483   0.602   4.262   1.386
 5826TIP3    H117484   0.561   4.175   1.385
 5826TIP3    H217485   0.605   4.288   1.294
 5827TIP3   OH217486   1.327   5.648   2.763
 5827TIP3    H117487   1.379   5.572   2.737
 5827TIP3    H217488   1.389   5.721   2.758
 5828TIP3   OH217489   2.592   0.530   2.413
 5828TIP3    H117490   2.660   0.515   2.348
 5828TIP3    H217491   2.604   0.621   2.441
 5829TIP3   OH217492   0.556   3.673   2.353
 5829TIP3    H117493   0.563   3.743   2.418
 5829TIP3    H217494   0.570   3.592   2.403
 5830TIP3   OH217495   4.939   3.775   3.651
 5830TIP3    H117496   5.023   3.768   3.697
 5830TIP3    H217497   4.937   3.698   3.595
 5831TIP3   OH217498   5.376   5.460   1.984
 5831TIP3    H117499   5.285   5.429   1.986
 5831TIP3    H217500   5.375   5.541   2.035
 5832TIP3   OH217501   0.730   2.678   4.015
 5832TIP3    H117502   0.651   2.704   3.967
 5832TIP3    H217503   0.787   2.640   3.948
 5833TIP3   OH217504   5.088   0.886   5.112
 5833TIP3    H117505   4.998   0.913   5.125
 5833TIP3    H217506   5.140   0.953   5.157
 5834TIP3   OH217507   0.931   4.019   5.099
 5834TIP3    H117508   1.008   4.075   5.109
 5834TIP3    H217509   0.911   4.024   5.005
 5835TIP3   OH217510   1.448   5.075   2.353
 5835TIP3    H117511   1.507   5.131   2.403
 5835TIP3    H217512   1.397   5.135   2.298
 5836TIP3   OH217513   2.257   4.516   5.014
 5836TIP3    H117514   2.214   4.493   4.932
 5836TIP3    H217515   2.234   4.607   5.028
 5837TIP3   OH217516   5.376   4.616   3.125
 5837TIP3    H117517   5.311   4.607   3.194
 5837TIP3    H217518   5.343   4.685   3.068
 5838TIP3   OH217519   3.487   2.981   3.083
 5838TIP3    H117520   3.408   2.955   3.035
 5838TIP3    H217521   3.517   3.060   3.039
 5839TIP3   OH217522   3.197   2.799   1.103
 5839TIP3    H117523   3.274   2.812   1.047
 5839TIP3    H217524   3.131   2.858   1.066
 5840TIP3   OH217525   2.591   3.951   4.973
 5840TIP3    H117526   2.555   4.014   4.909
 5840TIP3    H217527   2.616   3.875   4.921
 5841TIP3   OH217528   2.868   1.925   3.628
 5841TIP3    H117529   2.788   1.880   3.655
 5841TIP3    H217530   2.868   1.918   3.532
 5842TIP3   OH217531   3.983   0.422   1.220
 5842TIP3    H117532   4.068   0.386   1.245
 5842TIP3    H217533   3.970   0.495   1.280
 5843TIP3   OH217534   0.719   0.146   0.676
 5843TIP3    H117535   0.704   0.057   0.643
 5843TIP3    H217536   0.643   0.196   0.646
 5844TIP3   OH217537   3.267   0.129   1.186
 5844TIP3    H117538   3.196   0.167   1.134
 5844TIP3    H217539   3.226   0.057   1.233
 5845TIP3   OH217540   1.876   4.385   4.469
 5845TIP3    H117541   1.833   4.404   4.386
 5845TIP3    H217542   1.969   4.381   4.447
 5846TIP3   OH217543   4.481   1.183   0.488
 5846TIP3    H117544   4.451   1.274   0.483
 5846TIP3    H217545   4.576   1.189   0.483
 5847TIP3   OH217546   1.993   2.888   5.166
 5847TIP3    H117547   2.004   2.796   5.141
 5847TIP3    H217548   2.021   2.937   5.088
 5848TIP3   OH217549   0.410   3.028   3.973
 5848TIP3    H117550   0.324   2.988   3.959
 5848TIP3    H217551   0.399   3.120   3.948
 5849TIP3   OH217552   1.498   5.626   1.764
 5849TIP3    H117553   1.528   5.554   1.708
 5849TIP3    H217554   1.404   5.629   1.749
 5850TIP3   OH217555   1.600   2.458   0.488
 5850TIP3    H117556   1.681   2.414   0.513
 5850TIP3    H217557   1.596   2.450   0.392
 5851TIP3   OH217558   2.019   0.933   4.578
 5851TIP3    H117559   2.059   0.926   4.492
 5851TIP3    H217560   1.937   0.884   4.571
 5852TIP3   OH217561   1.423   5.227   3.266
 5852TIP3    H117562   1.457   5.204   3.179
 5852TIP3    H217563   1.343   5.276   3.248
 5853TIP3   OH217564   3.230   4.478   1.011
 5853TIP3    H117565   3.190   4.565   1.015
 5853TIP3    H217566   3.227   4.447   1.102
 5854TIP3   OH217567   0.686   5.020   4.459
 5854TIP3    H117568   0.628   4.981   4.395
 5854TIP3    H217569   0.774   4.992   4.432
 5855TIP3   OH217570   5.763   2.246   1.829
 5855TIP3    H117571   5.759   2.164   1.779
 5855TIP3    H217572   5.767   2.218   1.920
 5856TIP3   OH217573   3.889   4.180   3.526
 5856TIP3    H117574   3.971   4.133   3.515
 5856TIP3    H217575   3.846   4.175   3.441
 5857TIP3   OH217576   2.706   4.415   4.681
 5857TIP3    H117577   2.725   4.321   4.674
 5857TIP3    H217578   2.721   4.448   4.593
 5858TIP3   OH217579   4.072   1.801   3.751
 5858TIP3    H117580   4.010   1.748   3.801
 5858TIP3    H217581   4.050   1.783   3.660
 5859TIP3   OH217582   2.572   3.801   3.016
 5859TIP3    H117583   2.625   3.768   3.088
 5859TIP3    H217584   2.482   3.794   3.046
 5860TIP3   OH217585   5.259   1.260   1.687
 5860TIP3    H117586   5.273   1.286   1.778
 5860TIP3    H217587   5.229   1.340   1.644
 5861TIP3   OH217588   2.164   3.527   4.266
 5861TIP3    H117589   2.126   3.463   4.326
 5861TIP3    H217590   2.149   3.612   4.308
 5862TIP3   OH217591   3.723   3.399   3.395
 5862TIP3    H117592   3.688   3.333   3.334
 5862TIP3    H217593   3.650   3.459   3.410
 5863TIP3   OH217594   5.361   1.032   1.864
 5863TIP3    H117595   5.404   1.107   1.905
 5863TIP3    H217596   5.353   1.056   1.772
 5864TIP3   OH217597   5.131   4.696   3.940
 5864TIP3    H117598   5.091   4.648   4.013
 5864TIP3    H217599   5.114   4.788   3.960
 5865TIP3   OH217600   5.109   2.801   4.179
 5865TIP3    H117601   5.090   2.777   4.089
 5865TIP3    H217602   5.203   2.785   4.190
 5866TIP3   OH217603   5.964   4.502   2.044
 5866TIP3    H117604   5.960   4.464   2.132
 5866TIP3    H217605   5.970   4.427   1.985
 5867TIP3   OH217606   2.270   2.588   1.620
 5867TIP3    H117607   2.241   2.602   1.530
 5867TIP3    H217608   2.297   2.675   1.651
 5868TIP3   OH217609   2.925   0.277   5.130
 5868TIP3    H117610   2.956   0.187   5.146
 5868TIP3    H217611   2.876   0.270   5.048
 5869TIP3   OH217612   0.115   1.964   2.332
 5869TIP3    H117613   0.144   1.908   2.404
 5869TIP3    H217614   0.141   1.917   2.253
 5870TIP3   OH217615   5.553   3.337   2.207
 5870TIP3    H117616   5.636   3.364   2.169
 5870TIP3    H217617   5.522   3.415   2.253
 5871TIP3   OH217618   2.269   3.406   4.634
 5871TIP3    H117619   2.259   3.451   4.718
 5871TIP3    H217620   2.179   3.387   4.607
 5872TIP3   OH217621   0.837   5.338   4.200
 5872TIP3    H117622   0.855   5.346   4.107
 5872TIP3    H217623   0.922   5.316   4.238
 5873TIP3   OH217624   1.989   0.587   0.478
 5873TIP3    H117625   2.063   0.625   0.431
 5873TIP3    H217626   1.987   0.495   0.450
 5874TIP3   OH217627   3.555   0.776   3.333
 5874TIP3    H117628   3.645   0.744   3.329
 5874TIP3    H217629   3.563   0.871   3.345
 5875TIP3   OH217630   4.698   3.529   4.233
 5875TIP3    H117631   4.678   3.482   4.314
 5875TIP3    H217632   4.673   3.467   4.163
 5876TIP3   OH217633   0.225   3.831   0.423
 5876TIP3    H117634   0.192   3.772   0.355
 5876TIP3    H217635   0.174   3.809   0.501
 5877TIP3   OH217636   4.338   3.823   2.548
 5877TIP3    H117637   4.419   3.773   2.562
 5877TIP3    H217638   4.275   3.758   2.517
 5878TIP3   OH217639   4.031   3.657   5.145
 5878TIP3    H117640   3.974   3.641   5.070
 5878TIP3    H217641   4.021   3.751   5.163
 5879TIP3   OH217642   4.140   3.038   1.261
 5879TIP3    H117643   4.053   3.054   1.296
 5879TIP3    H217644   4.179   2.975   1.322
 5880TIP3   OH217645   0.740   5.907   3.697
 5880TIP3    H117646   0.731   5.963   3.774
 5880TIP3    H217647   0.781   5.828   3.730
 5881TIP3   OH217648   2.881   5.688   1.672
 5881TIP3    H117649   2.787   5.692   1.659
 5881TIP3    H217650   2.915   5.764   1.625
 5882TIP3   OH217651   4.592   1.817   4.715
 5882TIP3    H117652   4.642   1.737   4.698
 5882TIP3    H217653   4.582   1.820   4.810
 5883TIP3   OH217654   1.950   5.123   1.979
 5883TIP3    H117655   2.004   5.173   2.041
 5883TIP3    H217656   1.956   5.033   2.010
 5884TIP3   OH217657   1.546   5.582   1.047
 5884TIP3    H117658   1.507   5.588   0.959
 5884TIP3    H217659   1.634   5.620   1.037
 5885TIP3   OH217660   1.066   0.478   5.069
 5885TIP3    H117661   1.079   0.573   5.070
 5885TIP3    H217662   1.081   0.451   5.160
 5886TIP3   OH217663   5.185   0.331   1.640
 5886TIP3    H117664   5.173   0.367   1.728
 5886TIP3    H217665   5.110   0.273   1.628
 5887TIP3   OH217666   0.707   5.444   1.225
 5887TIP3    H117667   0.765   5.477   1.157
 5887TIP3    H217668   0.732   5.492   1.304
 5888TIP3   OH217669   1.937   1.575   0.439
 5888TIP3    H117670   1.984   1.644   0.392
 5888TIP3    H217671   1.950   1.596   0.532
 5889TIP3   OH217672   5.014   2.945   4.427
 5889TIP3    H117673   5.059   2.932   4.343
 5889TIP3    H217674   4.994   3.038   4.429
 5890TIP3   OH217675   0.384   0.284   1.089
 5890TIP3    H117676   0.324   0.350   1.053
 5890TIP3    H217677   0.457   0.283   1.027
 5891TIP3   OH217678   5.037   3.312   4.003
 5891TIP3    H117679   5.016   3.361   4.082
 5891TIP3    H217680   5.041   3.220   4.032
 5892TIP3   OH217681   5.106   5.033   1.720
 5892TIP3    H117682   5.017   5.067   1.711
 5892TIP3    H217683   5.160   5.109   1.737
 5893TIP3   OH217684   5.437   1.464   3.693
 5893TIP3    H117685   5.502   1.527   3.723
 5893TIP3    H217686   5.426   1.403   3.767
 5894TIP3   OH217687   4.042   5.814   4.523
 5894TIP3    H117688   4.093   5.890   4.495
 5894TIP3    H217689   4.030   5.826   4.617
 5895TIP3   OH217690   2.720   4.654   4.838
 5895TIP3    H117691   2.699   4.570   4.798
 5895TIP3    H217692   2.728   4.715   4.764
 5896TIP3   OH217693   3.355   1.218   1.977
 5896TIP3    H117694   3.440   1.218   2.020
 5896TIP3    H217695   3.375   1.231   1.885
 5897TIP3   OH217696   1.878   5.782   3.180
 5897TIP3    H117697   1.966   5.749   3.158
 5897TIP3    H217698   1.829   5.704   3.205
 5898TIP3   OH217699   2.629   3.848   4.011
 5898TIP3    H117700   2.652   3.861   3.919
 5898TIP3    H217701   2.684   3.775   4.040
 5899TIP3   OH217702   0.971   1.909   1.323
 5899TIP3    H117703   1.015   1.866   1.396
 5899TIP3    H217704   0.925   1.838   1.278
 5900TIP3   OH217705   3.315   2.724   2.829
 5900TIP3    H117706   3.234   2.673   2.817
 5900TIP3    H217707   3.299   2.776   2.908
 5901TIP3   OH217708   5.675   1.933   2.280
 5901TIP3    H117709   5.741   2.000   2.263
 5901TIP3    H217710   5.635   1.917   2.195
 5902TIP3   OH217711   0.729   3.096   1.308
 5902TIP3    H117712   0.677   3.174   1.329
 5902TIP3    H217713   0.804   3.101   1.367
 5903TIP3   OH217714   3.092   3.903   2.841
 5903TIP3    H117715   3.111   3.994   2.819
 5903TIP3    H217716   3.004   3.889   2.806
 5904TIP3   OH217717   0.033   2.070   4.566
 5904TIP3    H117718   0.065   1.980   4.578
 5904TIP3    H217719  -0.053   2.071   4.606
 5905TIP3   OH217720   4.601   5.579   3.857
 5905TIP3    H117721   4.638   5.602   3.772
 5905TIP3    H217722   4.559   5.494   3.843
 5906TIP3   OH217723   2.371   3.021   3.073
 5906TIP3    H117724   2.281   2.999   3.050
 5906TIP3    H217725   2.369   3.115   3.092
 5907TIP3   OH217726   1.867   3.805   0.380
 5907TIP3    H117727   1.922   3.776   0.307
 5907TIP3    H217728   1.922   3.868   0.427
 5908TIP3   OH217729   2.579   0.969   0.596
 5908TIP3    H117730   2.498   0.921   0.582
 5908TIP3    H217731   2.619   0.927   0.672
 5909TIP3   OH217732   5.687   3.490   5.183
 5909TIP3    H117733   5.700   3.584   5.173
 5909TIP3    H217734   5.614   3.470   5.124
 5910TIP3   OH217735   1.701   1.233   3.291
 5910TIP3    H117736   1.768   1.168   3.310
 5910TIP3    H217737   1.749   1.309   3.257
 5911TIP3   OH217738   4.705   1.199   3.557
 5911TIP3    H117739   4.633   1.147   3.592
 5911TIP3    H217740   4.699   1.283   3.603
 5912TIP3   OH217741   6.064   2.723   3.420
 5912TIP3    H117742   6.107   2.796   3.375
 5912TIP3    H217743   6.064   2.653   3.356
 5913TIP3   OH217744   1.089   0.355   2.340
 5913TIP3    H117745   1.114   0.272   2.379
 5913TIP3    H217746   1.072   0.413   2.414
 5914TIP3   OH217747   0.342   2.650   2.901
 5914TIP3    H117748   0.355   2.659   2.806
 5914TIP3    H217749   0.424   2.614   2.934
 5915TIP3   OH217750   3.566   0.052   1.376
 5915TIP3    H117751   3.640   0.113   1.375
 5915TIP3    H217752   3.580  -0.003   1.299
 5916TIP3   OH217753   2.733   2.780   2.097
 5916TIP3    H117754   2.760   2.779   2.189
 5916TIP3    H217755   2.780   2.707   2.057
 5917TIP3   OH217756   0.438   4.819   1.206
 5917TIP3    H117757   0.456   4.912   1.189
 5917TIP3    H217758   0.504   4.794   1.272
 5918TIP3   OH217759   1.435   3.792   4.595
 5918TIP3    H117760   1.410   3.884   4.597
 5918TIP3    H217761   1.378   3.750   4.660
 5919TIP3   OH217762   4.178   2.397   4.045
 5919TIP3    H117763   4.271   2.417   4.052
 5919TIP3    H217764   4.147   2.398   4.136
 5920TIP3   OH217765   1.800   4.786   2.912
 5920TIP3    H117766   1.791   4.877   2.881
 5920TIP3    H217767   1.877   4.787   2.968
 5921TIP3   OH217768   0.069   3.300   2.932
 5921TIP3    H117769  -0.026   3.287   2.937
 5921TIP3    H217770   0.103   3.219   2.895
 5922TIP3   OH217771   3.854   2.207   3.377
 5922TIP3    H117772   3.844   2.171   3.465
 5922TIP3    H217773   3.767   2.239   3.354
 5923TIP3   OH217774   3.819   4.714   4.928
 5923TIP3    H117775   3.834   4.630   4.884
 5923TIP3    H217776   3.867   4.706   5.011
 5924TIP3   OH217777   1.656   1.849   2.755
 5924TIP3    H117778   1.743   1.809   2.757
 5924TIP3    H217779   1.670   1.936   2.718
 5925TIP3   OH217780   5.638   1.974   0.399
 5925TIP3    H117781   5.670   1.979   0.309
 5925TIP3    H217782   5.611   1.882   0.410
 5926TIP3   OH217783   6.173   0.707   0.310
 5926TIP3    H117784   6.223   0.651   0.250
 5926TIP3    H217785   6.237   0.770   0.342
 5927TIP3   OH217786   3.591   0.805   4.503
 5927TIP3    H117787   3.507   0.832   4.540
 5927TIP3    H217788   3.570   0.727   4.452
 5928TIP3   OH217789   0.592   0.615   2.320
 5928TIP3    H117790   0.596   0.657   2.234
 5928TIP3    H217791   0.576   0.522   2.301
 5929TIP3   OH217792   4.342   2.747   3.862
 5929TIP3    H117793   4.380   2.720   3.946
 5929TIP3    H217794   4.262   2.697   3.855
 5930TIP3   OH217795   5.527   4.441   1.773
 5930TIP3    H117796   5.607   4.467   1.818
 5930TIP3    H217797   5.466   4.514   1.786
 5931TIP3   OH217798   0.905   2.761   1.283
 5931TIP3    H117799   0.864   2.814   1.214
 5931TIP3    H217800   0.997   2.757   1.259
 5932TIP3   OH217801   2.349   0.357   5.176
 5932TIP3    H117802   2.352   0.383   5.084
 5932TIP3    H217803   2.289   0.282   5.178
 5933TIP3   OH217804   2.614   1.589   3.016
 5933TIP3    H117805   2.581   1.587   2.926
 5933TIP3    H217806   2.709   1.583   3.007
 5934TIP3   OH217807   4.717   4.372   1.597
 5934TIP3    H117808   4.730   4.277   1.603
 5934TIP3    H217809   4.660   4.383   1.521
 5935TIP3   OH217810   1.196   1.293   3.879
 5935TIP3    H117811   1.114   1.282   3.926
 5935TIP3    H217812   1.257   1.233   3.922
 5936TIP3   OH217813   5.044   1.615   1.089
 5936TIP3    H117814   5.108   1.638   1.022
 5936TIP3    H217815   5.088   1.549   1.142
 5937TIP3   OH217816   0.838   1.122   3.218
 5937TIP3    H117817   0.827   1.030   3.195
 5937TIP3    H217818   0.877   1.120   3.305
 5938TIP3   OH217819   4.451   0.685   4.835
 5938TIP3    H117820   4.516   0.643   4.891
 5938TIP3    H217821   4.367   0.661   4.873
 5939TIP3   OH217822   5.029   0.904   0.736
 5939TIP3    H117823   4.960   0.872   0.793
 5939TIP3    H217824   5.110   0.882   0.782
 5940TIP3   OH217825   5.940   4.613   4.456
 5940TIP3    H117826   5.877   4.614   4.529
 5940TIP3    H217827   5.888   4.582   4.381
 5941TIP3   OH217828   0.596   5.609   4.086
 5941TIP3    H117829   0.591   5.548   4.160
 5941TIP3    H217830   0.527   5.673   4.102
 5942TIP3   OH217831   1.442   4.580   0.408
 5942TIP3    H117832   1.407   4.508   0.355
 5942TIP3    H217833   1.505   4.537   0.466
 5943TIP3   OH217834   2.088   0.728   4.885
 5943TIP3    H117835   2.104   0.731   4.980
 5943TIP3    H217836   2.016   0.667   4.875
 5944TIP3   OH217837   3.719   4.995   1.767
 5944TIP3    H117838   3.794   4.980   1.709
 5944TIP3    H217839   3.661   5.052   1.716
 5945TIP3   OH217840   4.243   2.710   2.687
 5945TIP3    H117841   4.294   2.661   2.751
 5945TIP3    H217842   4.173   2.650   2.662
 5946TIP3   OH217843   5.218   5.755   1.806
 5946TIP3    H117844   5.165   5.834   1.803
 5946TIP3    H217845   5.180   5.703   1.877
 5947TIP3   OH217846   4.104   2.229   2.760
 5947TIP3    H117847   4.057   2.147   2.743
 5947TIP3    H217848   4.083   2.249   2.852
 5948TIP3   OH217849   5.873   4.337   3.087
 5948TIP3    H117850   5.817   4.407   3.120
 5948TIP3    H217851   5.920   4.305   3.164
 5949TIP3   OH217852   1.017   5.721   0.044
 5949TIP3    H117853   1.062   5.700   0.126
 5949TIP3    H217854   1.085   5.759  -0.011
 5950TIP3   OH217855   5.153   3.415   0.747
 5950TIP3    H117856   5.084   3.349   0.746
 5950TIP3    H217857   5.126   3.478   0.680
 5951TIP3   OH217858   1.087   4.133   3.733
 5951TIP3    H117859   1.138   4.146   3.814
 5951TIP3    H217860   1.150   4.149   3.663
 5952TIP3   OH217861   3.468   1.520   2.624
 5952TIP3    H117862   3.489   1.613   2.636
 5952TIP3    H217863   3.405   1.519   2.552
 5953TIP3   OH217864   5.944   3.399   0.244
 5953TIP3    H117865   5.869   3.380   0.189
 5953TIP3    H217866   5.948   3.325   0.305
 5954TIP3   OH217867   4.326   2.629   3.499
 5954TIP3    H117868   4.388   2.556   3.498
 5954TIP3    H217869   4.262   2.607   3.431
 5955TIP3   OH217870   1.487   2.797   3.701
 5955TIP3    H117871   1.452   2.823   3.616
 5955TIP3    H217872   1.418   2.744   3.740
 5956TIP3   OH217873   2.843   3.274   2.396
 5956TIP3    H117874   2.861   3.183   2.370
 5956TIP3    H217875   2.792   3.310   2.323
 5957TIP3   OH217876   0.983   0.034   0.734
 5957TIP3    H117877   0.961  -0.028   0.803
 5957TIP3    H217878   0.905   0.036   0.677
 5958TIP3   OH217879   4.354   1.592   4.909
 5958TIP3    H117880   4.373   1.565   4.819
 5958TIP3    H217881   4.359   1.687   4.906
 5959TIP3   OH217882   2.936   0.971   2.212
 5959TIP3    H117883   2.955   0.949   2.121
 5959TIP3    H217884   2.858   1.026   2.208
 5960TIP3   OH217885   3.366   2.824   4.823
 5960TIP3    H117886   3.334   2.745   4.866
 5960TIP3    H217887   3.287   2.872   4.797
 5961TIP3   OH217888   6.042   1.784   2.112
 5961TIP3    H117889   5.966   1.836   2.082
 5961TIP3    H217890   6.041   1.706   2.055
 5962TIP3   OH217891   1.975   4.414   3.956
 5962TIP3    H117892   1.990   4.334   4.007
 5962TIP3    H217893   1.907   4.389   3.893
 5963TIP3   OH217894   0.086   4.305   3.363
 5963TIP3    H117895   0.037   4.297   3.281
 5963TIP3    H217896   0.173   4.335   3.335
 5964TIP3   OH217897   3.947   4.232   1.305
 5964TIP3    H117898   3.919   4.143   1.281
 5964TIP3    H217899   4.036   4.221   1.338
 5965TIP3   OH217900   2.124   4.250   3.439
 5965TIP3    H117901   2.062   4.214   3.375
 5965TIP3    H217902   2.174   4.174   3.469
 5966TIP3   OH217903   0.619   5.094   0.681
 5966TIP3    H117904   0.638   5.146   0.759
 5966TIP3    H217905   0.696   5.104   0.626
 5967TIP3   OH217906   5.200   3.287   1.696
 5967TIP3    H117907   5.123   3.276   1.752
 5967TIP3    H217908   5.187   3.373   1.655
 5968TIP3   OH217909   3.262   4.344   3.320
 5968TIP3    H117910   3.299   4.400   3.252
 5968TIP3    H217911   3.200   4.288   3.274
 5969TIP3   OH217912   5.826   2.867   3.314
 5969TIP3    H117913   5.834   2.959   3.341
 5969TIP3    H217914   5.867   2.818   3.385
 5970TIP3   OH217915   3.659   5.290   2.863
 5970TIP3    H117916   3.620   5.329   2.784
 5970TIP3    H217917   3.649   5.196   2.850
 5971TIP3   OH217918   0.006   0.233   3.423
 5971TIP3    H117919   0.052   0.296   3.478
 5971TIP3    H217920   0.073   0.170   3.397
 5972TIP3   OH217921   3.568   5.677   3.871
 5972TIP3    H117922   3.531   5.674   3.783
 5972TIP3    H217923   3.657   5.645   3.861
 5973TIP3   OH217924   6.012   3.114   3.697
 5973TIP3    H117925   6.057   3.188   3.656
 5973TIP3    H217926   5.946   3.088   3.633
 5974TIP3   OH217927   4.011   0.107   3.545
 5974TIP3    H117928   4.089   0.111   3.601
 5974TIP3    H217929   3.950   0.168   3.586
 5975TIP3   OH217930   2.423   1.781   2.371
 5975TIP3    H117931   2.432   1.777   2.276
 5975TIP3    H217932   2.351   1.842   2.385
 5976TIP3   OH217933   3.166   2.314   4.115
 5976TIP3    H117934   3.236   2.299   4.180
 5976TIP3    H217935   3.094   2.259   4.145
 5977TIP3   OH217936   1.335   5.305   0.804
 5977TIP3    H117937   1.249   5.336   0.776
 5977TIP3    H217938   1.375   5.270   0.724
 5978TIP3   OH217939   0.190   2.997   0.695
 5978TIP3    H117940   0.271   3.046   0.708
 5978TIP3    H217941   0.185   2.982   0.600
 5979TIP3   OH217942   4.685   1.133   4.630
 5979TIP3    H117943   4.633   1.115   4.551
 5979TIP3    H217944   4.674   1.055   4.684
 5980TIP3   OH217945   4.212   0.773   0.898
 5980TIP3    H117946   4.300   0.770   0.860
 5980TIP3    H217947   4.155   0.742   0.827
 5981TIP3   OH217948   2.176   4.555   1.004
 5981TIP3    H117949   2.203   4.612   0.932
 5981TIP3    H217950   2.258   4.532   1.047
 5982TIP3   OH217951   4.703   1.470   4.240
 5982TIP3    H117952   4.728   1.422   4.161
 5982TIP3    H217953   4.763   1.437   4.307
 5983TIP3   OH217954   4.685   2.374   4.742
 5983TIP3    H117955   4.613   2.320   4.710
 5983TIP3    H217956   4.754   2.311   4.763
 5984TIP3   OH217957   3.158   5.094   1.195
 5984TIP3    H117958   3.194   5.033   1.260
 5984TIP3    H217959   3.235   5.123   1.145
 5985TIP3   OH217960   0.111   2.053   3.314
 5985TIP3    H117961   0.124   1.959   3.299
 5985TIP3    H217962   0.192   2.093   3.282
 5986TIP3   OH217963   0.697   5.621  -0.011
 5986TIP3    H117964   0.675   5.548   0.047
 5986TIP3    H217965   0.689   5.699   0.044
 5987TIP3   OH217966   3.288   3.241   0.815
 5987TIP3    H117967   3.235   3.166   0.792
 5987TIP3    H217968   3.379   3.210   0.809
 5988TIP3   OH217969   0.435   3.498   2.006
 5988TIP3    H117970   0.372   3.566   2.030
 5988TIP3    H217971   0.422   3.485   1.912
 5989TIP3   OH217972   6.164   0.088   0.345
 5989TIP3    H117973   6.145   0.070   0.437
 5989TIP3    H217974   6.250   0.048   0.330
 5990TIP3   OH217975   3.582   4.694   1.892
 5990TIP3    H117976   3.608   4.618   1.944
 5990TIP3    H217977   3.495   4.671   1.859
 5991TIP3   OH217978   1.563   0.171   2.261
 5991TIP3    H117979   1.560   0.241   2.196
 5991TIP3    H217980   1.650   0.132   2.251
 5992TIP3   OH217981   1.737   1.719   3.170
 5992TIP3    H117982   1.785   1.797   3.198
 5992TIP3    H217983   1.657   1.752   3.131
 5993TIP3   OH217984   3.585   2.852   5.053
 5993TIP3    H117985   3.496   2.871   5.024
 5993TIP3    H217986   3.605   2.766   5.016
 5994TIP3   OH217987   2.520   4.593   3.309
 5994TIP3    H117988   2.587   4.627   3.368
 5994TIP3    H217989   2.480   4.521   3.358
 5995TIP3   OH217990   4.282   1.166   2.543
 5995TIP3    H117991   4.375   1.162   2.563
 5995TIP3    H217992   4.248   1.079   2.563
 5996TIP3   OH217993   3.616   3.182   2.955
 5996TIP3    H117994   3.560   3.252   2.920
 5996TIP3    H217995   3.690   3.177   2.895
 5997TIP3   OH217996   5.655   2.399   4.033
 5997TIP3    H117997   5.667   2.493   4.045
 5997TIP3    H217998   5.665   2.361   4.120
 5998TIP3   OH217999   1.798   1.446   0.904
 5998TIP3    H118000   1.851   1.526   0.904
 5998TIP3    H218001   1.852   1.382   0.950
 5999TIP3   OH218002   2.302   4.503   3.760
 5999TIP3    H118003   2.262   4.528   3.844
 5999TIP3    H218004   2.228   4.501   3.699
 6000TIP3   OH218005   1.933   4.680   0.421
 6000TIP3    H118006   1.909   4.769   0.396
 6000TIP3    H218007   2.016   4.664   0.376
 6001TIP3   OH218008   4.751   2.023   3.293
 6001TIP3    H118009   4.821   2.034   3.229
 6001TIP3    H218010   4.789   2.051   3.376
 6002TIP3   OH218011   3.079   1.299   1.453
 6002TIP3    H118012   3.085   1.356   1.530
 6002TIP3    H218013   3.170   1.279   1.432
 6003TIP3   OH218014   5.581   1.725   0.973
 6003TIP3    H118015   5.613   1.675   0.899
 6003TIP3    H218016   5.623   1.811   0.964
 6004TIP3   OH218017   4.148   4.421   3.424
 6004TIP3    H118018   4.122   4.434   3.515
 6004TIP3    H218019   4.222   4.480   3.411
 6005TIP3   OH218020   1.271   3.378   3.752
 6005TIP3    H118021   1.273   3.344   3.663
 6005TIP3    H218022   1.179   3.380   3.776
 6006TIP3   OH218023   3.787   4.943   1.170
 6006TIP3    H118024   3.713   4.898   1.211
 6006TIP3    H218025   3.824   4.879   1.110
 6007TIP3   OH218026   2.250   0.535   2.711
 6007TIP3    H118027   2.251   0.510   2.618
 6007TIP3    H218028   2.339   0.517   2.741
 6008TIP3   OH218029   1.623   1.192   1.674
 6008TIP3    H118030   1.625   1.225   1.764
 6008TIP3    H218031   1.697   1.233   1.631
 6009TIP3   OH218032   5.060   0.252   4.093
 6009TIP3    H118033   5.119   0.225   4.024
 6009TIP3    H218034   4.996   0.309   4.049
 6010TIP3   OH218035   4.609   1.489   1.418
 6010TIP3    H118036   4.564   1.573   1.418
 6010TIP3    H218037   4.552   1.431   1.469
 6011TIP3   OH218038   3.386   3.903   3.757
 6011TIP3    H118039   3.383   3.807   3.751
 6011TIP3    H218040   3.473   3.922   3.792
 6012TIP3   OH218041   5.481   3.743   1.531
 6012TIP3    H118042   5.389   3.762   1.548
 6012TIP3    H218043   5.479   3.678   1.460
 6013TIP3   OH218044   1.311   4.952   1.356
 6013TIP3    H118045   1.308   4.972   1.262
 6013TIP3    H218046   1.318   5.038   1.398
 6014TIP3   OH218047   1.683   1.170   4.716
 6014TIP3    H118048   1.681   1.231   4.789
 6014TIP3    H218049   1.773   1.174   4.683
 6015TIP3   OH218050   5.492   4.144   3.470
 6015TIP3    H118051   5.515   4.134   3.378
 6015TIP3    H218052   5.515   4.234   3.492
 6016TIP3   OH218053   2.170   4.257   2.464
 6016TIP3    H118054   2.163   4.162   2.461
 6016TIP3    H218055   2.227   4.275   2.539
 6017TIP3   OH218056   4.399   2.397   3.020
 6017TIP3    H118057   4.431   2.441   3.099
 6017TIP3    H218058   4.319   2.445   2.997
 6018TIP3   OH218059   5.275   5.517   3.858
 6018TIP3    H118060   5.319   5.457   3.918
 6018TIP3    H218061   5.238   5.461   3.791
 6019TIP3   OH218062   6.084   4.991   4.037
 6019TIP3    H118063   6.110   4.900   4.023
 6019TIP3    H218064   6.167   5.038   4.050
 6020TIP3   OH218065   4.931   5.499   3.484
 6020TIP3    H118066   4.918   5.565   3.552
 6020TIP3    H218067   5.013   5.524   3.441
 6021TIP3   OH218068   1.665   3.406   0.744
 6021TIP3    H118069   1.721   3.343   0.698
 6021TIP3    H218070   1.649   3.366   0.829
 6022TIP3   OH218071   4.113   1.303   4.448
 6022TIP3    H118072   4.079   1.218   4.474
 6022TIP3    H218073   4.206   1.300   4.472
 6023TIP3   OH218074   0.103   2.887   0.942
 6023TIP3    H118075   0.132   2.809   0.894
 6023TIP3    H218076   0.112   2.958   0.879
 6024TIP3   OH218077   2.425   1.653   4.858
 6024TIP3    H118078   2.422   1.612   4.772
 6024TIP3    H218079   2.518   1.653   4.882
 6025TIP3   OH218080   4.866   2.447   0.846
 6025TIP3    H118081   4.932   2.393   0.890
 6025TIP3    H218082   4.882   2.536   0.879
 6026TIP3   OH218083   4.931   0.243   2.839
 6026TIP3    H118084   4.987   0.193   2.779
 6026TIP3    H218085   4.883   0.176   2.888
 6027TIP3   OH218086   3.860   3.679   1.965
 6027TIP3    H118087   3.777   3.683   1.917
 6027TIP3    H218088   3.926   3.661   1.897
 6028TIP3   OH218089   1.741   3.334   3.549
 6028TIP3    H118090   1.829   3.313   3.582
 6028TIP3    H218091   1.684   3.323   3.625
 6029TIP3   OH218092   5.178   3.782   2.328
 6029TIP3    H118093   5.139   3.843   2.390
 6029TIP3    H218094   5.269   3.810   2.319
 6030TIP3   OH218095   6.051   5.703   4.439
 6030TIP3    H118096   6.061   5.765   4.512
 6030TIP3    H218097   6.016   5.757   4.367
 6031TIP3   OH218098   5.805   1.604   0.537
 6031TIP3    H118099   5.806   1.510   0.557
 6031TIP3    H218100   5.876   1.615   0.474
 6032TIP3   OH218101   6.276   1.082   4.810
 6032TIP3    H118102   6.280   1.113   4.901
 6032TIP3    H218103   6.316   1.153   4.760
 6033TIP3   OH218104   2.981   5.846   2.931
 6033TIP3    H118105   2.956   5.796   2.853
 6033TIP3    H218106   3.021   5.926   2.897
 6034TIP3   OH218107   6.095   1.510   4.330
 6034TIP3    H118108   6.018   1.484   4.379
 6034TIP3    H218109   6.162   1.445   4.355
 6035TIP3   OH218110   0.111   4.375   0.135
 6035TIP3    H118111   0.075   4.450   0.183
 6035TIP3    H218112   0.177   4.414   0.077
 6036TIP3   OH218113   3.548   5.264   4.302
 6036TIP3    H118114   3.505   5.219   4.375
 6036TIP3    H218115   3.557   5.354   4.333
 6037TIP3   OH218116   1.835   3.947   2.462
 6037TIP3    H118117   1.799   4.033   2.486
 6037TIP3    H218118   1.758   3.897   2.434
 6038TIP3   OH218119   2.077   5.292   2.163
 6038TIP3    H118120   2.036   5.291   2.249
 6038TIP3    H218121   2.063   5.381   2.131
 6039TIP3   OH218122   0.521   0.746   1.490
 6039TIP3    H118123   0.487   0.707   1.571
 6039TIP3    H218124   0.583   0.681   1.456
 6040TIP3   OH218125   3.308   2.741   2.357
 6040TIP3    H118126   3.349   2.777   2.436
 6040TIP3    H218127   3.330   2.648   2.359
 6041TIP3   OH218128   3.861   3.862   2.984
 6041TIP3    H118129   3.907   3.904   3.057
 6041TIP3    H218130   3.925   3.800   2.948
 6042TIP3   OH218131   3.360   0.368   5.103
 6042TIP3    H118132   3.320   0.306   5.164
 6042TIP3    H218133   3.432   0.318   5.063
 6043TIP3   OH218134   1.418   1.616   0.316
 6043TIP3    H118135   1.345   1.599   0.376
 6043TIP3    H218136   1.490   1.562   0.349
 6044TIP3   OH218137   5.732   0.425   4.184
 6044TIP3    H118138   5.774   0.508   4.206
 6044TIP3    H218139   5.656   0.420   4.242
 6045TIP3   OH218140   5.651   0.350   1.631
 6045TIP3    H118141   5.647   0.419   1.564
 6045TIP3    H218142   5.587   0.376   1.697
 6046TIP3   OH218143   3.521   3.557   3.117
 6046TIP3    H118144   3.466   3.588   3.189
 6046TIP3    H218145   3.609   3.587   3.140
 6047TIP3   OH218146   0.145   2.499   2.663
 6047TIP3    H118147   0.091   2.427   2.695
 6047TIP3    H218148   0.232   2.482   2.698
 6048TIP3   OH218149   0.776   1.799   0.681
 6048TIP3    H118150   0.824   1.760   0.608
 6048TIP3    H218151   0.692   1.754   0.681
 6049TIP3   OH218152   2.595   0.862   5.063
 6049TIP3    H118153   2.550   0.809   5.129
 6049TIP3    H218154   2.685   0.829   5.063
 6050TIP3   OH218155   4.398   1.557   2.111
 6050TIP3    H118156   4.414   1.604   2.193
 6050TIP3    H218157   4.355   1.622   2.055
 6051TIP3   OH218158   5.836   5.308   4.106
 6051TIP3    H118159   5.876   5.395   4.105
 6051TIP3    H218160   5.853   5.274   4.194
 6052TIP3   OH218161   5.143   0.075   3.789
 6052TIP3    H118162   5.076   0.085   3.721
 6052TIP3    H218163   5.160  -0.019   3.794
 6053TIP3   OH218164   3.682   1.723   1.629
 6053TIP3    H118165   3.665   1.779   1.705
 6053TIP3    H218166   3.746   1.772   1.577
 6054TIP3   OH218167   3.470   4.746   0.893
 6054TIP3    H118168   3.466   4.721   0.986
 6054TIP3    H218169   3.546   4.699   0.859
 6055TIP3   OH218170   6.287   0.858   3.049
 6055TIP3    H118171   6.380   0.860   3.030
 6055TIP3    H218172   6.252   0.787   2.994
 6056TIP3   OH218173   0.760   4.333   3.873
 6056TIP3    H118174   0.751   4.335   3.969
 6056TIP3    H218175   0.789   4.244   3.854
 6057TIP3   OH218176   1.107   0.504   0.338
 6057TIP3    H118177   1.178   0.545   0.386
 6057TIP3    H218178   1.139   0.497   0.248
 6058TIP3   OH218179   0.233   0.342   2.678
 6058TIP3    H118180   0.265   0.312   2.592
 6058TIP3    H218181   0.252   0.268   2.737
 6059TIP3   OH218182   4.157   1.090   0.007
 6059TIP3    H118183   4.176   1.044   0.089
 6059TIP3    H218184   4.081   1.144   0.027
 6060TIP3   OH218185   0.255   2.886   2.999
 6060TIP3    H118186   0.295   2.807   2.962
 6060TIP3    H218187   0.276   2.882   3.092
 6061TIP3   OH218188   5.218   4.316   2.095
 6061TIP3    H118189   5.205   4.392   2.038
 6061TIP3    H218190   5.259   4.352   2.174
 6062TIP3   OH218191   1.875   5.038   1.420
 6062TIP3    H118192   1.914   5.122   1.444
 6062TIP3    H218193   1.789   5.060   1.385
 6063TIP3   OH218194   6.232   0.908   4.312
 6063TIP3    H118195   6.322   0.927   4.339
 6063TIP3    H218196   6.235   0.818   4.279
 6064TIP3   OH218197   3.375   5.158   3.575
 6064TIP3    H118198   3.416   5.168   3.489
 6064TIP3    H218199   3.286   5.130   3.556
 6065TIP3   OH218200   5.631   2.048   2.588
 6065TIP3    H118201   5.614   2.093   2.671
 6065TIP3    H218202   5.643   1.956   2.612
 6066TIP3   OH218203   5.763   0.261   2.692
 6066TIP3    H118204   5.718   0.228   2.770
 6066TIP3    H218205   5.765   0.356   2.703
 6067TIP3   OH218206   5.261   2.018   5.066
 6067TIP3    H118207   5.192   1.973   5.115
 6067TIP3    H218208   5.215   2.058   4.992
 6068TIP3   OH218209   1.571   3.864   2.002
 6068TIP3    H118210   1.569   3.877   1.908
 6068TIP3    H218211   1.652   3.908   2.031
 6069TIP3   OH218212   5.755   0.324   3.187
 6069TIP3    H118213   5.849   0.333   3.174
 6069TIP3    H218214   5.736   0.376   3.265
 6070TIP3   OH218215   2.411   1.841   4.446
 6070TIP3    H118216   2.340   1.803   4.497
 6070TIP3    H218217   2.491   1.805   4.485
 6071TIP3   OH218218   1.285   5.858   3.489
 6071TIP3    H118219   1.347   5.909   3.438
 6071TIP3    H218220   1.333   5.831   3.567
 6072TIP3   OH218221   1.840   5.971   2.953
 6072TIP3    H118222   1.851   5.927   3.038
 6072TIP3    H218223   1.789   6.049   2.973
 6073TIP3   OH218224   2.151   4.238   4.584
 6073TIP3    H118225   2.155   4.279   4.498
 6073TIP3    H218226   2.096   4.160   4.572
 6074TIP3   OH218227   0.828   4.396   0.758
 6074TIP3    H118228   0.890   4.469   0.758
 6074TIP3    H218229   0.834   4.358   0.670
 6075TIP3   OH218230   0.390   3.728   0.668
 6075TIP3    H118231   0.475   3.773   0.672
 6075TIP3    H218232   0.381   3.703   0.576
 6076TIP3   OH218233   0.749   3.085   4.405
 6076TIP3    H118234   0.806   3.008   4.404
 6076TIP3    H218235   0.663   3.051   4.429
 6077TIP3   OH218236   1.111   2.734   2.393
 6077TIP3    H118237   1.056   2.658   2.413
 6077TIP3    H218238   1.183   2.728   2.455
 6078TIP3   OH218239   1.585   2.535   0.126
 6078TIP3    H118240   1.626   2.605   0.075
 6078TIP3    H218241   1.659   2.487   0.163
 6079TIP3   OH218242   1.288   3.507   4.261
 6079TIP3    H118243   1.241   3.589   4.276
 6079TIP3    H218244   1.283   3.462   4.346
 6080TIP3   OH218245   0.083   0.401   1.936
 6080TIP3    H118246   0.130   0.380   2.016
 6080TIP3    H218247   0.006   0.451   1.965
 6081TIP3   OH218248   6.216   4.188   0.965
 6081TIP3    H118249   6.308   4.171   0.945
 6081TIP3    H218250   6.218   4.241   1.045
 6082TIP3   OH218251   4.505   0.283   2.035
 6082TIP3    H118252   4.522   0.348   2.103
 6082TIP3    H218253   4.419   0.248   2.056
 6083TIP3   OH218254   2.964   3.429   3.179
 6083TIP3    H118255   2.879   3.387   3.167
 6083TIP3    H218256   2.990   3.456   3.090
 6084TIP3   OH218257   1.341   2.012   4.037
 6084TIP3    H118258   1.392   2.040   4.112
 6084TIP3    H218259   1.262   2.065   4.040
 6085TIP3   OH218260   0.508   5.576   2.054
 6085TIP3    H118261   0.544   5.639   1.993
 6085TIP3    H218262   0.583   5.547   2.106
 6086TIP3   OH218263   5.939   3.383   1.417
 6086TIP3    H118264   5.994   3.442   1.470
 6086TIP3    H218265   5.863   3.365   1.472
 6087TIP3   OH218266   0.168   1.249   3.112
 6087TIP3    H118267   0.242   1.204   3.154
 6087TIP3    H218268   0.174   1.225   3.020
 6088TIP3   OH218269   4.494   0.278   0.959
 6088TIP3    H118270   4.570   0.255   1.012
 6088TIP3    H218271   4.521   0.259   0.869
 6089TIP3   OH218272   0.294   3.771   2.686
 6089TIP3    H118273   0.361   3.814   2.633
 6089TIP3    H218274   0.329   3.775   2.775
 6090TIP3   OH218275   4.294   0.520   2.151
 6090TIP3    H118276   4.365   0.533   2.214
 6090TIP3    H218277   4.336   0.526   2.065
 6091TIP3   OH218278   2.425   2.439   4.974
 6091TIP3    H118279   2.359   2.464   4.909
 6091TIP3    H218280   2.397   2.353   5.005
 6092TIP3   OH218281   5.463   2.394   3.606
 6092TIP3    H118282   5.417   2.403   3.690
 6092TIP3    H218283   5.417   2.455   3.548
 6093TIP3   OH218284   0.761   2.656   2.036
 6093TIP3    H118285   0.836   2.605   2.068
 6093TIP3    H218286   0.799   2.739   2.007
 6094TIP3   OH218287   4.251   0.817   0.511
 6094TIP3    H118288   4.303   0.893   0.486
 6094TIP3    H218289   4.303   0.742   0.483
 6095TIP3   OH218290   2.809   0.209   0.532
 6095TIP3    H118291   2.719   0.228   0.556
 6095TIP3    H218292   2.832   0.131   0.584
 6096TIP3   OH218293   0.649   2.460   1.080
 6096TIP3    H118294   0.697   2.468   0.998
 6096TIP3    H218295   0.578   2.398   1.060
 6097TIP3   OH218296   1.417   4.469   1.385
 6097TIP3    H118297   1.324   4.487   1.373
 6097TIP3    H218298   1.419   4.386   1.433
 6098TIP3   OH218299   5.338   5.523   0.073
 6098TIP3    H118300   5.422   5.565   0.055
 6098TIP3    H218301   5.351   5.478   0.157
 6099TIP3   OH218302   5.328   3.089   4.247
 6099TIP3    H118303   5.375   3.170   4.267
 6099TIP3    H218304   5.324   3.087   4.151
 6100TIP3   OH218305   4.119   3.056   4.469
 6100TIP3    H118306   4.189   3.122   4.464
 6100TIP3    H218307   4.128   3.018   4.556
 6101TIP3   OH218308   4.160   1.461   2.270
 6101TIP3    H118309   4.221   1.453   2.196
 6101TIP3    H218310   4.074   1.465   2.230
 6102TIP3   OH218311   1.038   2.494   4.970
 6102TIP3    H118312   0.958   2.484   5.021
 6102TIP3    H218313   1.084   2.411   4.981
 6103TIP3   OH218314   1.740   3.275   4.687
 6103TIP3    H118315   1.683   3.326   4.744
 6103TIP3    H218316   1.722   3.306   4.599
 6104TIP3   OH218317   1.946   1.222   4.062
 6104TIP3    H118318   1.932   1.277   4.139
 6104TIP3    H218319   1.979   1.282   3.995
 6105TIP3   OH218320   3.750   5.730   5.125
 6105TIP3    H118321   3.696   5.795   5.169
 6105TIP3    H218322   3.833   5.775   5.108
 6106TIP3   OH218323   1.924   2.563   0.085
 6106TIP3    H118324   1.877   2.605   0.157
 6106TIP3    H218325   1.895   2.471   0.088
 6107TIP3   OH218326   5.966   3.662   0.253
 6107TIP3    H118327   5.983   3.568   0.253
 6107TIP3    H218328   5.959   3.686   0.346
 6108TIP3   OH218329   1.407   2.341   3.494
 6108TIP3    H118330   1.370   2.279   3.431
 6108TIP3    H218331   1.371   2.314   3.578
 6109TIP3   OH218332   2.981   1.589   4.858
 6109TIP3    H118333   3.064   1.634   4.841
 6109TIP3    H218334   3.006   1.498   4.872
 6110TIP3   OH218335   3.476   1.792   2.601
 6110TIP3    H118336   3.416   1.850   2.647
 6110TIP3    H218337   3.535   1.852   2.555
 6111TIP3   OH218338   5.452   5.023   0.678
 6111TIP3    H118339   5.365   4.992   0.650
 6111TIP3    H218340   5.441   5.042   0.771
 6112TIP3   OH218341   3.628   3.882   4.498
 6112TIP3    H118342   3.550   3.932   4.474
 6112TIP3    H218343   3.702   3.938   4.473
 6113TIP3   OH218344   4.034   2.290   3.023
 6113TIP3    H118345   4.083   2.245   3.092
 6113TIP3    H218346   3.967   2.339   3.071
 6114TIP3   OH218347   2.151   0.681   1.871
 6114TIP3    H118348   2.131   0.706   1.962
 6114TIP3    H218349   2.093   0.736   1.819
 6115TIP3   OH218350   4.620   3.655   4.842
 6115TIP3    H118351   4.621   3.565   4.875
 6115TIP3    H218352   4.573   3.705   4.909
 6116TIP3   OH218353   1.689   3.486   1.198
 6116TIP3    H118354   1.665   3.465   1.289
 6116TIP3    H218355   1.767   3.540   1.206
 6117TIP3   OH218356   2.844   3.884   1.415
 6117TIP3    H118357   2.831   3.792   1.394
 6117TIP3    H218358   2.755   3.918   1.430
 6118TIP3   OH218359   2.291   2.320   3.118
 6118TIP3    H118360   2.336   2.384   3.173
 6118TIP3    H218361   2.199   2.348   3.119
 6119TIP3   OH218362   3.844   0.225   3.030
 6119TIP3    H118363   3.910   0.291   3.006
 6119TIP3    H218364   3.829   0.240   3.123
 6120TIP3   OH218365   5.946   4.755   1.882
 6120TIP3    H118366   5.992   4.731   1.801
 6120TIP3    H218367   5.982   4.696   1.948
 6121TIP3   OH218368   4.943   2.249   2.901
 6121TIP3    H118369   4.860   2.292   2.878
 6121TIP3    H218370   4.979   2.220   2.817
 6122TIP3   OH218371   2.330   2.872   0.165
 6122TIP3    H118372   2.295   2.812   0.100
 6122TIP3    H218373   2.383   2.817   0.223
 6123TIP3   OH218374   3.709   3.424   4.885
 6123TIP3    H118375   3.618   3.395   4.891
 6123TIP3    H218376   3.761   3.350   4.918
 6124TIP3   OH218377   3.491   4.671   5.057
 6124TIP3    H118378   3.440   4.652   5.135
 6124TIP3    H218379   3.580   4.643   5.079
 6125TIP3   OH218380   0.924   3.671   4.055
 6125TIP3    H118381   0.935   3.757   4.095
 6125TIP3    H218382   0.840   3.676   4.010
 6126TIP3   OH218383   1.572   2.044   0.486
 6126TIP3    H118384   1.562   1.949   0.491
 6126TIP3    H218385   1.589   2.072   0.576
 6127TIP3   OH218386   1.352   0.801   4.214
 6127TIP3    H118387   1.434   0.840   4.183
 6127TIP3    H218388   1.295   0.802   4.137
 6128TIP3   OH218389   2.522   0.954   1.938
 6128TIP3    H118390   2.445   1.011   1.940
 6128TIP3    H218391   2.516   0.908   1.855
 6129TIP3   OH218392   3.205   1.083   0.185
 6129TIP3    H118393   3.275   1.030   0.222
 6129TIP3    H218394   3.153   1.110   0.260
 6130TIP3   OH218395   0.701   1.976   3.971
 6130TIP3    H118396   0.663   2.004   4.055
 6130TIP3    H218397   0.646   1.902   3.944
 6131TIP3   OH218398   4.882   0.159   4.811
 6131TIP3    H118399   4.935   0.109   4.874
 6131TIP3    H218400   4.847   0.092   4.752
 6132TIP3   OH218401   5.175   3.579   3.302
 6132TIP3    H118402   5.095   3.527   3.305
 6132TIP3    H218403   5.183   3.616   3.390
 6133TIP3   OH218404   3.241   2.860   3.059
 6133TIP3    H118405   3.178   2.794   3.084
 6133TIP3    H218406   3.222   2.935   3.116
 6134TIP3   OH218407   4.357   5.691   0.140
 6134TIP3    H118408   4.346   5.688   0.045
 6134TIP3    H218409   4.310   5.770   0.167
 6135TIP3   OH218410   2.104   5.871   1.701
 6135TIP3    H118411   2.075   5.960   1.679
 6135TIP3    H218412   2.058   5.850   1.782
 6136TIP3   OH218413   4.131   0.891   2.113
 6136TIP3    H118414   4.060   0.875   2.050
 6136TIP3    H218415   4.131   0.986   2.124
 6137TIP3   OH218416   2.610   2.101   1.011
 6137TIP3    H118417   2.533   2.147   1.045
 6137TIP3    H218418   2.656   2.071   1.089
 6138TIP3   OH218419   3.673   0.248   4.179
 6138TIP3    H118420   3.692   0.246   4.273
 6138TIP3    H218421   3.655   0.156   4.157
 6139TIP3   OH218422   4.175   4.028   1.495
 6139TIP3    H118423   4.176   3.942   1.453
 6139TIP3    H218424   4.244   4.024   1.561
 6140TIP3   OH218425   4.436   5.210   4.233
 6140TIP3    H118426   4.441   5.274   4.305
 6140TIP3    H218427   4.392   5.258   4.163
 6141TIP3   OH218428   1.049   4.696   1.257
 6141TIP3    H118429   1.075   4.699   1.165
 6141TIP3    H218430   1.082   4.611   1.288
 6142TIP3   OH218431   0.395   1.194   3.249
 6142TIP3    H118432   0.444   1.128   3.297
 6142TIP3    H218433   0.390   1.269   3.308
 6143TIP3   OH218434   1.565   4.535   5.147
 6143TIP3    H118435   1.470   4.521   5.152
 6143TIP3    H218436   1.590   4.497   5.062
 6144TIP3   OH218437   1.923   4.252   1.127
 6144TIP3    H118438   1.849   4.192   1.122
 6144TIP3    H218439   1.930   4.289   1.039
 6145TIP3   OH218440   4.781   4.736   3.244
 6145TIP3    H118441   4.809   4.645   3.260
 6145TIP3    H218442   4.792   4.779   3.328
 6146TIP3   OH218443   1.314   3.711   5.139
 6146TIP3    H118444   1.319   3.625   5.182
 6146TIP3    H218445   1.245   3.701   5.074
 6147TIP3   OH218446   6.297   4.173   4.279
 6147TIP3    H118447   6.391   4.163   4.287
 6147TIP3    H218448   6.280   4.171   4.184
 6148TIP3   OH218449   0.947   1.725   0.081
 6148TIP3    H118450   0.970   1.801   0.135
 6148TIP3    H218451   0.986   1.744  -0.004
 6149TIP3   OH218452   4.430   3.074   4.004
 6149TIP3    H118453   4.486   3.132   4.056
 6149TIP3    H218454   4.378   3.026   4.069
 6150TIP3   OH218455   2.813   1.797   3.957
 6150TIP3    H118456   2.868   1.803   3.878
 6150TIP3    H218457   2.858   1.733   4.012
 6151TIP3   OH218458   2.819   0.948   0.097
 6151TIP3    H118459   2.733   0.909   0.111
 6151TIP3    H218460   2.802   1.042   0.096
 6152TIP3   OH218461   4.499   3.174   2.013
 6152TIP3    H118462   4.547   3.254   1.991
 6152TIP3    H218463   4.463   3.190   2.100
 6153TIP3   OH218464   4.527   1.618   0.691
 6153TIP3    H118465   4.475   1.643   0.767
 6153TIP3    H218466   4.517   1.691   0.630
 6154TIP3   OH218467   2.877   0.807   0.912
 6154TIP3    H118468   2.948   0.839   0.967
 6154TIP3    H218469   2.908   0.722   0.881
 6155TIP3   OH218470   5.685   5.650   1.165
 6155TIP3    H118471   5.715   5.574   1.114
 6155TIP3    H218472   5.762   5.707   1.170
 6156TIP3   OH218473   2.430   3.216   4.871
 6156TIP3    H118474   2.508   3.224   4.926
 6156TIP3    H218475   2.362   3.183   4.929
 6157TIP3   OH218476   3.939   5.061   3.408
 6157TIP3    H118477   3.844   5.050   3.418
 6157TIP3    H218478   3.953   5.064   3.313
 6158TIP3   OH218479   4.040   0.497   3.478
 6158TIP3    H118480   4.132   0.477   3.495
 6158TIP3    H218481   4.006   0.528   3.562
 6159TIP3   OH218482   1.133   2.225   5.104
 6159TIP3    H118483   1.194   2.220   5.031
 6159TIP3    H218484   1.084   2.143   5.101
 6160TIP3   OH218485   3.525   2.425  -0.023
 6160TIP3    H118486   3.524   2.343   0.026
 6160TIP3    H218487   3.443   2.468   0.000
 6161TIP3   OH218488   0.825   0.695   4.886
 6161TIP3    H118489   0.823   0.790   4.893
 6161TIP3    H218490   0.917   0.671   4.896
 6162TIP3   OH218491   4.067   5.721   2.721
 6162TIP3    H118492   4.077   5.801   2.772
 6162TIP3    H218493   4.138   5.664   2.752
 6163TIP3   OH218494   3.643   5.261   2.426
 6163TIP3    H118495   3.582   5.264   2.500
 6163TIP3    H218496   3.664   5.353   2.409
 6164TIP3   OH218497   4.171   1.897   4.950
 6164TIP3    H118498   4.149   1.836   4.879
 6164TIP3    H218499   4.151   1.849   5.030
 6165TIP3   OH218500   3.658   5.473   3.284
 6165TIP3    H118501   3.738   5.508   3.324
 6165TIP3    H218502   3.602   5.549   3.271
 6166TIP3   OH218503   3.195   3.630   2.664
 6166TIP3    H118504   3.207   3.539   2.638
 6166TIP3    H218505   3.279   3.672   2.645
 6167TIP3   OH218506   3.865   1.136   0.779
 6167TIP3    H118507   3.902   1.066   0.725
 6167TIP3    H218508   3.792   1.094   0.825
 6168TIP3   OH218509   1.720   2.658   4.248
 6168TIP3    H118510   1.799   2.604   4.242
 6168TIP3    H218511   1.693   2.651   4.339
 6169TIP3   OH218512   0.906   4.401   2.097
 6169TIP3    H118513   0.955   4.477   2.065
 6169TIP3    H218514   0.973   4.334   2.111
 6170TIP3   OH218515   5.666  -0.016   2.642
 6170TIP3    H118516   5.684   0.078   2.632
 6170TIP3    H218517   5.745  -0.051   2.683
 6171TIP3   OH218518   0.802   3.358   1.774
 6171TIP3    H118519   0.722   3.326   1.733
 6171TIP3    H218520   0.781   3.369   1.866
 6172TIP3   OH218521   1.833   4.803   3.783
 6172TIP3    H118522   1.843   4.889   3.825
 6172TIP3    H218523   1.920   4.784   3.748
 6173TIP3   OH218524   1.218   5.326   2.537
 6173TIP3    H118525   1.167   5.249   2.561
 6173TIP3    H218526   1.186   5.350   2.450
 6174TIP3   OH218527   2.140   3.003   1.747
 6174TIP3    H118528   2.080   3.010   1.673
 6174TIP3    H218529   2.101   3.059   1.815
 6175TIP3   OH218530   3.834   1.494   3.183
 6175TIP3    H118531   3.817   1.451   3.099
 6175TIP3    H218532   3.839   1.587   3.161
 6176TIP3   OH218533   4.885   1.432   0.617
 6176TIP3    H118534   4.844   1.493   0.678
 6176TIP3    H218535   4.815   1.373   0.590
 6177TIP3   OH218536   0.757   2.550   2.579
 6177TIP3    H118537   0.851   2.542   2.568
 6177TIP3    H218538   0.730   2.615   2.514
 6178TIP3   OH218539   6.207   5.316   0.268
 6178TIP3    H118540   6.233   5.228   0.240
 6178TIP3    H218541   6.232   5.320   0.360
 6179TIP3   OH218542   4.901   1.906   3.993
 6179TIP3    H118543   4.838   1.835   4.008
 6179TIP3    H218544   4.980   1.862   3.963
 6180TIP3   OH218545   1.951   4.058   0.808
 6180TIP3    H118546   1.930   4.149   0.828
 6180TIP3    H218547   2.047   4.054   0.813
 6181TIP3   OH218548   0.592   4.572   3.091
 6181TIP3    H118549   0.613   4.479   3.089
 6181TIP3    H218550   0.652   4.608   3.157
 6182TIP3   OH218551   1.035   4.284   3.347
 6182TIP3    H118552   0.971   4.305   3.279
 6182TIP3    H218553   1.017   4.348   3.416
 6183TIP3   OH218554   5.541   3.704   3.948
 6183TIP3    H118555   5.532   3.745   4.034
 6183TIP3    H218556   5.499   3.765   3.888
 6184TIP3   OH218557   4.623   1.751   0.310
 6184TIP3    H118558   4.637   1.659   0.289
 6184TIP3    H218559   4.566   1.783   0.239
 6185TIP3   OH218560   5.597   3.730   4.804
 6185TIP3    H118561   5.585   3.661   4.869
 6185TIP3    H218562   5.575   3.688   4.721
 6186TIP3   OH218563   5.818   4.279   3.816
 6186TIP3    H118564   5.867   4.215   3.867
 6186TIP3    H218565   5.741   4.298   3.871
 6187TIP3   OH218566   2.033   2.995   4.326
 6187TIP3    H118567   1.957   2.996   4.385
 6187TIP3    H218568   2.007   2.934   4.257
 6188TIP3   OH218569   5.763   1.870   4.167
 6188TIP3    H118570   5.788   1.804   4.103
 6188TIP3    H218571   5.777   1.828   4.252
 6189TIP3   OH218572   6.217   5.149   3.770
 6189TIP3    H118573   6.195   5.184   3.857
 6189TIP3    H218574   6.245   5.225   3.720
 6190TIP3   OH218575   5.947   1.369   2.534
 6190TIP3    H118576   5.871   1.357   2.477
 6190TIP3    H218577   5.955   1.464   2.544
 6191TIP3   OH218578   6.132   2.352   2.928
 6191TIP3    H118579   6.116   2.421   2.865
 6191TIP3    H218580   6.212   2.379   2.974
 6192TIP3   OH218581   2.722   1.149   1.659
 6192TIP3    H118582   2.626   1.145   1.663
 6192TIP3    H218583   2.745   1.230   1.704
 6193TIP3   OH218584   0.570   3.266   1.646
 6193TIP3    H118585   0.547   3.180   1.679
 6193TIP3    H218586   0.490   3.318   1.655
 6194TIP3   OH218587   2.520   3.312   2.442
 6194TIP3    H118588   2.461   3.349   2.507
 6194TIP3    H218589   2.520   3.218   2.460
 6195TIP3   OH218590   2.993   2.895   1.915
 6195TIP3    H118591   3.022   2.837   1.985
 6195TIP3    H218592   2.952   2.969   1.959
 6196TIP3   OH218593   3.692   4.703   2.645
 6196TIP3    H118594   3.742   4.649   2.585
 6196TIP3    H218595   3.730   4.791   2.635
 6197TIP3   OH218596   1.313   3.887   0.593
 6197TIP3    H118597   1.234   3.861   0.640
 6197TIP3    H218598   1.306   3.983   0.585
 6198TIP3   OH218599   5.970   1.715   3.850
 6198TIP3    H118600   5.948   1.689   3.939
 6198TIP3    H218601   5.907   1.667   3.795
 6199TIP3   OH218602   0.429   2.064   2.685
 6199TIP3    H118603   0.345   2.024   2.704
 6199TIP3    H218604   0.487   2.034   2.755
 6200TIP3   OH218605   4.176   4.275   4.406
 6200TIP3    H118606   4.174   4.351   4.464
 6200TIP3    H218607   4.127   4.303   4.329
 6201TIP3   OH218608   0.936   4.629   3.830
 6201TIP3    H118609   0.862   4.587   3.874
 6201TIP3    H218610   0.909   4.721   3.820
 6202TIP3   OH218611   3.583   1.486   1.698
 6202TIP3    H118612   3.630   1.564   1.669
 6202TIP3    H218613   3.643   1.414   1.678
 6203TIP3   OH218614   2.651   1.385   3.620
 6203TIP3    H118615   2.674   1.435   3.698
 6203TIP3    H218616   2.636   1.296   3.652
 6204TIP3   OH218617   3.269   5.269   0.503
 6204TIP3    H118618   3.335   5.338   0.517
 6204TIP3    H218619   3.202   5.311   0.449
 6205TIP3   OH218620   5.698   4.416   0.765
 6205TIP3    H118621   5.705   4.454   0.852
 6205TIP3    H218622   5.716   4.488   0.705
 6206TIP3   OH218623   6.248   2.957   2.641
 6206TIP3    H118624   6.243   2.873   2.595
 6206TIP3    H218625   6.175   2.953   2.704
 6207TIP3   OH218626   6.041   5.208   0.644
 6207TIP3    H118627   6.104   5.237   0.711
 6207TIP3    H218628   5.958   5.201   0.692
 6208TIP3   OH218629   5.012   3.365   3.729
 6208TIP3    H118630   5.035   3.333   3.817
 6208TIP3    H218631   4.917   3.353   3.725
 6209TIP3   OH218632   4.056   5.058   0.421
 6209TIP3    H118633   4.033   5.004   0.497
 6209TIP3    H218634   4.146   5.033   0.401
 6210TIP3   OH218635   0.807   3.137   3.284
 6210TIP3    H118636   0.903   3.141   3.285
 6210TIP3    H218637   0.779   3.216   3.330
 6211TIP3   OH218638   2.784   1.731   0.432
 6211TIP3    H118639   2.737   1.805   0.472
 6211TIP3    H218640   2.734   1.654   0.460
 6212TIP3   OH218641   1.315   5.851   2.325
 6212TIP3    H118642   1.270   5.807   2.397
 6212TIP3    H218643   1.408   5.840   2.344
 6213TIP3   OH218644   2.444   3.997   1.193
 6213TIP3    H118645   2.470   3.998   1.285
 6213TIP3    H218646   2.369   4.057   1.189
 6214TIP3   OH218647   2.726   5.447   0.584
 6214TIP3    H118648   2.791   5.451   0.514
 6214TIP3    H218649   2.658   5.388   0.552
 6215TIP3   OH218650   4.371   3.994   3.530
 6215TIP3    H118651   4.419   4.072   3.503
 6215TIP3    H218652   4.392   3.983   3.622
 6216TIP3   OH218653   2.191   3.295   1.513
 6216TIP3    H118654   2.145   3.360   1.567
 6216TIP3    H218655   2.186   3.330   1.424
 6217TIP3   OH218656   5.062   2.187   4.094
 6217TIP3    H118657   4.977   2.176   4.136
 6217TIP3    H218658   5.046   2.170   4.001
 6218TIP3   OH218659   3.538   2.470   4.074
 6218TIP3    H118660   3.629   2.457   4.046
 6218TIP3    H218661   3.512   2.386   4.110
 6219TIP3   OH218662   5.082   2.770   2.909
 6219TIP3    H118663   5.100   2.781   3.002
 6219TIP3    H218664   5.023   2.842   2.888
 6220TIP3   OH218665   6.165   2.360   4.389
 6220TIP3    H118666   6.243   2.367   4.445
 6220TIP3    H218667   6.200   2.344   4.302
 6221TIP3   OH218668   5.012   2.904   3.791
 6221TIP3    H118669   4.949   2.943   3.852
 6221TIP3    H218670   4.984   2.936   3.705
 6222TIP3   OH218671   5.025   2.947   4.774
 6222TIP3    H118672   4.949   2.972   4.722
 6222TIP3    H218673   5.027   2.851   4.770
 6223TIP3   OH218674   0.038   0.172   2.984
 6223TIP3    H118675   0.106   0.232   2.952
 6223TIP3    H218676   0.087   0.103   3.029
 6224TIP3   OH218677   0.380   3.111   4.857
 6224TIP3    H118678   0.343   3.194   4.888
 6224TIP3    H218679   0.366   3.111   4.763
 6225TIP3   OH218680   6.263   0.949   0.127
 6225TIP3    H118681   6.294   1.003   0.054
 6225TIP3    H218682   6.238   0.866   0.088
 6226TIP3   OH218683   5.387   5.107   1.958
 6226TIP3    H118684   5.296   5.133   1.974
 6226TIP3    H218685   5.431   5.188   1.935
 6227TIP3   OH218686   4.302   4.631   3.878
 6227TIP3    H118687   4.212   4.601   3.894
 6227TIP3    H218688   4.295   4.685   3.799
 6228TIP3   OH218689   2.516   5.383   2.238
 6228TIP3    H118690   2.583   5.434   2.192
 6228TIP3    H218691   2.447   5.369   2.173
 6229TIP3   OH218692   0.645   2.313   3.971
 6229TIP3    H118693   0.665   2.226   4.007
 6229TIP3    H218694   0.552   2.327   3.991
 6230TIP3   OH218695   2.199   2.035   4.369
 6230TIP3    H118696   2.279   1.993   4.338
 6230TIP3    H218697   2.137   1.962   4.382
 6231TIP3   OH218698   0.086   2.663   1.340
 6231TIP3    H118699   0.132   2.692   1.419
 6231TIP3    H218700   0.030   2.592   1.371
 6232TIP3   OH218701   3.156   1.979   3.932
 6232TIP3    H118702   3.086   2.012   3.875
 6232TIP3    H218703   3.184   1.898   3.891
 6233TIP3   OH218704   3.411   1.330   4.248
 6233TIP3    H118705   3.466   1.281   4.186
 6233TIP3    H218706   3.327   1.284   4.246
 6234TIP3   OH218707   0.767   5.093   2.443
 6234TIP3    H118708   0.712   5.049   2.508
 6234TIP3    H218709   0.851   5.106   2.486
 6235TIP3   OH218710   0.426   3.175   2.544
 6235TIP3    H118711   0.478   3.159   2.623
 6235TIP3    H218712   0.419   3.090   2.502
 6236TIP3   OH218713   0.617   3.449   2.525
 6236TIP3    H118714   0.589   3.364   2.490
 6236TIP3    H218715   0.705   3.432   2.559
 6237TIP3   OH218716   1.422   0.252   1.903
 6237TIP3    H118717   1.350   0.274   1.844
 6237TIP3    H218718   1.486   0.322   1.889
 6238TIP3   OH218719   4.978   5.131   1.410
 6238TIP3    H118720   5.064   5.161   1.440
 6238TIP3    H218721   4.935   5.210   1.378
 6239TIP3   OH218722   4.561   5.690   1.246
 6239TIP3    H118723   4.559   5.780   1.279
 6239TIP3    H218724   4.523   5.695   1.158
 6240TIP3   OH218725   2.720   2.841   3.602
 6240TIP3    H118726   2.711   2.790   3.682
 6240TIP3    H218727   2.648   2.904   3.606
 6241TIP3   OH218728   0.408   3.332   1.207
 6241TIP3    H118729   0.414   3.423   1.178
 6241TIP3    H218730   0.480   3.322   1.269
 6242TIP3   OH218731   3.739   3.862   0.558
 6242TIP3    H118732   3.729   3.925   0.630
 6242TIP3    H218733   3.650   3.835   0.538
 6243TIP3   OH218734   1.020   4.690   4.251
 6243TIP3    H118735   0.992   4.773   4.291
 6243TIP3    H218736   0.938   4.644   4.234
 6244TIP3   OH218737   2.533   1.386   3.187
 6244TIP3    H118738   2.625   1.394   3.211
 6244TIP3    H218739   2.520   1.451   3.118
 6245TIP3   OH218740   0.156   2.246   3.703
 6245TIP3    H118741   0.187   2.219   3.790
 6245TIP3    H218742   0.160   2.341   3.705
 6246TIP3   OH218743   4.867   4.841   3.031
 6246TIP3    H118744   4.927   4.770   3.009
 6246TIP3    H218745   4.814   4.806   3.102
 6247TIP3   OH218746   4.584   5.544   4.385
 6247TIP3    H118747   4.536   5.462   4.394
 6247TIP3    H218748   4.523   5.603   4.340
 6248TIP3   OH218749   1.799   4.511   2.855
 6248TIP3    H118750   1.749   4.502   2.936
 6248TIP3    H218751   1.805   4.605   2.840
 6249TIP3   OH218752   2.138   3.224   3.295
 6249TIP3    H118753   2.160   3.153   3.355
 6249TIP3    H218754   2.048   3.248   3.319
 6250TIP3   OH218755   3.373   0.831   3.557
 6250TIP3    H118756   3.434   0.848   3.629
 6250TIP3    H218757   3.430   0.819   3.480
 6251TIP3   OH218758   5.173   0.816   4.611
 6251TIP3    H118759   5.163   0.740   4.553
 6251TIP3    H218760   5.110   0.879   4.578
 6252TIP3   OH218761   0.776   2.941   1.713
 6252TIP3    H118762   0.789   2.961   1.805
 6252TIP3    H218763   0.685   2.963   1.696
 6253TIP3   OH218764   4.982   4.551   2.486
 6253TIP3    H118765   4.930   4.511   2.417
 6253TIP3    H218766   5.058   4.588   2.441
 6254TIP3   OH218767   5.662   0.059   3.254
 6254TIP3    H118768   5.706   0.124   3.199
 6254TIP3    H218769   5.679   0.087   3.344
 6255TIP3   OH218770   3.498   2.580   1.180
 6255TIP3    H118771   3.536   2.492   1.170
 6255TIP3    H218772   3.504   2.619   1.094
 6256TIP3   OH218773   2.368   4.931   2.087
 6256TIP3    H118774   2.397   4.847   2.053
 6256TIP3    H218775   2.413   4.940   2.171
 6257TIP3   OH218776   6.188   4.923   5.104
 6257TIP3    H118777   6.108   4.974   5.092
 6257TIP3    H218778   6.257   4.978   5.066
 6258TIP3   OH218779   3.705   3.397   1.884
 6258TIP3    H118780   3.634   3.436   1.833
 6258TIP3    H218781   3.748   3.337   1.823
 6259TIP3   OH218782   2.002   1.740   0.668
 6259TIP3    H118783   2.078   1.797   0.653
 6259TIP3    H218784   2.013   1.709   0.757
 6260TIP3   OH218785   4.135   1.950   4.538
 6260TIP3    H118786   4.106   1.863   4.510
 6260TIP3    H218787   4.227   1.938   4.563
 6261TIP3   OH218788   1.537   0.066   3.044
 6261TIP3    H118789   1.469   0.133   3.051
 6261TIP3    H218790   1.545   0.031   3.133
 6262TIP3   OH218791   1.884   1.658   4.175
 6262TIP3    H118792   1.910   1.750   4.180
 6262TIP3    H218793   1.965   1.610   4.157
 6263TIP3   OH218794   4.350   2.151   2.721
 6263TIP3    H118795   4.359   2.109   2.635
 6263TIP3    H218796   4.261   2.187   2.721
 6264TIP3   OH218797   0.312   4.188   1.960
 6264TIP3    H118798   0.404   4.168   1.981
 6264TIP3    H218799   0.284   4.115   1.906
 6265TIP3   OH218800   4.734   3.274   0.943
 6265TIP3    H118801   4.781   3.291   0.861
 6265TIP3    H218802   4.803   3.265   1.009
 6266TIP3   OH218803   2.458   2.689   2.387
 6266TIP3    H118804   2.369   2.694   2.352
 6266TIP3    H218805   2.482   2.597   2.379
 6267TIP3   OH218806   5.054   4.540   4.774
 6267TIP3    H118807   5.122   4.496   4.825
 6267TIP3    H218808   5.101   4.583   4.703
 6268TIP3   OH218809   2.733   5.195   3.667
 6268TIP3    H118810   2.806   5.219   3.723
 6268TIP3    H218811   2.719   5.272   3.612
 6269TIP3   OH218812   4.676   2.599   4.232
 6269TIP3    H118813   4.726   2.544   4.291
 6269TIP3    H218814   4.691   2.562   4.145
 6270TIP3   OH218815   1.278   3.444   0.316
 6270TIP3    H118816   1.338   3.384   0.271
 6270TIP3    H218817   1.295   3.430   0.409
 6271TIP3   OH218818   5.399   0.741   1.807
 6271TIP3    H118819   5.484   0.746   1.762
 6271TIP3    H218820   5.394   0.822   1.857
 6272TIP3   OH218821   4.513   3.661   1.725
 6272TIP3    H118822   4.419   3.644   1.720
 6272TIP3    H218823   4.542   3.612   1.802
 6273TIP3   OH218824   1.350   0.388   5.048
 6273TIP3    H118825   1.402   0.331   5.106
 6273TIP3    H218826   1.407   0.403   4.973
 6274TIP3   OH218827   2.846   3.240   1.361
 6274TIP3    H118828   2.856   3.148   1.385
 6274TIP3    H218829   2.831   3.239   1.266
 6275TIP3   OH218830   0.966   0.844   3.718
 6275TIP3    H118831   0.884   0.837   3.670
 6275TIP3    H218832   0.988   0.937   3.716
 6276TIP3   OH218833   3.339   3.872   1.737
 6276TIP3    H118834   3.268   3.811   1.717
 6276TIP3    H218835   3.389   3.829   1.806
 6277TIP3   OH218836   2.415   2.954   3.603
 6277TIP3    H118837   2.416   2.924   3.512
 6277TIP3    H218838   2.324   2.942   3.631
 6278TIP3   OH218839   3.131   1.735   2.338
 6278TIP3    H118840   3.070   1.806   2.317
 6278TIP3    H218841   3.130   1.679   2.260
 6279TIP3   OH218842   5.910   4.090   1.034
 6279TIP3    H118843   5.877   4.122   0.950
 6279TIP3    H218844   6.005   4.099   1.027
 6280TIP3   OH218845   4.103   3.465   1.449
 6280TIP3    H118846   4.018   3.470   1.404
 6280TIP3    H218847   4.159   3.417   1.388
 6281TIP3   OH218848   2.267   0.348   2.083
 6281TIP3    H118849   2.265   0.346   1.987
 6281TIP3    H218850   2.258   0.256   2.108
 6282TIP3   OH218851   3.815   2.668   4.259
 6282TIP3    H118852   3.847   2.635   4.175
 6282TIP3    H218853   3.873   2.742   4.279
 6283TIP3   OH218854   1.468   0.449   4.763
 6283TIP3    H118855   1.479   0.395   4.685
 6283TIP3    H218856   1.397   0.509   4.740
 6284TIP3   OH218857   2.975   0.970   2.728
 6284TIP3    H118858   2.908   1.037   2.715
 6284TIP3    H218859   2.927   0.888   2.739
 6285TIP3   OH218860   4.137   4.131   3.405
 6285TIP3    H118861   4.227   4.101   3.413
 6285TIP3    H218862   4.144   4.220   3.371
 6286TIP3   OH218863   4.673   1.735   2.845
 6286TIP3    H118864   4.739   1.800   2.823
 6286TIP3    H218865   4.625   1.774   2.919
 6287TIP3   OH218866   6.015   0.444   3.620
 6287TIP3    H118867   6.054   0.358   3.632
 6287TIP3    H218868   6.027   0.463   3.527
 6288TIP3   OH218869   2.128   1.230   5.152
 6288TIP3    H118870   2.153   1.142   5.181
 6288TIP3    H218871   2.047   1.216   5.102
 6289TIP3   OH218872   0.192   1.934   2.763
 6289TIP3    H118873   0.103   1.941   2.798
 6289TIP3    H218874   0.181   1.888   2.680
 6290TIP3   OH218875   5.945   0.566   0.916
 6290TIP3    H118876   5.885   0.568   0.990
 6290TIP3    H218877   5.932   0.480   0.876
 6291TIP3   OH218878   4.791   5.653   0.795
 6291TIP3    H118879   4.763   5.698   0.715
 6291TIP3    H218880   4.834   5.721   0.847
 6292TIP3   OH218881   3.601   0.822   5.087
 6292TIP3    H118882   3.673   0.871   5.047
 6292TIP3    H218883   3.641   0.742   5.120
 6293TIP3   OH218884   5.797   1.306   1.351
 6293TIP3    H118885   5.762   1.230   1.397
 6293TIP3    H218886   5.747   1.309   1.270
 6294TIP3   OH218887   4.405   2.098   4.243
 6294TIP3    H118888   4.384   2.113   4.335
 6294TIP3    H218889   4.333   2.043   4.211
 6295TIP3   OH218890   6.289   4.474   0.360
 6295TIP3    H118891   6.265   4.424   0.438
 6295TIP3    H218892   6.213   4.529   0.342
 6296TIP3   OH218893   5.903   2.924   1.192
 6296TIP3    H118894   5.829   2.929   1.253
 6296TIP3    H218895   5.944   3.010   1.198
 6297TIP3   OH218896   4.898   0.407   3.952
 6297TIP3    H118897   4.893   0.500   3.975
 6297TIP3    H218898   4.861   0.403   3.863
 6298TIP3   OH218899   4.074   4.330   2.808
 6298TIP3    H118900   4.027   4.246   2.808
 6298TIP3    H218901   4.058   4.366   2.721
 6299TIP3   OH218902   1.973   5.669   4.813
 6299TIP3    H118903   1.921   5.697   4.888
 6299TIP3    H218904   1.975   5.745   4.755
 6300TIP3   OH218905   5.854   2.418   3.062
 6300TIP3    H118906   5.801   2.342   3.037
 6300TIP3    H218907   5.934   2.381   3.099
 6301TIP3   OH218908   5.297   0.808   0.490
 6301TIP3    H118909   5.277   0.800   0.583
 6301TIP3    H218910   5.216   0.839   0.450
 6302TIP3   OH218911   5.242   5.250   0.072
 6302TIP3    H118912   5.166   5.262   0.016
 6302TIP3    H218913   5.260   5.337   0.107
 6303TIP3   OH218914   2.225   3.126   4.621
 6303TIP3    H118915   2.162   3.167   4.681
 6303TIP3    H218916   2.223   3.033   4.643
 6304TIP3   OH218917   1.030   4.607   0.698
 6304TIP3    H118918   1.116   4.566   0.709
 6304TIP3    H218919   1.042   4.671   0.629
 6305TIP3   OH218920   3.924   1.193   2.710
 6305TIP3    H118921   3.980   1.145   2.649
 6305TIP3    H218922   3.867   1.127   2.749
 6306TIP3   OH218923   2.180   0.691   0.833
 6306TIP3    H118924   2.162   0.632   0.906
 6306TIP3    H218925   2.141   0.774   0.859
 6307TIP3   OH218926   6.329   0.493   0.116
 6307TIP3    H118927   6.405   0.448   0.079
 6307TIP3    H218928   6.260   0.426   0.120
 6308TIP3   OH218929   3.973   2.591   3.957
 6308TIP3    H118930   4.037   2.522   3.973
 6308TIP3    H218931   4.009   2.641   3.884
 6309TIP3   OH218932   3.923   4.488   4.556
 6309TIP3    H118933   4.016   4.491   4.580
 6309TIP3    H218934   3.879   4.455   4.634
 6310TIP3   OH218935   0.822   0.819   3.206
 6310TIP3    H118936   0.844   0.755   3.138
 6310TIP3    H218937   0.904   0.830   3.255
 6311TIP3   OH218938   5.618   0.876   2.595
 6311TIP3    H118939   5.656   0.837   2.516
 6311TIP3    H218940   5.638   0.813   2.664
 6312TIP3   OH218941   1.462   2.046   3.769
 6312TIP3    H118942   1.420   1.992   3.702
 6312TIP3    H218943   1.433   2.009   3.852
 6313TIP3   OH218944   5.401   0.551   0.547
 6313TIP3    H118945   5.445   0.569   0.630
 6313TIP3    H218946   5.366   0.637   0.520
 6314TIP3   OH218947   0.897   3.379   0.541
 6314TIP3    H118948   0.885   3.473   0.526
 6314TIP3    H218949   0.992   3.368   0.543
 6315TIP3   OH218950   1.075   2.299   2.296
 6315TIP3    H118951   0.989   2.275   2.331
 6315TIP3    H218952   1.137   2.244   2.344
 6316TIP3   OH218953   5.680   4.706   2.983
 6316TIP3    H118954   5.621   4.764   2.935
 6316TIP3    H218955   5.761   4.756   2.993
 6317TIP3   OH218956   1.001   5.223   3.339
 6317TIP3    H118957   1.014   5.160   3.409
 6317TIP3    H218958   0.972   5.170   3.264
 6318TIP3   OH218959   6.085   4.360   2.561
 6318TIP3    H118960   6.050   4.332   2.645
 6318TIP3    H218961   6.146   4.431   2.582
 6319TIP3   OH218962   2.969   1.036   0.751
 6319TIP3    H118963   2.901   0.976   0.782
 6319TIP3    H218964   2.962   1.112   0.810
 6320TIP3   OH218965   2.788   0.394   1.804
 6320TIP3    H118966   2.861   0.455   1.792
 6320TIP3    H218967   2.829   0.312   1.831
 6321TIP3   OH218968   6.080   4.727   1.648
 6321TIP3    H118969   6.160   4.675   1.656
 6321TIP3    H218970   6.111   4.812   1.615
 6322TIP3   OH218971   0.837   4.078   4.829
 6322TIP3    H118972   0.899   4.058   4.759
 6322TIP3    H218973   0.754   4.040   4.800
 6323TIP3   OH218974   4.891   1.122   4.990
 6323TIP3    H118975   4.974   1.162   4.961
 6323TIP3    H218976   4.865   1.066   4.917
 6324TIP3   OH218977   1.283   4.488   5.119
 6324TIP3    H118978   1.202   4.458   5.160
 6324TIP3    H218979   1.254   4.534   5.040
 6325TIP3   OH218980   4.494   0.492   1.224
 6325TIP3    H118981   4.542   0.537   1.154
 6325TIP3    H218982   4.534   0.523   1.305
 6326TIP3   OH218983   1.645   3.202   2.346
 6326TIP3    H118984   1.732   3.190   2.307
 6326TIP3    H218985   1.612   3.113   2.360
 6327TIP3   OH218986   3.508   3.595   0.711
 6327TIP3    H118987   3.526   3.656   0.639
 6327TIP3    H218988   3.473   3.517   0.667
 6328TIP3   OH218989   0.685   4.019   0.791
 6328TIP3    H118990   0.613   4.081   0.793
 6328TIP3    H218991   0.746   4.050   0.858
 6329TIP3   OH218992   1.034   1.017   4.142
 6329TIP3    H118993   1.021   1.010   4.237
 6329TIP3    H218994   1.016   0.929   4.109
 6330TIP3   OH218995   2.352   3.546   3.574
 6330TIP3    H118996   2.433   3.582   3.537
 6330TIP3    H218997   2.308   3.622   3.614
 6331TIP3   OH218998   0.876   0.751   4.353
 6331TIP3    H118999   0.950   0.809   4.337
 6331TIP3    H219000   0.900   0.702   4.432
 6332TIP3   OH219001   3.311   2.752   0.695
 6332TIP3    H119002   3.217   2.766   0.679
 6332TIP3    H219003   3.331   2.670   0.649
 6333TIP3   OH219004   4.326   2.112   2.046
 6333TIP3    H119005   4.232   2.113   2.028
 6333TIP3    H219006   4.355   2.201   2.025
 6334TIP3   OH219007   4.189   0.984   4.215
 6334TIP3    H119008   4.185   1.079   4.220
 6334TIP3    H219009   4.098   0.956   4.211
 6335TIP3   OH219010   4.307   2.937   4.230
 6335TIP3    H119011   4.369   2.971   4.294
 6335TIP3    H219012   4.265   2.864   4.274
 6336TIP3   OH219013   1.240   3.617   2.998
 6336TIP3    H119014   1.154   3.592   3.031
 6336TIP3    H219015   1.250   3.566   2.917
 6337TIP3   OH219016   2.547   1.458   0.728
 6337TIP3    H119017   2.561   1.461   0.633
 6337TIP3    H219018   2.528   1.366   0.746
 6338TIP3   OH219019   1.461   4.640   3.430
 6338TIP3    H119020   1.418   4.649   3.515
 6338TIP3    H219021   1.432   4.717   3.380
 6339TIP3   OH219022   2.909   4.040   3.871
 6339TIP3    H119023   2.868   4.118   3.907
 6339TIP3    H219024   2.893   4.046   3.776
 6340TIP3   OH219025   4.953   3.681   1.145
 6340TIP3    H119026   4.887   3.618   1.176
 6340TIP3    H219027   4.921   3.709   1.059
 6341TIP3   OH219028   5.862   3.494   3.311
 6341TIP3    H119029   5.773   3.509   3.279
 6341TIP3    H219030   5.899   3.582   3.320
 6342TIP3   OH219031   0.117   4.512   3.767
 6342TIP3    H119032   0.121   4.432   3.715
 6342TIP3    H219033   0.025   4.539   3.764
 6343TIP3   OH219034   4.152   2.050   1.255
 6343TIP3    H119035   4.122   2.097   1.332
 6343TIP3    H219036   4.096   2.080   1.184
 6344TIP3   OH219037   5.885   3.270   0.511
 6344TIP3    H119038   5.810   3.216   0.535
 6344TIP3    H219039   5.932   3.284   0.593
 6345TIP3   OH219040   1.187   4.907   3.717
 6345TIP3    H119041   1.130   4.912   3.794
 6345TIP3    H219042   1.146   4.964   3.653
 6346TIP3   OH219043   4.406   0.101   1.373
 6346TIP3    H119044   4.459   0.168   1.416
 6346TIP3    H219045   4.453   0.082   1.292
 6347TIP3   OH219046   3.634   4.696   0.249
 6347TIP3    H119047   3.632   4.786   0.282
 6347TIP3    H219048   3.544   4.678   0.222
 6348TIP3   OH219049   3.216   2.954   3.386
 6348TIP3    H119050   3.300   3.001   3.382
 6348TIP3    H219051   3.218   2.908   3.470
 6349TIP3   OH219052   3.661   4.015   3.618
 6349TIP3    H119053   3.712   4.095   3.616
 6349TIP3    H219054   3.682   3.975   3.702
 6350TIP3   OH219055   6.055   1.831   4.982
 6350TIP3    H119056   6.054   1.825   5.078
 6350TIP3    H219057   5.969   1.865   4.960
 6351TIP3   OH219058   0.774   0.548   3.411
 6351TIP3    H119059   0.744   0.558   3.320
 6351TIP3    H219060   0.865   0.578   3.410
 6352TIP3   OH219061   2.955   3.060   3.345
 6352TIP3    H119062   2.886   2.997   3.366
 6352TIP3    H219063   3.037   3.013   3.365
 6353TIP3   OH219064   1.634   3.758   2.422
 6353TIP3    H119065   1.655   3.681   2.475
 6353TIP3    H219066   1.583   3.725   2.349
 6354TIP3   OH219067   2.847   2.500   1.245
 6354TIP3    H119068   2.855   2.406   1.230
 6354TIP3    H219069   2.886   2.540   1.167
 6355TIP3   OH219070   5.169   3.955   3.602
 6355TIP3    H119071   5.087   3.919   3.568
 6355TIP3    H219072   5.141   4.013   3.673
 6356TIP3   OH219073   5.927   4.067   4.845
 6356TIP3    H119074   5.901   4.079   4.936
 6356TIP3    H219075   5.938   3.972   4.835
 6357TIP3   OH219076   0.709   2.251   1.726
 6357TIP3    H119077   0.702   2.278   1.634
 6357TIP3    H219078   0.752   2.165   1.723
 6358TIP3   OH219079   5.242   4.928   4.451
 6358TIP3    H119080   5.321   4.891   4.492
 6358TIP3    H219081   5.183   4.945   4.524
 6359TIP3   OH219082   0.506   5.073   1.089
 6359TIP3    H119083   0.524   5.113   1.174
 6359TIP3    H219084   0.582   5.097   1.035
 6360TIP3   OH219085   2.392   4.943   3.714
 6360TIP3    H119086   2.482   4.955   3.686
 6360TIP3    H219087   2.339   4.984   3.646
 6361TIP3   OH219088   1.868   5.727   2.823
 6361TIP3    H119089   1.823   5.802   2.862
 6361TIP3    H219090   1.883   5.753   2.732
 6362TIP3   OH219091   0.056   3.982   1.134
 6362TIP3    H119092   0.074   3.962   1.042
 6362TIP3    H219093   0.134   4.029   1.164
 6363TIP3   OH219094   2.674   4.769   3.955
 6363TIP3    H119095   2.579   4.775   3.959
 6363TIP3    H219096   2.692   4.678   3.934
 6364TIP3   OH219097   1.657   4.885   0.459
 6364TIP3    H119098   1.711   4.964   0.463
 6364TIP3    H219099   1.570   4.914   0.484
 6365TIP3   OH219100   0.948   0.538   2.521
 6365TIP3    H119101   0.956   0.590   2.601
 6365TIP3    H219102   0.978   0.596   2.451
 6366TIP3   OH219103   6.265   0.738   3.411
 6366TIP3    H119104   6.351   0.699   3.394
 6366TIP3    H219105   6.280   0.832   3.409
 6367TIP3   OH219106   2.139   2.959   2.970
 6367TIP3    H119107   2.162   3.026   2.906
 6367TIP3    H219108   2.056   2.923   2.938
 6368TIP3   OH219109   3.625   1.991   2.483
 6368TIP3    H119110   3.557   2.058   2.492
 6368TIP3    H219111   3.644   1.989   2.389
 6369TIP3   OH219112   0.819   3.421   3.635
 6369TIP3    H119113   0.809   3.452   3.545
 6369TIP3    H219114   0.871   3.489   3.679
 6370TIP3   OH219115   5.963   0.849   1.433
 6370TIP3    H119116   5.929   0.898   1.509
 6370TIP3    H219117   6.057   0.846   1.447
 6371TIP3   OH219118   5.409   3.283   1.535
 6371TIP3    H119119   5.326   3.291   1.583
 6371TIP3    H219120   5.405   3.197   1.494
 6372TIP3   OH219121   4.550   0.010   1.175
 6372TIP3    H119122   4.631  -0.028   1.141
 6372TIP3    H219123   4.501   0.036   1.098
 6373TIP3   OH219124   1.591   1.207   1.083
 6373TIP3    H119125   1.551   1.213   0.996
 6373TIP3    H219126   1.685   1.213   1.067
 6374TIP3   OH219127   1.593   3.919   4.352
 6374TIP3    H119128   1.555   3.957   4.431
 6374TIP3    H219129   1.586   3.824   4.365
 6375TIP3   OH219130   5.477   3.602   1.126
 6375TIP3    H119131   5.439   3.689   1.126
 6375TIP3    H219132   5.445   3.562   1.208
 6376TIP3   OH219133   2.080   0.174   2.611
 6376TIP3    H119134   2.020   0.197   2.682
 6376TIP3    H219135   2.071   0.246   2.548
 6377TIP3   OH219136   0.715   2.723   0.535
 6377TIP3    H119137   0.753   2.641   0.504
 6377TIP3    H219138   0.700   2.774   0.455
 6378TIP3   OH219139   6.173   0.665   2.182
 6378TIP3    H119140   6.141   0.595   2.125
 6378TIP3    H219141   6.258   0.690   2.144
 6379TIP3   OH219142   1.132   4.983   0.955
 6379TIP3    H119143   1.219   4.953   0.979
 6379TIP3    H219144   1.075   4.907   0.967
 6380TIP3   OH219145   1.539   3.783   2.842
 6380TIP3    H119146   1.512   3.756   2.755
 6380TIP3    H219147   1.458   3.785   2.893
 6381TIP3   OH219148   0.788   5.668   4.706
 6381TIP3    H119149   0.695   5.672   4.684
 6381TIP3    H219150   0.800   5.731   4.776
 6382TIP3   OH219151   6.114   2.728   1.337
 6382TIP3    H119152   6.192   2.763   1.380
 6382TIP3    H219153   6.061   2.805   1.316
 6383TIP3   OH219154   1.484   2.952   4.223
 6383TIP3    H119155   1.500   2.945   4.317
 6383TIP3    H219156   1.485   2.862   4.192
 6384TIP3   OH219157   5.519   1.757   5.079
 6384TIP3    H119158   5.531   1.810   5.001
 6384TIP3    H219159   5.461   1.686   5.052
 6385TIP3   OH219160   1.813   5.727   5.007
 6385TIP3    H119161   1.839   5.736   5.098
 6385TIP3    H219162   1.731   5.679   5.010
 6386TIP3   OH219163   0.764   1.959   4.259
 6386TIP3    H119164   0.852   1.921   4.259
 6386TIP3    H219165   0.777   2.050   4.285
 6387TIP3   OH219166   4.086   5.553   1.537
 6387TIP3    H119167   4.025   5.568   1.465
 6387TIP3    H219168   4.162   5.513   1.497
 6388TIP3   OH219169   1.468   5.770   3.680
 6388TIP3    H119170   1.425   5.779   3.765
 6388TIP3    H219171   1.531   5.842   3.677
 6389TIP3   OH219172   0.183   2.662   3.805
 6389TIP3    H119173   0.238   2.592   3.771
 6389TIP3    H219174   0.094   2.630   3.795
 6390TIP3   OH219175   2.300   4.761   3.447
 6390TIP3    H119176   2.367   4.830   3.451
 6390TIP3    H219177   2.348   4.684   3.417
 6391TIP3   OH219178   1.369   2.845   3.453
 6391TIP3    H119179   1.288   2.864   3.501
 6391TIP3    H219180   1.345   2.775   3.393
 6392TIP3   OH219181   2.618   5.169   4.252
 6392TIP3    H119182   2.571   5.086   4.264
 6392TIP3    H219183   2.638   5.171   4.159
 6393TIP3   OH219184   3.139   0.839   2.935
 6393TIP3    H119185   3.051   0.872   2.920
 6393TIP3    H219186   3.187   0.915   2.969
 6394TIP3   OH219187   4.598   5.204   1.140
 6394TIP3    H119188   4.635   5.206   1.052
 6394TIP3    H219189   4.513   5.247   1.132
 6395TIP3   OH219190   1.464   2.032   4.653
 6395TIP3    H119191   1.519   2.100   4.614
 6395TIP3    H219192   1.375   2.065   4.643
 6396TIP3   OH219193   4.853   1.130   0.685
 6396TIP3    H119194   4.860   1.130   0.780
 6396TIP3    H219195   4.771   1.175   0.666
 6397TIP3   OH219196   1.272   1.166   1.914
 6397TIP3    H119197   1.276   1.151   2.008
 6397TIP3    H219198   1.287   1.260   1.904
 6398TIP3   OH219199   5.689   1.232   3.816
 6398TIP3    H119200   5.694   1.140   3.788
 6398TIP3    H219201   5.596   1.253   3.814
 6399TIP3   OH219202   2.005   5.870   4.629
 6399TIP3    H119203   1.952   5.881   4.551
 6399TIP3    H219204   2.012   5.958   4.667
 6400TIP3   OH219205   5.788   0.281   0.802
 6400TIP3    H119206   5.726   0.331   0.856
 6400TIP3    H219207   5.830   0.221   0.863
 6401TIP3   OH219208   3.325   5.857   3.944
 6401TIP3    H119209   3.347   5.950   3.946
 6401TIP3    H219210   3.410   5.812   3.939
 6402TIP3   OH219211   3.285   5.872   3.612
 6402TIP3    H119212   3.243   5.857   3.697
 6402TIP3    H219213   3.268   5.964   3.593
 6403TIP3   OH219214   1.672   4.617   3.886
 6403TIP3    H119215   1.733   4.667   3.832
 6403TIP3    H219216   1.649   4.541   3.832
 6404TIP3   OH219217   5.458   3.322   0.648
 6404TIP3    H119218   5.368   3.351   0.633
 6404TIP3    H219219   5.509   3.403   0.653
 6405TIP3   OH219220   5.749   0.745   2.972
 6405TIP3    H119221   5.682   0.779   3.031
 6405TIP3    H219222   5.793   0.822   2.938
 6406TIP3   OH219223   1.421   3.487   0.572
 6406TIP3    H119224   1.454   3.478   0.661
 6406TIP3    H219225   1.458   3.570   0.541
 6407TIP3   OH219226   4.804   4.167   0.823
 6407TIP3    H119227   4.747   4.226   0.773
 6407TIP3    H219228   4.743   4.106   0.864
 6408TIP3   OH219229   5.750   5.718   2.437
 6408TIP3    H119230   5.724   5.700   2.528
 6408TIP3    H219231   5.781   5.808   2.438
 6409TIP3   OH219232   5.103   3.085   1.318
 6409TIP3    H119233   5.051   3.078   1.398
 6409TIP3    H219234   5.116   2.994   1.290
 6410TIP3   OH219235   1.649   4.902   2.589
 6410TIP3    H119236   1.691   4.906   2.503
 6410TIP3    H219237   1.648   4.808   2.610
 6411TIP3   OH219238   0.652   1.297   2.217
 6411TIP3    H119239   0.699   1.228   2.262
 6411TIP3    H219240   0.697   1.305   2.132
 6412TIP3   OH219241   0.482   4.944   4.922
 6412TIP3    H119242   0.446   4.945   4.833
 6412TIP3    H219243   0.546   5.014   4.923
 6413TIP3   OH219244   3.956   4.975   2.007
 6413TIP3    H119245   3.996   4.923   1.937
 6413TIP3    H219246   3.986   5.065   1.991
 6414TIP3   OH219247   3.380   5.591   0.092
 6414TIP3    H119248   3.349   5.641   0.017
 6414TIP3    H219249   3.460   5.636   0.120
 6415TIP3   OH219250   1.523   0.689   0.658
 6415TIP3    H119251   1.571   0.661   0.736
 6415TIP3    H219252   1.577   0.758   0.620
 6416TIP3   OH219253   5.250   5.279   5.004
 6416TIP3    H119254   5.317   5.276   5.073
 6416TIP3    H219255   5.176   5.232   5.042
 6417TIP3   OH219256   3.097   2.566   2.915
 6417TIP3    H119257   3.130   2.477   2.906
 6417TIP3    H219258   3.083   2.577   3.010
 6418TIP3   OH219259   1.857   4.154   0.299
 6418TIP3    H119260   1.918   4.120   0.234
 6418TIP3    H219261   1.911   4.208   0.357
 6419TIP3   OH219262   0.065   0.531   1.621
 6419TIP3    H119263   0.018   0.557   1.541
 6419TIP3    H219264   0.024   0.583   1.690
 6420TIP3   OH219265   5.094   1.746   4.295
 6420TIP3    H119266   5.013   1.779   4.256
 6420TIP3    H219267   5.133   1.823   4.337
 6421TIP3   OH219268   2.915   2.375   3.073
 6421TIP3    H119269   2.880   2.430   3.003
 6421TIP3    H219270   2.839   2.350   3.125
 6422TIP3   OH219271   5.719   5.294   0.452
 6422TIP3    H119272   5.656   5.362   0.474
 6422TIP3    H219273   5.782   5.337   0.394
 6423TIP3   OH219274   2.521   3.204   1.024
 6423TIP3    H119275   2.444   3.158   1.058
 6423TIP3    H219276   2.491   3.295   1.013
 6424TIP3   OH219277   1.033   3.335   2.766
 6424TIP3    H119278   1.024   3.318   2.859
 6424TIP3    H219279   0.961   3.287   2.725
 6425TIP3   OH219280   2.696   4.252   0.406
 6425TIP3    H119281   2.677   4.311   0.479
 6425TIP3    H219282   2.782   4.280   0.374
 6426TIP3   OH219283   4.487   0.631   2.315
 6426TIP3    H119284   4.487   0.726   2.330
 6426TIP3    H219285   4.489   0.593   2.403
 6427TIP3   OH219286   6.246   0.543   1.287
 6427TIP3    H119287   6.301   0.572   1.214
 6427TIP3    H219288   6.244   0.447   1.279
 6428TIP3   OH219289   0.463   1.834   1.924
 6428TIP3    H119290   0.473   1.745   1.890
 6428TIP3    H219291   0.371   1.840   1.949
 6429TIP3   OH219292   5.391   0.035   4.677
 6429TIP3    H119293   5.444  -0.038   4.644
 6429TIP3    H219294   5.301   0.008   4.663
 6430TIP3   OH219295   0.431   0.391   4.148
 6430TIP3    H119296   0.466   0.426   4.230
 6430TIP3    H219297   0.471   0.304   4.141
 6431TIP3   OH219298   3.170   0.248   0.555
 6431TIP3    H119299   3.214   0.169   0.524
 6431TIP3    H219300   3.239   0.314   0.560
 6432TIP3   OH219301   5.999   2.279   4.923
 6432TIP3    H119302   6.000   2.239   5.010
 6432TIP3    H219303   5.918   2.249   4.883
 6433TIP3   OH219304   2.720   0.504   4.978
 6433TIP3    H119305   2.779   0.443   5.022
 6433TIP3    H219306   2.637   0.457   4.970
 6434TIP3   OH219307   2.419   1.466   4.275
 6434TIP3    H119308   2.413   1.500   4.186
 6434TIP3    H219309   2.429   1.543   4.330
 6435TIP3   OH219310   2.953   1.796   0.152
 6435TIP3    H119311   2.961   1.751   0.068
 6435TIP3    H219312   2.984   1.733   0.217
 6436TIP3   OH219313   2.032   4.778   0.682
 6436TIP3    H119314   2.081   4.838   0.626
 6436TIP3    H219315   1.964   4.742   0.624
 6437TIP3   OH219316   0.397   2.715   4.603
 6437TIP3    H119317   0.362   2.774   4.536
 6437TIP3    H219318   0.356   2.630   4.585
 6438TIP3   OH219319   1.383   4.958   3.933
 6438TIP3    H119320   1.361   4.993   4.019
 6438TIP3    H219321   1.298   4.936   3.894
 6439TIP3   OH219322   2.884   3.002   2.302
 6439TIP3    H119323   2.856   2.931   2.360
 6439TIP3    H219324   2.835   2.987   2.221
 6440TIP3   OH219325   1.962   3.154   4.736
 6440TIP3    H119326   1.947   3.083   4.675
 6440TIP3    H219327   1.891   3.216   4.719
 6441TIP3   OH219328   1.668   5.968   2.036
 6441TIP3    H119329   1.703   5.962   2.125
 6441TIP3    H219330   1.578   5.938   2.043
 6442TIP3   OH219331   1.501   4.745   2.960
 6442TIP3    H119332   1.474   4.714   2.873
 6442TIP3    H219333   1.593   4.768   2.949
 6443TIP3   OH219334   5.126   2.046   2.353
 6443TIP3    H119335   5.172   1.980   2.406
 6443TIP3    H219336   5.169   2.043   2.268
 6444TIP3   OH219337   1.975   3.147   1.017
 6444TIP3    H119338   1.961   3.235   1.052
 6444TIP3    H219339   1.987   3.161   0.923
 6445TIP3   OH219340   4.575   0.280   3.172
 6445TIP3    H119341   4.480   0.293   3.176
 6445TIP3    H219342   4.611   0.365   3.197
 6446TIP3   OH219343   0.369   1.197   4.352
 6446TIP3    H119344   0.461   1.181   4.375
 6446TIP3    H219345   0.365   1.292   4.337
 6447TIP3   OH219346   1.456   1.651   0.884
 6447TIP3    H119347   1.411   1.736   0.878
 6447TIP3    H219348   1.388   1.589   0.910
 6448TIP3   OH219349   3.793   1.838   4.131
 6448TIP3    H119350   3.834   1.924   4.123
 6448TIP3    H219351   3.765   1.817   4.042
 6449TIP3   OH219352   1.205   0.556   4.806
 6449TIP3    H119353   1.202   0.573   4.900
 6449TIP3    H219354   1.206   0.461   4.799
 6450TIP3   OH219355   4.808   3.105   3.877
 6450TIP3    H119356   4.812   3.109   3.973
 6450TIP3    H219357   4.787   3.194   3.850
 6451TIP3   OH219358   2.441   2.661   3.941
 6451TIP3    H119359   2.372   2.676   3.877
 6451TIP3    H219360   2.459   2.567   3.935
 6452TIP3   OH219361   2.566   2.159   3.930
 6452TIP3    H119362   2.580   2.084   3.988
 6452TIP3    H219363   2.567   2.122   3.842
 6453TIP3   OH219364   6.153   3.423   3.148
 6453TIP3    H119365   6.246   3.434   3.166
 6453TIP3    H219366   6.127   3.347   3.199
 6454TIP3   OH219367   1.449   3.187   4.546
 6454TIP3    H119368   1.494   3.150   4.622
 6454TIP3    H219369   1.459   3.119   4.478
 6455TIP3   OH219370   5.130   5.701   5.132
 6455TIP3    H119371   5.043   5.666   5.112
 6455TIP3    H219372   5.158   5.745   5.052
 6456TIP3   OH219373   1.606   2.108   1.886
 6456TIP3    H119374   1.552   2.068   1.954
 6456TIP3    H219375   1.545   2.159   1.833
 6457TIP3   OH219376   0.419   4.522   3.388
 6457TIP3    H119377   0.436   4.470   3.466
 6457TIP3    H219378   0.452   4.468   3.316
 6458TIP3   OH219379   4.794   3.015   0.462
 6458TIP3    H119380   4.842   3.090   0.426
 6458TIP3    H219381   4.726   3.054   0.517
 6459TIP3   OH219382   5.080   1.526   0.440
 6459TIP3    H119383   5.012   1.511   0.506
 6459TIP3    H219384   5.094   1.439   0.402
 6460TIP3   OH219385   4.980   5.199   4.303
 6460TIP3    H119386   4.942   5.231   4.221
 6460TIP3    H219387   4.919   5.132   4.333
 6461TIP3   OH219388   5.243   1.732   0.918
 6461TIP3    H119389   5.321   1.676   0.909
 6461TIP3    H219390   5.217   1.749   0.827
 6462TIP3   OH219391   3.930   5.879   1.604
 6462TIP3    H119392   3.928   5.964   1.647
 6462TIP3    H219393   3.956   5.898   1.514
 6463TIP3   OH219394   0.386   4.547   0.349
 6463TIP3    H119395   0.369   4.554   0.255
 6463TIP3    H219396   0.394   4.453   0.365
 6464TIP3   OH219397   3.983   5.602   0.059
 6464TIP3    H119398   4.035   5.563  -0.011
 6464TIP3    H219399   3.920   5.533   0.083
 6465TIP3   OH219400   3.681   0.649   1.692
 6465TIP3    H119401   3.675   0.580   1.759
 6465TIP3    H219402   3.595   0.692   1.694
 6466TIP3   OH219403   5.396   0.631   4.348
 6466TIP3    H119404   5.428   0.540   4.355
 6466TIP3    H219405   5.329   0.628   4.281
 6467TIP3   OH219406   0.327   2.787   2.370
 6467TIP3    H119407   0.272   2.852   2.325
 6467TIP3    H219408   0.343   2.720   2.303
 6468TIP3   OH219409   2.158   2.609   3.810
 6468TIP3    H119410   2.138   2.518   3.833
 6468TIP3    H219411   2.192   2.604   3.720
 6469TIP3   OH219412   6.280   0.012   4.372
 6469TIP3    H119413   6.301   0.044   4.284
 6469TIP3    H219414   6.347   0.050   4.428
 6470TIP3   OH219415   3.526   2.214   0.478
 6470TIP3    H119416   3.571   2.210   0.393
 6470TIP3    H219417   3.489   2.303   0.481
 6471TIP3   OH219418   2.970   1.101   0.492
 6471TIP3    H119419   2.970   1.077   0.585
 6471TIP3    H219420   2.987   1.018   0.446
 6472TIP3   OH219421   1.328   4.991   3.383
 6472TIP3    H119422   1.286   5.028   3.460
 6472TIP3    H219423   1.371   5.066   3.341
 6473TIP3   OH219424   0.949   4.918   1.383
 6473TIP3    H119425   0.993   4.843   1.343
 6473TIP3    H219426   0.887   4.947   1.316
 6474TIP3   OH219427   2.113   2.168   3.327
 6474TIP3    H119428   2.051   2.209   3.266
 6474TIP3    H219429   2.104   2.074   3.310
 6475TIP3   OH219430   2.008   2.640   4.739
 6475TIP3    H119431   1.918   2.648   4.769
 6475TIP3    H219432   2.016   2.550   4.708
 6476TIP3   OH219433   2.708   4.983   1.184
 6476TIP3    H119434   2.733   5.072   1.207
 6476TIP3    H219435   2.744   4.970   1.096
 6477TIP3   OH219436   4.010   4.408   2.553
 6477TIP3    H119437   4.048   4.482   2.506
 6477TIP3    H219438   3.954   4.365   2.488
 6478TIP3   OH219439   4.744   4.625   3.911
 6478TIP3    H119440   4.686   4.644   3.984
 6478TIP3    H219441   4.706   4.548   3.869
 6479TIP3   OH219442   4.741   2.869   2.302
 6479TIP3    H119443   4.709   2.830   2.220
 6479TIP3    H219444   4.670   2.928   2.329
 6480TIP3   OH219445   1.181   5.418   3.288
 6480TIP3    H119446   1.166   5.475   3.363
 6480TIP3    H219447   1.114   5.351   3.295
 6481TIP3   OH219448   5.142   5.842   3.948
 6481TIP3    H119449   5.120   5.935   3.941
 6481TIP3    H219450   5.200   5.826   3.874
 6482TIP3   OH219451   4.822   5.920   2.520
 6482TIP3    H119452   4.876   5.929   2.441
 6482TIP3    H219453   4.755   5.857   2.497
 6483TIP3   OH219454   1.524   0.241   4.567
 6483TIP3    H119455   1.547   0.214   4.479
 6483TIP3    H219456   1.503   0.160   4.613
 6484TIP3   OH219457   2.953   3.200   4.892
 6484TIP3    H119458   2.914   3.285   4.911
 6484TIP3    H219459   3.010   3.216   4.817
 6485TIP3   OH219460   2.311   2.988   4.208
 6485TIP3    H119461   2.235   2.989   4.267
 6485TIP3    H219462   2.303   3.069   4.157
 6486TIP3   OH219463   1.955   0.785   2.820
 6486TIP3    H119464   1.937   0.698   2.782
 6486TIP3    H219465   1.958   0.843   2.744
 6487TIP3   OH219466   6.097   3.080   4.165
 6487TIP3    H119467   6.103   3.073   4.070
 6487TIP3    H219468   6.097   2.989   4.196
 6488TIP3   OH219469   5.855   5.004   2.127
 6488TIP3    H119470   5.763   5.028   2.125
 6488TIP3    H219471   5.868   4.966   2.214
 6489TIP3   OH219472   4.653   0.827   4.260
 6489TIP3    H119473   4.633   0.749   4.311
 6489TIP3    H219474   4.569   0.851   4.220
 6490TIP3   OH219475   1.911   0.185   4.535
 6490TIP3    H119476   1.887   0.278   4.538
 6490TIP3    H219477   2.004   0.184   4.557
 6491TIP3   OH219478   1.918   3.903   1.033
 6491TIP3    H119479   1.900   3.933   0.945
 6491TIP3    H219480   1.877   3.968   1.090
 6492TIP3   OH219481   2.440   3.240   1.624
 6492TIP3    H119482   2.473   3.330   1.627
 6492TIP3    H219483   2.349   3.249   1.595
 6493TIP3   OH219484   4.905   5.582   5.024
 6493TIP3    H119485   4.838   5.642   4.992
 6493TIP3    H219486   4.860   5.499   5.036
 6494TIP3   OH219487   0.502   3.324   4.287
 6494TIP3    H119488   0.591   3.311   4.255
 6494TIP3    H219489   0.457   3.241   4.271
 6495TIP3   OH219490   5.772   4.834   2.631
 6495TIP3    H119491   5.719   4.817   2.709
 6495TIP3    H219492   5.824   4.911   2.655
 6496TIP3   OH219493   5.572   2.350   3.281
 6496TIP3    H119494   5.524   2.339   3.363
 6496TIP3    H219495   5.512   2.398   3.224
 6497TIP3   OH219496   2.568   4.205   1.054
 6497TIP3    H119497   2.550   4.112   1.064
 6497TIP3    H219498   2.605   4.212   0.965
 6498TIP3   OH219499   3.920   0.811   0.250
 6498TIP3    H119500   3.940   0.718   0.267
 6498TIP3    H219501   3.995   0.844   0.202
 6499TIP3   OH219502   3.702   5.745   3.467
 6499TIP3    H119503   3.656   5.754   3.384
 6499TIP3    H219504   3.789   5.713   3.444
 6500TIP3   OH219505   5.417   3.138   1.205
 6500TIP3    H119506   5.359   3.068   1.174
 6500TIP3    H219507   5.365   3.218   1.197
 6501TIP3   OH219508   5.640   5.422   0.192
 6501TIP3    H119509   5.563   5.407   0.247
 6501TIP3    H219510   5.636   5.514   0.168
 6502TIP3   OH219511   0.542   1.041   2.117
 6502TIP3    H119512   0.589   1.043   2.034
 6502TIP3    H219513   0.497   1.125   2.121
 6503TIP3   OH219514   2.861   4.918   4.273
 6503TIP3    H119515   2.856   4.971   4.353
 6503TIP3    H219516   2.843   4.980   4.202
 6504TIP3   OH219517   5.517   0.525   1.442
 6504TIP3    H119518   5.567   0.606   1.434
 6504TIP3    H219519   5.429   0.554   1.467
 6505TIP3   OH219520   4.244   5.126  -0.004
 6505TIP3    H119521   4.300   5.102   0.070
 6505TIP3    H219522   4.229   5.220   0.007
 6506TIP3   OH219523   2.979   3.534   3.739
 6506TIP3    H119524   3.008   3.488   3.818
 6506TIP3    H219525   3.029   3.493   3.668
 6507TIP3   OH219526   3.161   0.800   2.246
 6507TIP3    H119527   3.129   0.762   2.327
 6507TIP3    H219528   3.089   0.854   2.214
 6508TIP3   OH219529   4.173   1.531   0.522
 6508TIP3    H119530   4.115   1.460   0.551
 6508TIP3    H219531   4.135   1.610   0.559
 6509TIP3   OH219532   0.996   1.051   1.435
 6509TIP3    H119533   1.046   1.126   1.402
 6509TIP3    H219534   1.019   1.046   1.528
 6510TIP3   OH219535   4.202   2.309   4.628
 6510TIP3    H119536   4.284   2.269   4.599
 6510TIP3    H219537   4.184   2.267   4.713
 6511TIP3   OH219538   1.100   2.011   2.129
 6511TIP3    H119539   1.162   2.043   2.196
 6511TIP3    H219540   1.156   1.989   2.055
 6512TIP3   OH219541   3.633   0.683   2.884
 6512TIP3    H119542   3.607   0.761   2.934
 6512TIP3    H219543   3.550   0.640   2.862
 6513TIP3   OH219544   0.850   5.105   3.755
 6513TIP3    H119545   0.847   5.166   3.828
 6513TIP3    H219546   0.798   5.147   3.686
 6514TIP3   OH219547   0.300   5.322   4.749
 6514TIP3    H119548   0.268   5.338   4.838
 6514TIP3    H219549   0.395   5.328   4.756
 6515TIP3   OH219550   4.784   0.423   1.610
 6515TIP3    H119551   4.765   0.393   1.699
 6515TIP3    H219552   4.822   0.347   1.566
 6516TIP3   OH219553   1.425   0.136   3.656
 6516TIP3    H119554   1.507   0.169   3.619
 6516TIP3    H219555   1.365   0.132   3.582
 6517TIP3   OH219556   5.308   0.795   0.799
 6517TIP3    H119557   5.392   0.753   0.779
 6517TIP3    H219558   5.327   0.853   0.872
 6518TIP3   OH219559   1.114   1.743   3.271
 6518TIP3    H119560   1.024   1.715   3.288
 6518TIP3    H219561   1.113   1.774   3.180
 6519TIP3   OH219562   0.419  -0.006   1.815
 6519TIP3    H119563   0.491   0.039   1.770
 6519TIP3    H219564   0.424   0.026   1.905
 6520TIP3   OH219565   4.996   1.879   2.878
 6520TIP3    H119566   4.933   1.923   2.820
 6520TIP3    H219567   5.007   1.792   2.840
 6521TIP3   OH219568   0.569   4.723   0.043
 6521TIP3    H119569   0.595   4.657   0.107
 6521TIP3    H219570   0.521   4.788   0.095
 6522TIP3   OH219571   3.261   4.093   0.236
 6522TIP3    H119572   3.331   4.067   0.296
 6522TIP3    H219573   3.189   4.034   0.257
 6523TIP3   OH219574   4.580   4.667   2.126
 6523TIP3    H119575   4.648   4.688   2.063
 6523TIP3    H219576   4.541   4.752   2.148
 6524TIP3   OH219577   2.483   1.728   1.629
 6524TIP3    H119578   2.402   1.776   1.613
 6524TIP3    H219579   2.455   1.639   1.649
 6525TIP3   OH219580   1.652   4.588   4.489
 6525TIP3    H119581   1.593   4.607   4.561
 6525TIP3    H219582   1.674   4.495   4.500
 6526TIP3   OH219583   1.837   1.708   4.841
 6526TIP3    H119584   1.793   1.706   4.926
 6526TIP3    H219585   1.804   1.788   4.800
 6527TIP3   OH219586   2.950   3.797   0.695
 6527TIP3    H119587   3.028   3.777   0.747
 6527TIP3    H219588   2.963   3.751   0.613
 6528TIP3   OH219589   3.351   2.833   1.541
 6528TIP3    H119590   3.424   2.847   1.481
 6528TIP3    H219591   3.305   2.757   1.505
 6529TIP3   OH219592   3.683   0.827   0.394
 6529TIP3    H119593   3.761   0.850   0.342
 6529TIP3    H219594   3.669   0.735   0.376
 6530TIP3   OH219595   0.291   3.034   1.917
 6530TIP3    H119596   0.258   3.109   1.966
 6530TIP3    H219597   0.273   3.055   1.825
 6531TIP3   OH219598   3.244   5.534   3.219
 6531TIP3    H119599   3.306   5.521   3.291
 6531TIP3    H219600   3.168   5.573   3.261
 6532TIP3   OH219601   3.350   2.047   2.433
 6532TIP3    H119602   3.325   1.955   2.423
 6532TIP3    H219603   3.285   2.084   2.492
 6533TIP3   OH219604   1.960   0.647   2.458
 6533TIP3    H119605   2.018   0.723   2.451
 6533TIP3    H219606   1.872   0.685   2.459
 6534TIP3   OH219607   3.802   5.705   4.616
 6534TIP3    H119608   3.893   5.722   4.590
 6534TIP3    H219609   3.758   5.789   4.608
 6535TIP3   OH219610   2.842   4.978   3.996
 6535TIP3    H119611   2.803   5.026   3.923
 6535TIP3    H219612   2.790   4.898   4.003
 6536TIP3   OH219613   2.133   4.438   4.372
 6536TIP3    H119614   2.100   4.504   4.311
 6536TIP3    H219615   2.217   4.412   4.335
 6537TIP3   OH219616   0.631   1.255   4.346
 6537TIP3    H119617   0.652   1.310   4.270
 6537TIP3    H219618   0.672   1.301   4.420
 6538TIP3   OH219619   3.127   2.142   3.597
 6538TIP3    H119620   3.108   2.083   3.524
 6538TIP3    H219621   3.045   2.145   3.647
 6539TIP3   OH219622   3.076   0.645   4.996
 6539TIP3    H119623   3.113   0.558   4.978
 6539TIP3    H219624   3.115   0.702   4.929
 6540TIP3   OH219625   2.876   3.991   3.275
 6540TIP3    H119626   2.823   3.912   3.264
 6540TIP3    H219627   2.955   3.974   3.223
 6541TIP3   OH219628   5.013   4.700   0.078
 6541TIP3    H119629   5.055   4.660   0.002
 6541TIP3    H219630   5.042   4.791   0.076
 6542TIP3   OH219631   5.099   3.200   3.532
 6542TIP3    H119632   5.020   3.145   3.529
 6542TIP3    H219633   5.079   3.267   3.597
 6543TIP3   OH219634   1.485   5.338   3.014
 6543TIP3    H119635   1.526   5.413   2.972
 6543TIP3    H219636   1.421   5.306   2.950
 6544TIP3   OH219637   4.666   2.837   3.894
 6544TIP3    H119638   4.666   2.930   3.869
 6544TIP3    H219639   4.615   2.794   3.826
 6545TIP3   OH219640   0.263   1.368   3.912
 6545TIP3    H119641   0.172   1.380   3.938
 6545TIP3    H219642   0.275   1.273   3.907
 6546TIP3   OH219643   3.322   0.825   0.502
 6546TIP3    H119644   3.346   0.898   0.446
 6546TIP3    H219645   3.278   0.763   0.444
 6547TIP3   OH219646   2.795   1.065   1.056
 6547TIP3    H119647   2.832   0.985   1.019
 6547TIP3    H219648   2.869   1.125   1.062
 6548TIP3   OH219649   5.984   4.342   2.851
 6548TIP3    H119650   5.940   4.341   2.936
 6548TIP3    H219651   5.996   4.435   2.832
 6549TIP3   OH219652   4.144   5.155   0.896
 6549TIP3    H119653   4.139   5.196   0.810
 6549TIP3    H219654   4.055   5.158   0.930
 6550TIP3   OH219655   1.787   5.409   0.375
 6550TIP3    H119656   1.744   5.450   0.300
 6550TIP3    H219657   1.766   5.466   0.449
 6551TIP3   OH219658   6.310   2.658   0.334
 6551TIP3    H119659   6.374   2.697   0.274
 6551TIP3    H219660   6.300   2.568   0.303
 6552TIP3   OH219661   4.483   2.996   4.446
 6552TIP3    H119662   4.469   2.979   4.539
 6552TIP3    H219663   4.550   2.932   4.420
 6553TIP3   OH219664   2.032   1.982   0.962
 6553TIP3    H119665   2.082   2.047   1.013
 6553TIP3    H219666   2.079   1.976   0.879
 6554TIP3   OH219667   5.322   5.905   2.968
 6554TIP3    H119668   5.332   5.833   2.906
 6554TIP3    H219669   5.329   5.864   3.054
 6555TIP3   OH219670   5.401   0.076   4.210
 6555TIP3    H119671   5.387   0.077   4.115
 6555TIP3    H219672   5.482   0.125   4.223
 6556TIP3   OH219673   6.154   5.268   1.860
 6556TIP3    H119674   6.175   5.200   1.796
 6556TIP3    H219675   6.078   5.313   1.823
 6557TIP3   OH219676   3.002   1.153   0.018
 6557TIP3    H119677   2.969   1.205   0.091
 6557TIP3    H219678   3.078   1.108   0.054
 6558TIP3   OH219679   4.346   5.638   2.310
 6558TIP3    H119680   4.313   5.707   2.253
 6558TIP3    H219681   4.417   5.680   2.359
 6559TIP3   OH219682   5.635   0.796   1.689
 6559TIP3    H119683   5.660   0.888   1.700
 6559TIP3    H219684   5.638   0.782   1.594
 6560TIP3   OH219685   5.025   0.084   0.892
 6560TIP3    H119686   4.969   0.117   0.822
 6560TIP3    H219687   5.110   0.073   0.851
 6561TIP3   OH219688   1.004   0.592   0.772
 6561TIP3    H119689   1.095   0.562   0.776
 6561TIP3    H219690   0.953   0.511   0.769
 6562TIP3   OH219691   2.195   0.120   5.188
 6562TIP3    H119692   2.181   0.100   5.096
 6562TIP3    H219693   2.131   0.066   5.235
 6563TIP3   OH219694   4.897   2.451   2.125
 6563TIP3    H119695   4.872   2.428   2.035
 6563TIP3    H219696   4.824   2.503   2.158
 6564TIP3   OH219697   4.901   3.666   4.773
 6564TIP3    H119698   4.865   3.755   4.766
 6564TIP3    H219699   4.829   3.613   4.807
 6565TIP3   OH219700   1.578   3.580   3.480
 6565TIP3    H119701   1.639   3.512   3.511
 6565TIP3    H219702   1.629   3.631   3.418
 6566TIP3   OH219703   6.159   5.854   3.691
 6566TIP3    H119704   6.207   5.893   3.764
 6566TIP3    H219705   6.099   5.923   3.663
 6567TIP3   OH219706   5.198   3.953   3.326
 6567TIP3    H119707   5.207   3.970   3.420
 6567TIP3    H219708   5.223   4.036   3.284
 6568TIP3   OH219709   1.599   1.755   4.150
 6568TIP3    H119710   1.539   1.711   4.211
 6568TIP3    H219711   1.681   1.707   4.160
 6569TIP3   OH219712   4.369   4.025   4.528
 6569TIP3    H119713   4.362   4.115   4.497
 6569TIP3    H219714   4.335   4.028   4.617
 6570TIP3   OH219715   4.262   0.669   1.334
 6570TIP3    H119716   4.217   0.604   1.390
 6570TIP3    H219717   4.311   0.616   1.272
 6571TIP3   OH219718   6.061   2.023   3.851
 6571TIP3    H119719   6.033   2.087   3.917
 6571TIP3    H219720   6.039   1.938   3.889
 6572TIP3   OH219721   4.198   2.570   2.927
 6572TIP3    H119722   4.109   2.545   2.900
 6572TIP3    H219723   4.186   2.653   2.974
 6573TIP3   OH219724   1.656   5.497   1.543
 6573TIP3    H119725   1.696   5.584   1.553
 6573TIP3    H219726   1.648   5.485   1.448
 6574TIP3   OH219727   3.457   2.773   2.606
 6574TIP3    H119728   3.493   2.859   2.626
 6574TIP3    H219729   3.416   2.745   2.688
 6575TIP3   OH219730   4.185   0.148   1.580
 6575TIP3    H119731   4.243   0.131   1.506
 6575TIP3    H219732   4.243   0.152   1.656
 6576TIP3   OH219733   3.724   5.106   1.430
 6576TIP3    H119734   3.658   5.176   1.432
 6576TIP3    H219735   3.789   5.137   1.367
 6577TIP3   OH219736   4.802   5.443   3.145
 6577TIP3    H119737   4.876   5.390   3.115
 6577TIP3    H219738   4.731   5.380   3.160
 6578TIP3   OH219739   1.878   3.272   2.924
 6578TIP3    H119740   1.924   3.345   2.965
 6578TIP3    H219741   1.901   3.278   2.831
 6579TIP3   OH219742   1.950   1.805   2.869
 6579TIP3    H119743   2.045   1.805   2.881
 6579TIP3    H219744   1.920   1.882   2.917
 6580TIP3   OH219745   5.504   2.861   4.107
 6580TIP3    H119746   5.524   2.949   4.139
 6580TIP3    H219747   5.478   2.812   4.185
 6581TIP3   OH219748   5.822   0.393   4.962
 6581TIP3    H119749   5.885   0.331   4.926
 6581TIP3    H219750   5.854   0.479   4.936
 6582TIP3   OH219751   4.058   2.197   2.010
 6582TIP3    H119752   4.007   2.255   2.067
 6582TIP3    H219753   4.026   2.214   1.922
 6583TIP3   OH219754   2.402   4.055   3.827
 6583TIP3    H119755   2.473   4.113   3.856
 6583TIP3    H219756   2.429   4.027   3.739
 6584TIP3   OH219757   6.159   1.426   4.702
 6584TIP3    H119758   6.106   1.351   4.730
 6584TIP3    H219759   6.245   1.390   4.684
 6585TIP3   OH219760   2.688   5.184   0.839
 6585TIP3    H119761   2.664   5.186   0.932
 6585TIP3    H219762   2.638   5.256   0.800
 6586TIP3   OH219763   1.525   3.387   1.417
 6586TIP3    H119764   1.472   3.412   1.342
 6586TIP3    H219765   1.485   3.434   1.491
 6587TIP3   OH219766   0.320   3.823   4.124
 6587TIP3    H119767   0.263   3.886   4.168
 6587TIP3    H219768   0.298   3.738   4.164
 6588TIP3   OH219769   0.594   3.583   2.768
 6588TIP3    H119770   0.575   3.526   2.694
 6588TIP3    H219771   0.642   3.656   2.731
 6589TIP3   OH219772   3.586   5.758   3.216
 6589TIP3    H119773   3.636   5.724   3.141
 6589TIP3    H219774   3.582   5.853   3.201
 6590TIP3   OH219775   5.013   2.036   0.383
 6590TIP3    H119776   5.019   2.130   0.369
 6590TIP3    H219777   5.104   2.007   0.395
 6591TIP3   OH219778   3.473   1.790   3.395
 6591TIP3    H119779   3.470   1.769   3.302
 6591TIP3    H219780   3.387   1.830   3.414
 6592TIP3   OH219781   0.257   1.539   3.071
 6592TIP3    H119782   0.262   1.482   3.148
 6592TIP3    H219783   0.273   1.627   3.106
 6593TIP3   OH219784   5.641   4.404   3.590
 6593TIP3    H119785   5.717   4.368   3.635
 6593TIP3    H219786   5.585   4.437   3.660
 6594TIP3   OH219787   3.460   4.467   4.894
 6594TIP3    H119788   3.478   4.549   4.940
 6594TIP3    H219789   3.434   4.405   4.962
 6595TIP3   OH219790   1.682   0.068   1.071
 6595TIP3    H119791   1.734   0.078   0.992
 6595TIP3    H219792   1.719   0.130   1.133
 6596TIP3   OH219793   1.721   0.866   1.951
 6596TIP3    H119794   1.760   0.831   2.031
 6596TIP3    H219795   1.704   0.789   1.897
 6597TIP3   OH219796   2.031   2.151   0.714
 6597TIP3    H119797   2.030   2.228   0.772
 6597TIP3    H219798   1.952   2.103   0.737
 6598TIP3   OH219799   1.610   5.714   2.674
 6598TIP3    H119800   1.692   5.706   2.625
 6598TIP3    H219801   1.591   5.807   2.674
 6599TIP3   OH219802   5.675   2.976   1.337
 6599TIP3    H119803   5.703   3.000   1.426
 6599TIP3    H219804   5.678   3.058   1.288
 6600TIP3   OH219805   1.510   5.662   3.391
 6600TIP3    H119806   1.542   5.727   3.454
 6600TIP3    H219807   1.551   5.580   3.419
 6601TIP3   OH219808   4.333   0.248   4.997
 6601TIP3    H119809   4.251   0.284   5.030
 6601TIP3    H219810   4.346   0.290   4.912
 6602TIP3   OH219811   5.283   5.986   0.297
 6602TIP3    H119812   5.297   5.914   0.358
 6602TIP3    H219813   5.353   5.978   0.233
 6603TIP3   OH219814   4.121   5.604   3.258
 6603TIP3    H119815   4.112   5.685   3.208
 6603TIP3    H219816   4.213   5.602   3.284
 6604TIP3   OH219817   3.063   2.072   2.482
 6604TIP3    H119818   3.022   2.022   2.410
 6604TIP3    H219819   3.065   2.162   2.450
 6605TIP3   OH219820   1.338   1.460   1.869
 6605TIP3    H119821   1.416   1.435   1.919
 6605TIP3    H219822   1.270   1.471   1.934
 6606TIP3   OH219823   3.222   5.907   2.167
 6606TIP3    H119824   3.199   5.985   2.116
 6606TIP3    H219825   3.208   5.933   2.258
 6607TIP3   OH219826   1.952   3.406   2.124
 6607TIP3    H119827   1.896   3.482   2.141
 6607TIP3    H219828   1.982   3.418   2.034
 6608TIP3   OH219829   3.783   1.970   0.195
 6608TIP3    H119830   3.837   1.892   0.206
 6608TIP3    H219831   3.734   1.977   0.277
 6609TIP3   OH219832   6.122   3.834   2.690
 6609TIP3    H119833   6.184   3.837   2.617
 6609TIP3    H219834   6.175   3.852   2.768
 6610TIP3   OH219835   5.892   0.337   2.098
 6610TIP3    H119836   5.923   0.327   2.188
 6610TIP3    H219837   5.815   0.281   2.092
 6611TIP3   OH219838   2.137   0.880   2.459
 6611TIP3    H119839   2.150   0.951   2.396
 6611TIP3    H219840   2.055   0.902   2.503
 6612TIP3   OH219841   4.414   1.658   4.428
 6612TIP3    H119842   4.412   1.750   4.454
 6612TIP3    H219843   4.400   1.610   4.509
 6613TIP3   OH219844   0.305   1.602   0.488
 6613TIP3    H119845   0.310   1.515   0.528
 6613TIP3    H219846   0.358   1.596   0.409
 6614TIP3   OH219847   6.018   1.157   2.699
 6614TIP3    H119848   5.990   1.242   2.665
 6614TIP3    H219849   5.970   1.094   2.647
 6615TIP3   OH219850   3.217   0.505   4.644
 6615TIP3    H119851   3.158   0.580   4.632
 6615TIP3    H219852   3.167   0.430   4.613
 6616TIP3   OH219853   5.094   0.552   3.294
 6616TIP3    H119854   5.098   0.616   3.223
 6616TIP3    H219855   5.112   0.468   3.251
 6617TIP3   OH219856   1.468   4.286   4.782
 6617TIP3    H119857   1.443   4.353   4.719
 6617TIP3    H219858   1.562   4.296   4.793
 6618TIP3   OH219859   5.047   3.850   0.717
 6618TIP3    H119860   5.082   3.938   0.724
 6618TIP3    H219861   5.117   3.793   0.751
 6619TIP3   OH219862   1.762   3.267   4.373
 6619TIP3    H119863   1.757   3.173   4.357
 6619TIP3    H219864   1.672   3.298   4.366
 6620TIP3   OH219865   0.483   0.296   1.371
 6620TIP3    H119866   0.428   0.320   1.297
 6620TIP3    H219867   0.424   0.299   1.447
 6621TIP3   OH219868   6.004   2.424   1.832
 6621TIP3    H119869   6.002   2.519   1.840
 6621TIP3    H219870   5.942   2.393   1.898
 6622TIP3   OH219871   2.063   0.409   4.282
 6622TIP3    H119872   2.086   0.317   4.271
 6622TIP3    H219873   2.088   0.430   4.372
 6623TIP3   OH219874   1.738   0.310   3.031
 6623TIP3    H119875   1.655   0.359   3.036
 6623TIP3    H219876   1.799   0.362   3.083
 6624TIP3   OH219877   0.541   2.797   2.136
 6624TIP3    H119878   0.468   2.776   2.079
 6624TIP3    H219879   0.612   2.740   2.105
 6625TIP3   OH219880   1.555   0.414   2.132
 6625TIP3    H119881   1.607   0.484   2.172
 6625TIP3    H219882   1.464   0.441   2.147
 6626TIP3   OH219883   2.211   4.176   0.653
 6626TIP3    H119884   2.192   4.239   0.723
 6626TIP3    H219885   2.291   4.132   0.682
 6627TIP3   OH219886   4.444   2.414   2.746
 6627TIP3    H119887   4.396   2.339   2.711
 6627TIP3    H219888   4.453   2.396   2.839
 6628TIP3   OH219889   0.131   2.988   0.423
 6628TIP3    H119890   0.126   3.065   0.368
 6628TIP3    H219891   0.039   2.968   0.445
 6629TIP3   OH219892   4.657   3.056   2.679
 6629TIP3    H119893   4.647   2.961   2.679
 6629TIP3    H219894   4.589   3.087   2.619
 6630TIP3   OH219895   5.796   0.135   1.802
 6630TIP3    H119896   5.884   0.149   1.768
 6630TIP3    H219897   5.741   0.196   1.753
 6631TIP3   OH219898   3.179   5.525   1.108
 6631TIP3    H119899   3.240   5.588   1.070
 6631TIP3    H219900   3.193   5.533   1.202
 6632TIP3   OH219901   3.789   0.306   3.610
 6632TIP3    H119902   3.772   0.388   3.565
 6632TIP3    H219903   3.808   0.331   3.700
 6633TIP3   OH219904   0.329   3.382   2.766
 6633TIP3    H119905   0.313   3.360   2.674
 6633TIP3    H219906   0.396   3.320   2.795
 6634TIP3   OH219907   3.092   4.846   2.532
 6634TIP3    H119908   3.046   4.763   2.523
 6634TIP3    H219909   3.078   4.891   2.448
 6635TIP3   OH219910   0.678   2.809   4.935
 6635TIP3    H119911   0.625   2.864   4.993
 6635TIP3    H219912   0.766   2.812   4.973
 6636TIP3   OH219913   1.521   0.125   1.389
 6636TIP3    H119914   1.456   0.161   1.448
 6636TIP3    H219915   1.599   0.113   1.443
 6637TIP3   OH219916   2.276   5.751   2.558
 6637TIP3    H119917   2.358   5.784   2.522
 6637TIP3    H219918   2.208   5.785   2.499
 6638TIP3   OH219919   0.826   1.789   4.878
 6638TIP3    H119920   0.778   1.803   4.796
 6638TIP3    H219921   0.757   1.767   4.942
 6639TIP3   OH219922   2.638   0.886   4.748
 6639TIP3    H119923   2.685   0.803   4.733
 6639TIP3    H219924   2.703   0.943   4.789
 6640TIP3   OH219925   3.113   1.705   4.488
 6640TIP3    H119926   3.078   1.793   4.475
 6640TIP3    H219927   3.141   1.704   4.580
   6.34727   5.98426   5.18253   0.00000   0.00000  -2.11576   0.00000  -2.11576  -2.99214
