Title
19927
    1ASP      N    1   1.114   2.725   3.042  0.1937 -0.5130  0.7482
    1ASP    HT1    2   1.027   2.782   3.043  0.2741 -0.3726  0.1341
    1ASP    HT2    3   1.138   2.706   2.942 -0.3299  0.4380  0.4340
    1ASP    HT3    4   1.188   2.777   3.092  0.9919 -0.0417 -0.8767
    1ASP     CA    5   1.095   2.597   3.106  0.0382  0.9117  0.3458
    1ASP     HA    6   1.102   2.633   3.208  0.1970  1.4717  0.1409
    1ASP     CB    7   0.958   2.539   3.077  0.3712  0.2845  0.5046
    1ASP    HB1    8   0.957   2.498   2.974 -0.8899 -0.1318  0.6692
    1ASP    HB2    9   0.883   2.621   3.075 -1.2466 -1.1249  1.2839
    1ASP     CG   10   0.912   2.432   3.166 -0.0429 -0.3543  0.5848
    1ASP    OD1   11   0.982   2.402   3.265 -0.0245  0.6809 -0.2689
    1ASP    OD2   12   0.805   2.368   3.143  0.2995 -0.4034  0.5458
    1ASP      C   13   1.218   2.505   3.080  0.0436  0.4207 -0.1948
    1ASP      O   14   1.323   2.558   3.031  0.2557  0.0710  0.0278
    2ALA      N   15   1.197   2.379   3.111 -0.4122 -0.1008 -0.6684
    2ALA     HN   16   1.113   2.354   3.158 -0.7651  1.6666 -0.3171
    2ALA     CA   17   1.297   2.272   3.084  0.0498 -0.2060  0.5250
    2ALA     HA   18   1.390   2.303   3.129  2.5047 -3.9866 -1.4555
    2ALA     CB   19   1.253   2.142   3.145 -0.1424  1.1982  0.3177
    2ALA    HB1   20   1.248   2.148   3.256 -0.0020 -0.0027  0.3973
    2ALA    HB2   21   1.319   2.057   3.119 -2.2554  0.1517 -2.0376
    2ALA    HB3   22   1.149   2.116   3.114  0.4664 -1.2439  0.1530
    2ALA      C   23   1.326   2.248   2.934 -0.0432  0.0531 -0.2674
    2ALA      O   24   1.240   2.254   2.849  0.0694  0.3032  0.0022
    3ASP      N   25   1.460   2.222   2.905  0.0571  0.3644 -0.1307
    3ASP     HN   26   1.532   2.232   2.973  0.8206  0.0378 -0.8730
    3ASP     CA   27   1.500   2.160   2.782 -0.0712 -0.6704 -0.3836
    3ASP     HA   28   1.602   2.130   2.796  0.4314  2.0236  2.8990
    3ASP     CB   29   1.449   2.025   2.744 -0.3199 -0.8534  0.3914
    3ASP    HB1   30   1.501   1.991   2.653  0.2048  1.3288 -0.1952
    3ASP    HB2   31   1.345   2.031   2.707 -0.4057  1.5916  0.8349
    3ASP     CG   32   1.460   1.930   2.861 -0.0695 -0.2950 -0.1248
    3ASP    OD1   33   1.551   1.941   2.946  0.4192 -0.6483  0.0504
    3ASP    OD2   34   1.374   1.832   2.865  0.0964 -0.6717 -0.3616
    3ASP      C   35   1.520   2.267   2.670  0.2132  0.5317  0.7896
    3ASP      O   36   1.497   2.238   2.549 -0.2052  0.7504 -0.0579
    4GLY      N   37   1.555   2.393   2.718 -0.5003 -0.1346  0.3101
    4GLY     HN   38   1.585   2.403   2.812  2.3535  0.4281 -0.5387
    4GLY     CA   39   1.569   2.521   2.638 -0.1118  0.6297 -0.5753
    4GLY    HA1   40   1.625   2.591   2.699 -1.0685  0.5418  0.4218
    4GLY    HA2   41   1.469   2.551   2.609 -0.5197 -0.8565 -0.7606
    4GLY      C   42   1.662   2.508   2.521  0.5619 -0.5139  0.3727
    4GLY      O   43   1.715   2.402   2.485 -0.9887  0.1316  0.1303
    5PRO      N   44   1.669   2.613   2.433 -0.0484 -0.1245  0.4888
    5PRO     CD   45   1.605   2.744   2.450 -0.0819  0.2645 -0.0560
    5PRO    HD1   46   1.642   2.781   2.548  1.7404 -1.5106  0.0010
    5PRO    HD2   47   1.495   2.741   2.433  0.0739 -1.7280 -0.9831
    5PRO     CA   48   1.705   2.595   2.291  0.3804 -0.1668 -0.1918
    5PRO     HA   49   1.648   2.508   2.261  0.8608 -0.2266 -0.9584
    5PRO     CB   50   1.662   2.728   2.220  0.1471  0.2277 -0.5598
    5PRO    HB1   51   1.560   2.721   2.177 -0.6631  0.5849  1.2030
    5PRO    HB2   52   1.722   2.773   2.138  0.9762 -0.9945 -0.6388
    5PRO     CG   53   1.658   2.824   2.340  0.1594  0.1545 -0.1345
    5PRO    HG1   54   1.766   2.841   2.362 -0.3032  0.2277  2.4785
    5PRO    HG2   55   1.599   2.917   2.322  3.8495  2.8017  0.3415
    5PRO      C   56   1.858   2.564   2.263  0.4422  0.1348  0.8305
    5PRO      O   57   1.893   2.543   2.146 -0.1034  0.1185  0.1964
    6GLY      N   58   1.934   2.542   2.367 -0.1642 -0.2951 -0.1032
    6GLY     HN   59   1.897   2.567   2.456 -0.6538  0.1902 -0.4405
    6GLY     CA   60   2.069   2.488   2.349  0.0954 -0.8205  0.0629
    6GLY    HA1   61   2.066   2.397   2.291 -0.1702  0.6217 -2.3344
    6GLY    HA2   62   2.102   2.481   2.451 -1.8432  0.9122  0.8875
    6GLY      C   63   2.164   2.583   2.282  0.2452 -0.4535  0.0950
    6GLY      O   64   2.248   2.543   2.203 -0.8359 -0.2942  0.2269
    7ASP      N   65   2.156   2.710   2.317  0.2869  0.0247 -0.1369
    7ASP     HN   66   2.086   2.747   2.377 -0.2654  1.6192 -1.6738
    7ASP     CA   67   2.257   2.812   2.285 -0.5568  1.1485  0.2780
    7ASP     HA   68   2.257   2.806   2.178 -1.6008  0.9602  0.2795
    7ASP     CB   69   2.225   2.959   2.337  0.3218  0.2421  0.4070
    7ASP    HB1   70   2.314   3.021   2.316  0.9194 -0.4424  0.8989
    7ASP    HB2   71   2.214   2.963   2.448  0.5717  1.0770  0.4085
    7ASP     CG   72   2.104   3.032   2.282  0.3993 -0.1494  0.7340
    7ASP    OD1   73   2.064   3.000   2.167 -0.3002  0.4107 -0.4275
    7ASP    OD2   74   2.065   3.133   2.345  0.0226 -0.1115  0.4741
    7ASP      C   75   2.396   2.773   2.338  0.5496  0.1191  0.2924
    7ASP      O   76   2.399   2.728   2.455 -0.0258 -0.0249 -0.1078
    8PRO      N   77   2.510   2.800   2.273  0.0098 -0.4355  0.3165
    8PRO     CD   78   2.513   2.856   2.134  0.5772  0.5553 -0.5507
    8PRO    HD1   79   2.455   2.950   2.140 -2.3723 -1.2167  2.2207
    8PRO    HD2   80   2.460   2.784   2.067 -1.2408  1.1611  0.1766
    8PRO     CA   81   2.645   2.798   2.333  0.6581 -0.0052 -0.0512
    8PRO     HA   82   2.674   2.695   2.348  2.1659  0.5999  1.5329
    8PRO     CB   83   2.733   2.863   2.230 -0.9882 -0.1884 -0.3418
    8PRO    HB1   84   2.833   2.819   2.212 -1.3100 -0.4069 -1.6851
    8PRO    HB2   85   2.746   2.971   2.256 -1.7444  0.1044 -1.1100
    8PRO     CG   86   2.661   2.854   2.093  0.5251  0.7252  0.0399
    8PRO    HG1   87   2.687   2.943   2.033 -0.0785  0.6996 -0.2682
    8PRO    HG2   88   2.692   2.763   2.037 -0.2882  0.2036  0.4041
    8PRO      C   89   2.659   2.862   2.471  0.1180 -0.0094 -0.1709
    8PRO      O   90   2.613   2.974   2.492 -0.7387 -0.3811  0.1673
    9ASP      N   91   2.701   2.779   2.566 -0.2563 -0.6024 -0.4163
    9ASP     HN   92   2.734   2.692   2.530  0.9943 -0.3141 -0.0271
    9ASP     CA   93   2.715   2.813   2.706 -0.3419  0.0134  0.6281
    9ASP     HA   94   2.754   2.722   2.748  1.2449  0.6232  0.5429
    9ASP     CB   95   2.827   2.912   2.732  0.5311 -0.4511 -0.7576
    9ASP    HB1   96   2.831   2.933   2.841 -2.6478 -1.1674 -0.4122
    9ASP    HB2   97   2.799   3.006   2.681  1.9294  0.2450 -0.3049
    9ASP     CG   98   2.961   2.852   2.689  0.0222 -0.1437 -0.0329
    9ASP    OD1   99   2.969   2.727   2.693 -0.6965 -0.4475  0.2896
    9ASP    OD2  100   3.062   2.919   2.662  0.6394  0.3275 -0.4366
    9ASP      C  101   2.590   2.847   2.789 -0.7547  0.2560 -0.1639
    9ASP      O  102   2.591   2.903   2.898 -0.0067  0.2118  0.4275
   10ALA      N  103   2.475   2.804   2.741  1.1014  0.2713 -0.3684
   10ALA     HN  104   2.469   2.749   2.658 -1.1260  1.1942 -0.8796
   10ALA     CA  105   2.348   2.801   2.811 -0.3861  0.5234 -0.2998
   10ALA     HA  106   2.325   2.904   2.837 -0.1350  0.4752  0.1265
   10ALA     CB  107   2.230   2.762   2.720 -0.2978 -0.1749  0.0790
   10ALA    HB1  108   2.232   2.818   2.624 -0.3159  1.0455  0.7804
   10ALA    HB2  109   2.127   2.768   2.763 -0.6239 -1.2435 -0.5142
   10ALA    HB3  110   2.243   2.658   2.681  0.4885 -0.0859  0.0881
   10ALA      C  111   2.345   2.729   2.943  0.5432  0.3591  0.5844
   10ALA      O  112   2.419   2.636   2.968  0.3539  0.0505 -0.3041
   11GLY      N  113   2.271   2.778   3.040  0.6567 -0.0006 -0.2074
   11GLY     HN  114   2.210   2.855   3.021  0.6332 -0.6835 -3.6209
   11GLY     CA  115   2.256   2.718   3.174 -0.0768 -0.4206  0.3994
   11GLY    HA1  116   2.295   2.798   3.235  0.3890  1.5993 -2.3542
   11GLY    HA2  117   2.297   2.619   3.182  1.1809  0.2503  3.6808
   11GLY      C  118   2.108   2.699   3.219 -0.4270  0.5587 -1.1011
   11GLY    OT1  119   2.079   2.621   3.314  0.0208 -0.1275 -0.0798
   11GLY    OT2  120   2.018   2.767   3.158 -0.3517 -0.6068 -0.6215
   12SOD    SOD  121   3.337   5.337   1.103 -0.1025  0.3205  0.4120
   13SOD    SOD  122   3.284   2.441   0.601  0.0551 -0.0503  0.0467
   14SOD    SOD  123   2.551   4.940   3.561 -0.6149 -0.0464 -0.3832
   15SOD    SOD  124   5.105   2.164   3.817 -0.1045 -0.0842 -0.0169
   16SOD    SOD  125   0.554   3.349   0.974 -0.2031 -0.4239  0.0993
   17SOD    SOD  126   1.430   0.782   1.127  0.0890  0.1104 -0.2599
   18SOD    SOD  127   1.332   5.776   1.248 -0.2403  0.1253 -0.0002
   19SOD    SOD  128   6.107   1.313   2.164 -0.0629 -0.0044 -0.1590
   20SOD    SOD  129   0.434   5.664   4.882  0.0996  0.0123  0.2523
   21SOD    SOD  130   4.960   0.549   4.735  0.5946 -0.0674  0.0258
   22SOD    SOD  131   0.434   3.623   4.483 -0.2235 -0.1368  0.0669
   23SOD    SOD  132   0.331   4.740   2.304  0.2472 -0.1371  0.4950
   24SOD    SOD  133   1.908   2.778   1.806 -0.0653  0.1192  0.1713
   25SOD    SOD  134   0.630   4.625   1.044 -0.0432 -0.3783 -0.0731
   26SOD    SOD  135   0.820   4.726   4.052  0.4972 -0.1576 -0.2494
   27SOD    SOD  136   4.531   1.375   0.161 -0.5091 -0.2336 -0.5715
   28SOD    SOD  137   6.021   5.061   4.385 -0.0292  0.3847 -0.1519
   29SOD    SOD  138   3.093   0.554   0.512 -0.2721  0.0861 -0.6054
   30SOD    SOD  139   2.093   2.111   2.024  0.0897 -0.2220 -0.6008
   31SOD    SOD  140   4.613   3.889   2.243 -0.2096 -0.5257 -0.1390
   32SOD    SOD  141   4.249   0.235   0.360 -0.3704 -0.0880 -0.2094
   33SOD    SOD  142   3.783   5.281   4.514  0.1931  0.3537  0.0917
   34CLA    CLA  143   6.060   1.380   0.371 -0.0849 -0.1035 -0.0390
   35CLA    CLA  144   0.811   5.148   3.023 -0.0630  0.1976  0.4457
   36CLA    CLA  145   5.921   4.147   4.014  0.2847 -0.3040  0.1945
   37CLA    CLA  146   3.880   5.797   4.229 -0.3118  0.1154 -0.0473
   38CLA    CLA  147   2.039   4.835   4.527 -0.3538  0.2352 -0.3036
   39CLA    CLA  148   2.043   1.193   1.948  0.0232 -0.1256 -0.0099
   40CLA    CLA  149   0.309   5.182   1.424  0.4252 -0.0535 -0.4848
   41CLA    CLA  150   3.401   2.970   4.457 -0.1061 -0.1024  0.2484
   42CLA    CLA  151   3.124   0.132   1.238 -0.2147  0.1819  0.3494
   43CLA    CLA  152   2.619   0.390   4.840 -0.0346  0.3516 -0.0823
   44CLA    CLA  153   0.492   5.474   0.600  0.3919 -0.0696  0.2848
   45CLA    CLA  154   5.559   1.318   3.329  0.0606  0.1817 -0.4234
   46CLA    CLA  155   4.394   2.000   2.499  0.0340  0.5749 -0.0315
   47CLA    CLA  156   0.039   5.063   3.752 -0.4028 -0.3534  0.5033
   48CLA    CLA  157   1.938   1.304   1.472  0.3466  0.0038  0.0667
   49CLA    CLA  158   5.017   3.204   1.964 -0.5237 -0.1459 -0.0369
   50CLA    CLA  159   5.637   5.110   5.015  0.1336 -0.1050  0.1272
   51CLA    CLA  160   4.399   0.292   5.128 -0.1699  0.4242  0.2699
   52TIP3   OH2  161   4.489   4.515   4.215  0.2350  0.5601  0.3278
   52TIP3    H1  162   4.567   4.567   4.235  0.6504 -0.8347  2.7128
   52TIP3    H2  163   4.425   4.540   4.282  0.1871 -1.3629  1.0606
   53TIP3   OH2  164   5.835   0.348   2.076  0.3807  0.9094  0.4438
   53TIP3    H1  165   5.751   0.307   2.097  0.7679  1.1085  2.6570
   53TIP3    H2  166   5.896   0.275   2.069 -0.2404  0.5291 -3.4200
   54TIP3   OH2  167   3.141   4.982   3.612 -0.1248 -0.6106 -0.1583
   54TIP3    H1  168   3.082   5.018   3.546 -0.7005 -1.9611 -0.4203
   54TIP3    H2  169   3.095   4.994   3.695  0.0318 -0.0673 -0.1463
   55TIP3   OH2  170   5.144   3.152   1.662 -0.0310  0.5534 -0.3821
   55TIP3    H1  171   5.186   3.235   1.637 -2.3505  1.3652 -1.9515
   55TIP3    H2  172   5.114   3.167   1.751  0.6155  0.9503 -0.2188
   56TIP3   OH2  173   1.040   1.508   0.107  0.4328  0.0911  0.4996
   56TIP3    H1  174   1.131   1.520   0.079  0.0993 -2.0341 -1.8995
   56TIP3    H2  175   1.029   1.413   0.111 -1.6917  0.2991  0.7809
   57TIP3   OH2  176   3.294   3.653   4.482  0.6356  0.0299 -0.2463
   57TIP3    H1  177   3.212   3.656   4.531  1.1514  0.9915  0.5941
   57TIP3    H2  178   3.283   3.580   4.421 -1.4714  1.1106 -1.2746
   58TIP3   OH2  179   2.637   0.957   4.478 -0.4084  0.6087 -0.2296
   58TIP3    H1  180   2.584   1.015   4.423  1.0129  1.8363 -0.3503
   58TIP3    H2  181   2.727   0.976   4.453  0.1265 -1.4946 -0.0791
   59TIP3   OH2  182   0.635   3.840   1.608 -0.2616  0.3560 -0.3243
   59TIP3    H1  183   0.589   3.819   1.527  2.0108  2.0006 -2.2094
   59TIP3    H2  184   0.716   3.788   1.604  0.3556  1.2287  0.3590
   60TIP3   OH2  185   3.081   1.693   0.768 -0.5036  0.1422  0.2284
   60TIP3    H1  186   3.144   1.711   0.838  0.4911  1.5884 -0.9841
   60TIP3    H2  187   3.043   1.779   0.748 -1.5571 -0.4302 -0.2929
   61TIP3   OH2  188   2.223   4.885   4.935  0.3302  0.7661 -0.7741
   61TIP3    H1  189   2.172   4.843   4.866  0.1006 -1.0879  0.4756
   61TIP3    H2  190   2.312   4.891   4.898  1.1084 -3.5155 -0.0696
   62TIP3   OH2  191   5.501   0.091   1.700  0.1143  0.4027  0.4072
   62TIP3    H1  192   5.554   0.077   1.778  1.4596  1.4672 -0.2818
   62TIP3    H2  193   5.540   0.167   1.657 -0.3861 -0.3322 -1.4668
   63TIP3   OH2  194   2.741   2.532   0.190 -0.2239 -0.2172  0.2121
   63TIP3    H1  195   2.812   2.502   0.246 -1.7321 -1.4263  1.5708
   63TIP3    H2  196   2.661   2.514   0.240 -1.7758 -2.5406 -2.7405
   64TIP3   OH2  197   0.551   4.769   1.777 -0.4446 -0.2298 -0.1574
   64TIP3    H1  198   0.538   4.677   1.755 -0.7681 -1.0106  2.8660
   64TIP3    H2  199   0.505   4.817   1.708  1.9630 -2.1341 -3.3419
   65TIP3   OH2  200   2.314   3.673   0.541  0.0842 -0.3500 -0.6514
   65TIP3    H1  201   2.295   3.759   0.504 -1.8388  0.4759  1.9548
   65TIP3    H2  202   2.285   3.611   0.474  0.2197  0.9906 -2.0041
   66TIP3   OH2  203   0.078   4.822   1.594 -0.1974  0.1588 -0.0558
   66TIP3    H1  204  -0.013   4.845   1.576 -0.3359  0.4071  0.9195
   66TIP3    H2  205   0.104   4.769   1.519 -1.2500 -0.2012 -0.1817
   67TIP3   OH2  206   4.695   0.485   4.021 -0.3478 -0.0400 -0.3843
   67TIP3    H1  207   4.665   0.548   4.087 -0.3140  0.5274 -0.9000
   67TIP3    H2  208   4.645   0.406   4.039  0.5261 -0.2974  1.0843
   68TIP3   OH2  209   1.159   5.848   0.820  0.2381  0.0101  0.5427
   68TIP3    H1  210   1.240   5.817   0.780 -0.5880  1.1891 -2.3177
   68TIP3    H2  211   1.110   5.769   0.842 -0.0285 -0.7919 -2.5989
   69TIP3   OH2  212   0.159   0.006   2.557  0.2128  0.4375  0.5606
   69TIP3    H1  213   0.080   0.047   2.593  0.9442 -0.4365  3.4231
   69TIP3    H2  214   0.215   0.080   2.532 -0.5382  1.1036  0.7953
   70TIP3   OH2  215   5.202   0.410   1.121  0.1110  0.0846  0.2861
   70TIP3    H1  216   5.190   0.356   1.199 -0.9899  0.8866  0.7005
   70TIP3    H2  217   5.165   0.358   1.050 -0.5799  0.1009  0.6183
   71TIP3   OH2  218   3.407   4.537   2.166  0.2138 -0.1251  0.3597
   71TIP3    H1  219   3.399   4.621   2.121  0.2329 -0.3757 -0.1106
   71TIP3    H2  220   3.499   4.534   2.194  0.7267 -0.8431 -1.3196
   72TIP3   OH2  221   2.002   4.233   2.720  0.8826  0.3180  0.1937
   72TIP3    H1  222   2.050   4.294   2.776 -0.2198  1.9669 -0.5963
   72TIP3    H2  223   1.969   4.167   2.781  2.2032  0.3993  1.0538
   73TIP3   OH2  224   4.562   4.374   1.441  0.0808  0.0214  0.1427
   73TIP3    H1  225   4.630   4.441   1.441  0.1448 -0.0323  1.1309
   73TIP3    H2  226   4.592   4.308   1.503 -1.6245  0.8113  1.9050
   74TIP3   OH2  227   1.903   5.067   2.079  0.0873 -0.2734  0.1215
   74TIP3    H1  228   1.890   5.020   1.996 -0.1797 -2.0357  1.1135
   74TIP3    H2  229   1.814   5.084   2.111  0.1872 -0.1016  0.3088
   75TIP3   OH2  230   4.005   2.583   3.476  0.3894 -0.1151 -0.4843
   75TIP3    H1  231   4.062   2.632   3.536 -0.5154 -0.5441  0.7489
   75TIP3    H2  232   3.976   2.649   3.412  0.4239  0.6159  0.2372
   76TIP3   OH2  233   1.296   2.672   0.821  0.1747 -0.2046 -0.2214
   76TIP3    H1  234   1.235   2.621   0.768 -0.8091 -1.1434  1.7030
   76TIP3    H2  235   1.301   2.625   0.904  2.0599  0.9118  0.3612
   77TIP3   OH2  236   1.534   4.940   2.431  0.2459 -0.1102 -0.4095
   77TIP3    H1  237   1.604   4.884   2.463  0.9953  1.4091  0.7755
   77TIP3    H2  238   1.571   5.029   2.437 -1.7836  0.7359  0.2809
   78TIP3   OH2  239   0.935   0.512   4.178 -0.1024  0.2302 -0.2512
   78TIP3    H1  240   0.985   0.437   4.144  0.8035  0.8073 -0.2172
   78TIP3    H2  241   0.986   0.543   4.253 -0.7924  0.5087  0.1135
   79TIP3   OH2  242   1.683   4.327   4.013 -0.1500 -0.3166  0.1512
   79TIP3    H1  243   1.648   4.411   3.983 -1.1293 -1.2400 -1.4452
   79TIP3    H2  244   1.732   4.348   4.093 -0.7754  1.6795  0.0561
   80TIP3   OH2  245   1.589   5.230   0.266 -0.2421 -0.1560 -0.7472
   80TIP3    H1  246   1.523   5.299   0.259  0.3283  0.3370 -1.3451
   80TIP3    H2  247   1.636   5.250   0.347  0.4469  0.6387 -1.3272
   81TIP3   OH2  248   1.353   2.960   2.981 -0.0771  0.5191 -0.2129
   81TIP3    H1  249   1.419   3.028   2.998  0.0750 -0.1739  2.4827
   81TIP3    H2  250   1.272   2.996   3.018 -0.7875  0.5636 -1.7576
   82TIP3   OH2  251   1.378   0.842   4.203 -0.2545  0.4359  0.1702
   82TIP3    H1  252   1.460   0.841   4.253 -0.7819 -0.9641  1.0965
   82TIP3    H2  253   1.389   0.774   4.137 -0.5481  0.4529  0.0996
   83TIP3   OH2  254   2.452   3.982   1.698  0.6209  0.2530 -0.1036
   83TIP3    H1  255   2.451   4.078   1.697  2.2362  0.3191  0.5616
   83TIP3    H2  256   2.515   3.960   1.767 -0.7364 -1.3096  0.7162
   84TIP3   OH2  257   0.208   4.183   1.180  0.2930  0.0614  0.3755
   84TIP3    H1  258   0.210   4.227   1.095  1.2694 -0.9154 -0.1525
   84TIP3    H2  259   0.123   4.139   1.182  0.8975 -1.2702 -0.8718
   85TIP3   OH2  260   1.008   5.969   2.238 -0.3841  0.0358 -0.0467
   85TIP3    H1  261   1.016   5.891   2.183  1.1881 -0.1407  0.4001
   85TIP3    H2  262   0.934   5.950   2.296 -1.8164  0.0631 -1.7693
   86TIP3   OH2  263   2.798   1.081   2.918 -0.2136  0.0745  0.2568
   86TIP3    H1  264   2.801   0.989   2.890 -0.0506  0.1078  0.1678
   86TIP3    H2  265   2.765   1.128   2.841 -0.6226  0.0477  0.4103
   87TIP3   OH2  266   5.568   3.599   1.310  0.2735  0.9208 -0.0227
   87TIP3    H1  267   5.525   3.520   1.276  0.4608  0.3651  0.9658
   87TIP3    H2  268   5.653   3.567   1.341  0.4010  1.5389  0.2661
   88TIP3   OH2  269   1.166   5.028   2.643  0.0752 -0.9350  0.2479
   88TIP3    H1  270   1.094   4.988   2.593 -0.4612  0.0308  0.2251
   88TIP3    H2  271   1.126   5.053   2.726 -0.2621  1.6864 -0.5993
   89TIP3   OH2  272   4.579   5.505   1.434  0.3014  0.6775  0.0582
   89TIP3    H1  273   4.487   5.517   1.411  0.6961  3.0190 -0.5578
   89TIP3    H2  274   4.578   5.495   1.530 -0.5808  0.6667  0.0566
   90TIP3   OH2  275   4.085   0.762   1.424 -0.4974  0.1945  0.1765
   90TIP3    H1  276   4.142   0.704   1.373  0.4794 -0.1641  1.6142
   90TIP3    H2  277   4.143   0.831   1.456 -1.4734  1.4945 -0.7564
   91TIP3   OH2  278   3.877   0.905   1.106  0.0313 -0.2329 -0.7179
   91TIP3    H1  279   3.873   0.814   1.075 -0.3962  0.0225 -1.4246
   91TIP3    H2  280   3.847   0.900   1.197 -0.8075 -0.6923 -1.0045
   92TIP3   OH2  281   2.055   3.869   2.260  0.6532  0.3325  0.5004
   92TIP3    H1  282   2.060   3.816   2.339  0.0652 -0.2328  0.1716
   92TIP3    H2  283   1.965   3.857   2.229  0.4117  1.7794  0.5884
   93TIP3   OH2  284   4.456   4.398   2.067 -0.6924 -0.2642  0.3683
   93TIP3    H1  285   4.371   4.400   2.023 -2.7553  0.1158  3.9885
   93TIP3    H2  286   4.490   4.487   2.059 -0.3594 -0.5077 -1.4063
   94TIP3   OH2  287   5.390   0.994   3.153  1.0330 -0.8279  0.1985
   94TIP3    H1  288   5.296   1.004   3.136  1.2822  0.3900 -0.6504
   94TIP3    H2  289   5.397   0.915   3.206 -0.7678  0.7510  3.0299
   95TIP3   OH2  290   0.536   5.167   1.858 -0.1424  0.0987 -0.1439
   95TIP3    H1  291   0.618   5.117   1.852  0.7882  1.4688  0.5379
   95TIP3    H2  292   0.528   5.210   1.773 -1.2766 -1.6347 -0.9621
   96TIP3   OH2  293   2.187   4.002   1.279  0.0686 -0.4258 -0.0916
   96TIP3    H1  294   2.263   3.964   1.324 -1.0241 -0.2029  2.0845
   96TIP3    H2  295   2.139   4.048   1.348 -1.1572  0.8974 -1.7407
   97TIP3   OH2  296   1.572   5.714   1.807  0.6280  0.2698  0.5240
   97TIP3    H1  297   1.555   5.619   1.811 -0.3896  0.4691  1.1724
   97TIP3    H2  298   1.632   5.730   1.880 -1.5356  0.5659  2.3352
   98TIP3   OH2  299   2.519   4.585   3.870  0.4650  0.2370  0.1025
   98TIP3    H1  300   2.448   4.520   3.869 -0.5989  1.3843 -0.7012
   98TIP3    H2  301   2.596   4.535   3.898 -0.1970 -1.5004 -1.0299
   99TIP3   OH2  302   3.168   3.149   3.755 -0.0123 -0.3448  0.2051
   99TIP3    H1  303   3.206   3.223   3.803  0.8124 -1.0770  0.6992
   99TIP3    H2  304   3.191   3.166   3.664  1.4789 -0.7311  0.4781
  100TIP3   OH2  305   1.314   1.857   4.073 -0.2417 -0.0400  0.2704
  100TIP3    H1  306   1.406   1.831   4.067  0.0661  1.0623  0.0727
  100TIP3    H2  307   1.291   1.884   3.984 -0.1090  1.7773  0.7585
  101TIP3   OH2  308   2.862   2.593   4.053  0.2128  0.2533 -0.1114
  101TIP3    H1  309   2.919   2.563   4.124  1.9138  1.1911 -1.0250
  101TIP3    H2  310   2.891   2.543   3.977 -1.3539 -0.4764 -0.2753
  102TIP3   OH2  311   1.993   0.863   4.482 -0.3876 -0.7178  0.1235
  102TIP3    H1  312   2.081   0.859   4.519  0.0315  0.0738 -0.7203
  102TIP3    H2  313   2.007   0.864   4.387 -1.3111 -0.7308 -0.0266
  103TIP3   OH2  314   0.964   0.182   4.964  0.3086 -0.3881  0.0872
  103TIP3    H1  315   0.899   0.141   4.907  0.4261 -0.5796  0.0914
  103TIP3    H2  316   0.961   0.274   4.940  0.6171 -0.5217 -0.4783
  104TIP3   OH2  317   6.228   1.453   1.484  0.2437 -0.3690 -0.5990
  104TIP3    H1  318   6.322   1.436   1.491  0.4625  0.6452 -0.9844
  104TIP3    H2  319   6.199   1.465   1.574  0.5626 -0.2523 -0.5111
  105TIP3   OH2  320   4.032   3.548   2.870  0.5438  0.1176 -0.0155
  105TIP3    H1  321   3.981   3.467   2.877  2.1598 -1.0236 -0.6726
  105TIP3    H2  322   4.019   3.576   2.779  0.8742 -0.0523 -0.1189
  106TIP3   OH2  323   5.117   1.500   1.763 -0.0684  0.1208 -0.0703
  106TIP3    H1  324   5.124   1.416   1.808  0.3079 -0.2433 -0.7918
  106TIP3    H2  325   5.024   1.509   1.744  0.1915 -1.5089 -2.5142
  107TIP3   OH2  326   5.659   1.503   5.010  0.1352  0.1065 -0.9357
  107TIP3    H1  327   5.747   1.498   5.048  0.8888  1.6382 -2.3708
  107TIP3    H2  328   5.623   1.415   5.022  1.3875 -0.2180  0.7668
  108TIP3   OH2  329   6.267   5.006   4.372 -0.1289 -0.1987 -0.0902
  108TIP3    H1  330   6.314   4.949   4.433 -2.2889 -2.6090 -0.4993
  108TIP3    H2  331   6.336   5.047   4.320  1.5889 -1.5161  1.0377
  109TIP3   OH2  332   1.755   1.643   0.999 -0.3343 -0.3606  0.1355
  109TIP3    H1  333   1.817   1.695   0.948  0.2368  0.1518  1.3313
  109TIP3    H2  334   1.794   1.637   1.086 -1.2522 -1.2972  0.5046
  110TIP3   OH2  335   0.133   4.733   2.440 -0.0004 -1.1077  0.7944
  110TIP3    H1  336   0.056   4.789   2.432  0.7610 -0.0099  0.8566
  110TIP3    H2  337   0.099   4.649   2.470 -1.1178 -0.5209  1.2276
  111TIP3   OH2  338   0.944   2.194   2.353  0.4487 -0.1987  0.1722
  111TIP3    H1  339   0.919   2.128   2.417  1.3940  0.6893  1.5001
  111TIP3    H2  340   0.868   2.201   2.295 -0.7847 -0.4497  1.6839
  112TIP3   OH2  341   0.395   3.118   0.814 -0.2755 -0.3125 -0.4330
  112TIP3    H1  342   0.374   3.037   0.860 -1.6832  0.2168 -0.0906
  112TIP3    H2  343   0.314   3.143   0.771 -0.1842  1.4512  0.3105
  113TIP3   OH2  344   3.103   2.164   4.445 -0.0317 -0.1467  0.2405
  113TIP3    H1  345   3.013   2.190   4.467 -0.1292 -1.8322  2.1794
  113TIP3    H2  346   3.158   2.222   4.497  0.0652  1.2355 -1.3451
  114TIP3   OH2  347   1.483   3.953   2.403 -0.1380 -0.2886  0.0639
  114TIP3    H1  348   1.566   3.915   2.430  0.2626  1.4560  1.4764
  114TIP3    H2  349   1.507   4.033   2.356 -1.0077 -0.3511 -0.5239
  115TIP3   OH2  350   1.130   1.708   2.818  0.5566 -0.4056 -0.2572
  115TIP3    H1  351   1.212   1.755   2.807  0.0469  0.8013  0.8368
  115TIP3    H2  352   1.063   1.776   2.821 -0.1348 -1.0768  2.0516
  116TIP3   OH2  353   0.995   5.556   0.566  0.0712  0.3828  0.0852
  116TIP3    H1  354   1.050   5.632   0.543 -1.0598  1.2524  0.1568
  116TIP3    H2  355   0.924   5.594   0.618 -0.1533 -0.8436  0.6964
  117TIP3   OH2  356   0.545   3.368   2.778 -0.4353 -0.0692  0.6446
  117TIP3    H1  357   0.450   3.370   2.768 -0.2448  0.9229 -1.6546
  117TIP3    H2  358   0.577   3.332   2.696  1.2139  0.1129  1.1733
  118TIP3   OH2  359   0.281   4.495   0.334 -0.2671 -0.2032  0.1767
  118TIP3    H1  360   0.218   4.516   0.403  0.2544  0.9569  0.3319
  118TIP3    H2  361   0.286   4.399   0.334 -0.8225 -0.2482  1.2597
  119TIP3   OH2  362   3.971   5.041   1.761  0.3937  0.1058 -0.0345
  119TIP3    H1  363   3.930   5.120   1.795  0.5427 -0.1343  0.7291
  119TIP3    H2  364   4.045   5.073   1.709  0.3311  0.4802  0.1043
  120TIP3   OH2  365   1.384   5.014   4.909  0.1121  0.0353 -0.4576
  120TIP3    H1  366   1.335   5.094   4.929  0.9202 -0.0692  2.3000
  120TIP3    H2  367   1.410   5.024   4.818 -0.5310  2.5180 -0.4373
  121TIP3   OH2  368   1.884   4.954   2.910 -0.3560 -0.2580 -0.3656
  121TIP3    H1  369   1.941   4.887   2.872 -0.4460 -0.0926 -0.8023
  121TIP3    H2  370   1.941   5.030   2.921 -0.2734 -0.3790  0.0552
  122TIP3   OH2  371   6.288   3.163   0.896 -0.5365  0.2657 -0.1809
  122TIP3    H1  372   6.321   3.250   0.872 -2.2514  0.7967 -0.7644
  122TIP3    H2  373   6.303   3.158   0.991  0.0071  1.0007 -0.2137
  123TIP3   OH2  374   1.269   4.368   1.874  0.0822 -0.4851  0.6140
  123TIP3    H1  375   1.296   4.460   1.865 -0.4216 -0.4338 -0.5686
  123TIP3    H2  376   1.174   4.370   1.863 -0.0435 -1.0587  1.4584
  124TIP3   OH2  377   5.036   1.943   3.843  0.5208 -0.1016  0.5376
  124TIP3    H1  378   4.951   1.912   3.812  1.2769 -0.9541 -0.7555
  124TIP3    H2  379   5.099   1.883   3.805  1.6649 -0.0856  2.2935
  125TIP3   OH2  380   5.696   1.994   4.539  0.2530  0.1927  0.4567
  125TIP3    H1  381   5.653   1.997   4.625  0.0991  0.3120  0.3758
  125TIP3    H2  382   5.779   2.039   4.552  0.7659 -0.8241  0.8461
  126TIP3   OH2  383   5.503   2.248   2.022 -0.4268 -0.2097 -0.5582
  126TIP3    H1  384   5.540   2.268   1.936  1.5147 -1.8986 -0.1878
  126TIP3    H2  385   5.484   2.334   2.060  0.0215  0.6138 -2.0939
  127TIP3   OH2  386   5.035   5.427   0.010  0.3091  0.8375 -0.5829
  127TIP3    H1  387   5.071   5.515   0.012 -1.2070  1.4739  0.1956
  127TIP3    H2  388   4.997   5.415   0.097  0.6621 -0.6624 -0.6100
  128TIP3   OH2  389   3.177   3.328   2.486 -0.2802 -0.5381  0.0165
  128TIP3    H1  390   3.121   3.252   2.473 -0.6205 -0.5448  1.4087
  128TIP3    H2  391   3.117   3.401   2.500 -0.1848 -1.0157  4.5412
  129TIP3   OH2  392   0.097   4.810   1.950  0.8867  0.2774 -0.1498
  129TIP3    H1  393   0.136   4.739   1.900  0.9060 -1.6466  2.4059
  129TIP3    H2  394   0.168   4.874   1.960  0.6990  1.0861 -2.9831
  130TIP3   OH2  395   0.249   3.661   1.775  0.6985  0.5597  0.4429
  130TIP3    H1  396   0.239   3.644   1.869 -1.0117  1.5464  0.4878
  130TIP3    H2  397   0.278   3.752   1.771  0.2592  0.6833  0.0142
  131TIP3   OH2  398   4.791   3.456   0.217  0.5877  0.0964  0.1288
  131TIP3    H1  399   4.786   3.538   0.266 -1.2333 -0.3237  0.7202
  131TIP3    H2  400   4.730   3.468   0.144  1.8319 -0.0040 -0.9707
  132TIP3   OH2  401   5.043   0.072   4.188 -0.0932  0.6752  0.5159
  132TIP3    H1  402   5.053   0.048   4.280  0.0726 -2.7705 -0.2610
  132TIP3    H2  403   4.957   0.114   4.183 -0.2868  0.5056  2.1603
  133TIP3   OH2  404   3.960   0.360   1.099  0.1892  0.2947 -0.2927
  133TIP3    H1  405   3.935   0.279   1.056  1.7486 -0.2590 -0.2040
  133TIP3    H2  406   3.878   0.394   1.136 -0.4813 -1.2372 -0.3182
  134TIP3   OH2  407   4.129   4.287   4.111  0.1634 -0.0070 -0.7205
  134TIP3    H1  408   4.082   4.242   4.042  0.2610 -0.5993 -0.4049
  134TIP3    H2  409   4.196   4.225   4.140 -2.0291 -1.1870  2.2672
  135TIP3   OH2  410   2.975   2.108   2.616 -1.0273 -0.4086  0.2158
  135TIP3    H1  411   2.970   2.104   2.711  0.4043  2.3079  0.4896
  135TIP3    H2  412   2.991   2.017   2.589 -1.8177 -1.2866  2.4974
  136TIP3   OH2  413   6.260   2.679   0.938  0.0183 -0.4133 -0.7655
  136TIP3    H1  414   6.281   2.746   1.004  0.0543 -3.3816  2.5351
  136TIP3    H2  415   6.166   2.665   0.947  0.0896 -1.1296 -1.0906
  137TIP3   OH2  416   4.635   3.679   0.430  0.3023  0.6528 -0.1068
  137TIP3    H1  417   4.562   3.736   0.453  1.6654  2.1935  0.5926
  137TIP3    H2  418   4.597   3.592   0.425 -1.4270  1.3010  0.9994
  138TIP3   OH2  419   0.256   0.128   1.136  0.3966 -0.0103 -0.2062
  138TIP3    H1  420   0.307   0.201   1.100 -1.3604  0.8842 -1.0140
  138TIP3    H2  421   0.232   0.076   1.059 -0.2254 -0.1860  0.0972
  139TIP3   OH2  422   3.502   1.795   3.110  0.6431 -0.3082 -0.1115
  139TIP3    H1  423   3.551   1.877   3.124  1.9848 -1.0951 -0.0504
  139TIP3    H2  424   3.428   1.802   3.171 -1.3550  2.4033 -2.5372
  140TIP3   OH2  425   1.237   2.014   4.276 -0.4680 -0.1300 -0.0106
  140TIP3    H1  426   1.266   1.965   4.199 -1.6179 -1.7329  0.5355
  140TIP3    H2  427   1.294   2.091   4.278  0.3006 -0.6048 -1.8335
  141TIP3   OH2  428   1.275   3.242   2.173  0.3791  0.4383  0.6229
  141TIP3    H1  429   1.369   3.221   2.179  0.0361 -1.3933 -0.0028
  141TIP3    H2  430   1.232   3.158   2.160 -1.5920  0.9323  3.1204
  142TIP3   OH2  431   6.135   2.501   3.465 -0.0044  0.1063  0.2564
  142TIP3    H1  432   6.129   2.512   3.560  0.0979  1.5607  0.1156
  142TIP3    H2  433   6.044   2.499   3.436 -0.0372 -0.4528  0.3962
  143TIP3   OH2  434   6.123   5.055   5.168 -0.2210 -0.2911 -0.0663
  143TIP3    H1  435   6.180   5.128   5.193 -1.1749  0.4890 -0.1295
  143TIP3    H2  436   6.063   5.092   5.103  0.3018 -1.5450 -1.3183
  144TIP3   OH2  437   1.661   0.351   1.581 -0.2453 -0.1264  0.2886
  144TIP3    H1  438   1.646   0.378   1.490 -0.7859  0.8171  0.6441
  144TIP3    H2  439   1.592   0.395   1.631  0.2609 -0.3413  1.2035
  145TIP3   OH2  440   0.503   4.508   0.161 -0.9481  0.6291  0.1427
  145TIP3    H1  441   0.422   4.522   0.211  0.5438  0.4035  2.8147
  145TIP3    H2  442   0.502   4.414   0.140 -1.6608  0.7548 -0.4294
  146TIP3   OH2  443   0.707   5.900   0.342  0.4709 -0.2149  0.1814
  146TIP3    H1  444   0.677   5.833   0.403  1.2121  0.4834  1.3347
  146TIP3    H2  445   0.755   5.851   0.275  1.5140 -0.7906  1.3323
  147TIP3   OH2  446   4.103   4.744   1.625  0.3662  0.3045  0.0596
  147TIP3    H1  447   4.057   4.704   1.551 -1.0252 -1.5038  1.8126
  147TIP3    H2  448   4.177   4.789   1.584 -0.3507 -0.5735 -2.4305
  148TIP3   OH2  449   5.507   1.063   2.523 -0.3208 -0.1358 -0.2365
  148TIP3    H1  450   5.528   1.104   2.607 -0.5511 -0.8156  0.1601
  148TIP3    H2  451   5.529   1.130   2.458 -1.3156  0.8724  0.4221
  149TIP3   OH2  452   5.059   5.892   0.636 -0.5195  0.0640 -0.2611
  149TIP3    H1  453   5.014   5.808   0.643 -0.8312  0.2045 -0.5329
  149TIP3    H2  454   5.148   5.870   0.610 -0.1405 -0.2832  1.2471
  150TIP3   OH2  455   2.647   5.221   2.828  0.3024  0.0090  0.0582
  150TIP3    H1  456   2.683   5.257   2.747  1.7179 -0.3895  0.4721
  150TIP3    H2  457   2.652   5.293   2.891 -0.6588  0.2730 -0.1438
  151TIP3   OH2  458   3.283   2.038   0.490  0.6122 -0.3574 -0.1911
  151TIP3    H1  459   3.256   1.947   0.502  0.7379 -0.5352 -1.1859
  151TIP3    H2  460   3.286   2.074   0.579 -1.1285 -0.8345  0.0994
  152TIP3   OH2  461   0.502   1.723   2.203 -0.0649  0.5036  0.1560
  152TIP3    H1  462   0.524   1.685   2.119  0.0235  0.4667  0.1955
  152TIP3    H2  463   0.565   1.685   2.264  0.4199  1.1831  0.0840
  153TIP3   OH2  464   4.465   5.890   3.901 -0.0413 -0.5318 -0.1200
  153TIP3    H1  465   4.472   5.985   3.907  0.0834 -0.5542  0.0966
  153TIP3    H2  466   4.513   5.867   3.822 -0.7208 -0.3430 -0.5967
  154TIP3   OH2  467   2.567   5.850   3.451  0.6759  0.3308  0.5109
  154TIP3    H1  468   2.514   5.770   3.450  1.5560 -0.2668  0.2772
  154TIP3    H2  469   2.650   5.824   3.491  0.6890  1.3316  1.1880
  155TIP3   OH2  470   0.997   3.614   4.121 -0.4370 -0.0259 -0.3945
  155TIP3    H1  471   0.953   3.540   4.163 -0.9427  0.7088  0.3855
  155TIP3    H2  472   1.069   3.574   4.072 -0.7464 -1.0402 -0.0454
  156TIP3   OH2  473   4.229   5.176   1.693 -0.4712  0.2860 -0.6134
  156TIP3    H1  474   4.322   5.185   1.716 -0.6325  1.9080 -0.4710
  156TIP3    H2  475   4.188   5.254   1.729 -1.7186  0.1157 -1.6037
  157TIP3   OH2  476   5.505   3.534   0.921  0.7699 -0.0418  0.1497
  157TIP3    H1  477   5.578   3.591   0.900  1.3021 -1.3341 -1.7584
  157TIP3    H2  478   5.545   3.457   0.963  0.3985 -0.3109  0.0197
  158TIP3   OH2  479   3.346   5.224   4.597 -0.4900  0.2972 -0.0942
  158TIP3    H1  480   3.261   5.242   4.637  0.1490  1.5350  0.8104
  158TIP3    H2  481   3.406   5.213   4.671  0.7661  2.8161 -0.6101
  159TIP3   OH2  482   3.333   1.135   1.065 -0.9340 -0.7053 -0.0239
  159TIP3    H1  483   3.250   1.177   1.043 -1.4198 -0.7070  1.6543
  159TIP3    H2  484   3.397   1.205   1.062 -1.1606 -0.5165 -0.4658
  160TIP3   OH2  485   1.691   1.302   3.917  0.6160  0.3001  0.1683
  160TIP3    H1  486   1.768   1.325   3.864 -0.4373  1.8037 -0.7762
  160TIP3    H2  487   1.708   1.346   4.001  1.2312 -0.1922  0.3120
  161TIP3   OH2  488   0.506   3.024   2.170 -0.1615  0.0898 -0.7318
  161TIP3    H1  489   0.598   2.998   2.179  0.3706  0.1932 -4.4778
  161TIP3    H2  490   0.494   3.093   2.236  2.7468  0.7730 -0.7984
  162TIP3   OH2  491   2.261   3.375   0.132 -0.4283 -0.0702 -0.2034
  162TIP3    H1  492   2.275   3.291   0.090  0.5167 -0.0587  0.0612
  162TIP3    H2  493   2.218   3.354   0.215  2.2506 -0.6094  1.1629
  163TIP3   OH2  494   3.096   4.581   2.213  0.1659 -0.2098 -0.3852
  163TIP3    H1  495   3.103   4.655   2.152  0.4669  1.7029  1.8387
  163TIP3    H2  496   3.183   4.542   2.214  0.2159 -0.1191 -1.0012
  164TIP3   OH2  497   5.721   5.753   1.846  0.2419 -0.2312 -0.3501
  164TIP3    H1  498   5.764   5.766   1.930  2.4615 -1.1562 -1.2471
  164TIP3    H2  499   5.713   5.841   1.809 -2.1131  0.3519  1.3744
  165TIP3   OH2  500   1.871   0.315   1.157 -0.7850 -0.5587  0.6468
  165TIP3    H1  501   1.943   0.315   1.220  0.5717 -0.5483 -0.8356
  165TIP3    H2  502   1.891   0.241   1.099 -0.4562  1.0905 -1.4210
  166TIP3   OH2  503   5.288   1.410   0.013 -0.2311  0.4119  0.6685
  166TIP3    H1  504   5.265   1.471   0.083  0.2210  1.3821 -0.0246
  166TIP3    H2  505   5.357   1.454  -0.036 -0.0135 -0.5874  0.0587
  167TIP3   OH2  506   0.608   5.895   4.453  0.1120 -0.3994  0.2026
  167TIP3    H1  507   0.616   5.806   4.419 -0.3539  0.1402 -1.4230
  167TIP3    H2  508   0.673   5.945   4.404  0.0949  0.2390  0.8197
  168TIP3   OH2  509   2.718   4.878   3.431 -0.1345 -0.6488  0.6582
  168TIP3    H1  510   2.679   4.852   3.347  0.9469  0.4120 -0.2167
  168TIP3    H2  511   2.808   4.845   3.427  0.4291  0.7826  0.6742
  169TIP3   OH2  512   5.014   2.048   3.053 -0.0334 -0.0761  0.0760
  169TIP3    H1  513   4.928   2.025   3.019  0.0246 -1.2047  0.6388
  169TIP3    H2  514   5.014   2.144   3.056 -0.4228  0.0320 -2.0275
  170TIP3   OH2  515   2.176   3.397   0.445 -0.1967  0.0301 -0.3241
  170TIP3    H1  516   2.137   3.343   0.513  0.0263 -1.7405 -1.5420
  170TIP3    H2  517   2.106   3.455   0.417 -0.8605 -0.5654  0.0747
  171TIP3   OH2  518   2.273   5.028   4.565  0.3632 -0.5484 -0.5034
  171TIP3    H1  519   2.344   4.980   4.521 -0.3190 -0.7874 -1.3709
  171TIP3    H2  520   2.195   4.975   4.550  0.3534 -1.6322  2.6136
  172TIP3   OH2  521   2.622   0.238   1.993 -0.3385 -0.1051  0.1871
  172TIP3    H1  522   2.674   0.238   1.912 -1.2153  0.1114 -0.3939
  172TIP3    H2  523   2.685   0.219   2.062  0.2633 -1.2801 -0.6592
  173TIP3   OH2  524   2.962   4.677   0.865 -0.0755  0.5155  0.0037
  173TIP3    H1  525   2.939   4.618   0.793 -1.1082  1.1788 -0.2324
  173TIP3    H2  526   2.926   4.634   0.943 -0.6788  0.7501 -0.1443
  174TIP3   OH2  527   4.006   0.571   3.638  0.3631  0.0358  0.0859
  174TIP3    H1  528   4.024   0.602   3.727 -1.1764  0.3098  0.3298
  174TIP3    H2  529   4.066   0.620   3.583  1.2307 -0.0247  0.9543
  175TIP3   OH2  530   0.599   4.182   2.503  0.0677  0.5124  0.7544
  175TIP3    H1  531   0.579   4.255   2.560 -1.4058  2.7264 -2.3139
  175TIP3    H2  532   0.694   4.184   2.493  0.0799  1.7937  1.0107
  176TIP3   OH2  533   0.909   5.098   1.227  0.2314  0.1137  0.4313
  176TIP3    H1  534   0.983   5.103   1.288  1.4456  0.8958 -1.0207
  176TIP3    H2  535   0.950   5.076   1.143 -1.2341  0.3488 -0.3722
  177TIP3   OH2  536   3.499   1.533   2.491  0.3089  0.0707 -0.1584
  177TIP3    H1  537   3.432   1.562   2.429  0.8789  1.3166 -0.2191
  177TIP3    H2  538   3.450   1.509   2.570 -0.3332 -0.5190 -0.7236
  178TIP3   OH2  539   2.298   4.939   1.027  0.0826  0.0310  0.3781
  178TIP3    H1  540   2.376   4.898   1.064  0.5428  0.8704  0.3622
  178TIP3    H2  541   2.332   5.012   0.974 -0.6968  0.2759  0.2067
  179TIP3   OH2  542   0.134   3.811   4.926  0.3693 -0.2221 -0.1739
  179TIP3    H1  543   0.215   3.838   4.969 -0.7516  2.8567  0.2899
  179TIP3    H2  544   0.129   3.865   4.847 -0.7884 -1.0238 -0.6823
  180TIP3   OH2  545   3.708   4.356   3.401 -0.1603  0.0313 -0.6599
  180TIP3    H1  546   3.715   4.424   3.467 -0.3654  0.7549 -1.3650
  180TIP3    H2  547   3.669   4.282   3.446  0.5095  0.2094  0.2358
  181TIP3   OH2  548   2.983   3.668   1.680 -0.2628  0.7262  0.0156
  181TIP3    H1  549   2.993   3.741   1.619  2.1921  1.3723  1.0614
  181TIP3    H2  550   2.940   3.705   1.756 -1.9693  0.2666 -0.6844
  182TIP3   OH2  551   5.123   0.694   1.673 -0.6029 -0.6587 -0.1055
  182TIP3    H1  552   5.084   0.766   1.624  1.2221 -0.1728 -0.9225
  182TIP3    H2  553   5.084   0.700   1.760 -2.2821 -0.1989 -0.8615
  183TIP3   OH2  554   2.630   3.208   2.009 -0.8836  0.0475  0.1968
  183TIP3    H1  555   2.718   3.230   2.038 -0.1482 -3.5625  1.1760
  183TIP3    H2  556   2.584   3.183   2.089 -2.2728  0.2045 -0.5232
  184TIP3   OH2  557   0.007   5.957   4.488  0.3894  0.1809 -0.7116
  184TIP3    H1  558   0.029   6.022   4.555 -2.0837  1.2419 -0.8318
  184TIP3    H2  559   0.049   5.876   4.518  0.9370  1.0865  1.0972
  185TIP3   OH2  560   4.137   4.289   1.063  0.0168  0.1851 -0.2321
  185TIP3    H1  561   4.182   4.253   0.987  0.6966  3.1725 -1.3537
  185TIP3    H2  562   4.192   4.265   1.137 -0.1524 -1.9428 -0.7206
  186TIP3   OH2  563   5.283   3.731   1.832  0.3521 -0.3117 -0.1034
  186TIP3    H1  564   5.350   3.670   1.863 -0.5099 -0.3817  1.7550
  186TIP3    H2  565   5.304   3.744   1.740  4.1673  1.2739  0.7846
  187TIP3   OH2  566   4.011   3.918   0.782  0.2681 -0.0856 -0.4138
  187TIP3    H1  567   4.102   3.946   0.779  1.2477 -2.6759  1.4252
  187TIP3    H2  568   4.005   3.850   0.714 -0.1933 -0.1857 -0.2770
  188TIP3   OH2  569   5.241   4.056   1.837 -0.0439 -0.0015 -0.2598
  188TIP3    H1  570   5.211   4.121   1.901 -0.4048  0.9341 -1.3433
  188TIP3    H2  571   5.288   3.991   1.890 -0.6318  0.5454  0.9939
  189TIP3   OH2  572   3.810   5.205   2.465  0.2449  0.1065  0.1364
  189TIP3    H1  573   3.734   5.247   2.505  0.0916 -0.6129  0.6409
  189TIP3    H2  574   3.788   5.111   2.466  1.8209 -0.3096  1.8786
  190TIP3   OH2  575   4.200   0.367   3.415  0.5849  0.1725 -0.5334
  190TIP3    H1  576   4.160   0.452   3.400  0.1393 -0.2184 -1.6303
  190TIP3    H2  577   4.284   0.387   3.456  0.2076  1.1027 -0.1969
  191TIP3   OH2  578   4.207   1.331   0.535  0.5266 -0.6224 -0.2194
  191TIP3    H1  579   4.147   1.305   0.605  0.2378  2.7345  0.9256
  191TIP3    H2  580   4.157   1.315   0.455 -0.5190 -1.1727  0.5121
  192TIP3   OH2  581   6.144   2.157   0.737 -0.2225 -0.1018  0.2803
  192TIP3    H1  582   6.075   2.128   0.678  0.0680 -1.3128  0.4983
  192TIP3    H2  583   6.222   2.107   0.709  0.6877  1.5407 -0.2388
  193TIP3   OH2  584   5.617   1.527   2.489  0.5109 -0.5926  1.1589
  193TIP3    H1  585   5.559   1.502   2.561  0.3164  0.4377  1.3747
  193TIP3    H2  586   5.652   1.613   2.514  0.7078 -0.3719  0.1871
  194TIP3   OH2  587   0.928   3.751   0.616 -0.6196 -0.0291  0.4677
  194TIP3    H1  588   0.983   3.672   0.613 -1.2064 -0.4286 -0.0317
  194TIP3    H2  589   0.955   3.802   0.540  1.1108  1.2032  1.8235
  195TIP3   OH2  590   2.484   4.615   1.644 -0.9414  0.2367  0.3928
  195TIP3    H1  591   2.489   4.600   1.550  0.3922  0.4837  0.4038
  195TIP3    H2  592   2.494   4.710   1.654 -2.6011  0.4074  0.7118
  196TIP3   OH2  593   0.836   2.949   2.531 -0.1888  0.7877 -0.3861
  196TIP3    H1  594   0.914   2.997   2.561 -0.3498  0.5988  0.3463
  196TIP3    H2  595   0.871   2.868   2.493 -0.0307  0.7139 -0.0827
  197TIP3   OH2  596   4.824   4.226   1.091  0.2330  0.0761  0.3819
  197TIP3    H1  597   4.735   4.193   1.104  0.1972  0.4485  1.1342
  197TIP3    H2  598   4.876   4.148   1.074 -0.5363 -0.0029 -1.9804
  198TIP3   OH2  599   3.267   3.693   1.752 -0.2391  0.3806 -0.3209
  198TIP3    H1  600   3.171   3.696   1.757 -0.1616  0.0506  2.7418
  198TIP3    H2  601   3.296   3.771   1.798  0.9826 -0.3208  0.1280
  199TIP3   OH2  602   0.452   0.725   2.973 -0.3398 -0.2714 -0.3432
  199TIP3    H1  603   0.438   0.634   2.998 -0.4743  0.0884  0.9850
  199TIP3    H2  604   0.472   0.769   3.056  0.8457  0.6994 -1.1165
  200TIP3   OH2  605   5.267   3.199   3.468 -0.2704 -0.0313  0.4515
  200TIP3    H1  606   5.297   3.254   3.396 -1.9591  1.1653  0.6016
  200TIP3    H2  607   5.329   3.215   3.539  0.5120 -0.0333 -0.2222
  201TIP3   OH2  608   1.269   1.383   1.851 -0.1342 -0.2042 -0.0601
  201TIP3    H1  609   1.277   1.451   1.917  0.1538 -1.0861  0.8427
  201TIP3    H2  610   1.345   1.394   1.795 -0.8556  1.1224 -0.8231
  202TIP3   OH2  611   5.037   4.578   1.637 -0.2377  0.3161 -0.0126
  202TIP3    H1  612   5.062   4.558   1.546 -0.3287  0.4661 -0.0703
  202TIP3    H2  613   5.076   4.664   1.654 -0.0143  0.1799  0.1714
  203TIP3   OH2  614   4.967   2.685   4.666 -0.2811  0.9145 -0.0592
  203TIP3    H1  615   4.911   2.626   4.716  1.1694  0.3761  0.9688
  203TIP3    H2  616   4.977   2.642   4.581 -0.5089  0.4675  0.1361
  204TIP3   OH2  617   3.855   1.641   2.709 -0.7035 -0.5159 -0.3721
  204TIP3    H1  618   3.792   1.704   2.743 -1.0657 -0.1926 -1.5990
  204TIP3    H2  619   3.807   1.559   2.702 -0.4601 -0.7373  0.4421
  205TIP3   OH2  620   2.374   4.890   0.640  0.2092  0.3352  0.0909
  205TIP3    H1  621   2.455   4.910   0.687 -0.2967 -0.8349  1.5541
  205TIP3    H2  622   2.402   4.848   0.559  1.0711  0.3390  0.3823
  206TIP3   OH2  623   2.137   4.949   4.267 -0.2330 -0.1772  0.1569
  206TIP3    H1  624   2.210   5.003   4.299 -0.7558  1.6965 -1.5552
  206TIP3    H2  625   2.112   4.896   4.342 -0.0561  2.4249  2.2016
  207TIP3   OH2  626   5.507   2.041   0.393 -0.1190  0.5866 -0.0512
  207TIP3    H1  627   5.520   2.027   0.487  0.1437  0.5005 -0.1014
  207TIP3    H2  628   5.567   2.111   0.370 -1.5155  1.9286  0.2217
  208TIP3   OH2  629   0.041   5.873   3.039  0.2050  0.2781  0.2013
  208TIP3    H1  630  -0.049   5.904   3.045 -0.0917 -0.1622 -1.4645
  208TIP3    H2  631   0.049   5.806   3.107 -0.4425  0.9107  0.9208
  209TIP3   OH2  632   4.837   0.408   2.818  0.0367 -0.4468 -0.4483
  209TIP3    H1  633   4.766   0.436   2.760  0.8915  1.2558 -0.7481
  209TIP3    H2  634   4.912   0.394   2.760  0.5481 -0.0106  0.0911
  210TIP3   OH2  635   5.873   2.461   3.000  0.0398  0.1763 -0.6471
  210TIP3    H1  636   5.847   2.468   2.908 -0.3386  1.6232 -0.4656
  210TIP3    H2  637   5.838   2.541   3.040 -0.9637 -1.0367  1.0500
  211TIP3   OH2  638   5.973   1.725   5.077  0.4990  0.4420 -0.3238
  211TIP3    H1  639   5.937   1.648   5.121  1.0231  1.1975  1.5559
  211TIP3    H2  640   6.047   1.692   5.027 -0.2883 -0.5006 -0.9147
  212TIP3   OH2  641   1.108   5.340   0.663  0.8479 -0.0344 -0.0130
  212TIP3    H1  642   1.032   5.291   0.695  1.7296 -1.4129  0.0801
  212TIP3    H2  643   1.071   5.415   0.618 -0.5901 -0.8143 -0.1983
  213TIP3   OH2  644   4.124   0.114   3.636  0.0724  0.0775  0.3793
  213TIP3    H1  645   4.199   0.165   3.667  0.2236  1.6635 -2.2687
  213TIP3    H2  646   4.116   0.138   3.544 -0.4555 -4.0580 -0.8247
  214TIP3   OH2  647   4.289   2.730   0.731 -0.0208  0.0384 -0.3010
  214TIP3    H1  648   4.349   2.781   0.677 -0.2001 -0.4161 -0.9576
  214TIP3    H2  649   4.209   2.782   0.734  0.8380  1.3481  1.8034
  215TIP3   OH2  650   5.027   3.994   4.505  0.2021 -0.2674 -0.1949
  215TIP3    H1  651   4.955   3.961   4.559 -0.3565 -0.4691 -1.0335
  215TIP3    H2  652   5.048   3.921   4.447  0.0332  0.3146 -0.9958
  216TIP3   OH2  653   3.431   0.534   2.671 -0.5565 -0.3535  0.6084
  216TIP3    H1  654   3.435   0.504   2.762 -1.5052  1.0656  1.1544
  216TIP3    H2  655   3.431   0.453   2.620 -0.7687 -1.2101  1.9028
  217TIP3   OH2  656   3.417   1.697   2.052 -0.0139  0.5171 -0.3734
  217TIP3    H1  657   3.481   1.690   2.122  0.5876 -0.9474 -1.0330
  217TIP3    H2  658   3.429   1.618   2.000 -1.4623  0.8471 -1.2774
  218TIP3   OH2  659   3.507   1.771   1.484  0.2483 -0.2448 -0.3422
  218TIP3    H1  660   3.442   1.730   1.542  2.7215 -1.1231  2.0134
  218TIP3    H2  661   3.513   1.713   1.409 -2.0715  0.1952 -0.9425
  219TIP3   OH2  662   5.242   0.729   4.415  0.5867 -0.3977 -0.4515
  219TIP3    H1  663   5.295   0.736   4.336  0.8647  1.6025 -0.1333
  219TIP3    H2  664   5.175   0.796   4.406 -0.6800 -1.5523  0.0715
  220TIP3   OH2  665   5.355   5.728   0.141  0.0537 -0.1933 -0.5590
  220TIP3    H1  666   5.420   5.722   0.211 -0.4744 -1.3269 -0.1403
  220TIP3    H2  667   5.406   5.753   0.064  0.7697  0.2545  0.0384
  221TIP3   OH2  668   0.646   3.579   4.617 -0.2851  0.0743  0.0221
  221TIP3    H1  669   0.703   3.518   4.569  0.8814  1.1415  0.0007
  221TIP3    H2  670   0.688   3.664   4.606 -2.6454  1.1855 -1.1918
  222TIP3   OH2  671   3.113   4.182   1.774 -0.0923  0.4374  0.2744
  222TIP3    H1  672   3.187   4.239   1.753  0.1788  0.4750  1.2940
  222TIP3    H2  673   3.101   4.193   1.868 -0.6055 -0.5217  0.3250
  223TIP3   OH2  674   1.736   0.627   1.752  0.0880  0.2989  0.2080
  223TIP3    H1  675   1.648   0.592   1.761 -0.2410  1.4967  2.3969
  223TIP3    H2  676   1.789   0.575   1.812  0.5657  0.5435  0.0062
  224TIP3   OH2  677   1.808   5.658   0.870  0.7088  0.4284  0.2157
  224TIP3    H1  678   1.888   5.636   0.821  2.0308  0.9331  2.0327
  224TIP3    H2  679   1.821   5.618   0.956 -1.1694  0.2680  0.4512
  225TIP3   OH2  680   1.244   3.052   4.104  0.6485  0.5751  0.2471
  225TIP3    H1  681   1.194   3.054   4.023 -0.1398  1.2810  0.7359
  225TIP3    H2  682   1.233   2.962   4.136  3.1086 -0.5494 -1.6790
  226TIP3   OH2  683   3.528   2.714   0.473 -0.3718 -0.2876 -0.1716
  226TIP3    H1  684   3.505   2.625   0.446 -0.3336 -0.3405 -0.0321
  226TIP3    H2  685   3.513   2.768   0.395  0.4777 -0.5588 -0.5404
  227TIP3   OH2  686   1.281   1.235   3.227  0.2179  0.1040  0.7041
  227TIP3    H1  687   1.310   1.271   3.311  0.4400  0.7012  0.3766
  227TIP3    H2  688   1.292   1.307   3.165  1.3989 -0.7574 -0.1247
  228TIP3   OH2  689   0.392   1.280   2.501  0.4759  0.0863 -0.3771
  228TIP3    H1  690   0.422   1.344   2.565 -0.1171  0.8073 -0.8089
  228TIP3    H2  691   0.386   1.198   2.550 -0.0114  0.6344  0.5036
  229TIP3   OH2  692   3.956   5.330   0.263 -0.4537  0.0270  0.6323
  229TIP3    H1  693   3.980   5.251   0.311  0.6171 -1.3787 -2.0058
  229TIP3    H2  694   3.998   5.402   0.311  1.5594 -1.4165  1.1682
  230TIP3   OH2  695   3.477   3.705   4.955 -0.3027 -0.4948 -0.2304
  230TIP3    H1  696   3.397   3.750   4.982 -0.4740 -0.8230 -0.1839
  230TIP3    H2  697   3.446   3.623   4.917 -0.0602 -0.1148 -1.2835
  231TIP3   OH2  698   5.044   1.786   1.571 -0.2748 -0.1089 -0.7802
  231TIP3    H1  699   5.016   1.791   1.479 -1.0909 -2.6183 -0.7421
  231TIP3    H2  700   4.963   1.779   1.620  0.1982  0.0166  0.0315
  232TIP3   OH2  701   6.121   2.294   4.969  0.6235 -0.3754  0.2752
  232TIP3    H1  702   6.058   2.243   5.020  0.1669  1.5721  1.7849
  232TIP3    H2  703   6.071   2.367   4.933  1.4370 -0.4403 -1.0720
  233TIP3   OH2  704   4.078   0.289   4.494  0.0563 -0.2293 -0.3635
  233TIP3    H1  705   3.985   0.272   4.508  0.1143 -0.0395  0.2820
  233TIP3    H2  706   4.112   0.207   4.459 -0.6392  0.1626 -2.0547
  234TIP3   OH2  707   5.524   3.138   4.911 -0.0878 -0.5368  0.2734
  234TIP3    H1  708   5.592   3.204   4.920 -0.3332 -0.4113  1.3509
  234TIP3    H2  709   5.476   3.164   4.833 -1.1065  1.4586  1.4736
  235TIP3   OH2  710   0.750   1.515   0.837 -0.4357  0.2487  0.2643
  235TIP3    H1  711   0.655   1.506   0.837 -0.3570 -0.6319  0.3600
  235TIP3    H2  712   0.769   1.569   0.760 -0.8902 -0.8982 -0.6784
  236TIP3   OH2  713   6.232   1.753   0.237 -0.0494  0.3041  0.7489
  236TIP3    H1  714   6.222   1.801   0.155 -1.1300  0.1139  0.7577
  236TIP3    H2  715   6.303   1.799   0.283 -0.8843  1.7358  0.6477
  237TIP3   OH2  716   1.912   5.102   4.469  0.7905 -0.7356  0.0995
  237TIP3    H1  717   1.933   5.009   4.471 -0.7068 -1.1048  0.0045
  237TIP3    H2  718   1.980   5.143   4.522 -0.1971 -2.2552  2.7574
  238TIP3   OH2  719   5.002   0.519   0.680 -0.1791  0.5284 -0.2023
  238TIP3    H1  720   4.911   0.546   0.692  0.2010  1.1020  1.8896
  238TIP3    H2  721   5.052   0.601   0.689  0.7322 -0.2109  2.2368
  239TIP3   OH2  722   2.919   5.730   2.805 -0.2840 -0.1811  0.2634
  239TIP3    H1  723   2.879   5.754   2.722 -0.6901  0.2662  0.5849
  239TIP3    H2  724   2.846   5.718   2.865  0.0728  2.8762  1.4679
  240TIP3   OH2  725   0.528   1.880   1.506  0.2720 -0.4261 -0.6973
  240TIP3    H1  726   0.532   1.880   1.410  0.8243 -1.9792 -0.6964
  240TIP3    H2  727   0.594   1.817   1.533  1.8563  1.7422  0.8205
  241TIP3   OH2  728   1.783   3.973   2.440 -0.1892 -0.0050  0.5288
  241TIP3    H1  729   1.802   4.063   2.467  0.9932 -0.1342  0.1829
  241TIP3    H2  730   1.818   3.919   2.511  0.0625 -0.2301  0.2352
  242TIP3   OH2  731   0.511   5.864   1.030 -0.2644  0.2234  0.0530
  242TIP3    H1  732   0.447   5.913   0.979  1.7786  1.3128 -1.6379
  242TIP3    H2  733   0.538   5.793   0.972 -1.2592 -1.4016  1.4790
  243TIP3   OH2  734   4.659   4.930   2.353  0.0654  1.1368  0.7735
  243TIP3    H1  735   4.694   4.983   2.281 -0.7415 -1.1445 -1.4847
  243TIP3    H2  736   4.732   4.874   2.379 -0.0702  0.8593  0.5721
  244TIP3   OH2  737   4.065   3.220   2.340 -0.4233 -0.5227 -0.0220
  244TIP3    H1  738   4.065   3.270   2.422 -1.6449  0.1527 -0.4178
  244TIP3    H2  739   4.150   3.175   2.340 -1.0542 -1.8813  2.4046
  245TIP3   OH2  740   4.234   5.612   3.025 -0.1737 -0.4919 -0.1202
  245TIP3    H1  741   4.260   5.551   2.956  1.4369  0.0972 -0.0738
  245TIP3    H2  742   4.252   5.564   3.106  0.0897 -0.3590 -0.0977
  246TIP3   OH2  743   4.772   0.482   0.093 -0.3093  0.7766  0.3458
  246TIP3    H1  744   4.773   0.542   0.018  1.9351  1.1633  0.6227
  246TIP3    H2  745   4.863   0.455   0.104 -0.5383  0.7958  2.9865
  247TIP3   OH2  746   2.438   4.037   2.364 -0.1600 -0.3630 -0.3583
  247TIP3    H1  747   2.396   3.999   2.442 -0.0951 -0.4208 -0.3521
  247TIP3    H2  748   2.516   4.081   2.398 -0.7845  0.6749 -0.2181
  248TIP3   OH2  749   3.737   5.530   1.978  0.5478 -0.1976 -0.0185
  248TIP3    H1  750   3.797   5.463   2.012  2.1716  0.9178 -0.6256
  248TIP3    H2  751   3.793   5.600   1.946 -1.0986  1.1361 -0.1368
  249TIP3   OH2  752   2.354   4.365   1.782 -0.1710 -0.2327  0.0010
  249TIP3    H1  753   2.419   4.433   1.767  0.0622 -0.6766 -1.1039
  249TIP3    H2  754   2.391   4.310   1.851  0.8082 -0.6932 -0.8636
  250TIP3   OH2  755   4.219   0.944   4.276 -0.1997  0.4738  0.1429
  250TIP3    H1  756   4.277   0.912   4.345  1.5726  2.4626 -0.3213
  250TIP3    H2  757   4.153   0.995   4.322  0.5600  1.2016  0.4559
  251TIP3   OH2  758   5.242   5.963   1.310 -0.6876 -0.1730 -0.3572
  251TIP3    H1  759   5.197   5.879   1.319 -1.0954  0.2109  1.6618
  251TIP3    H2  760   5.217   5.994   1.222 -2.0304 -1.3072 -0.4116
  252TIP3   OH2  761   3.342   2.151   3.883  0.0093  0.3198  0.0715
  252TIP3    H1  762   3.341   2.055   3.887 -0.1246  0.1162 -2.7799
  252TIP3    H2  763   3.272   2.172   3.821 -0.7279  2.3805  1.4995
  253TIP3   OH2  764   1.809   4.250   2.536 -0.1969 -0.0156  0.6000
  253TIP3    H1  765   1.761   4.330   2.558 -0.1181  0.6327 -1.3091
  253TIP3    H2  766   1.867   4.235   2.610 -0.1301  1.7918  0.9613
  254TIP3   OH2  767   4.483   4.130   1.606 -0.0281 -0.1343  0.1660
  254TIP3    H1  768   4.481   4.094   1.695 -0.6096 -0.9272 -0.1528
  254TIP3    H2  769   4.530   4.065   1.555 -0.4159 -0.0815 -0.2673
  255TIP3   OH2  770   0.273   1.434   4.601  0.1110  0.3183 -1.1958
  255TIP3    H1  771   0.209   1.364   4.590  1.4981 -1.0702 -0.6926
  255TIP3    H2  772   0.346   1.408   4.545  0.9149  1.0280 -0.4858
  256TIP3   OH2  773   2.238   3.197   1.421  0.0499 -0.2280  0.0010
  256TIP3    H1  774   2.223   3.110   1.383  1.2619  0.0527 -1.1670
  256TIP3    H2  775   2.246   3.255   1.346  2.6830  0.3188  0.6210
  257TIP3   OH2  776   4.484   4.678   5.054  0.4989  0.1113  0.3026
  257TIP3    H1  777   4.518   4.607   4.998 -0.4844  0.6416 -1.0010
  257TIP3    H2  778   4.563   4.719   5.091  1.2001  0.0355 -1.0653
  258TIP3   OH2  779   6.132   4.273   0.244 -0.5329  0.1094 -0.2429
  258TIP3    H1  780   6.083   4.223   0.310 -0.4900  1.5155  0.8993
  258TIP3    H2  781   6.175   4.343   0.293 -0.0796  0.8997 -1.7004
  259TIP3   OH2  782   0.503   2.699   4.678  0.5862  0.3833  1.2653
  259TIP3    H1  783   0.424   2.681   4.626  1.5264 -1.9786  0.5042
  259TIP3    H2  784   0.476   2.683   4.768  0.0241  0.2543  1.0806
  260TIP3   OH2  785   0.762   4.285   4.340 -0.3746 -0.1967 -0.5256
  260TIP3    H1  786   0.716   4.223   4.397  1.8543 -2.1481 -0.6953
  260TIP3    H2  787   0.834   4.318   4.393 -0.0429  0.3008 -1.2663
  261TIP3   OH2  788   3.026   4.960   2.738 -0.3755 -0.5348 -0.4704
  261TIP3    H1  789   2.939   4.999   2.726 -0.2081 -0.7047 -2.4678
  261TIP3    H2  790   3.035   4.952   2.833 -1.9885  0.7232 -0.1599
  262TIP3   OH2  791   0.157   0.150   3.494 -0.3181 -0.2602 -0.6007
  262TIP3    H1  792   0.145   0.245   3.496 -0.2038 -0.2517  0.6508
  262TIP3    H2  793   0.069   0.114   3.502 -0.2960 -0.2472 -0.2738
  263TIP3   OH2  794   3.503   2.226   2.582  0.2634 -0.3350 -0.3272
  263TIP3    H1  795   3.514   2.253   2.673 -1.9181  1.4477 -0.5179
  263TIP3    H2  796   3.591   2.198   2.555  0.9810 -0.8605  2.2602
  264TIP3   OH2  797   0.515   3.923   1.816 -0.4707 -0.1215 -0.4517
  264TIP3    H1  798   0.570   3.908   1.739  0.7382  0.7223  0.2184
  264TIP3    H2  799   0.549   3.862   1.882  0.4668  1.1884  0.3328
  265TIP3   OH2  800   3.915   0.743   4.717  0.1140  0.0419  0.2035
  265TIP3    H1  801   3.940   0.674   4.778  0.0428  0.5106  0.7827
  265TIP3    H2  802   3.943   0.712   4.631 -0.4821 -0.9789  0.3669
  266TIP3   OH2  803   1.512   5.164   3.152 -0.0821  0.4424 -0.7705
  266TIP3    H1  804   1.478   5.237   3.204 -0.0482 -0.5890  0.7644
  266TIP3    H2  805   1.436   5.108   3.137 -0.1168  0.7799 -1.9779
  267TIP3   OH2  806   4.887   3.991   2.574  0.1307 -0.3544 -0.0557
  267TIP3    H1  807   4.976   4.027   2.583  0.5355 -1.2072 -0.4465
  267TIP3    H2  808   4.862   3.966   2.663  0.7604 -1.1693 -0.0963
  268TIP3   OH2  809   1.137   2.514   0.563  0.1921 -0.1272  0.3207
  268TIP3    H1  810   1.118   2.422   0.585  0.0826  0.3544  2.4289
  268TIP3    H2  811   1.232   2.517   0.554  0.1776 -0.4769 -0.0254
  269TIP3   OH2  812   2.062   3.731   1.306  0.1963 -0.0743  0.3574
  269TIP3    H1  813   2.012   3.779   1.371  0.0568  0.0032  0.1933
  269TIP3    H2  814   2.125   3.795   1.272  1.3959 -0.5498  1.5950
  270TIP3   OH2  815   3.594   2.628   4.007  0.2478  0.0333 -0.4354
  270TIP3    H1  816   3.596   2.723   4.006  0.1414  0.0367 -0.3669
  270TIP3    H2  817   3.657   2.601   3.940 -0.2937  0.1603 -1.0108
  271TIP3   OH2  818   3.287   2.620   3.970 -0.1264  0.0634  0.0458
  271TIP3    H1  819   3.293   2.699   3.917 -1.3572  0.1378 -0.0094
  271TIP3    H2  820   3.377   2.604   3.999  0.5910  0.0331 -2.0170
  272TIP3   OH2  821   4.274   0.494   4.275  0.4228  0.7440  0.3244
  272TIP3    H1  822   4.249   0.491   4.367 -2.6565  0.6958 -0.4041
  272TIP3    H2  823   4.207   0.549   4.234  2.1069  1.3429 -1.8109
  273TIP3   OH2  824   6.133   2.966   3.330 -0.1854 -0.0445  0.1588
  273TIP3    H1  825   6.105   2.874   3.337  0.5455 -0.1464  2.5014
  273TIP3    H2  826   6.226   2.964   3.351  0.3375  1.0374 -1.7922
  274TIP3   OH2  827   0.226   1.838   2.085  0.2026  0.4795 -0.2881
  274TIP3    H1  828   0.280   1.886   2.022 -0.0072 -0.1000 -0.9268
  274TIP3    H2  829   0.260   1.864   2.170  2.4124 -0.8653 -0.6740
  275TIP3   OH2  830   2.148   4.830   3.620 -0.7511  0.3728 -0.3622
  275TIP3    H1  831   2.225   4.786   3.582 -0.5212  1.7306 -1.5733
  275TIP3    H2  832   2.102   4.867   3.544 -2.1115  0.3686  0.4279
  276TIP3   OH2  833   0.861   3.105   1.542  0.5378 -0.3271  0.1354
  276TIP3    H1  834   0.908   3.146   1.615  1.8805  0.9257 -1.3666
  276TIP3    H2  835   0.911   3.026   1.523  1.6473  0.5891 -0.9356
  277TIP3   OH2  836   1.272   3.521   0.066  0.0489 -0.0553 -0.1969
  277TIP3    H1  837   1.320   3.465   0.126 -3.1496 -0.6243  2.0862
  277TIP3    H2  838   1.213   3.462   0.020 -0.7913  0.9585 -0.4669
  278TIP3   OH2  839   5.744   3.707   2.142  0.8827  0.4106 -0.5771
  278TIP3    H1  840   5.837   3.704   2.164  0.8609  2.2420 -0.0312
  278TIP3    H2  841   5.739   3.673   2.053  2.3343  1.7624 -1.2263
  279TIP3   OH2  842   3.200   2.515   1.848 -0.3632 -0.1182 -0.0137
  279TIP3    H1  843   3.197   2.468   1.932 -2.6518  0.0889  0.0837
  279TIP3    H2  844   3.128   2.578   1.853 -0.7143 -0.2591 -2.2143
  280TIP3   OH2  845   1.644   2.407   1.331 -0.6313 -0.2989 -0.1448
  280TIP3    H1  846   1.708   2.471   1.363  1.0484 -1.6555 -0.6741
  280TIP3    H2  847   1.569   2.418   1.389 -0.2942  1.9580 -0.0653
  281TIP3   OH2  848   4.950   3.029   2.614  0.2616 -0.0658  0.4993
  281TIP3    H1  849   4.883   2.965   2.637 -0.4113 -0.1109 -1.3774
  281TIP3    H2  850   5.026   2.976   2.590  0.3535 -0.0850  0.8311
  282TIP3   OH2  851   0.579   0.090   4.346 -0.2934  0.6203  0.2270
  282TIP3    H1  852   0.654   0.092   4.405 -0.6316  3.2279  0.6983
  282TIP3    H2  853   0.560  -0.003   4.334  2.6233 -0.1047  0.5202
  283TIP3   OH2  854   1.068   1.194   2.603 -0.4164 -0.7717  0.7050
  283TIP3    H1  855   1.097   1.281   2.632 -0.4282 -0.4374 -0.2502
  283TIP3    H2  856   1.031   1.209   2.516 -1.3567 -1.5704  0.9477
  284TIP3   OH2  857   4.475   4.502   2.753  0.3836  0.5703 -0.2089
  284TIP3    H1  858   4.470   4.410   2.778 -0.8561  0.6576 -0.0546
  284TIP3    H2  859   4.565   4.527   2.772  0.6436 -0.5154  0.0816
  285TIP3   OH2  860   4.619   1.216   4.160 -0.1970 -0.0928  0.2781
  285TIP3    H1  861   4.593   1.248   4.247  2.1346  0.9707  0.6492
  285TIP3    H2  862   4.674   1.139   4.178  0.7020  0.4229 -0.2080
  286TIP3   OH2  863   5.089   3.017   5.167  0.4404  0.3535  0.3061
  286TIP3    H1  864   5.177   3.047   5.147  0.8015  0.8603  2.3702
  286TIP3    H2  865   5.101   2.928   5.201  0.7142  1.6301  3.9806
  287TIP3   OH2  866   3.831   1.026   4.333  0.4886  0.6926 -0.5835
  287TIP3    H1  867   3.771   1.089   4.373  0.7613  0.6364 -0.0721
  287TIP3    H2  868   3.916   1.047   4.371  0.4121 -0.6329  0.3709
  288TIP3   OH2  869   5.644   5.901   4.611  0.1061  0.3400 -0.0951
  288TIP3    H1  870   5.571   5.848   4.642 -0.0206  0.2963 -0.4684
  288TIP3    H2  871   5.706   5.838   4.574 -0.3222  0.4877 -1.1101
  289TIP3   OH2  872   2.582   5.854   2.850  0.2063 -0.4064  0.1568
  289TIP3    H1  873   2.623   5.910   2.916 -1.4462  0.8277  0.1817
  289TIP3    H2  874   2.620   5.883   2.767  0.6882 -0.5081  0.3337
  290TIP3   OH2  875   3.819   3.486   2.517 -0.8022 -0.2148  0.0331
  290TIP3    H1  876   3.892   3.426   2.530 -1.2339 -0.7136  0.1771
  290TIP3    H2  877   3.750   3.433   2.477 -1.2848  0.1181  0.4053
  291TIP3   OH2  878   1.828   0.656   2.093  0.0808 -0.0455  0.4780
  291TIP3    H1  879   1.919   0.630   2.107 -0.2825 -0.9208  1.2715
  291TIP3    H2  880   1.778   0.602   2.154 -1.0146  0.0975 -0.2781
  292TIP3   OH2  881   4.476   1.585   0.544 -0.2968  0.2648 -0.4549
  292TIP3    H1  882   4.442   1.526   0.477  0.8598 -0.4627 -0.4295
  292TIP3    H2  883   4.570   1.588   0.528  0.0249 -0.0005  1.1728
  293TIP3   OH2  884   4.154   5.732   1.762  0.2296 -0.0728 -0.4525
  293TIP3    H1  885   4.233   5.761   1.808  0.3192 -0.4445 -0.3735
  293TIP3    H2  886   4.168   5.760   1.671  1.9107 -2.8994 -1.1878
  294TIP3   OH2  887   2.826   5.322   0.211 -0.2444  0.2212 -0.3843
  294TIP3    H1  888   2.784   5.347   0.294 -1.6066 -1.7132 -0.4029
  294TIP3    H2  889   2.796   5.387   0.148 -0.8772  0.5347  0.2263
  295TIP3   OH2  890   0.999   4.527   0.725 -0.5498  0.1134  0.7515
  295TIP3    H1  891   1.078   4.478   0.747 -0.1095 -0.1186 -1.1981
  295TIP3    H2  892   0.942   4.462   0.682 -0.4365  0.9971 -0.7976
  296TIP3   OH2  893   1.059   1.380   0.711 -0.2736 -0.7579 -0.2824
  296TIP3    H1  894   1.017   1.462   0.738  0.5397 -0.8124  1.2651
  296TIP3    H2  895   1.134   1.408   0.658 -0.1924 -0.5005 -0.0369
  297TIP3   OH2  896   0.662   4.050   5.031  0.3978 -0.3747 -0.5183
  297TIP3    H1  897   0.709   4.101   5.097  2.0504 -0.5551 -1.4971
  297TIP3    H2  898   0.709   3.967   5.027 -2.2246 -2.0666  1.0202
  298TIP3   OH2  899   0.095   1.800   0.904  0.7428 -0.5297 -0.6686
  298TIP3    H1  900   0.089   1.757   0.989 -0.7200 -0.6330 -0.8038
  298TIP3    H2  901   0.042   1.746   0.846  1.4664 -0.2836 -1.5873
  299TIP3   OH2  902   3.483   2.339   3.167 -0.0859 -0.3268  0.3993
  299TIP3    H1  903   3.478   2.282   3.091 -0.4363 -0.0400  0.2045
  299TIP3    H2  904   3.524   2.419   3.135  3.3734 -1.5349  1.3195
  300TIP3   OH2  905   4.121   4.335   0.395  0.3490 -1.3361  0.0371
  300TIP3    H1  906   4.084   4.279   0.326 -0.3557  0.9621 -1.5484
  300TIP3    H2  907   4.080   4.303   0.475 -1.9613 -1.5441 -1.1395
  301TIP3   OH2  908   2.672   5.455   2.952 -0.2411  0.0686 -0.1417
  301TIP3    H1  909   2.594   5.506   2.930  0.7502  1.6646 -0.1644
  301TIP3    H2  910   2.741   5.521   2.960  1.4528 -1.4225 -1.6724
  302TIP3   OH2  911   5.274   5.547   3.644 -0.0809 -0.2842 -0.1872
  302TIP3    H1  912   5.345   5.611   3.653 -0.1957 -0.2324  0.3689
  302TIP3    H2  913   5.309   5.467   3.684 -0.2717 -0.3088 -0.0696
  303TIP3   OH2  914   1.110   4.761   2.886 -0.3865 -0.3359 -0.0454
  303TIP3    H1  915   1.131   4.854   2.889 -0.6238 -0.2881  0.0881
  303TIP3    H2  916   1.182   4.719   2.933 -1.8456  0.0365  2.6831
  304TIP3   OH2  917   2.950   5.973   4.478  0.1604 -0.1720  0.5753
  304TIP3    H1  918   2.946   5.885   4.441  0.4213 -0.3244  0.9108
  304TIP3    H2  919   2.961   5.960   4.572 -0.4577  0.2170  0.7059
  305TIP3   OH2  920   0.969   4.558   4.058 -0.2323 -0.2345  0.1666
  305TIP3    H1  921   1.029   4.552   4.132  0.5745  0.8215 -0.3735
  305TIP3    H2  922   0.930   4.470   4.052  2.1981 -1.3834 -0.2204
  306TIP3   OH2  923   5.151   5.813   2.569  0.3055 -0.6997  0.8175
  306TIP3    H1  924   5.198   5.852   2.494 -0.4184  0.6630  1.0358
  306TIP3    H2  925   5.090   5.751   2.529 -0.9005  0.8482  0.1104
  307TIP3   OH2  926   2.007   3.378   2.221 -0.2195 -0.0508 -0.5102
  307TIP3    H1  927   2.059   3.409   2.147 -0.8670  2.3262 -0.0557
  307TIP3    H2  928   2.056   3.302   2.254  1.2078  0.1324 -2.0390
  308TIP3   OH2  929   0.975   4.643   3.295  0.1352 -0.2279  0.2700
  308TIP3    H1  930   1.027   4.628   3.216 -0.8455 -0.6117 -0.3141
  308TIP3    H2  931   0.919   4.717   3.274  1.1124  0.8289  1.2475
  309TIP3   OH2  932   4.518   5.501   2.446  0.2446  0.8134  0.1057
  309TIP3    H1  933   4.606   5.490   2.412  1.0904 -3.5755  3.0346
  309TIP3    H2  934   4.461   5.467   2.377  1.0971  0.6065 -0.5091
  310TIP3   OH2  935   3.988   4.634   1.413 -0.2966 -0.0448 -0.0194
  310TIP3    H1  936   3.995   4.546   1.451 -3.2120  0.4632  2.0820
  310TIP3    H2  937   3.928   4.623   1.339  0.4345 -0.0160 -0.6270
  311TIP3   OH2  938   0.332   4.242   0.429  0.1491 -0.5148  0.1437
  311TIP3    H1  939   0.272   4.182   0.383 -1.2417  1.2210 -0.4573
  311TIP3    H2  940   0.360   4.193   0.506 -1.8603 -1.5253  0.3195
  312TIP3   OH2  941   2.060   4.917   2.232 -0.3149  0.1398  0.1714
  312TIP3    H1  942   2.002   4.970   2.178 -0.6842 -0.1080  0.3193
  312TIP3    H2  943   2.012   4.834   2.244  0.7716 -0.7244 -1.1178
  313TIP3   OH2  944   3.682   1.068   0.923 -0.2709  0.3150 -0.0348
  313TIP3    H1  945   3.677   1.027   1.010  0.5468 -1.7055 -0.8810
  313TIP3    H2  946   3.775   1.072   0.904 -0.4267  1.1228 -0.6675
  314TIP3   OH2  947   0.844   4.655   1.128  0.0288  0.2075  0.0369
  314TIP3    H1  948   0.887   4.625   1.208  0.5140 -1.2753 -0.7554
  314TIP3    H2  949   0.905   4.719   1.091  1.2415 -1.2878 -0.6591
  315TIP3   OH2  950   4.335   1.024   4.888 -0.1416  0.4100 -0.4120
  315TIP3    H1  951   4.304   1.115   4.887 -0.4533  0.3051 -1.4035
  315TIP3    H2  952   4.259   0.973   4.916  0.1962  0.4876  0.7274
  316TIP3   OH2  953   5.883   2.235   2.661 -0.0690 -0.0232 -0.0763
  316TIP3    H1  954   5.823   2.188   2.719 -1.5002 -0.8669 -2.1457
  316TIP3    H2  955   5.952   2.269   2.720 -1.3485 -0.9445  2.0525
  317TIP3   OH2  956   0.325   4.975   1.962  0.2005  0.2221  0.1553
  317TIP3    H1  957   0.415   5.002   1.945  0.0380 -0.1931 -1.5505
  317TIP3    H2  958   0.280   4.989   1.878 -0.7722 -1.7157  0.2994
  318TIP3   OH2  959   0.145   3.748   3.881  0.4666 -0.0360  0.3922
  318TIP3    H1  960   0.200   3.708   3.947  2.3313  1.6748 -0.0087
  318TIP3    H2  961   0.163   3.842   3.888 -1.1072  0.4229 -0.9337
  319TIP3   OH2  962   3.821   4.146   1.411 -0.3320 -0.3299 -0.1292
  319TIP3    H1  963   3.819   4.241   1.411 -1.2283 -0.3369  0.0945
  319TIP3    H2  964   3.833   4.122   1.503  1.5698 -0.4310 -0.3772
  320TIP3   OH2  965   2.894   1.347   5.136 -0.2893 -0.3902 -0.0726
  320TIP3    H1  966   2.851   1.312   5.057  0.5122 -0.1319 -0.6344
  320TIP3    H2  967   2.983   1.367   5.108 -0.4417  1.1834  0.4952
  321TIP3   OH2  968   3.306   0.627   0.100 -0.2956 -0.0483 -0.0634
  321TIP3    H1  969   3.380   0.643   0.042  0.0233  0.4441  0.4677
  321TIP3    H2  970   3.243   0.695   0.077  0.2430  0.7758  0.8377
  322TIP3   OH2  971   5.375   4.902   0.997  0.1234  0.5346  0.0970
  322TIP3    H1  972   5.374   4.808   0.978 -0.0872  0.9888 -2.6845
  322TIP3    H2  973   5.359   4.943   0.911  2.0241  3.1554  0.8828
  323TIP3   OH2  974   5.628   3.170   2.497  0.6614  0.1594 -0.0460
  323TIP3    H1  975   5.645   3.257   2.460 -0.4793 -0.0746 -1.1951
  323TIP3    H2  976   5.593   3.120   2.424  3.6924 -2.1135 -0.1323
  324TIP3   OH2  977   3.791   1.164   1.762  0.5164  0.1658 -0.5704
  324TIP3    H1  978   3.722   1.098   1.767  0.2214  0.5278  0.1918
  324TIP3    H2  979   3.762   1.234   1.820  1.1610  0.6626 -0.8352
  325TIP3   OH2  980   3.416   2.403   5.144  0.5592  0.4405  0.4073
  325TIP3    H1  981   3.327   2.388   5.113 -0.3835  3.1422  1.5147
  325TIP3    H2  982   3.420   2.361   5.230  1.2246 -1.7823 -0.6294
  326TIP3   OH2  983   3.499   1.337   4.389  0.6752 -0.1153 -0.1227
  326TIP3    H1  984   3.572   1.297   4.437  1.4528  2.0702  0.6392
  326TIP3    H2  985   3.422   1.316   4.441  0.8286 -1.7197 -0.4742
  327TIP3   OH2  986   3.061   5.546   2.970  0.0678 -0.6547 -0.2349
  327TIP3    H1  987   3.012   5.609   2.917  0.3321  0.5115  0.8368
  327TIP3    H2  988   3.028   5.461   2.943  1.3062 -0.2444 -3.3776
  328TIP3   OH2  989   0.776   4.703   4.913 -0.2276  0.4084  0.2884
  328TIP3    H1  990   0.689   4.698   4.955  0.2322 -0.4401  1.2039
  328TIP3    H2  991   0.837   4.691   4.986  0.6395  0.2038 -0.4653
  329TIP3   OH2  992   5.999   5.905   0.441  0.4349  0.2250 -0.0784
  329TIP3    H1  993   5.989   5.838   0.373 -0.8973  1.0897 -0.7815
  329TIP3    H2  994   5.988   5.857   0.523  1.7426 -0.7827 -0.4474
  330TIP3   OH2  995   2.321   5.581   4.144 -0.1363 -0.3796  0.7859
  330TIP3    H1  996   2.393   5.591   4.081  0.9327 -1.3724  1.8075
  330TIP3    H2  997   2.263   5.516   4.103 -0.6218  0.6267 -0.1680
  331TIP3   OH2  998   4.053   4.852   3.782 -0.6313 -0.3381  0.5588
  331TIP3    H1  999   4.079   4.893   3.865 -1.0751  1.4536 -0.1388
  331TIP3    H2 1000   4.088   4.763   3.788  1.7752  0.5694  1.5248
  332TIP3   OH2 1001   5.166   5.773   4.600  0.2539 -0.0563 -0.5435
  332TIP3    H1 1002   5.233   5.719   4.560  0.0578  0.3849 -1.4804
  332TIP3    H2 1003   5.206   5.805   4.681  0.5650 -1.1282 -0.2619
  333TIP3   OH2 1004   5.009   3.271   2.429  0.4450  0.0494 -0.1084
  333TIP3    H1 1005   4.995   3.220   2.509  0.5153 -0.1889 -0.2465
  333TIP3    H2 1006   5.103   3.264   2.413  0.5148  0.5474  0.0861
  334TIP3   OH2 1007   2.526   4.709   3.635 -0.1668  1.4003  0.2246
  334TIP3    H1 1008   2.510   4.683   3.726  2.0033 -1.5011 -0.0713
  334TIP3    H2 1009   2.458   4.664   3.585  1.9648 -1.9583  0.0014
  335TIP3   OH2 1010   3.031   1.453   3.518  0.1485 -0.1448  0.3045
  335TIP3    H1 1011   3.124   1.474   3.526 -0.2946  1.6884  1.2365
  335TIP3    H2 1012   3.015   1.389   3.587  0.7038 -0.5003  0.1156
  336TIP3   OH2 1013   1.178   5.886   3.981 -0.4816 -0.6183  0.1414
  336TIP3    H1 1014   1.118   5.890   3.906 -0.2097 -0.7588 -0.0841
  336TIP3    H2 1015   1.263   5.914   3.945 -0.0244 -2.0443  0.0637
  337TIP3   OH2 1016   5.940   1.992   4.298  0.4585  0.0658 -0.2934
  337TIP3    H1 1017   5.961   1.929   4.366  1.5992 -1.8866 -2.3446
  337TIP3    H2 1018   5.915   2.072   4.346  0.6033 -1.3826  2.3582
  338TIP3   OH2 1019   5.077   2.553   1.138  0.3438  0.2644 -0.4194
  338TIP3    H1 1020   5.131   2.552   1.217 -0.4641  0.1821  0.1502
  338TIP3    H2 1021   5.105   2.632   1.091  0.9373  0.2338 -0.1249
  339TIP3   OH2 1022   1.065   5.084   2.297 -0.4731  0.1735  0.3642
  339TIP3    H1 1023   1.010   5.011   2.325 -0.1664 -0.6220 -1.0122
  339TIP3    H2 1024   1.050   5.152   2.362 -0.8469 -1.0763  1.6352
  340TIP3   OH2 1025   3.834   2.555   4.210  0.0013  0.3306 -0.2756
  340TIP3    H1 1026   3.744   2.523   4.217  0.7817 -2.0309 -0.2645
  340TIP3    H2 1027   3.886   2.493   4.260  1.8284  0.8385 -1.4216
  341TIP3   OH2 1028   6.052   0.874   2.026 -0.8905  0.1350 -0.2257
  341TIP3    H1 1029   6.090   0.874   2.113 -1.2862 -2.0516  0.0071
  341TIP3    H2 1030   5.957   0.874   2.041 -1.0364  2.4861 -0.7469
  342TIP3   OH2 1031   3.863   3.587   4.504  0.0414  0.0993  0.5624
  342TIP3    H1 1032   3.871   3.507   4.555 -0.5014 -0.0109  0.4804
  342TIP3    H2 1033   3.803   3.643   4.554  2.2769  1.4729  1.8712
  343TIP3   OH2 1034   3.593   3.209   4.712 -0.2956  0.3653 -0.5121
  343TIP3    H1 1035   3.623   3.229   4.624 -1.1009  2.7059 -0.3097
  343TIP3    H2 1036   3.498   3.217   4.708 -0.5966 -1.9287  0.0542
  344TIP3   OH2 1037   2.998   4.930   5.002 -0.2213 -0.5143  0.6018
  344TIP3    H1 1038   3.069   4.866   5.009  0.3049  0.0219  0.2852
  344TIP3    H2 1039   2.924   4.889   5.045 -0.1123 -1.6636 -0.2698
  345TIP3   OH2 1040   1.485   0.349   2.331  0.7153  0.0222 -0.4452
  345TIP3    H1 1041   1.517   0.260   2.346 -0.9968 -0.7198 -0.9227
  345TIP3    H2 1042   1.441   0.372   2.413  3.7310  1.7139  0.8795
  346TIP3   OH2 1043   1.076   2.932   0.245 -0.5066  0.2087 -0.1675
  346TIP3    H1 1044   1.022   2.930   0.166 -2.1045 -1.0998  0.9036
  346TIP3    H2 1045   1.096   2.840   0.263  3.7451  0.6179 -1.5163
  347TIP3   OH2 1046   4.863   3.028   2.348  0.0110  0.2734  0.2459
  347TIP3    H1 1047   4.910   3.108   2.322  0.6816  0.0045  0.6002
  347TIP3    H2 1048   4.855   3.035   2.443 -2.3645  1.2173  0.0197
  348TIP3   OH2 1049   3.537   1.862   1.008  0.3384  0.6601  0.2824
  348TIP3    H1 1050   3.502   1.867   1.097  0.0457 -1.1707  0.3049
  348TIP3    H2 1051   3.631   1.849   1.019  0.7576  3.0609  0.2398
  349TIP3   OH2 1052   0.296   2.038   2.307 -0.7129  0.0825 -0.0361
  349TIP3    H1 1053   0.259   2.125   2.318 -0.9879 -0.2409  2.0344
  349TIP3    H2 1054   0.309   2.006   2.396  1.4434 -1.1481 -0.7162
  350TIP3   OH2 1055   4.550   1.933   0.463 -0.2621  0.2118 -0.1414
  350TIP3    H1 1056   4.578   1.980   0.385  0.3225 -0.0155 -0.0752
  350TIP3    H2 1057   4.631   1.900   0.501 -0.4275  1.2111  1.1442
  351TIP3   OH2 1058   1.928   2.120   3.321 -0.2747  0.3137 -0.2752
  351TIP3    H1 1059   1.969   2.207   3.329  0.2714  0.3926 -3.0582
  351TIP3    H2 1060   1.844   2.130   3.366 -0.0216  2.1573 -0.1027
  352TIP3   OH2 1061   3.294   3.958   0.652  0.1632  0.4187  0.1604
  352TIP3    H1 1062   3.320   3.984   0.741  2.5170 -0.7747 -0.0927
  352TIP3    H2 1063   3.261   3.869   0.662  1.1800 -0.0232 -0.2118
  353TIP3   OH2 1064   5.342   0.463   2.221 -0.2920  0.4760 -0.3560
  353TIP3    H1 1065   5.336   0.534   2.286 -0.3031  0.5593 -0.4477
  353TIP3    H2 1066   5.321   0.506   2.138  1.8204  0.8393 -0.7477
  354TIP3   OH2 1067   0.486   1.494   0.777  0.6525  0.0288  0.4681
  354TIP3    H1 1068   0.437   1.464   0.853  0.3060 -2.0100 -0.4951
  354TIP3    H2 1069   0.493   1.417   0.720  0.7061  1.5121 -1.6793
  355TIP3   OH2 1070   2.823   1.760   1.711 -0.1553  0.2687 -0.2689
  355TIP3    H1 1071   2.759   1.831   1.708  1.0532  1.3482 -1.3453
  355TIP3    H2 1072   2.846   1.743   1.620  0.9131 -0.2754  0.0798
  356TIP3   OH2 1073   3.196   3.378   0.502 -0.0599 -0.0081  0.0146
  356TIP3    H1 1074   3.148   3.296   0.517  0.5762 -0.3330  0.2786
  356TIP3    H2 1075   3.187   3.426   0.584 -0.2486  0.0956 -0.0657
  357TIP3   OH2 1076   4.917   5.474   1.698 -0.5926 -0.3012  0.3312
  357TIP3    H1 1077   4.905   5.468   1.792 -2.1312  0.2761  0.2041
  357TIP3    H2 1078   4.843   5.425   1.661 -1.9371  2.2068 -0.5544
  358TIP3   OH2 1079   1.662   4.070   0.915  0.0388 -0.7053 -0.2685
  358TIP3    H1 1080   1.735   4.028   0.869 -1.9985 -3.5634 -1.1478
  358TIP3    H2 1081   1.590   4.069   0.852 -0.4510  3.6685 -0.0918
  359TIP3   OH2 1082   4.665   5.769   1.446 -0.4110 -0.3049 -0.2853
  359TIP3    H1 1083   4.620   5.685   1.433 -1.9239  0.2435  1.1572
  359TIP3    H2 1084   4.595   5.833   1.453  0.6822  0.8801  0.1444
  360TIP3   OH2 1085   1.712   1.614   0.538  0.1191 -0.4650 -0.0769
  360TIP3    H1 1086   1.693   1.697   0.581 -1.1272 -0.6776 -0.1710
  360TIP3    H2 1087   1.754   1.560   0.606 -0.9456 -0.4644  0.5995
  361TIP3   OH2 1088   3.671   5.203   5.107  0.4978  0.2156 -1.0920
  361TIP3    H1 1089   3.692   5.128   5.052 -0.6310 -0.6791 -0.3599
  361TIP3    H2 1090   3.702   5.177   5.194  0.7622  0.9163 -0.9733
  362TIP3   OH2 1091   6.306   3.417   1.473  0.5987 -1.1712 -0.1461
  362TIP3    H1 1092   6.280   3.482   1.539 -0.1830  0.6105 -2.0792
  362TIP3    H2 1093   6.249   3.342   1.489  1.1877 -1.2421  1.8475
  363TIP3   OH2 1094   5.264   2.674   4.365 -0.4089  0.0364 -0.3193
  363TIP3    H1 1095   5.269   2.750   4.308 -2.3353 -0.7132 -1.5870
  363TIP3    H2 1096   5.322   2.695   4.438 -0.1873  2.3195 -1.0718
  364TIP3   OH2 1097   4.834   5.762   1.688  0.4157 -0.2687 -0.0004
  364TIP3    H1 1098   4.895   5.689   1.687  0.3498 -0.3314  0.3819
  364TIP3    H2 1099   4.797   5.764   1.600  2.0983  0.7246 -0.7173
  365TIP3   OH2 1100   1.799   0.110   4.922  0.0654 -0.1486 -0.0306
  365TIP3    H1 1101   1.760   0.168   4.987  0.7303  1.3897 -0.9464
  365TIP3    H2 1102   1.831   0.035   4.972 -2.2428 -0.5268  0.9847
  366TIP3   OH2 1103   1.725   0.495   2.282  0.0891  0.1908 -0.5241
  366TIP3    H1 1104   1.649   0.442   2.308  0.9102  0.2073  2.2430
  366TIP3    H2 1105   1.713   0.577   2.330  2.1043 -0.0329  0.4504
  367TIP3   OH2 1106   1.449  -0.008   1.719 -0.0332 -0.0649 -0.5609
  367TIP3    H1 1107   1.432   0.060   1.784  0.0985  0.6775 -1.2869
  367TIP3    H2 1108   1.391   0.014   1.646  0.6199 -0.2383 -1.1457
  368TIP3   OH2 1109   1.336   0.372   4.061  0.4667  0.0437 -0.0464
  368TIP3    H1 1110   1.367   0.325   3.984 -1.5714 -1.2610 -0.1413
  368TIP3    H2 1111   1.241   0.368   4.055  0.2372  2.1083  1.2476
  369TIP3   OH2 1112   0.411   1.545   1.575  0.6049  0.2305  0.3097
  369TIP3    H1 1113   0.343   1.507   1.520  0.3332  1.4916 -0.2875
  369TIP3    H2 1114   0.476   1.476   1.586  0.0419 -0.4511 -0.5537
  370TIP3   OH2 1115   2.955   4.123   0.567 -0.1404 -0.0913 -0.4768
  370TIP3    H1 1116   3.001   4.123   0.651 -1.0305 -2.4757  0.0859
  370TIP3    H2 1117   3.009   4.068   0.510 -0.4456  0.0895 -0.9475
  371TIP3   OH2 1118   0.267   0.003   2.202 -0.3142  0.1146  0.7918
  371TIP3    H1 1119   0.298   0.060   2.273 -0.0026  1.4874 -0.3947
  371TIP3    H2 1120   0.199  -0.051   2.242 -0.0043  0.7146  2.1761
  372TIP3   OH2 1121   1.207   5.494   5.124 -0.3828 -0.2530  0.3200
  372TIP3    H1 1122   1.117   5.519   5.103  0.0877  1.2503 -0.0476
  372TIP3    H2 1123   1.248   5.575   5.155  1.1210 -0.6741 -0.4676
  373TIP3   OH2 1124   0.826   4.642   4.508 -0.0180  0.4646  0.0484
  373TIP3    H1 1125   0.837   4.554   4.544 -1.2901 -0.1495 -1.0096
  373TIP3    H2 1126   0.787   4.693   4.579  1.7607  0.5182  1.0531
  374TIP3   OH2 1127   3.768   0.496   2.095 -0.4275  0.5508 -0.2199
  374TIP3    H1 1128   3.722   0.466   2.017 -0.1542  0.5590 -0.3849
  374TIP3    H2 1129   3.753   0.427   2.159  1.2805 -0.6119 -0.9895
  375TIP3   OH2 1130   5.106   5.289   3.847 -0.9444 -0.3195 -0.0678
  375TIP3    H1 1131   5.103   5.227   3.774 -1.0731 -0.1318 -0.2216
  375TIP3    H2 1132   5.199   5.297   3.868 -0.5370  2.2019 -2.3974
  376TIP3   OH2 1133   3.707   2.466   4.827 -0.5769 -0.0338 -0.3087
  376TIP3    H1 1134   3.644   2.538   4.819 -0.0881  0.7398  1.8556
  376TIP3    H2 1135   3.654   2.387   4.830 -1.5766  0.6283  1.9014
  377TIP3   OH2 1136   4.334   5.103   4.967  0.9191 -0.5440 -0.0219
  377TIP3    H1 1137   4.331   5.089   5.062  0.8179 -1.0600 -0.0937
  377TIP3    H2 1138   4.326   5.015   4.931  0.1456 -0.2764 -0.5233
  378TIP3   OH2 1139   1.661   3.947   4.210 -0.0096 -0.0788 -0.3472
  378TIP3    H1 1140   1.617   3.904   4.283  1.1758 -1.9127 -0.6694
  378TIP3    H2 1141   1.602   3.933   4.136  0.3021 -1.0732 -0.4222
  379TIP3   OH2 1142   5.574   4.766   2.974 -0.0720 -0.1553  0.3175
  379TIP3    H1 1143   5.669   4.771   2.984  0.3621 -1.9082 -1.8978
  379TIP3    H2 1144   5.553   4.673   2.989 -1.4081  0.1716  0.5849
  380TIP3   OH2 1145   1.542   3.164   3.065 -0.3227  0.3301  0.1655
  380TIP3    H1 1146   1.554   3.221   2.989 -0.3768  1.1276  0.7468
  380TIP3    H2 1147   1.601   3.199   3.131 -1.3227  0.5498  0.9803
  381TIP3   OH2 1148   4.540   1.483   3.663  0.1198 -0.0650  0.3681
  381TIP3    H1 1149   4.608   1.487   3.730  0.1855 -0.6389  0.3373
  381TIP3    H2 1150   4.457   1.487   3.711  0.1528 -1.5636  0.5706
  382TIP3   OH2 1151   0.513   3.550   3.867 -0.2147 -0.3892  0.1301
  382TIP3    H1 1152   0.507   3.620   3.802 -0.2458  0.9572  1.5438
  382TIP3    H2 1153   0.608   3.538   3.880 -0.1721  1.1504  1.6553
  383TIP3   OH2 1154   3.513   3.492   4.555 -0.0710 -0.4363  0.1377
  383TIP3    H1 1155   3.424   3.492   4.522  0.0874 -0.8644 -0.3085
  383TIP3    H2 1156   3.557   3.424   4.504  0.6195  0.0635  0.0464
  384TIP3   OH2 1157   5.888   3.198   0.565 -0.0970 -0.1049  0.4555
  384TIP3    H1 1158   5.830   3.230   0.496 -0.7174  0.0959  1.0671
  384TIP3    H2 1159   5.871   3.255   0.639 -0.4175 -1.1551  1.2112
  385TIP3   OH2 1160   3.665   0.671   2.297  0.2779  0.0701 -0.2726
  385TIP3    H1 1161   3.630   0.748   2.252 -1.6430 -0.2478  0.5739
  385TIP3    H2 1162   3.690   0.611   2.227 -2.4782 -0.3432 -1.0198
  386TIP3   OH2 1163   1.609   5.096   2.049 -0.2029 -0.6035  0.0210
  386TIP3    H1 1164   1.555   5.035   2.101  0.1838  0.2997  1.5426
  386TIP3    H2 1165   1.605   5.178   2.098  0.2277  0.2782 -1.3885
  387TIP3   OH2 1166   3.341   2.636   0.263 -0.1510  0.1738 -0.3278
  387TIP3    H1 1167   3.400   2.704   0.231  1.4457 -0.2759  1.5443
  387TIP3    H2 1168   3.381   2.554   0.235 -0.4308 -0.1029  0.0691
  388TIP3   OH2 1169   4.741   4.056   3.115  0.1335  0.7635  0.8918
  388TIP3    H1 1170   4.792   3.989   3.160 -0.6203 -0.9519 -0.6811
  388TIP3    H2 1171   4.661   4.064   3.167 -0.2480 -0.3892  0.5124
  389TIP3   OH2 1172   4.398   5.972   0.089 -0.2725 -0.1559 -0.2646
  389TIP3    H1 1173   4.352   5.921   0.156  0.5253 -3.2748 -1.8745
  389TIP3    H2 1174   4.483   5.992   0.127 -1.4554  2.3725  1.3212
  390TIP3   OH2 1175   4.249   3.403   4.530  0.3693  0.0711  0.4591
  390TIP3    H1 1176   4.331   3.376   4.571 -0.6920 -0.0714  2.6393
  390TIP3    H2 1177   4.195   3.323   4.529  0.4034  0.0146 -1.4809
  391TIP3   OH2 1178   2.824   0.614   4.338  0.0917 -0.9885  0.5314
  391TIP3    H1 1179   2.829   0.656   4.252  1.9765 -0.8202  0.6917
  391TIP3    H2 1180   2.730   0.604   4.354 -0.3080 -0.5294 -1.2985
  392TIP3   OH2 1181   2.260   1.910   4.540 -0.4640  0.2026  0.4612
  392TIP3    H1 1182   2.172   1.873   4.536  0.1696 -1.5664  1.3714
  392TIP3    H2 1183   2.260   1.965   4.619 -1.1023  1.2681 -0.2684
  393TIP3   OH2 1184   4.446   1.830   3.412 -0.2562  0.0927 -0.1601
  393TIP3    H1 1185   4.415   1.747   3.448  1.2390 -0.0970  0.8071
  393TIP3    H2 1186   4.379   1.893   3.437 -1.4352 -0.8234 -0.9509
  394TIP3   OH2 1187   1.424   0.353   2.028  0.5815 -0.5808 -0.1921
  394TIP3    H1 1188   1.492   0.309   1.977  1.4206  0.1804  0.2651
  394TIP3    H2 1189   1.464   0.370   2.113  0.0580  0.4918 -0.1440
  395TIP3   OH2 1190   5.418   5.084   3.727  0.1151 -0.1662 -0.3737
  395TIP3    H1 1191   5.372   5.159   3.764 -1.0118  0.0550 -2.1381
  395TIP3    H2 1192   5.449   5.114   3.642  1.0205 -1.2261 -0.4365
  396TIP3   OH2 1193   0.859   4.401   4.634 -0.3045  0.0273 -0.1193
  396TIP3    H1 1194   0.897   4.414   4.721  0.6251 -2.0794 -0.1474
  396TIP3    H2 1195   0.929   4.359   4.583 -1.5805 -0.9254 -1.1673
  397TIP3   OH2 1196   4.113   1.664   4.173  0.2444 -0.2641  0.3226
  397TIP3    H1 1197   4.203   1.685   4.152 -0.4970  0.4003 -2.6227
  397TIP3    H2 1198   4.086   1.600   4.107 -1.4600 -0.4266  1.0949
  398TIP3   OH2 1199   2.839   0.767   2.894  0.0036 -0.7363  0.3722
  398TIP3    H1 1200   2.928   0.748   2.924  0.4110  0.6411  0.1001
  398TIP3    H2 1201   2.848   0.778   2.800 -0.6050 -1.3316  0.2387
  399TIP3   OH2 1202   4.723   2.217   4.389 -0.1522 -0.2225 -0.0618
  399TIP3    H1 1203   4.644   2.202   4.441  0.4269 -1.6238  0.4441
  399TIP3    H2 1204   4.766   2.291   4.433 -1.3160  0.7702 -0.5352
  400TIP3   OH2 1205   5.322   2.075   3.888 -0.6728  0.1658 -0.0612
  400TIP3    H1 1206   5.410   2.111   3.898 -0.7908  0.2219  0.7956
  400TIP3    H2 1207   5.337   1.984   3.862 -0.3469 -0.1993  1.3578
  401TIP3   OH2 1208   1.130   2.669   0.316 -0.1609 -0.3469  0.0655
  401TIP3    H1 1209   1.223   2.653   0.300 -0.2550 -0.6255 -0.1936
  401TIP3    H2 1210   1.106   2.608   0.385 -0.0236  0.0934  0.5066
  402TIP3   OH2 1211   1.930   2.264   2.670 -0.1081 -0.3116 -0.2726
  402TIP3    H1 1212   1.923   2.286   2.763 -0.9385 -0.1662 -0.3610
  402TIP3    H2 1213   1.898   2.343   2.624 -1.1640 -0.9252 -0.6367
  403TIP3   OH2 1214   6.136   5.053   3.504 -0.6441 -0.5700  0.1115
  403TIP3    H1 1215   6.048   5.059   3.542 -0.3797  0.0183  0.6489
  403TIP3    H2 1216   6.195   5.063   3.579 -0.1193 -0.5429 -0.3024
  404TIP3   OH2 1217   4.395   4.746   4.014 -0.1077  0.1267  0.3315
  404TIP3    H1 1218   4.453   4.822   4.015  0.7296 -0.4687 -1.0290
  404TIP3    H2 1219   4.394   4.718   3.922  1.6072 -3.0251  1.1452
  405TIP3   OH2 1220   5.014   4.314   3.505  0.4414  0.0319 -0.0627
  405TIP3    H1 1221   4.968   4.246   3.456  0.4497  0.8367 -1.2377
  405TIP3    H2 1222   4.951   4.344   3.570  0.3808 -0.9599  0.3611
  406TIP3   OH2 1223   5.909   4.600   5.170 -0.2623  0.0966 -0.3039
  406TIP3    H1 1224   5.920   4.685   5.213 -2.3728  0.8543 -1.1652
  406TIP3    H2 1225   5.956   4.610   5.087 -0.9478  0.6229 -0.6376
  407TIP3   OH2 1226   3.282   3.959   2.832 -0.4410  0.0536  0.7931
  407TIP3    H1 1227   3.249   3.987   2.918  0.8015  2.3206  0.5919
  407TIP3    H2 1228   3.375   3.942   2.846 -0.2870  0.1688 -0.0437
  408TIP3   OH2 1229   5.582   2.136   1.652  0.1161 -0.0826  0.0829
  408TIP3    H1 1230   5.606   2.124   1.560 -1.1980  0.2483 -0.3199
  408TIP3    H2 1231   5.608   2.226   1.672 -2.1036  0.8176 -0.8121
  409TIP3   OH2 1232   0.896   2.460   0.119  0.0301  0.0878  0.0124
  409TIP3    H1 1233   0.979   2.421   0.091  0.0449  0.6023 -0.6832
  409TIP3    H2 1234   0.860   2.397   0.182  0.3515 -0.7414 -0.6091
  410TIP3   OH2 1235   5.326   4.867   4.893 -0.0858 -0.1422  0.0527
  410TIP3    H1 1236   5.414   4.865   4.932 -0.9341  0.9301  2.2062
  410TIP3    H2 1237   5.312   4.960   4.871 -0.6733 -0.3001 -0.2612
  411TIP3   OH2 1238   0.818   4.327   0.641 -0.6088 -0.1710  0.1668
  411TIP3    H1 1239   0.724   4.347   0.642 -0.4723  0.5408 -0.5334
  411TIP3    H2 1240   0.831   4.276   0.561 -0.8654 -2.8005  1.6739
  412TIP3   OH2 1241   1.261   3.794   3.014  0.0339 -0.1325  0.2492
  412TIP3    H1 1242   1.230   3.827   2.930  2.9740  2.3540 -0.0372
  412TIP3    H2 1243   1.350   3.765   2.996  0.3428 -0.5855  2.3119
  413TIP3   OH2 1244   1.361   2.023   0.122 -0.4455  0.1088  0.2715
  413TIP3    H1 1245   1.403   1.940   0.145 -0.6981 -0.0078  0.3234
  413TIP3    H2 1246   1.433   2.085   0.112 -0.2390 -0.1643  0.0370
  414TIP3   OH2 1247   2.537   2.879   4.275 -0.7510 -0.1541 -0.3385
  414TIP3    H1 1248   2.446   2.868   4.246 -1.5652  0.4936  1.7378
  414TIP3    H2 1249   2.529   2.909   4.366  1.5439  0.9490 -0.4365
  415TIP3   OH2 1250   3.373   2.003   4.682  0.7130  0.1292  0.0120
  415TIP3    H1 1251   3.462   1.971   4.700  0.3097 -0.5602  0.8870
  415TIP3    H2 1252   3.353   1.970   4.594  1.4200  0.5357 -0.3133
  416TIP3   OH2 1253   0.332   5.497   2.247  0.3627  0.7385 -0.1989
  416TIP3    H1 1254   0.317   5.588   2.222 -2.1335  0.1324 -1.2148
  416TIP3    H2 1255   0.380   5.459   2.174  1.1164  1.1107  0.0823
  417TIP3   OH2 1256   5.598   3.710   3.542 -0.1218  0.0754 -0.5354
  417TIP3    H1 1257   5.503   3.695   3.535 -0.0111 -0.0417 -1.9872
  417TIP3    H2 1258   5.636   3.655   3.474  1.1287 -0.9603  0.9271
  418TIP3   OH2 1259   3.537   5.706   2.869  0.2566 -0.0608  0.1176
  418TIP3    H1 1260   3.592   5.726   2.945 -0.0577 -0.3906  0.4399
  418TIP3    H2 1261   3.460   5.664   2.907  0.9044 -1.9269 -0.5114
  419TIP3   OH2 1262   2.616   1.812   3.221 -0.3919 -0.3546 -0.2724
  419TIP3    H1 1263   2.692   1.822   3.278 -0.4775 -1.5307  0.0720
  419TIP3    H2 1264   2.627   1.881   3.155 -0.5242  1.3168  1.3832
  420TIP3   OH2 1265   3.618   0.706   2.571  0.6044 -0.1722  0.0531
  420TIP3    H1 1266   3.646   0.670   2.487  1.5482 -0.9025  0.6500
  420TIP3    H2 1267   3.538   0.658   2.592  0.2145  0.2067 -0.5446
  421TIP3   OH2 1268   3.995   1.109   0.971 -0.1584  0.1066  0.1429
  421TIP3    H1 1269   4.058   1.159   1.022  0.9971 -2.0096  0.9147
  421TIP3    H2 1270   3.976   1.032   1.025 -1.4655 -0.5554 -1.1951
  422TIP3   OH2 1271   3.433   3.444   1.147 -0.3013 -0.1572 -0.1425
  422TIP3    H1 1272   3.387   3.483   1.221 -0.4925  0.1983 -0.4498
  422TIP3    H2 1273   3.389   3.360   1.133 -1.3144  0.4770 -0.8710
  423TIP3   OH2 1274   4.189   0.656   0.054 -0.3406  0.2477  0.4728
  423TIP3    H1 1275   4.117   0.692   0.002  0.8429  1.2921 -0.4958
  423TIP3    H2 1276   4.157   0.656   0.144 -1.3482  1.2212  0.1261
  424TIP3   OH2 1277   0.131   2.878   0.361  0.0199  0.1792  0.2704
  424TIP3    H1 1278   0.199   2.885   0.428  0.7809  0.5560 -0.5276
  424TIP3    H2 1279   0.089   2.793   0.379  1.3391 -0.5135  0.1839
  425TIP3   OH2 1280   0.503   1.405   0.421  0.1270 -0.2866  0.0932
  425TIP3    H1 1281   0.422   1.457   0.415  0.7816  0.9515  1.2808
  425TIP3    H2 1282   0.568   1.458   0.375  0.4303 -0.9366 -0.2366
  426TIP3   OH2 1283   5.348   2.966   3.144  0.2411  0.7885 -0.0178
  426TIP3    H1 1284   5.265   2.957   3.192 -0.1807 -0.8469 -0.9736
  426TIP3    H2 1285   5.323   3.014   3.064  0.3841  1.0110  0.0708
  427TIP3   OH2 1286   5.942   3.096   5.137 -0.1987  0.3045  0.0682
  427TIP3    H1 1287   5.990   3.036   5.194  1.7756  0.6683 -1.1387
  427TIP3    H2 1288   5.997   3.174   5.132 -0.1212  0.1699 -2.5425
  428TIP3   OH2 1289   4.220   4.573   2.683 -0.0410 -0.0607  0.5508
  428TIP3    H1 1290   4.314   4.557   2.677  0.0016  0.3968 -0.0886
  428TIP3    H2 1291   4.198   4.552   2.774  0.6744 -0.1812  0.7040
  429TIP3   OH2 1292   3.839   2.597   5.104 -0.5644  0.2199 -0.3083
  429TIP3    H1 1293   3.799   2.510   5.104 -1.7742  0.7534 -0.1156
  429TIP3    H2 1294   3.883   2.603   5.189 -1.3925  0.1770  0.1407
  430TIP3   OH2 1295   5.275   4.276   1.668 -1.2206  0.0609 -0.1485
  430TIP3    H1 1296   5.271   4.185   1.695 -1.4953  0.1264  0.0376
  430TIP3    H2 1297   5.201   4.318   1.712 -1.2137  0.3318 -0.3878
  431TIP3   OH2 1298   0.479   3.872   2.301 -0.1785  0.2752 -0.0445
  431TIP3    H1 1299   0.563   3.902   2.264  0.6074 -3.8451 -2.2306
  431TIP3    H2 1300   0.414   3.929   2.260  1.2709  0.5812 -2.1177
  432TIP3   OH2 1301   6.024   5.661   3.860 -0.2154  0.2440 -0.3308
  432TIP3    H1 1302   6.069   5.579   3.878 -0.0421  0.6285  1.0753
  432TIP3    H2 1303   5.961   5.639   3.791 -0.5304 -1.1902  0.3831
  433TIP3   OH2 1304   6.021   0.580   4.978 -0.4647 -0.0149  0.2265
  433TIP3    H1 1305   6.046   0.653   5.035 -0.9434  0.7474 -0.5012
  433TIP3    H2 1306   6.019   0.619   4.890 -1.4114 -0.7296 -0.0880
  434TIP3   OH2 1307   4.584   1.216   3.136 -0.1005  0.1978 -0.3439
  434TIP3    H1 1308   4.493   1.243   3.123 -1.0024 -1.4309  1.9455
  434TIP3    H2 1309   4.604   1.240   3.226  1.5413 -0.0255 -0.6141
  435TIP3   OH2 1310   0.959   5.474   4.441  0.5657  0.1045  0.1970
  435TIP3    H1 1311   0.956   5.525   4.522  0.9656  1.2238 -0.4825
  435TIP3    H2 1312   0.899   5.519   4.382  0.1176 -0.8247 -0.0835
  436TIP3   OH2 1313   1.909   2.775   3.457  0.8929  0.6277  0.4347
  436TIP3    H1 1314   1.857   2.777   3.377 -2.7368 -1.5099  2.4951
  436TIP3    H2 1315   1.983   2.719   3.436 -0.1788 -0.2028 -1.3444
  437TIP3   OH2 1316   2.798   3.610   1.452  0.3524 -0.1471 -0.0903
  437TIP3    H1 1317   2.720   3.556   1.440 -1.0916  1.8235 -0.0748
  437TIP3    H2 1318   2.815   3.608   1.546  0.6841 -1.0159 -0.1560
  438TIP3   OH2 1319   1.034   2.364   3.746 -0.1792  0.7331  0.1291
  438TIP3    H1 1320   0.981   2.295   3.786 -0.2676  0.4801 -0.4129
  438TIP3    H2 1321   1.075   2.322   3.670  4.6761 -0.5432  3.0084
  439TIP3   OH2 1322   1.719   4.450   1.546 -0.0657  0.1887 -0.6969
  439TIP3    H1 1323   1.805   4.479   1.516  0.1688  0.5606  0.2761
  439TIP3    H2 1324   1.738   4.378   1.606 -0.5300 -0.6505 -1.5443
  440TIP3   OH2 1325   2.620   1.761   2.430  0.2187  0.1705  0.0945
  440TIP3    H1 1326   2.625   1.854   2.456 -0.0514  0.8720 -2.1617
  440TIP3    H2 1327   2.554   1.724   2.487 -0.6085  1.7032  0.1902
  441TIP3   OH2 1328   1.248   2.649   5.197 -0.2815 -0.7463  0.2463
  441TIP3    H1 1329   1.224   2.565   5.236 -2.5897  0.0130  0.6029
  441TIP3    H2 1330   1.217   2.643   5.107 -2.2341  0.3660  0.7940
  442TIP3   OH2 1331   0.882   2.460   4.824 -0.3351  0.1714 -0.5009
  442TIP3    H1 1332   0.797   2.435   4.788 -0.4368  0.7920 -0.7164
  442TIP3    H2 1333   0.932   2.379   4.829 -0.9756 -0.2139 -0.2806
  443TIP3   OH2 1334   1.644   0.906   1.126  1.0459 -0.5119 -0.8034
  443TIP3    H1 1335   1.627   0.999   1.109  0.1375 -0.4702  0.2642
  443TIP3    H2 1336   1.732   0.891   1.091  0.2658  0.1343 -3.2580
  444TIP3   OH2 1337   2.864   0.039   3.725  0.5209  0.3272  0.1691
  444TIP3    H1 1338   2.830   0.114   3.774 -1.8646 -0.8886  0.5190
  444TIP3    H2 1339   2.797   0.020   3.660 -0.2777 -3.0308  1.7342
  445TIP3   OH2 1340   5.589   0.991   0.224  0.0687 -0.4816 -0.5416
  445TIP3    H1 1341   5.596   0.986   0.129 -0.2599  0.1848 -0.6068
  445TIP3    H2 1342   5.650   1.060   0.249 -0.1817 -0.3395 -0.3134
  446TIP3   OH2 1343   4.006   1.378   1.828  0.4674 -0.1024  0.2675
  446TIP3    H1 1344   3.917   1.355   1.855  0.7405 -1.3505  0.2007
  446TIP3    H2 1345   4.046   1.416   1.906  1.1417 -3.3502  1.6984
  447TIP3   OH2 1346   6.137   1.148   0.131 -0.0159  0.1021 -0.3029
  447TIP3    H1 1347   6.223   1.109   0.143 -0.0906 -0.0085 -0.1289
  447TIP3    H2 1348   6.128   1.211   0.202 -0.5704 -0.7558  0.4070
  448TIP3   OH2 1349   1.367   4.433   0.615  0.3798 -0.0904 -0.3404
  448TIP3    H1 1350   1.460   4.450   0.634  0.5057 -1.1190  0.0237
  448TIP3    H2 1351   1.322   4.451   0.697  0.1428  1.1071 -0.7102
  449TIP3   OH2 1352   4.499   2.838   1.957 -0.2124 -0.2567 -0.1398
  449TIP3    H1 1353   4.502   2.762   2.015 -0.4012 -0.1120  0.0615
  449TIP3    H2 1354   4.551   2.904   2.003 -1.1351  0.1688  0.3208
  450TIP3   OH2 1355   0.207   2.862   0.935  0.5236  0.0335 -0.0970
  450TIP3    H1 1356   0.145   2.831   0.868  2.1400 -1.6045 -0.9351
  450TIP3    H2 1357   0.154   2.868   1.014 -0.8069 -0.9695 -0.8500
  451TIP3   OH2 1358   0.593   0.320   0.790  0.2306 -0.0137  0.4813
  451TIP3    H1 1359   0.537   0.315   0.713  1.4397 -0.7501 -0.3707
  451TIP3    H2 1360   0.667   0.374   0.763  0.3119  0.3316  1.3591
  452TIP3   OH2 1361   1.754   3.410   2.297  0.5593 -0.4901  0.0069
  452TIP3    H1 1362   1.845   3.403   2.268  0.8922  1.1479  0.5680
  452TIP3    H2 1363   1.728   3.499   2.276 -1.1304 -1.0856 -0.6565
  453TIP3   OH2 1364   2.008   0.324   4.897 -0.1843 -0.6980  0.3891
  453TIP3    H1 1365   1.915   0.321   4.921 -0.0247 -0.2728  1.1092
  453TIP3    H2 1366   2.020   0.413   4.862  0.3837  0.0112  2.2632
  454TIP3   OH2 1367   2.648   4.326   3.762  0.5271 -0.3324  0.2208
  454TIP3    H1 1368   2.674   4.404   3.713 -0.3654  1.4005  2.3493
  454TIP3    H2 1369   2.705   4.256   3.728  0.3534  0.8403 -2.8004
  455TIP3   OH2 1370   2.062   2.617   1.742  0.1120  0.0907 -0.0846
  455TIP3    H1 1371   2.117   2.624   1.820  1.9420  0.8137 -1.3732
  455TIP3    H2 1372   2.046   2.523   1.733  0.9278 -0.1165  0.4813
  456TIP3   OH2 1373   3.107   0.687   2.976  0.1002 -0.7039 -0.3344
  456TIP3    H1 1374   3.065   0.603   2.958 -0.1618 -0.5498 -0.4459
  456TIP3    H2 1375   3.170   0.698   2.905  0.0404 -0.7436 -0.3941
  457TIP3   OH2 1376   2.134   0.440   2.669 -0.5784  0.2678  0.1131
  457TIP3    H1 1377   2.052   0.462   2.714 -0.2194 -1.3094  1.6523
  457TIP3    H2 1378   2.168   0.364   2.717  2.5480  1.7309  0.4514
  458TIP3   OH2 1379   6.041   0.187   1.126 -0.1777 -0.4301  0.0953
  458TIP3    H1 1380   6.112   0.123   1.124  0.0230 -0.2085  0.2135
  458TIP3    H2 1381   6.052   0.234   1.209 -1.0130 -1.0252  0.5655
  459TIP3   OH2 1382   5.501   4.482   2.820 -0.1777  0.4985 -0.0116
  459TIP3    H1 1383   5.407   4.495   2.827 -0.1115  0.9050  0.1152
  459TIP3    H2 1384   5.515   4.456   2.729 -0.2084  2.1998 -0.5292
  460TIP3   OH2 1385   5.699   1.427   0.815  0.1726 -0.1163 -0.1432
  460TIP3    H1 1386   5.716   1.517   0.789  0.6943  0.3564  1.6871
  460TIP3    H2 1387   5.779   1.399   0.861 -0.2344 -1.2779 -0.0878
  461TIP3   OH2 1388   4.010   1.684   1.473 -0.3124  0.0192 -0.2352
  461TIP3    H1 1389   3.953   1.626   1.524 -0.8339  0.1941 -0.6116
  461TIP3    H2 1390   3.950   1.739   1.422  0.1687  1.1080  0.3472
  462TIP3   OH2 1391   3.552   1.156   3.316 -0.0815  0.0581  0.7734
  462TIP3    H1 1392   3.515   1.097   3.250  1.3819 -1.6197  1.3779
  462TIP3    H2 1393   3.478   1.175   3.375 -0.1425 -3.1713  1.9371
  463TIP3   OH2 1394   0.018   1.433   3.353  0.4332  0.0789  0.2224
  463TIP3    H1 1395  -0.029   1.474   3.281  2.3825  0.8595 -0.6672
  463TIP3    H2 1396   0.040   1.505   3.412  0.8181 -0.2275  0.4572
  464TIP3   OH2 1397   3.539   2.699   4.851 -0.5999  0.0694  0.3625
  464TIP3    H1 1398   3.555   2.742   4.767  1.6621  0.7272  1.0538
  464TIP3    H2 1399   3.580   2.756   4.915  0.2279 -1.8259  1.6092
  465TIP3   OH2 1400   1.184   3.319   4.844 -0.8201 -0.0869  0.0986
  465TIP3    H1 1401   1.116   3.262   4.880 -0.9965 -0.2782 -0.5226
  465TIP3    H2 1402   1.266   3.282   4.876 -1.0098  0.1858  0.9082
  466TIP3   OH2 1403   3.164   2.507   3.766  0.3204 -0.1441  0.4143
  466TIP3    H1 1404   3.206   2.556   3.696 -1.3442  1.7464  0.6256
  466TIP3    H2 1405   3.201   2.543   3.847  2.1355 -2.2201  0.5875
  467TIP3   OH2 1406   1.850   5.184   1.629 -0.1672  0.1204  0.1006
  467TIP3    H1 1407   1.933   5.141   1.649 -0.7812 -1.0564  0.2462
  467TIP3    H2 1408   1.843   5.179   1.533 -0.1015  0.1444  0.0950
  468TIP3   OH2 1409   5.766   4.277   4.441 -0.0815  1.4598 -0.3163
  468TIP3    H1 1410   5.766   4.210   4.372  5.9078  2.7986 -2.1891
  468TIP3    H2 1411   5.699   4.340   4.414 -0.2496  0.2529 -3.0421
  469TIP3   OH2 1412   3.373   5.187   3.937 -0.0999 -0.4905  0.0354
  469TIP3    H1 1413   3.402   5.096   3.941  1.1663 -0.0689  2.6527
  469TIP3    H2 1414   3.394   5.214   3.848  0.2372 -2.5233 -0.5634
  470TIP3   OH2 1415   1.539   4.275   1.861 -0.0476  0.0129 -0.1731
  470TIP3    H1 1416   1.451   4.249   1.835  0.1638  0.2205 -1.1727
  470TIP3    H2 1417   1.595   4.208   1.820  0.2834  0.1647  0.0332
  471TIP3   OH2 1418   4.268   5.624   5.059 -0.5474 -0.1223  0.4587
  471TIP3    H1 1419   4.280   5.685   4.986 -0.1848  0.7219  1.1924
  471TIP3    H2 1420   4.347   5.570   5.059 -0.2249  0.3416  0.6390
  472TIP3   OH2 1421   5.158   2.944   3.550 -0.1048 -0.2159  0.0255
  472TIP3    H1 1422   5.167   2.961   3.643 -2.0185 -0.7368  0.3313
  472TIP3    H2 1423   5.196   3.022   3.508  0.0491  0.3875  1.2354
  473TIP3   OH2 1424   4.677   4.446   1.828 -0.1217 -0.0626  0.4602
  473TIP3    H1 1425   4.732   4.515   1.865  0.8801 -0.2403 -0.6684
  473TIP3    H2 1426   4.666   4.383   1.900 -1.0683  1.2465  1.5174
  474TIP3   OH2 1427   3.487   1.337   1.300  0.0529 -0.1519  0.5726
  474TIP3    H1 1428   3.415   1.358   1.359 -0.2983 -0.8070  0.3896
  474TIP3    H2 1429   3.504   1.244   1.316 -0.8854 -0.6828 -1.2175
  475TIP3   OH2 1430   2.750   4.951   2.801 -0.2281 -0.0107 -0.0317
  475TIP3    H1 1431   2.728   4.925   2.890  0.1218 -1.8291 -0.4436
  475TIP3    H2 1432   2.733   5.046   2.799  1.2326  0.3862  2.3742
  476TIP3   OH2 1433   4.523   5.108   3.264 -0.2107 -1.0559 -0.0982
  476TIP3    H1 1434   4.431   5.118   3.239 -0.4333  2.0450  1.4907
  476TIP3    H2 1435   4.571   5.162   3.201  0.4649 -1.9527 -0.3803
  477TIP3   OH2 1436   4.515   0.247   3.393 -0.3047  0.2481 -0.0603
  477TIP3    H1 1437   4.504   0.330   3.441 -0.8546 -0.3851  0.9350
  477TIP3    H2 1438   4.608   0.226   3.403 -0.7958 -0.9848  2.6558
  478TIP3   OH2 1439   0.194   1.866   4.513 -0.0880 -0.1956  0.3036
  478TIP3    H1 1440   0.257   1.798   4.539 -1.7467 -1.1256  2.2042
  478TIP3    H2 1441   0.177   1.850   4.421  2.0079 -0.2580 -0.1202
  479TIP3   OH2 1442   5.132   0.691   4.036 -0.1673  0.1999  0.1742
  479TIP3    H1 1443   5.070   0.632   3.993 -0.3381  0.7387 -0.3319
  479TIP3    H2 1444   5.189   0.723   3.965  0.6497 -0.2362  0.6201
  480TIP3   OH2 1445   0.506   1.385   2.712  0.5577  0.1199 -0.2758
  480TIP3    H1 1446   0.476   1.464   2.758  0.8784 -0.0580  0.2494
  480TIP3    H2 1447   0.568   1.344   2.773 -0.0806 -0.8769 -0.2753
  481TIP3   OH2 1448   2.730   5.614   0.636  0.3822 -0.1693 -0.2812
  481TIP3    H1 1449   2.694   5.586   0.720  1.0942 -1.3792 -0.3576
  481TIP3    H2 1450   2.752   5.707   0.650  0.4227 -0.3285  0.8550
  482TIP3   OH2 1451   4.883   1.250   2.414  0.1928 -0.0194  0.7850
  482TIP3    H1 1452   4.835   1.333   2.412  0.4705  0.1372 -0.4812
  482TIP3    H2 1453   4.974   1.275   2.432  0.7576  0.2736 -1.9531
  483TIP3   OH2 1454   1.527   3.704   1.811  0.0230 -0.1242 -0.6700
  483TIP3    H1 1455   1.493   3.636   1.870  1.5527 -0.6081 -0.3178
  483TIP3    H2 1456   1.464   3.775   1.819 -0.6642 -0.8069  0.3159
  484TIP3   OH2 1457   0.517   2.235   2.831  0.3832  0.2341  0.3804
  484TIP3    H1 1458   0.589   2.280   2.876  0.9932  0.5871 -0.8867
  484TIP3    H2 1459   0.558   2.198   2.753 -0.8357  0.5272 -0.4160
  485TIP3   OH2 1460   0.400   2.411   0.587 -0.3423  0.3217  0.2467
  485TIP3    H1 1461   0.470   2.450   0.639 -0.1856  0.3384  0.0292
  485TIP3    H2 1462   0.335   2.481   0.577 -0.3832  0.3096  0.4409
  486TIP3   OH2 1463   6.133   4.001   4.951 -0.2273  0.8739 -0.3688
  486TIP3    H1 1464   6.062   4.032   5.007  1.1317  1.2956  1.2047
  486TIP3    H2 1465   6.147   3.910   4.979 -1.2564  0.2042 -1.8901
  487TIP3   OH2 1466   3.277   2.901   2.982  0.3070  0.1422 -0.2953
  487TIP3    H1 1467   3.199   2.894   3.039  0.7048 -0.2550  0.2096
  487TIP3    H2 1468   3.241   2.898   2.893 -0.0923 -2.9974 -0.1586
  488TIP3   OH2 1469   5.301   5.762   1.008  0.0160  0.0572  0.2225
  488TIP3    H1 1470   5.264   5.850   1.021  1.1746  0.2470  3.0216
  488TIP3    H2 1471   5.383   5.777   0.962  0.5218  0.5686  1.2448
  489TIP3   OH2 1472   6.181   5.702   4.084 -0.0734 -0.3285  0.0666
  489TIP3    H1 1473   6.129   5.776   4.116  0.9386  0.7388 -0.6639
  489TIP3    H2 1474   6.143   5.681   3.999 -0.8474 -1.1740  0.6075
  490TIP3   OH2 1475   1.110   3.958   1.117 -0.3598  0.1161  0.1002
  490TIP3    H1 1476   1.115   3.863   1.118 -1.4426  0.0525  0.3178
  490TIP3    H2 1477   1.198   3.986   1.090 -0.3396 -0.9503 -1.0229
  491TIP3   OH2 1478   5.306   5.354   1.358  0.0709  0.3397 -0.4004
  491TIP3    H1 1479   5.235   5.295   1.331  0.6512 -0.3770 -0.3855
  491TIP3    H2 1480   5.333   5.396   1.276 -1.0126  1.3480 -0.2586
  492TIP3   OH2 1481   6.119   0.336   1.335  0.1184 -0.3944 -0.6858
  492TIP3    H1 1482   6.195   0.342   1.394 -0.1875 -1.8631 -0.0913
  492TIP3    H2 1483   6.115   0.422   1.293  0.7007  0.5304  1.0113
  493TIP3   OH2 1484   5.364   3.893   4.942 -0.2578 -0.1175  0.4786
  493TIP3    H1 1485   5.417   3.942   4.879  0.7127  0.7698  1.9194
  493TIP3    H2 1486   5.275   3.898   4.907  0.3178 -0.0878 -1.0681
  494TIP3   OH2 1487   3.107   2.703   2.457  0.0982  0.3845  0.1905
  494TIP3    H1 1488   3.147   2.783   2.423  0.0808  0.0497 -0.6566
  494TIP3    H2 1489   3.062   2.731   2.537  0.6448  1.0839  0.2649
  495TIP3   OH2 1490   5.946   5.131   4.974  0.2289  0.5537 -0.0400
  495TIP3    H1 1491   5.859   5.130   5.015 -0.2250 -0.2682 -0.9647
  495TIP3    H2 1492   5.949   5.214   4.927 -1.2848 -0.5882 -2.3925
  496TIP3   OH2 1493   3.257   2.404   1.101  0.1767  0.7308  0.3674
  496TIP3    H1 1494   3.315   2.478   1.120  0.1259  1.2068 -1.1852
  496TIP3    H2 1495   3.169   2.442   1.100  0.1290  0.6169 -0.1920
  497TIP3   OH2 1496   1.966   0.156   4.027  0.2518 -0.2980  0.3406
  497TIP3    H1 1497   1.906   0.107   3.972  0.6712 -1.5960  0.9996
  497TIP3    H2 1498   1.925   0.242   4.036 -1.6523 -1.2099  0.9732
  498TIP3   OH2 1499   2.786   4.780   3.846  0.1665 -0.0524 -0.0426
  498TIP3    H1 1500   2.858   4.740   3.798 -0.6440 -1.0060 -0.4976
  498TIP3    H2 1501   2.769   4.721   3.919 -0.6180 -0.2314 -0.3529
  499TIP3   OH2 1502   2.406   0.635   0.626  0.4478 -0.0513  0.4147
  499TIP3    H1 1503   2.376   0.660   0.539 -0.0236 -0.5171  0.4388
  499TIP3    H2 1504   2.501   0.643   0.622  0.4993 -0.9993 -0.4431
  500TIP3   OH2 1505   2.373   2.535   4.330  0.3584 -0.9916  0.0135
  500TIP3    H1 1506   2.459   2.538   4.373  1.2019 -0.4849 -1.6291
  500TIP3    H2 1507   2.367   2.617   4.282 -2.1701  0.1535  2.0417
  501TIP3   OH2 1508   5.770   4.179   3.657  0.0523  0.5921 -0.0037
  501TIP3    H1 1509   5.809   4.142   3.736 -2.2704 -0.7061  0.6606
  501TIP3    H2 1510   5.752   4.270   3.680  1.2471  0.7811  0.2191
  502TIP3   OH2 1511   3.124   1.414   1.681 -0.0784 -0.6610 -0.5068
  502TIP3    H1 1512   3.108   1.425   1.774  0.4053 -2.2767 -0.1907
  502TIP3    H2 1513   3.039   1.429   1.639 -0.7158 -1.6583  0.3811
  503TIP3   OH2 1514   3.819   1.890   1.665  0.4031  0.3131 -0.0374
  503TIP3    H1 1515   3.866   1.934   1.594  1.1420  1.0812  0.8985
  503TIP3    H2 1516   3.887   1.844   1.714  0.1470  1.0341  1.0397
  504TIP3   OH2 1517   2.544   3.940   3.691  0.4356 -0.6482 -0.5857
  504TIP3    H1 1518   2.561   3.856   3.733  1.3632 -0.4093 -0.4579
  504TIP3    H2 1519   2.550   3.922   3.597 -0.7190 -0.9918 -0.6086
  505TIP3   OH2 1520   1.024   3.358   2.058 -0.2647  0.2549  0.0412
  505TIP3    H1 1521   1.000   3.441   2.099 -0.0011  0.8212 -0.9067
  505TIP3    H2 1522   1.118   3.349   2.075 -0.3785 -0.0709  0.5137
  506TIP3   OH2 1523   4.833   3.678   4.455  0.0936  0.0180  0.4293
  506TIP3    H1 1524   4.765   3.640   4.399  0.4521 -0.8359  0.5690
  506TIP3    H2 1525   4.851   3.611   4.520  0.2561  0.6983  1.0943
  507TIP3   OH2 1526   2.443   4.342   2.919 -0.1187 -0.3330  0.1235
  507TIP3    H1 1527   2.356   4.367   2.887 -0.1967  0.7530  1.0901
  507TIP3    H2 1528   2.481   4.290   2.848 -2.0681 -2.0343  0.2387
  508TIP3   OH2 1529   4.057   2.371   3.270 -0.3607  0.1701  0.7777
  508TIP3    H1 1530   4.043   2.288   3.315 -1.5572 -1.0491 -1.7152
  508TIP3    H2 1531   3.977   2.421   3.286 -1.3199 -0.7586 -0.9452
  509TIP3   OH2 1532   4.302   1.135   1.857  0.3247 -0.0346  0.5357
  509TIP3    H1 1533   4.235   1.135   1.788  0.2343  0.7572  0.6208
  509TIP3    H2 1534   4.253   1.152   1.938  0.4205 -1.0389  0.8253
  510TIP3   OH2 1535   0.611   3.670   3.486 -0.1001  0.2564  0.0742
  510TIP3    H1 1536   0.606   3.574   3.482  1.3035  0.2072 -1.1347
  510TIP3    H2 1537   0.536   3.695   3.540 -0.3402 -1.5323  0.6447
  511TIP3   OH2 1538   2.072   5.509   2.659  0.0092  0.3215 -0.3145
  511TIP3    H1 1539   2.001   5.446   2.651 -0.2661  0.9057 -3.4875
  511TIP3    H2 1540   2.033   5.582   2.707 -1.6628  0.6954 -2.1149
  512TIP3   OH2 1541   0.467   1.330   3.944 -0.5127 -0.7615  0.7721
  512TIP3    H1 1542   0.506   1.375   4.019  0.2201  0.4162 -0.2499
  512TIP3    H2 1543   0.399   1.390   3.913  1.7056  0.7026 -1.7383
  513TIP3   OH2 1544   3.357   5.632   0.569 -0.2257  0.1531 -0.5654
  513TIP3    H1 1545   3.304   5.595   0.498  0.1098  0.5113 -1.0055
  513TIP3    H2 1546   3.445   5.598   0.553 -0.3123 -0.4459  0.1692
  514TIP3   OH2 1547   2.951   2.885   0.985 -0.4655  0.5626  0.6507
  514TIP3    H1 1548   3.003   2.815   0.946 -0.9735  0.4070  0.2452
  514TIP3    H2 1549   2.872   2.841   1.017 -1.2358  1.0768 -0.4666
  515TIP3   OH2 1550   4.257   2.802   1.815  0.2503 -0.0970 -0.0048
  515TIP3    H1 1551   4.259   2.709   1.836  1.0734 -0.0791  0.0079
  515TIP3    H2 1552   4.339   2.837   1.849 -0.6136  0.8974  1.1727
  516TIP3   OH2 1553   0.693   0.749   2.739  0.6272  0.0445 -0.2882
  516TIP3    H1 1554   0.626   0.701   2.690  0.5117 -0.5305  0.4239
  516TIP3    H2 1555   0.655   0.836   2.751 -0.3626 -0.5089  0.8031
  517TIP3   OH2 1556   0.067   3.946   3.241  0.3222 -0.7193  0.4043
  517TIP3    H1 1557   0.116   4.025   3.216  1.4958 -1.2973  0.8041
  517TIP3    H2 1558  -0.022   3.977   3.257  0.9595  0.6774  1.3986
  518TIP3   OH2 1559   0.992   1.284   3.255 -0.1985  0.5403 -0.4380
  518TIP3    H1 1560   0.969   1.342   3.182  2.1533  0.9786 -0.9035
  518TIP3    H2 1561   1.047   1.217   3.215 -1.0999 -0.7820  0.4919
  519TIP3   OH2 1562   5.256   4.045   4.647  0.1617 -0.1980 -0.1525
  519TIP3    H1 1563   5.292   3.956   4.646  0.6786 -0.0093  1.1488
  519TIP3    H2 1564   5.184   4.041   4.583  0.2040 -1.5300 -0.1545
  520TIP3   OH2 1565   3.895   0.101   1.730 -0.0642  0.2567 -0.3605
  520TIP3    H1 1566   3.810   0.121   1.691 -0.7131 -1.0395  0.3314
  520TIP3    H2 1567   3.898   0.153   1.810  0.3403  1.2374 -0.9901
  521TIP3   OH2 1568   4.434   3.059   4.673 -0.6573 -0.6427 -0.1254
  521TIP3    H1 1569   4.444   3.112   4.594 -2.6555 -1.0832 -0.7345
  521TIP3    H2 1570   4.491   3.101   4.737  0.1886  0.3658 -1.4679
  522TIP3   OH2 1571   0.657   1.887   0.339  0.4692 -0.4543 -0.5524
  522TIP3    H1 1572   0.683   1.954   0.275  0.3050  0.4430  0.2931
  522TIP3    H2 1573   0.692   1.919   0.422 -1.3602 -0.3472  0.2335
  523TIP3   OH2 1574   1.888   2.557   1.354 -0.0664  0.2207  0.2887
  523TIP3    H1 1575   1.868   2.645   1.323 -3.6544 -0.4428  0.2532
  523TIP3    H2 1576   1.919   2.511   1.276 -0.7671  0.7959 -0.3451
  524TIP3   OH2 1577   1.283   1.871   1.648  0.6510  0.2612 -0.4737
  524TIP3    H1 1578   1.360   1.917   1.682 -0.8392  2.5475 -0.0059
  524TIP3    H2 1579   1.296   1.870   1.554  0.9492  1.2634 -0.4566
  525TIP3   OH2 1580   3.841   3.368   2.856  0.3992 -0.1972  0.3371
  525TIP3    H1 1581   3.774   3.305   2.884 -0.3456  0.0033 -0.9603
  525TIP3    H2 1582   3.871   3.336   2.771  0.4742  0.8553 -0.0442
  526TIP3   OH2 1583   0.601   5.862   1.360  0.0463  0.2178  0.0312
  526TIP3    H1 1584   0.582   5.850   1.267  0.3884  0.0691 -0.0179
  526TIP3    H2 1585   0.621   5.955   1.368  0.5790  0.1183 -0.1421
  527TIP3   OH2 1586   0.167   4.328   2.299  0.5231 -0.0030  0.0103
  527TIP3    H1 1587   0.242   4.290   2.345  1.9348  0.9403 -1.3881
  527TIP3    H2 1588   0.200   4.345   2.210 -1.5764 -0.1715 -0.8396
  528TIP3   OH2 1589   2.096   5.421   4.178  0.2366  0.6355  0.4286
  528TIP3    H1 1590   2.052   5.408   4.261  0.0060 -1.0656  0.0769
  528TIP3    H2 1591   2.051   5.362   4.117  0.6410  1.5577 -0.8088
  529TIP3   OH2 1592   5.461   3.393   4.182  0.2031 -0.0011  0.3660
  529TIP3    H1 1593   5.373   3.389   4.142  0.9143 -1.3757 -1.1596
  529TIP3    H2 1594   5.502   3.468   4.139  1.3815 -2.1488 -2.6205
  530TIP3   OH2 1595   5.794   0.771   2.040 -0.0245  0.7368  0.1560
  530TIP3    H1 1596   5.789   0.811   1.953  0.5339  0.5130  0.0135
  530TIP3    H2 1597   5.711   0.794   2.082 -0.0484  1.3621 -0.2126
  531TIP3   OH2 1598   4.792   0.731   3.839  0.0787 -0.5194 -0.0153
  531TIP3    H1 1599   4.782   0.734   3.934 -2.0888 -2.1052 -0.1274
  531TIP3    H2 1600   4.880   0.696   3.825 -0.0337 -1.4800  1.4482
  532TIP3   OH2 1601   5.307   2.492   2.583  0.3965 -0.3480  0.1166
  532TIP3    H1 1602   5.346   2.445   2.657  3.4916  2.7741  0.6895
  532TIP3    H2 1603   5.246   2.554   2.624 -0.2916 -0.7770 -0.2461
  533TIP3   OH2 1604   4.189   5.360   3.479  0.5093  0.1224 -0.3254
  533TIP3    H1 1605   4.103   5.370   3.439  0.8161 -0.1482 -1.0586
  533TIP3    H2 1606   4.187   5.272   3.518 -0.0095  0.6200  0.8237
  534TIP3   OH2 1607   5.363   0.379   5.063 -0.0071  0.4455 -0.0189
  534TIP3    H1 1608   5.371   0.284   5.052 -3.8662  0.0862 -1.3056
  534TIP3    H2 1609   5.349   0.412   4.975 -3.1502  1.4821  0.7200
  535TIP3   OH2 1610   5.791   4.998   2.183 -0.3030 -1.1038  0.7838
  535TIP3    H1 1611   5.866   4.954   2.224  1.3505  1.7264  1.0502
  535TIP3    H2 1612   5.825   5.031   2.100 -1.0102  0.8752  1.2429
  536TIP3   OH2 1613   5.360   0.827   4.161  0.0270  0.3910 -0.3310
  536TIP3    H1 1614   5.328   0.917   4.169 -0.4685  0.3444 -1.5782
  536TIP3    H2 1615   5.359   0.809   4.067  0.7190 -0.7084 -0.1475
  537TIP3   OH2 1616   3.844   3.397   4.718 -0.2563 -0.2273  0.0543
  537TIP3    H1 1617   3.850   3.306   4.689  0.7485  0.4569 -2.1310
  537TIP3    H2 1618   3.762   3.401   4.766 -0.1764 -2.3446  0.4660
  538TIP3   OH2 1619   5.667   2.193   0.889  0.0118  0.1643 -0.0466
  538TIP3    H1 1620   5.672   2.149   0.974 -0.4106 -2.2984 -1.2076
  538TIP3    H2 1621   5.582   2.166   0.853 -0.0407  1.5565 -1.0677
  539TIP3   OH2 1622   5.817   1.388   2.410 -0.2594 -0.1353  0.2538
  539TIP3    H1 1623   5.739   1.443   2.409 -0.1169  0.0701  0.2788
  539TIP3    H2 1624   5.813   1.341   2.493 -1.1401 -1.2729 -0.4042
  540TIP3   OH2 1625   2.946   0.408   4.482  0.2382 -0.1507  0.1555
  540TIP3    H1 1626   3.011   0.360   4.430 -0.2169  0.3789 -0.9325
  540TIP3    H2 1627   2.911   0.473   4.421  0.9421  1.6825  1.6185
  541TIP3   OH2 1628   1.205   3.398   1.850 -0.3109  0.0541 -0.3236
  541TIP3    H1 1629   1.120   3.439   1.868 -0.4206 -0.5055  0.4418
  541TIP3    H2 1630   1.184   3.317   1.803 -0.1359  0.4101 -1.0419
  542TIP3   OH2 1631   5.777   2.987   4.851 -0.3934 -0.4276 -0.1028
  542TIP3    H1 1632   5.822   3.026   4.776 -1.4767  1.5689  0.2158
  542TIP3    H2 1633   5.696   3.038   4.860 -0.6506 -1.1016  1.9543
  543TIP3   OH2 1634   1.776   0.858   4.163 -0.0681  0.4705 -0.2779
  543TIP3    H1 1635   1.791   0.788   4.099  0.1819  1.1279 -0.9658
  543TIP3    H2 1636   1.717   0.820   4.228  1.4052 -0.9213  0.3082
  544TIP3   OH2 1637   5.633   2.882   0.156  0.0543 -0.1305 -0.2867
  544TIP3    H1 1638   5.658   2.805   0.208  0.0466 -0.1186 -0.2654
  544TIP3    H2 1639   5.650   2.856   0.065 -1.6408 -0.8166 -0.4517
  545TIP3   OH2 1640   1.601   1.135   0.028 -0.1844 -0.2741 -0.0460
  545TIP3    H1 1641   1.546   1.059   0.011  0.0564 -0.0851 -1.7833
  545TIP3    H2 1642   1.685   1.115  -0.014 -0.0423  0.8428 -0.3411
  546TIP3   OH2 1643   5.039   4.813   0.793  0.0470  0.4530 -0.4711
  546TIP3    H1 1644   5.046   4.723   0.762  0.1615  0.2162  0.2082
  546TIP3    H2 1645   4.947   4.823   0.818  0.0703  0.4648 -0.3882
  547TIP3   OH2 1646   2.342   3.145   2.905 -0.2476  0.3907  0.2819
  547TIP3    H1 1647   2.376   3.128   2.817 -0.9104 -0.7119  0.2172
  547TIP3    H2 1648   2.375   3.072   2.957 -0.6904  0.4949  0.7168
  548TIP3   OH2 1649   3.028   2.679   5.176  0.4845 -0.4671 -0.3350
  548TIP3    H1 1650   3.068   2.648   5.094  0.6952 -1.6188  0.1914
  548TIP3    H2 1651   3.100   2.679   5.239  0.6079  1.5706 -0.4074
  549TIP3   OH2 1652   5.863   4.686   2.990 -0.5263  0.5074  0.0764
  549TIP3    H1 1653   5.866   4.591   3.002  0.2038  0.4761 -0.3058
  549TIP3    H2 1654   5.945   4.707   2.946 -0.7893  1.2902 -0.0516
  550TIP3   OH2 1655   3.404   3.093   3.089  0.1364  0.2373  0.2084
  550TIP3    H1 1656   3.397   3.033   3.162  1.7326 -1.2969 -0.8395
  550TIP3    H2 1657   3.350   3.053   3.020  0.5178  0.4375 -0.2138
  551TIP3   OH2 1658   5.946   5.464   4.389 -0.7082  0.0653  0.1558
  551TIP3    H1 1659   5.995   5.382   4.376  1.4594  1.6537 -2.8280
  551TIP3    H2 1660   5.999   5.514   4.451 -1.5424 -0.3465  1.2376
  552TIP3   OH2 1661   5.364   2.031   3.033 -0.0473 -0.1051  0.0527
  552TIP3    H1 1662   5.337   1.970   3.102  1.8189 -1.0393  0.0041
  552TIP3    H2 1663   5.337   2.117   3.066  2.5160 -0.2376  2.9719
  553TIP3   OH2 1664   1.995   1.839   4.577  0.2837 -0.0491  0.0211
  553TIP3    H1 1665   1.948   1.899   4.636 -0.7783  0.2457 -1.0770
  553TIP3    H2 1666   1.979   1.753   4.614 -2.0569 -0.0635 -0.8520
  554TIP3   OH2 1667   2.886   5.402   0.727  0.1000  0.0779  0.0384
  554TIP3    H1 1668   2.869   5.412   0.821 -0.1514  0.0594 -0.0046
  554TIP3    H2 1669   2.902   5.492   0.696 -1.4930  0.3035 -0.2192
  555TIP3   OH2 1670   5.937   2.600   0.749  0.1927 -0.2091 -0.4323
  555TIP3    H1 1671   6.023   2.559   0.755  0.5686  0.4642 -1.1413
  555TIP3    H2 1672   5.879   2.540   0.796  1.6203  1.0466  3.3313
  556TIP3   OH2 1673   1.854   5.927   4.043  0.5179  0.1340 -0.1867
  556TIP3    H1 1674   1.836   5.938   3.950 -0.6899  0.0449  0.0257
  556TIP3    H2 1675   1.941   5.886   4.046  0.9825  0.9906 -1.2359
  557TIP3   OH2 1676   4.593   5.727   3.185 -0.0870  0.3235 -0.4486
  557TIP3    H1 1677   4.553   5.793   3.241 -0.6434 -0.0290 -0.4281
  557TIP3    H2 1678   4.530   5.713   3.114 -0.8133 -1.4706  0.4853
  558TIP3   OH2 1679   5.202   4.265   3.713 -0.9085 -0.5857  0.6197
  558TIP3    H1 1680   5.179   4.172   3.707 -1.1871 -0.4679 -0.3204
  558TIP3    H2 1681   5.142   4.308   3.652  0.9785 -0.1179 -0.9971
  559TIP3   OH2 1682   2.749   5.111   4.708  0.0415 -0.8802 -0.6378
  559TIP3    H1 1683   2.659   5.136   4.730  0.4758 -0.1893  0.4576
  559TIP3    H2 1684   2.762   5.147   4.620 -0.4566 -0.1767 -0.4377
  560TIP3   OH2 1685   4.943   0.143   3.131  0.3864  0.4644  0.5572
  560TIP3    H1 1686   4.910   0.130   3.042 -0.2923  0.1521  0.8503
  560TIP3    H2 1687   4.980   0.231   3.130 -0.1213  0.6759  0.1198
  561TIP3   OH2 1688   4.489   5.425   1.935 -0.3083  0.1262 -0.4037
  561TIP3    H1 1689   4.403   5.456   1.965  0.2623  1.3581 -0.0266
  561TIP3    H2 1690   4.552   5.483   1.977  0.7311 -0.8159 -0.6221
  562TIP3   OH2 1691   6.042   4.140   1.431  0.5250  0.2659 -0.0145
  562TIP3    H1 1692   5.963   4.130   1.378  0.4164  0.5340  0.0956
  562TIP3    H2 1693   6.016   4.199   1.502  0.1361 -1.5128  1.3892
  563TIP3   OH2 1694   5.204   1.320   4.274  0.4581 -0.5674  0.4000
  563TIP3    H1 1695   5.167   1.265   4.343 -1.2800 -0.0684 -0.0761
  563TIP3    H2 1696   5.129   1.343   4.219  0.8268  3.1549  1.1720
  564TIP3   OH2 1697   1.427   1.726   2.585 -0.1128 -0.5814  0.3047
  564TIP3    H1 1698   1.431   1.756   2.676 -1.4103  0.0355  0.1718
  564TIP3    H2 1699   1.517   1.698   2.565  0.0703 -1.2788  1.9501
  565TIP3   OH2 1700   0.529   2.495   2.344 -0.0464 -0.1446 -0.1365
  565TIP3    H1 1701   0.445   2.483   2.300 -0.3466 -0.3319  0.4634
  565TIP3    H2 1702   0.533   2.589   2.362 -0.3892 -0.2090  0.3150
  566TIP3   OH2 1703   5.864   5.086   3.928  0.6353 -0.3019  0.4943
  566TIP3    H1 1704   5.779   5.042   3.937  1.1448 -1.1844  1.1044
  566TIP3    H2 1705   5.914   5.029   3.871 -0.1388  1.7013 -2.4072
  567TIP3   OH2 1706   6.059   5.592   1.599  0.4480  0.3147  0.0104
  567TIP3    H1 1707   5.975   5.637   1.605  0.6482  1.1067 -2.3245
  567TIP3    H2 1708   6.044   5.509   1.644 -1.6463  0.3565 -0.4850
  568TIP3   OH2 1709   6.038   3.465   1.051  0.2555 -0.1186 -0.0888
  568TIP3    H1 1710   6.069   3.515   0.975  0.7311 -0.4640 -0.1213
  568TIP3    H2 1711   6.071   3.513   1.127 -2.2858  1.6755  0.0359
  569TIP3   OH2 1712   4.824   0.020   1.070  0.4301  0.1837  0.3796
  569TIP3    H1 1713   4.913   0.055   1.080  0.7289 -0.5046  0.1749
  569TIP3    H2 1714   4.827  -0.066   1.111  0.4170 -0.6949 -1.3637
  570TIP3   OH2 1715   5.835   3.529   4.620 -0.1020  0.3101 -0.9285
  570TIP3    H1 1716   5.803   3.597   4.559 -2.3521  0.3271  0.1884
  570TIP3    H2 1717   5.783   3.452   4.599 -1.2604  0.4395  1.2074
  571TIP3   OH2 1718   2.860   2.275   2.060  0.0574 -0.2996 -0.3960
  571TIP3    H1 1719   2.800   2.311   2.125 -0.7632 -0.2414 -1.1618
  571TIP3    H2 1720   2.901   2.200   2.103 -2.2285 -1.7309 -0.5675
  572TIP3   OH2 1721   1.221   0.220   2.989 -0.3934  0.3275  0.0961
  572TIP3    H1 1722   1.200   0.248   3.078 -1.6159 -1.7443  0.5334
  572TIP3    H2 1723   1.153   0.260   2.935 -1.0376 -0.2804  0.4426
  573TIP3   OH2 1724   6.329   0.221   0.014 -0.4663 -0.2365 -0.1590
  573TIP3    H1 1725   6.253   0.269   0.047 -1.2603 -0.9261 -0.9474
  573TIP3    H2 1726   6.296   0.134  -0.008  0.8859 -1.0771  0.9376
  574TIP3   OH2 1727   4.011   3.922   1.061 -0.4910 -0.0450  0.5038
  574TIP3    H1 1728   4.041   3.934   0.972 -0.7242 -2.9458 -0.0705
  574TIP3    H2 1729   3.917   3.902   1.052 -0.4644 -0.6141  1.3678
  575TIP3   OH2 1730   4.118   2.804   1.165  0.5222 -0.1618  0.4762
  575TIP3    H1 1731   4.183   2.736   1.181 -0.0369 -0.7153  0.4380
  575TIP3    H2 1732   4.034   2.758   1.162  0.2212  0.4079 -0.4048
  576TIP3   OH2 1733   6.094   1.196   3.734 -0.0450 -0.1650 -0.1916
  576TIP3    H1 1734   6.054   1.281   3.713  0.5463 -0.3454 -2.2869
  576TIP3    H2 1735   6.148   1.175   3.658  0.9881 -1.7567  0.9087
  577TIP3   OH2 1736   4.982   4.779   0.498  0.0216 -0.4215  0.0414
  577TIP3    H1 1737   5.003   4.698   0.544  1.4194 -0.1309 -0.0500
  577TIP3    H2 1738   5.034   4.846   0.542  0.1250  0.1395 -0.9066
  578TIP3   OH2 1739   4.466   5.354   4.535 -0.4323 -0.4257 -0.7398
  578TIP3    H1 1740   4.430   5.284   4.481 -0.8401 -0.1440 -0.8344
  578TIP3    H2 1741   4.539   5.390   4.483 -1.4294  0.4937 -1.5515
  579TIP3   OH2 1742   0.953   1.607   4.283 -0.4466 -0.0990 -0.3020
  579TIP3    H1 1743   0.955   1.697   4.316  1.2571 -1.0088  2.3667
  579TIP3    H2 1744   1.018   1.606   4.213 -0.6663  0.7852 -0.5347
  580TIP3   OH2 1745   5.199   0.568   3.117 -0.0692 -0.1429 -0.1851
  580TIP3    H1 1746   5.157   0.486   3.092  0.9325 -0.8022  0.2198
  580TIP3    H2 1747   5.173   0.581   3.208 -0.4347  0.1218 -0.3276
  581TIP3   OH2 1748   1.200   2.396   3.480  0.9083  0.1515 -0.1123
  581TIP3    H1 1749   1.240   2.323   3.527 -0.3418  0.5901  1.7357
  581TIP3    H2 1750   1.149   2.355   3.411  0.2638 -0.7398  0.8671
  582TIP3   OH2 1751   4.227   2.262   1.880 -0.0738 -0.5632 -0.0293
  582TIP3    H1 1752   4.298   2.322   1.860  0.3687 -0.9914  0.2216
  582TIP3    H2 1753   4.152   2.296   1.832 -0.4462  1.4776  1.8007
  583TIP3   OH2 1754   5.365   2.755   0.070  0.1312  0.6355 -0.4170
  583TIP3    H1 1755   5.421   2.766   0.147 -0.3995 -0.0669  0.0794
  583TIP3    H2 1756   5.393   2.824   0.010  2.4009 -0.4446 -0.7135
  584TIP3   OH2 1757   3.775   0.258   0.926  0.1094 -0.3059 -0.1069
  584TIP3    H1 1758   3.711   0.204   0.971 -1.2267  0.1587 -1.3511
  584TIP3    H2 1759   3.743   0.348   0.937  1.8889  0.2289  1.3030
  585TIP3   OH2 1760   5.697   1.900   3.064 -0.4828  0.8075  0.2391
  585TIP3    H1 1761   5.759   1.863   3.001 -0.2090 -1.6993  1.8705
  585TIP3    H2 1762   5.616   1.852   3.048 -0.1976 -0.4283  2.2205
  586TIP3   OH2 1763   5.140   2.312   1.928  0.1780  0.3561  0.0183
  586TIP3    H1 1764   5.173   2.324   1.839  0.1852 -0.3001 -0.0746
  586TIP3    H2 1765   5.200   2.248   1.967 -1.3983 -1.4985 -0.4219
  587TIP3   OH2 1766   2.240   5.134   3.372 -0.1065 -0.8610 -0.6019
  587TIP3    H1 1767   2.210   5.196   3.438 -0.2770 -0.6011 -0.9239
  587TIP3    H2 1768   2.194   5.159   3.292  0.7566 -0.6311 -1.0336
  588TIP3   OH2 1769   5.478   2.703   1.265 -0.0424  0.2207  0.0879
  588TIP3    H1 1770   5.526   2.757   1.327  0.0378  1.2137 -0.8127
  588TIP3    H2 1771   5.465   2.759   1.188  0.0970 -1.0459 -0.9041
  589TIP3   OH2 1772   2.173   5.502   3.818  0.1192  0.1582 -0.0654
  589TIP3    H1 1773   2.093   5.532   3.860 -0.2238 -0.5403 -0.2040
  589TIP3    H2 1774   2.205   5.578   3.769 -1.1688  0.0770 -1.0797
  590TIP3   OH2 1775   5.824   0.445   2.879 -0.1709 -0.0992  0.4439
  590TIP3    H1 1776   5.827   0.382   2.951 -0.1954 -0.0920  0.4509
  590TIP3    H2 1777   5.737   0.434   2.840  0.3561 -1.1414 -0.5085
  591TIP3   OH2 1778   4.279   4.327   4.559  0.6255 -0.5029  0.7574
  591TIP3    H1 1779   4.185   4.322   4.580  0.5246 -0.0546  0.4018
  591TIP3    H2 1780   4.295   4.419   4.539  1.0422 -0.6671  0.3272
  592TIP3   OH2 1781   1.543   3.879   0.461 -0.3295 -0.4212 -0.1297
  592TIP3    H1 1782   1.517   3.816   0.528 -1.3354  0.3435  0.2084
  592TIP3    H2 1783   1.623   3.920   0.496  1.5013 -2.8091 -1.2012
  593TIP3   OH2 1784   3.288   0.680   5.087  0.4234  0.5344  0.1694
  593TIP3    H1 1785   3.330   0.594   5.081 -0.5618  0.0316  0.2032
  593TIP3    H2 1786   3.251   0.694   5.000  0.4230  0.8438  0.2186
  594TIP3   OH2 1787   5.921   4.227   0.988 -0.2247 -0.1564  0.1447
  594TIP3    H1 1788   5.975   4.281   1.046 -0.4567 -2.0489  2.2652
  594TIP3    H2 1789   5.975   4.214   0.910  0.8153  1.0579  0.6240
  595TIP3   OH2 1790   4.361   5.836   1.944  0.4485  0.1064 -0.6445
  595TIP3    H1 1791   4.447   5.864   1.913 -0.1905  1.8531 -0.9515
  595TIP3    H2 1792   4.313   5.918   1.960 -1.4846 -0.7964 -1.4042
  596TIP3   OH2 1793   1.813   5.471   2.439  0.0248  0.1517  0.0809
  596TIP3    H1 1794   1.850   5.387   2.467  1.1065  0.1126 -1.3481
  596TIP3    H2 1795   1.795   5.517   2.521  1.5654 -0.5661  0.8727
  597TIP3   OH2 1796   5.507   0.119   1.065 -0.2653  0.2880  0.1604
  597TIP3    H1 1797   5.566   0.187   1.098  1.5218 -1.0687 -0.0440
  597TIP3    H2 1798   5.456   0.162   0.997  0.5795  1.5188  0.2723
  598TIP3   OH2 1799   3.073   5.018   1.723 -0.4544 -0.8155 -0.2335
  598TIP3    H1 1800   3.015   4.993   1.795  0.2887 -0.3332  0.5349
  598TIP3    H2 1801   3.097   5.108   1.741 -1.0465 -0.3450 -1.6273
  599TIP3   OH2 1802   4.123   3.475   4.132 -0.2398  0.4890 -0.4565
  599TIP3    H1 1803   4.116   3.561   4.092 -2.2024  0.1558 -0.9700
  599TIP3    H2 1804   4.065   3.480   4.208 -0.8263 -0.5314 -0.8153
  600TIP3   OH2 1805   4.589   1.982   3.919  0.0540 -0.3913  0.1552
  600TIP3    H1 1806   4.585   2.060   3.863 -0.8143 -1.2139 -0.9819
  600TIP3    H2 1807   4.666   1.935   3.888  1.3490  0.5988  1.7070
  601TIP3   OH2 1808   2.114   1.129   3.163  0.2434 -0.0128  0.0026
  601TIP3    H1 1809   2.194   1.115   3.214 -0.2324  0.4432  0.8970
  601TIP3    H2 1810   2.057   1.179   3.221 -0.7378 -0.4217 -0.5899
  602TIP3   OH2 1811   1.374   3.328   1.342 -0.4107 -0.1476  0.1334
  602TIP3    H1 1812   1.342   3.316   1.253  0.2091 -0.2614 -0.0777
  602TIP3    H2 1813   1.402   3.420   1.345 -1.9534  0.3521  0.7174
  603TIP3   OH2 1814   1.854   5.941   2.626  0.1593  0.8268  0.6467
  603TIP3    H1 1815   1.797   5.979   2.693 -0.1383  0.8685  0.3735
  603TIP3    H2 1816   1.894   6.017   2.583 -1.1241  0.8913 -0.4997
  604TIP3   OH2 1817   5.784   4.126   1.303 -0.1699 -0.8653  0.0255
  604TIP3    H1 1818   5.758   4.035   1.316 -1.8044 -0.2667  1.2829
  604TIP3    H2 1819   5.838   4.125   1.224 -0.0016 -2.9396  0.1313
  605TIP3   OH2 1820   5.903   2.323   4.345  0.2153  1.4120  0.4562
  605TIP3    H1 1821   5.938   2.407   4.374 -0.1599  2.2775 -1.4809
  605TIP3    H2 1822   5.872   2.339   4.256  0.6779 -0.9314 -0.1944
  606TIP3   OH2 1823   2.907   2.712   4.687  0.3351 -0.2741  0.1883
  606TIP3    H1 1824   2.857   2.772   4.743  1.0694  0.2598  0.2886
  606TIP3    H2 1825   2.847   2.640   4.669 -0.0804 -0.2149  1.2571
  607TIP3   OH2 1826   5.742   0.545   4.726  0.1559 -0.1235 -0.9620
  607TIP3    H1 1827   5.762   0.520   4.816  0.9070  0.3764 -0.9788
  607TIP3    H2 1828   5.729   0.462   4.680 -0.0658 -0.3849 -0.4267
  608TIP3   OH2 1829   3.776   2.994   2.015 -0.1643 -0.3129 -0.1919
  608TIP3    H1 1830   3.709   2.933   2.045  1.0047 -1.2565  0.5644
  608TIP3    H2 1831   3.796   3.047   2.092  0.7361 -0.7725 -0.1033
  609TIP3   OH2 1832   4.027   4.037   4.405  0.0021 -0.4972 -0.0234
  609TIP3    H1 1833   4.121   4.039   4.389  0.1422 -2.0895  0.4558
  609TIP3    H2 1834   3.996   4.123   4.375  1.3443 -0.5426 -1.7142
  610TIP3   OH2 1835   1.875   3.780   4.233  0.0166  0.1871  0.1981
  610TIP3    H1 1836   1.823   3.861   4.225  0.1731  0.4677  1.7130
  610TIP3    H2 1837   1.905   3.780   4.324  1.1471 -0.9103 -0.1496
  611TIP3   OH2 1838   4.272   5.607   0.173 -0.0469 -0.6966 -0.4361
  611TIP3    H1 1839   4.305   5.678   0.227 -1.3706  0.8509 -1.5636
  611TIP3    H2 1840   4.326   5.608   0.095  0.8738 -1.9330  0.1464
  612TIP3   OH2 1841   4.304   4.911   2.530 -0.0284  0.5766  0.1146
  612TIP3    H1 1842   4.287   4.827   2.487  2.0632  1.8626 -3.8183
  612TIP3    H2 1843   4.219   4.953   2.534 -0.5296 -0.0681 -2.0593
  613TIP3   OH2 1844   5.104   1.422   2.449  0.0892 -1.2150 -0.2792
  613TIP3    H1 1845   5.183   1.474   2.432 -0.4734 -0.8683 -1.9763
  613TIP3    H2 1846   5.087   1.434   2.542  3.1967 -2.9539  0.6545
  614TIP3   OH2 1847   2.541   5.633   3.177 -0.1581 -0.3159 -0.1799
  614TIP3    H1 1848   2.612   5.595   3.125 -0.0774  0.4475 -0.6386
  614TIP3    H2 1849   2.461   5.605   3.133 -0.1298 -0.6456 -0.0286
  615TIP3   OH2 1850   5.462   4.027   1.261  0.5984  0.0774 -0.3513
  615TIP3    H1 1851   5.547   3.982   1.258 -0.2918 -2.0478  2.2537
  615TIP3    H2 1852   5.425   4.014   1.174  1.7484 -1.4816 -0.6507
  616TIP3   OH2 1853   4.932   3.524   2.344  0.2063  0.6798 -0.4159
  616TIP3    H1 1854   4.841   3.525   2.372  0.5184  1.1699  0.6160
  616TIP3    H2 1855   4.967   3.442   2.379  0.6053  1.3068  0.6760
  617TIP3   OH2 1856   0.674   4.647   0.558 -0.1997  0.4144 -0.3674
  617TIP3    H1 1857   0.769   4.662   0.550 -0.0282 -0.1812  0.4475
  617TIP3    H2 1858   0.635   4.725   0.518  0.6465  1.1387  0.1554
  618TIP3   OH2 1859   3.152   0.323   1.715  0.3754 -0.0718  0.1728
  618TIP3    H1 1860   3.164   0.364   1.630  0.1239  1.7518  0.9866
  618TIP3    H2 1861   3.236   0.281   1.734  0.3280 -0.7656 -1.0926
  619TIP3   OH2 1862   6.011   5.064   4.624  0.5669  0.9808 -0.0583
  619TIP3    H1 1863   6.068   5.067   4.701 -0.6880  0.6316  0.9375
  619TIP3    H2 1864   5.922   5.064   4.661 -0.0811  1.4294 -1.5397
  620TIP3   OH2 1865   6.054   0.880   5.100  0.1665 -0.0249  0.1862
  620TIP3    H1 1866   5.990   0.890   5.171 -0.3371 -1.4416 -0.0362
  620TIP3    H2 1867   6.004   0.898   5.020 -0.6688 -3.3012 -0.1956
  621TIP3   OH2 1868   5.901   0.192   0.506  0.2682  0.0138  0.1766
  621TIP3    H1 1869   5.896   0.149   0.591 -1.0454  0.7746  0.5052
  621TIP3    H2 1870   5.811   0.197   0.476  0.7145 -0.2948 -1.3007
  622TIP3   OH2 1871   2.522   4.006   0.584  0.1985 -0.1424 -0.2422
  622TIP3    H1 1872   2.559   4.091   0.559  1.4314 -0.6069 -0.0517
  622TIP3    H2 1873   2.489   3.969   0.502 -3.7254  2.0122  0.1205
  623TIP3   OH2 1874   6.292   5.611   1.913 -0.1904 -0.0560  0.2225
  623TIP3    H1 1875   6.353   5.652   1.852  0.5434 -0.2967  0.7907
  623TIP3    H2 1876   6.302   5.661   1.994 -0.0287 -0.7146  0.6124
  624TIP3   OH2 1877   2.981   5.778   4.309 -0.1173  0.2083  1.0456
  624TIP3    H1 1878   3.008   5.688   4.323 -0.8399 -0.2104 -0.0447
  624TIP3    H2 1879   3.046   5.814   4.248 -1.1198 -0.3621 -0.4467
  625TIP3   OH2 1880  -0.009   1.395   2.150  0.2313 -0.0480  0.5039
  625TIP3    H1 1881   0.042   1.468   2.115 -0.0264  0.2705  0.7805
  625TIP3    H2 1882   0.050   1.350   2.211  0.8540 -0.9085 -0.6910
  626TIP3   OH2 1883   6.158   3.998   3.215  0.0185 -0.0050 -0.0628
  626TIP3    H1 1884   6.103   4.070   3.245 -1.3715 -0.3414 -1.6748
  626TIP3    H2 1885   6.104   3.920   3.227  1.5025 -0.8533  1.6651
  627TIP3   OH2 1886   2.354   0.247   1.951  0.0049 -0.1682 -0.1963
  627TIP3    H1 1887   2.319   0.206   1.872 -0.7308 -1.7623  0.9122
  627TIP3    H2 1888   2.447   0.224   1.951 -0.0600 -0.4384 -0.4347
  628TIP3   OH2 1889   1.501   1.816   3.376 -0.0614  0.2484 -0.0916
  628TIP3    H1 1890   1.411   1.790   3.362  0.0322 -1.8328  2.4417
  628TIP3    H2 1891   1.548   1.784   3.299 -0.7890 -2.9459  0.6464
  629TIP3   OH2 1892   5.062   3.133   0.959  0.0931 -0.0353 -0.6678
  629TIP3    H1 1893   5.155   3.130   0.941  0.0348  3.0433 -2.1575
  629TIP3    H2 1894   5.054   3.185   1.039 -0.3485  1.5354 -1.6797
  630TIP3   OH2 1895   4.913   0.734   2.289  0.7025  0.0960  0.0676
  630TIP3    H1 1896   4.883   0.817   2.325 -0.0625  0.9184 -2.2881
  630TIP3    H2 1897   4.857   0.719   2.213  2.3637 -1.4099 -0.9311
  631TIP3   OH2 1898   1.662   1.688   2.465  0.1378  0.4311 -0.3411
  631TIP3    H1 1899   1.709   1.769   2.485  0.2445  0.3419 -0.2249
  631TIP3    H2 1900   1.730   1.628   2.436 -0.1728  0.9736 -2.3371
  632TIP3   OH2 1901   1.011   4.133   4.164 -0.2203  0.1498  0.0493
  632TIP3    H1 1902   1.076   4.082   4.211  1.3837  1.7884 -0.2821
  632TIP3    H2 1903   0.983   4.200   4.226 -0.1538  0.6268 -0.4308
  633TIP3   OH2 1904   4.874   3.179   3.163 -0.4388 -0.1977  0.1816
  633TIP3    H1 1905   4.933   3.209   3.232 -0.2600  1.5207 -0.6479
  633TIP3    H2 1906   4.912   3.096   3.132  0.1521 -0.3527  1.2987
  634TIP3   OH2 1907   4.286   5.035   2.043  0.3069 -0.0460 -0.2875
  634TIP3    H1 1908   4.328   5.075   1.967 -0.4530 -0.4735 -0.9337
  634TIP3    H2 1909   4.211   4.988   2.008  0.1765 -0.5850  0.6785
  635TIP3   OH2 1910   0.523   2.878   0.491  0.1055  0.1767  0.4843
  635TIP3    H1 1911   0.561   2.808   0.544  0.4274  0.6552  0.8986
  635TIP3    H2 1912   0.553   2.959   0.533  1.4224  0.5835 -1.1638
  636TIP3   OH2 1913   1.436   4.690   3.255  0.0235 -0.1238 -0.1133
  636TIP3    H1 1914   1.357   4.693   3.309  0.6569 -0.3639  0.8453
  636TIP3    H2 1915   1.406   4.654   3.172 -1.2434  1.5178 -0.4332
  637TIP3   OH2 1916   4.792   4.481   2.270  0.3435 -0.3625 -0.3582
  637TIP3    H1 1917   4.824   4.499   2.359  1.4067  0.1495 -0.8254
  637TIP3    H2 1918   4.730   4.552   2.253 -2.3038 -2.1648  1.1059
  638TIP3   OH2 1919   2.618   2.980   3.787  0.7276  0.3345 -0.2274
  638TIP3    H1 1920   2.685   2.919   3.819 -0.2859 -0.1909  1.0110
  638TIP3    H2 1921   2.587   2.941   3.706  0.6678 -0.3858  0.1302
  639TIP3   OH2 1922   2.827   2.598   0.726  0.0947  0.2809  0.1230
  639TIP3    H1 1923   2.735   2.621   0.739 -0.2999 -0.8941 -0.4390
  639TIP3    H2 1924   2.861   2.667   0.669 -0.6149  0.3878 -0.1892
  640TIP3   OH2 1925   0.730   0.628   5.097  0.5261  0.1904 -0.0364
  640TIP3    H1 1926   0.821   0.656   5.104 -0.1178  2.5153 -0.0795
  640TIP3    H2 1927   0.694   0.642   5.184  0.1546 -0.6190 -0.0486
  641TIP3   OH2 1928   6.018   3.208   0.935 -0.2672 -0.3268 -0.8351
  641TIP3    H1 1929   6.000   3.284   0.990 -0.8692 -0.9908 -0.0893
  641TIP3    H2 1930   6.107   3.221   0.904 -0.6404  1.0883 -1.3956
  642TIP3   OH2 1931   4.922   5.496   2.069 -0.4712  0.3939  0.0861
  642TIP3    H1 1932   4.940   5.405   2.047 -1.1813  0.3411 -0.3154
  642TIP3    H2 1933   5.000   5.544   2.044 -0.5428  0.0597 -0.7861
  643TIP3   OH2 1934   1.728   5.986   1.156 -0.0131  0.1596 -0.2646
  643TIP3    H1 1935   1.695   6.019   1.240  2.0323  0.4280  0.4995
  643TIP3    H2 1936   1.655   5.938   1.118 -1.5009  1.4159  0.9092
  644TIP3   OH2 1937   4.691   0.332   4.959  0.3567  0.8199 -0.1372
  644TIP3    H1 1938   4.614   0.297   5.005  1.0736 -1.5777 -0.6139
  644TIP3    H2 1939   4.674   0.313   4.867  2.5439 -2.1452 -0.0670
  645TIP3   OH2 1940   5.883   2.198   4.591 -0.3997  0.0114  0.5760
  645TIP3    H1 1941   5.972   2.211   4.624 -0.3704 -0.6208  0.7672
  645TIP3    H2 1942   5.877   2.257   4.515 -0.1231  0.7126  1.0863
  646TIP3   OH2 1943   5.939   4.500   0.384 -0.5186 -0.0484  0.0707
  646TIP3    H1 1944   6.022   4.461   0.360 -0.4721  0.2635 -0.2743
  646TIP3    H2 1945   5.930   4.576   0.327 -1.0065 -0.0394  0.1528
  647TIP3   OH2 1946   3.626   4.386   4.371  0.2457 -0.1878  0.0980
  647TIP3    H1 1947   3.718   4.374   4.348  0.0855 -1.7339  0.1825
  647TIP3    H2 1948   3.609   4.320   4.438 -0.2598  1.7852  2.0347
  648TIP3   OH2 1949   0.682   3.552   2.218 -0.0260  0.1241 -0.0830
  648TIP3    H1 1950   0.677   3.488   2.289  0.4072 -0.7895 -0.8620
  648TIP3    H2 1951   0.636   3.511   2.145 -0.2248  0.9400 -0.4266
  649TIP3   OH2 1952   2.094   0.789   3.740 -0.5440 -0.0093  0.5294
  649TIP3    H1 1953   2.047   0.867   3.769 -2.2155 -0.8261  0.1576
  649TIP3    H2 1954   2.082   0.786   3.645 -0.2037 -0.5356  0.4936
  650TIP3   OH2 1955   0.943   0.026   1.043  0.1058  0.3214  0.0588
  650TIP3    H1 1956   0.883   0.043   0.970 -1.2270 -0.3184  0.9613
  650TIP3    H2 1957   0.966   0.113   1.076 -0.9236  0.5701  0.1565
  651TIP3   OH2 1958   3.328   1.314   5.011  0.1538 -0.5479  0.6675
  651TIP3    H1 1959   3.289   1.330   5.097 -0.1624 -1.7037  0.7532
  651TIP3    H2 1960   3.416   1.283   5.030  0.6081  0.6107  0.5174
  652TIP3   OH2 1961   1.054   2.239   4.386  0.2042  0.1727  0.3627
  652TIP3    H1 1962   0.990   2.186   4.338  0.1836  2.0812 -1.8924
  652TIP3    H2 1963   1.004   2.314   4.419  0.5848 -0.2300  1.9466
  653TIP3   OH2 1964   4.198   1.859   2.286 -1.0171  0.1553 -0.2832
  653TIP3    H1 1965   4.261   1.893   2.350  0.5844  0.5001 -1.9551
  653TIP3    H2 1966   4.187   1.768   2.311 -0.2842  0.2309  0.3881
  654TIP3   OH2 1967   1.584   2.765   4.684 -0.1112 -0.0043  0.5309
  654TIP3    H1 1968   1.586   2.861   4.681  1.5070 -0.0147 -0.0240
  654TIP3    H2 1969   1.568   2.739   4.593  0.2139 -0.2446  0.5385
  655TIP3   OH2 1970   4.641   5.800   0.801 -0.0610 -0.1210  0.2068
  655TIP3    H1 1971   4.713   5.786   0.862  0.3041 -1.2241 -0.4410
  655TIP3    H2 1972   4.683   5.824   0.719 -0.4064 -0.7677 -0.1752
  656TIP3   OH2 1973   3.683   2.347   5.162 -0.4591  0.0637 -0.4999
  656TIP3    H1 1974   3.600   2.393   5.176 -0.6220 -0.9559  2.6015
  656TIP3    H2 1975   3.661   2.276   5.102 -1.9783 -0.4370  0.5988
  657TIP3   OH2 1976   5.815   5.541   2.445 -0.1100 -0.1225  0.0167
  657TIP3    H1 1977   5.890   5.588   2.481  0.0615 -0.5439  0.2113
  657TIP3    H2 1978   5.766   5.608   2.396  1.3174 -0.1868 -1.5848
  658TIP3   OH2 1979   2.386   1.275   4.067 -0.3736  0.3646  0.7337
  658TIP3    H1 1980   2.431   1.356   4.089 -1.2370  0.9946  0.2425
  658TIP3    H2 1981   2.422   1.250   3.982 -1.7235  1.4915 -0.2150
  659TIP3   OH2 1982   3.607   4.344   1.047 -0.2362 -0.3193  0.5454
  659TIP3    H1 1983   3.592   4.393   0.967 -1.7575 -0.2542  0.8412
  659TIP3    H2 1984   3.699   4.357   1.067 -0.1318  0.6798 -0.5212
  660TIP3   OH2 1985   5.129   1.144   4.470 -0.5146 -0.2266  0.2453
  660TIP3    H1 1986   5.105   1.163   4.561  0.4370 -0.8752  0.6461
  660TIP3    H2 1987   5.213   1.099   4.476  0.1977  0.8620 -1.0485
  661TIP3   OH2 1988   5.201   0.309   1.883  0.1017  0.0971  0.1349
  661TIP3    H1 1989   5.287   0.347   1.863 -0.3357  1.0421 -0.0342
  661TIP3    H2 1990   5.200   0.300   1.978 -0.3611  2.0001  0.3402
  662TIP3   OH2 1991   5.025   5.184   4.164  0.4765 -0.2808 -0.1881
  662TIP3    H1 1992   4.968   5.113   4.136 -0.7536  1.2473 -1.7830
  662TIP3    H2 1993   5.113   5.146   4.164 -0.2795 -2.1272  0.3261
  663TIP3   OH2 1994   1.655   5.433   2.930  0.0652  0.2507 -0.1566
  663TIP3    H1 1995   1.625   5.487   2.857  1.4780  0.4656 -0.6159
  663TIP3    H2 1996   1.657   5.344   2.894  1.9575  0.5102 -0.8460
  664TIP3   OH2 1997   0.421   1.804   0.220 -0.0665 -0.6513  0.5465
  664TIP3    H1 1998   0.491   1.840   0.275  0.5809 -0.0065 -0.6502
  664TIP3    H2 1999   0.438   1.710   0.219  0.1032 -0.6346  1.1724
  665TIP3   OH2 2000   1.046   3.654   3.122 -0.1656 -0.5959 -0.6314
  665TIP3    H1 2001   0.984   3.698   3.064 -0.9629 -0.9688 -0.0812
  665TIP3    H2 2002   1.131   3.688   3.096 -0.8122  2.3437  0.6886
  666TIP3   OH2 2003   3.159   3.782   2.436 -0.0491  0.1079  0.0821
  666TIP3    H1 2004   3.232   3.839   2.410 -0.4368  0.4023 -0.3822
  666TIP3    H2 2005   3.173   3.701   2.387 -0.7281  0.6275 -1.0345
  667TIP3   OH2 2006   1.768   2.720   0.297 -0.0203 -0.4826 -0.2183
  667TIP3    H1 2007   1.724   2.647   0.254  0.6764  0.1058 -1.9965
  667TIP3    H2 2008   1.706   2.749   0.364 -2.6232  0.5505 -2.8649
  668TIP3   OH2 2009   5.578   0.754   2.435 -0.1372 -0.0938 -0.3622
  668TIP3    H1 2010   5.633   0.679   2.414 -0.0792  0.3053 -1.7724
  668TIP3    H2 2011   5.600   0.776   2.525  0.2212 -1.4443 -0.1046
  669TIP3   OH2 2012   0.109   2.406   4.259  0.4295 -0.0233  0.3087
  669TIP3    H1 2013   0.028   2.362   4.233  0.6431 -0.4613  0.3740
  669TIP3    H2 2014   0.081   2.493   4.286  0.1513  0.3286 -1.0309
  670TIP3   OH2 2015   1.459   4.736   0.668 -0.0217 -0.0936  0.2022
  670TIP3    H1 2016   1.479   4.745   0.761  0.3017 -1.1785  0.2491
  670TIP3    H2 2017   1.370   4.700   0.665 -0.0339 -0.0575  0.0891
  671TIP3   OH2 2018   2.146   2.892   1.426 -0.0270 -0.0635  0.1561
  671TIP3    H1 2019   2.191   2.866   1.346  0.2768  1.0631 -0.0447
  671TIP3    H2 2020   2.154   2.816   1.484  0.2726 -0.6587 -0.6549
  672TIP3   OH2 2021   2.616   5.343   3.270 -0.2590 -0.0214 -0.0805
  672TIP3    H1 2022   2.707   5.343   3.241 -0.4255 -0.4921 -0.6379
  672TIP3    H2 2023   2.565   5.345   3.189 -0.7454  0.4714  0.2323
  673TIP3   OH2 2024   6.312   4.284   2.594  0.2080  0.0017  0.5113
  673TIP3    H1 2025   6.318   4.189   2.588 -1.3648 -0.1394  0.7536
  673TIP3    H2 2026   6.393   4.311   2.639  1.0277 -1.1244 -0.2429
  674TIP3   OH2 2027   1.420   0.600   3.038  0.0116  0.6555 -0.3369
  674TIP3    H1 2028   1.471   0.681   3.042  1.0577  0.0552 -1.1819
  674TIP3    H2 2029   1.417   0.568   3.128  0.1071  1.3126 -0.0993
  675TIP3   OH2 2030   2.454   2.677   1.037 -0.0593 -0.1154 -0.1431
  675TIP3    H1 2031   2.371   2.720   1.015  0.4472  0.2199 -1.4945
  675TIP3    H2 2032   2.428   2.591   1.070 -0.9435 -0.3193 -1.2893
  676TIP3   OH2 2033   0.045   3.830   0.196 -0.0741  0.0081 -0.3710
  676TIP3    H1 2034   0.035   3.752   0.142  0.3223 -0.1863 -0.1660
  676TIP3    H2 2035   0.052   3.797   0.286  1.0573  0.2061 -0.3661
  677TIP3   OH2 2036   0.556   3.269   4.688 -0.2139  0.0724 -0.0420
  677TIP3    H1 2037   0.588   3.355   4.661 -0.2206 -0.3568 -1.4873
  677TIP3    H2 2038   0.632   3.227   4.729 -0.4482  1.0683  1.5111
  678TIP3   OH2 2039   4.520   1.497   4.762  0.3341 -0.4607  1.1891
  678TIP3    H1 2040   4.607   1.484   4.724 -0.2339  0.4538 -0.5317
  678TIP3    H2 2041   4.498   1.588   4.741 -2.9196 -1.8432 -2.6585
  679TIP3   OH2 2042   4.475   3.213   1.655 -0.6468 -0.6904  0.5538
  679TIP3    H1 2043   4.409   3.161   1.610 -0.4809 -0.4502  0.0176
  679TIP3    H2 2044   4.531   3.149   1.699 -2.2221 -0.8444  2.4783
  680TIP3   OH2 2045   2.478   4.594   2.726  0.1545 -0.1651  0.2434
  680TIP3    H1 2046   2.409   4.630   2.781  1.8815 -1.1517  3.2544
  680TIP3    H2 2047   2.440   4.594   2.638 -2.5335  2.0773  1.2447
  681TIP3   OH2 2048   2.811   4.821   1.896  0.6533 -0.3194 -0.5351
  681TIP3    H1 2049   2.833   4.813   1.989 -0.4099  1.8180 -0.0154
  681TIP3    H2 2050   2.870   4.761   1.852  0.7910 -1.8516  1.5567
  682TIP3   OH2 2051   2.607   4.118   1.168  0.5094  0.3838  0.2430
  682TIP3    H1 2052   2.647   4.031   1.162  0.2767  0.2325  0.7892
  682TIP3    H2 2053   2.520   4.106   1.131  0.6651  0.5111 -0.1668
  683TIP3   OH2 2054   5.869   4.038   0.145  0.0401  0.2125  0.8388
  683TIP3    H1 2055   5.828   3.980   0.081  0.9896 -0.1923  0.5760
  683TIP3    H2 2056   5.901   3.979   0.213  0.2806  0.5014  0.9787
  684TIP3   OH2 2057   4.386   1.174   3.470 -0.1907 -0.1277 -0.6305
  684TIP3    H1 2058   4.333   1.097   3.490  2.1057 -2.6314 -3.2638
  684TIP3    H2 2059   4.454   1.175   3.537  1.1078 -1.9004 -1.8328
  685TIP3   OH2 2060   1.510   3.064   4.008 -0.2703  0.1328 -0.7006
  685TIP3    H1 2061   1.499   3.125   3.934 -1.6943  0.0999 -0.5432
  685TIP3    H2 2062   1.431   3.076   4.060  0.1988 -0.6799  0.2210
  686TIP3   OH2 2063   0.700   0.722   0.190 -0.1936 -0.6441  0.2373
  686TIP3    H1 2064   0.626   0.671   0.156  1.2985 -2.2805 -0.6900
  686TIP3    H2 2065   0.764   0.721   0.119  1.3520 -0.6130  1.5913
  687TIP3   OH2 2066   2.982   5.158   1.256 -0.3269  0.5887  0.1824
  687TIP3    H1 2067   3.000   5.080   1.309  1.3036  1.7651  1.4661
  687TIP3    H2 2068   2.966   5.227   1.320 -2.8670  1.1288 -0.9338
  688TIP3   OH2 2069   5.605   1.546   4.196 -0.2155 -0.1848  0.3910
  688TIP3    H1 2070   5.648   1.492   4.263 -1.8149 -0.4242  1.2721
  688TIP3    H2 2071   5.655   1.628   4.196 -0.2869 -0.1063  2.0474
  689TIP3   OH2 2072   0.696   2.634   1.309 -0.0399  0.0606  0.3916
  689TIP3    H1 2073   0.618   2.610   1.360 -0.4809  1.0837  0.2227
  689TIP3    H2 2074   0.683   2.591   1.225  1.6418 -3.3140  1.6931
  690TIP3   OH2 2075   5.677   3.806   4.554 -0.0841 -0.0352 -0.6389
  690TIP3    H1 2076   5.751   3.861   4.578  0.3257 -0.9592  0.3364
  690TIP3    H2 2077   5.637   3.850   4.480 -0.1039  1.8569  0.4304
  691TIP3   OH2 2078   4.529   3.317   3.334  0.2036  0.0039 -0.9306
  691TIP3    H1 2079   4.537   3.246   3.270 -1.2027 -0.2380 -0.8636
  691TIP3    H2 2080   4.509   3.394   3.282  4.0447  0.9988 -1.2847
  692TIP3   OH2 2081   0.416   3.616   2.644  0.1523  0.5250  0.0375
  692TIP3    H1 2082   0.371   3.570   2.574 -0.0804  0.4796  0.2159
  692TIP3    H2 2083   0.472   3.549   2.684 -0.1607  0.4010  0.2752
  693TIP3   OH2 2084   3.295   5.854   3.167 -0.3118 -0.6550 -0.4751
  693TIP3    H1 2085   3.202   5.871   3.177 -0.5883 -1.7277 -1.0497
  693TIP3    H2 2086   3.331   5.862   3.256 -0.4558  2.2719 -0.5840
  694TIP3   OH2 2087   5.790   4.585   3.945 -0.1115  0.5040 -0.7226
  694TIP3    H1 2088   5.857   4.523   3.918  0.1490  0.7022 -0.5404
  694TIP3    H2 2089   5.807   4.600   4.038 -1.4760 -0.7610 -0.2340
  695TIP3   OH2 2090   4.077   1.482   3.968 -0.4779  0.3936 -0.1849
  695TIP3    H1 2091   4.170   1.500   3.950 -0.2205 -0.8364 -0.1543
  695TIP3    H2 2092   4.036   1.480   3.882 -0.1139 -0.9174 -0.3428
  696TIP3   OH2 2093   2.188   0.097   4.248 -0.7291 -0.2240 -0.8174
  696TIP3    H1 2094   2.195   0.031   4.318 -2.1415  1.6757  1.2529
  696TIP3    H2 2095   2.095   0.119   4.245 -0.2193  2.2035 -0.8884
  697TIP3   OH2 2096   1.810   2.132   1.240 -0.3056  0.3589 -0.6675
  697TIP3    H1 2097   1.836   2.152   1.150 -0.3907 -0.0743 -0.7915
  697TIP3    H2 2098   1.758   2.207   1.268  0.9074  1.1656 -0.4765
  698TIP3   OH2 2099   0.347   3.701   0.997  0.2131 -0.0035 -0.2163
  698TIP3    H1 2100   0.415   3.710   1.063  0.9848  1.5241 -1.1787
  698TIP3    H2 2101   0.382   3.636   0.935  0.3566  0.0416 -0.1821
  699TIP3   OH2 2102   0.783   4.354   4.039  0.7068  0.3536  0.3786
  699TIP3    H1 2103   0.698   4.351   3.994 -0.3402  0.0864  2.2913
  699TIP3    H2 2104   0.764   4.328   4.129  2.9816 -0.5377  0.6580
  700TIP3   OH2 2105   2.623   3.926   5.161 -0.4930  0.0042  0.2956
  700TIP3    H1 2106   2.580   3.877   5.231 -2.3206 -0.6956 -1.2313
  700TIP3    H2 2107   2.563   3.999   5.143  0.9727  1.3938  0.8196
  701TIP3   OH2 2108   0.097   4.833   0.119 -0.0988  0.3964  0.2957
  701TIP3    H1 2109   0.036   4.899   0.153  0.5676  0.2065  1.9221
  701TIP3    H2 2110   0.130   4.872   0.038 -0.9307  1.3427  0.3809
  702TIP3   OH2 2111   3.175   2.896   3.556 -1.0156 -0.0992  0.4962
  702TIP3    H1 2112   3.146   2.986   3.549 -0.6394  0.1637  1.8999
  702TIP3    H2 2113   3.262   2.902   3.596 -0.9067 -1.0633  0.4278
  703TIP3   OH2 2114   1.898   4.768   2.685  0.0624  0.0246  0.0749
  703TIP3    H1 2115   1.950   4.845   2.660  0.8832  0.0571  1.7352
  703TIP3    H2 2116   1.857   4.739   2.604 -0.3839  2.3030 -0.5941
  704TIP3   OH2 2117   3.524   4.852   2.375 -0.4197 -0.6707 -0.6912
  704TIP3    H1 2118   3.527   4.907   2.453 -0.0148  1.9452 -2.4233
  704TIP3    H2 2119   3.432   4.829   2.365 -0.5181 -0.7903  0.3588
  705TIP3   OH2 2120   1.503   4.107   0.695 -0.0267 -0.8589 -0.0466
  705TIP3    H1 2121   1.415   4.098   0.658  0.1153 -1.0260 -0.3467
  705TIP3    H2 2122   1.533   4.193   0.666 -0.5807 -0.2610  1.1074
  706TIP3   OH2 2123   1.363   3.588   4.032  0.1908  0.0975  0.0282
  706TIP3    H1 2124   1.394   3.644   4.103  1.2224 -0.8030  0.3109
  706TIP3    H2 2125   1.420   3.511   4.035  0.5780  0.2337 -2.0643
  707TIP3   OH2 2126   3.839   5.850   1.572 -0.1129 -0.0791  0.2759
  707TIP3    H1 2127   3.756   5.802   1.574 -0.6572  0.8049 -0.2407
  707TIP3    H2 2128   3.904   5.785   1.546 -0.7061 -0.7058  0.3264
  708TIP3   OH2 2129   3.611   4.593   0.375  0.2517  0.0807  0.3831
  708TIP3    H1 2130   3.622   4.573   0.282 -2.2800  0.6377 -0.1036
  708TIP3    H2 2131   3.618   4.508   0.419  1.3929 -0.1976 -0.3034
  709TIP3   OH2 2132   6.299   4.238   1.396  0.2476  0.0640  0.4815
  709TIP3    H1 2133   6.295   4.333   1.403  0.8461  0.2164 -0.8718
  709TIP3    H2 2134   6.218   4.207   1.436 -0.0416  1.1564  0.7704
  710TIP3   OH2 2135   2.928   5.523   3.629  0.7821 -0.0935  0.1630
  710TIP3    H1 2136   2.949   5.530   3.536 -1.8289  0.9578 -0.4404
  710TIP3    H2 2137   2.890   5.435   3.638 -0.8602  0.5395 -0.2552
  711TIP3   OH2 2138   3.847   5.422   1.632 -0.5994  0.6977  0.0023
  711TIP3    H1 2139   3.807   5.489   1.686 -2.6446  1.0747 -1.8612
  711TIP3    H2 2140   3.838   5.341   1.683  0.5218  1.5307  1.5993
  712TIP3   OH2 2141   4.089   1.302   3.542  0.3476 -0.1793  0.3313
  712TIP3    H1 2142   4.046   1.358   3.606 -1.6148 -1.0344 -0.1546
  712TIP3    H2 2143   4.118   1.226   3.592  0.4609 -0.0180  0.5111
  713TIP3   OH2 2144   4.803   1.196   3.871  0.3668 -0.2042 -0.3014
  713TIP3    H1 2145   4.771   1.107   3.854 -0.3961 -0.0635  0.3409
  713TIP3    H2 2146   4.852   1.219   3.792  1.0087 -1.3849 -0.2674
  714TIP3   OH2 2147   2.410   0.389   0.766  0.2340 -0.0820 -0.2747
  714TIP3    H1 2148   2.392   0.457   0.702  2.0299 -0.2837 -1.0506
  714TIP3    H2 2149   2.409   0.435   0.850 -0.7185  0.4574 -0.5612
  715TIP3   OH2 2150   2.240   1.908   2.014  0.3279 -0.1189  0.6152
  715TIP3    H1 2151   2.243   1.832   1.955  1.5977 -0.7912  1.5008
  715TIP3    H2 2152   2.327   1.912   2.052 -0.1059  1.0448  1.5384
  716TIP3   OH2 2153   1.846   0.587   4.360  0.1940 -0.9671 -0.8593
  716TIP3    H1 2154   1.883   0.526   4.425  1.1275 -1.5010 -1.8649
  716TIP3    H2 2155   1.835   0.669   4.409  1.9988 -0.9994 -0.2842
  717TIP3   OH2 2156   5.044   2.361   3.012  0.3970  0.6276  0.1229
  717TIP3    H1 2157   5.026   2.454   2.995  1.1680  0.7380 -0.1198
  717TIP3    H2 2158   5.139   2.357   3.024  0.8430 -0.5875 -2.8844
  718TIP3   OH2 2159   0.915   4.007   3.179 -0.2137  0.8158 -0.1009
  718TIP3    H1 2160   0.899   3.925   3.132  3.1804  0.3146 -0.6772
  718TIP3    H2 2161   0.972   3.982   3.252  0.1720  2.5504  0.2339
  719TIP3   OH2 2162   3.181   3.252   5.097 -0.9249 -0.1777 -0.7476
  719TIP3    H1 2163   3.151   3.228   5.185  2.4571 -1.1609  0.2606
  719TIP3    H2 2164   3.163   3.174   5.044 -2.6044  0.2721 -0.8920
  720TIP3   OH2 2165   3.818   4.438   4.083  0.0978 -0.4425 -0.7128
  720TIP3    H1 2166   3.843   4.370   4.145 -0.1514  0.5292  0.5076
  720TIP3    H2 2167   3.723   4.431   4.076  0.2472 -1.4760 -2.1449
  721TIP3   OH2 2168   1.704   3.324   1.490 -0.2555  0.0175 -0.5036
  721TIP3    H1 2169   1.649   3.386   1.441 -0.6273  0.5012  0.4922
  721TIP3    H2 2170   1.794   3.350   1.468 -0.3422 -1.5374 -3.0955
  722TIP3   OH2 2171   3.451   4.936   3.664  0.1280 -0.1235  0.5677
  722TIP3    H1 2172   3.373   4.982   3.632  1.4410  1.1938 -0.9291
  722TIP3    H2 2173   3.419   4.851   3.694 -1.8378  0.3035 -0.1948
  723TIP3   OH2 2174   1.113   5.639   4.779 -0.2875 -0.3029 -0.1381
  723TIP3    H1 2175   1.130   5.705   4.847 -0.4632 -1.0281  0.6179
  723TIP3    H2 2176   1.026   5.662   4.745  0.3914  0.9177 -1.1308
  724TIP3   OH2 2177   2.758   3.921   3.992  1.0866  0.7435  0.0930
  724TIP3    H1 2178   2.777   3.971   4.071  0.1933  1.5533 -0.1908
  724TIP3    H2 2179   2.667   3.943   3.970  0.2794 -1.8189  0.5565
  725TIP3   OH2 2180   5.120   1.907   4.124  0.0565 -0.2264  0.6572
  725TIP3    H1 2181   5.143   1.963   4.050 -0.7675 -1.0418 -0.2462
  725TIP3    H2 2182   5.026   1.894   4.115  0.1984 -1.5757  0.9718
  726TIP3   OH2 2183   3.938   5.644   1.408  0.2067 -0.2984  0.0498
  726TIP3    H1 2184   3.984   5.592   1.342 -0.6445  0.0096 -0.7993
  726TIP3    H2 2185   3.912   5.580   1.475 -1.1788 -1.0810 -1.1727
  727TIP3   OH2 2186   3.935   5.126   4.398 -0.1117 -0.1160 -0.2480
  727TIP3    H1 2187   4.028   5.131   4.424 -0.0955 -2.7482  0.5167
  727TIP3    H2 2188   3.933   5.061   4.328 -1.1456  1.6421 -1.9494
  728TIP3   OH2 2189   0.964   4.451   2.433  0.3982  0.3787 -0.3191
  728TIP3    H1 2190   0.974   4.513   2.504  0.5891 -1.0409  0.9516
  728TIP3    H2 2191   1.027   4.480   2.367  0.9260  1.1576  0.5035
  729TIP3   OH2 2192   0.391   2.611   0.350  0.0366  0.1676  0.1950
  729TIP3    H1 2193   0.444   2.674   0.300  0.3850  1.8203  2.4726
  729TIP3    H2 2194   0.353   2.554   0.284  3.4054 -0.1479 -1.7066
  730TIP3   OH2 2195   4.835   1.258   1.232  0.3935  0.4256  0.1535
  730TIP3    H1 2196   4.747   1.220   1.237  0.8444 -0.5240  1.1443
  730TIP3    H2 2197   4.819   1.353   1.237 -0.7084  0.4044 -1.9940
  731TIP3   OH2 2198   3.050   0.582   1.431  0.3626  0.0204  0.2808
  731TIP3    H1 2199   2.979   0.520   1.451  0.3139  0.0428  0.1823
  731TIP3    H2 2200   3.013   0.639   1.364  0.8092 -0.6083 -0.5289
  732TIP3   OH2 2201   3.864   0.172   2.032 -0.4691  0.2150 -0.1155
  732TIP3    H1 2202   3.888   0.224   2.109  0.0563 -0.2911  0.0709
  732TIP3    H2 2203   3.813   0.099   2.067  1.3229 -1.0532  0.0180
  733TIP3   OH2 2204   1.441   4.285   2.663 -0.2238 -0.3610 -0.0237
  733TIP3    H1 2205   1.487   4.316   2.584  0.0622 -0.6531  0.0277
  733TIP3    H2 2206   1.431   4.363   2.717 -0.8979 -0.0439 -0.5775
  734TIP3   OH2 2207   2.231   5.357   2.476 -0.0556  0.7353  0.0473
  734TIP3    H1 2208   2.178   5.398   2.544 -2.3554  0.4973 -1.5264
  734TIP3    H2 2209   2.229   5.418   2.403  0.0370 -0.2416 -0.7977
  735TIP3   OH2 2210   1.926   1.289   3.314  0.0803  0.5908 -0.0289
  735TIP3    H1 2211   1.860   1.230   3.351  0.3329 -0.5938 -1.3660
  735TIP3    H2 2212   1.893   1.309   3.226  0.7111  1.3001 -0.1143
  736TIP3   OH2 2213   5.049   1.812   3.186 -0.2478  0.3988 -0.1510
  736TIP3    H1 2214   5.056   1.884   3.123  1.0192  1.8447  1.5468
  736TIP3    H2 2215   4.975   1.836   3.241  0.9735  1.1565  1.2405
  737TIP3   OH2 2216   6.305   5.001   0.535  0.2967  0.0511  0.3593
  737TIP3    H1 2217   6.370   5.067   0.510 -0.0831 -0.5696 -2.6295
  737TIP3    H2 2218   6.226   5.026   0.488 -1.1776 -0.2221  2.5162
  738TIP3   OH2 2219   6.013   0.744   1.612 -0.4034  0.2422  0.2487
  738TIP3    H1 2220   6.061   0.766   1.532 -2.1520 -0.9778 -1.2138
  738TIP3    H2 2221   6.065   0.674   1.652 -0.7439 -0.8463 -1.1438
  739TIP3   OH2 2222   1.532   1.826   1.147  0.3289  0.9865  0.1114
  739TIP3    H1 2223   1.598   1.793   1.208  0.5535  0.4543 -0.4190
  739TIP3    H2 2224   1.448   1.799   1.185  0.5265 -0.8032 -0.6534
  740TIP3   OH2 2225   5.388   1.568   3.662 -0.3065  0.6028 -0.4162
  740TIP3    H1 2226   5.441   1.631   3.612 -0.2312  1.0788  0.2522
  740TIP3    H2 2227   5.331   1.622   3.716  1.5194  0.2100  2.1138
  741TIP3   OH2 2228   4.136   0.472   2.684 -0.0156 -0.6445 -0.4708
  741TIP3    H1 2229   4.106   0.560   2.705 -1.0212 -1.0437 -0.1776
  741TIP3    H2 2230   4.229   0.482   2.663 -0.2803  0.5786 -1.1045
  742TIP3   OH2 2231   0.172   0.801   1.940 -0.1976 -0.5032  0.1183
  742TIP3    H1 2232   0.103   0.810   1.874 -1.5158 -0.4787  1.4606
  742TIP3    H2 2233   0.247   0.848   1.902 -0.9820 -0.3099 -1.2617
  743TIP3   OH2 2234   4.480   4.371   3.033 -0.4836  0.4046  0.3369
  743TIP3    H1 2235   4.475   4.346   3.125  0.3626 -0.1543  0.2452
  743TIP3    H2 2236   4.444   4.295   2.986 -0.1709  0.3543  0.1741
  744TIP3   OH2 2237   4.304   5.335   0.218 -0.2872 -0.4226  0.2687
  744TIP3    H1 2238   4.276   5.426   0.214  1.4328  0.1022 -2.6803
  744TIP3    H2 2239   4.297   5.312   0.310  0.3106  3.0422  1.3171
  745TIP3   OH2 2240   5.551   5.898   3.173  0.1399  0.3723 -0.0709
  745TIP3    H1 2241   5.474   5.925   3.223 -0.2388  0.1679 -0.5337
  745TIP3    H2 2242   5.621   5.956   3.202  0.1263 -0.2477  1.2662
  746TIP3   OH2 2243   5.502   1.866   1.637 -0.2733 -0.6752 -0.1594
  746TIP3    H1 2244   5.529   1.958   1.637 -0.1192 -0.7134  0.5593
  746TIP3    H2 2245   5.406   1.870   1.630 -0.1535 -0.5408 -2.5771
  747TIP3   OH2 2246   4.162   1.458   1.527  0.1033 -0.9358  0.3642
  747TIP3    H1 2247   4.112   1.534   1.497 -1.5466 -2.1380 -0.0776
  747TIP3    H2 2248   4.115   1.428   1.604 -0.0650 -2.2999 -0.2512
  748TIP3   OH2 2249   0.871   5.412   3.513  0.2886  0.1930  0.0160
  748TIP3    H1 2250   0.954   5.446   3.478  0.5252  1.1514  1.4535
  748TIP3    H2 2251   0.890   5.321   3.534  1.2656  0.6307  1.1328
  749TIP3   OH2 2252   3.044   3.083   3.126  0.1045 -0.2341  0.0133
  749TIP3    H1 2253   3.076   3.145   3.061  1.4429 -0.7102  0.1821
  749TIP3    H2 2254   3.005   3.137   3.194  1.5388  0.4668  0.3126
  750TIP3   OH2 2255   0.904   1.476   3.928  0.6194  0.3850  0.0913
  750TIP3    H1 2256   0.911   1.381   3.936 -0.8867  0.2479  0.2328
  750TIP3    H2 2257   0.990   1.505   3.900  1.0647 -1.0414 -0.0875
  751TIP3   OH2 2258   2.301   1.225   0.352  0.5032  0.3001  0.3101
  751TIP3    H1 2259   2.207   1.245   0.346  0.9295  2.1098 -1.4394
  751TIP3    H2 2260   2.326   1.255   0.439 -0.1287  2.0285 -0.0543
  752TIP3   OH2 2261   2.500   5.328   2.457  0.1335 -0.0959  0.5688
  752TIP3    H1 2262   2.407   5.333   2.481 -0.5882 -0.4034 -1.9377
  752TIP3    H2 2263   2.522   5.417   2.429  0.5561 -0.0729  0.9608
  753TIP3   OH2 2264   5.379   4.400   0.512  0.5262  0.0362 -0.5328
  753TIP3    H1 2265   5.376   4.363   0.423 -1.8857  1.0929 -0.9652
  753TIP3    H2 2266   5.296   4.374   0.551  0.5569  1.5163  0.5924
  754TIP3   OH2 2267   4.582   5.565   1.110  0.1361  0.0873 -0.0084
  754TIP3    H1 2268   4.596   5.470   1.113  2.2669  0.3711  2.1603
  754TIP3    H2 2269   4.668   5.602   1.126 -0.6915  2.4438 -0.5811
  755TIP3   OH2 2270   2.533   3.507   0.975 -0.1529  0.6156 -0.3340
  755TIP3    H1 2271   2.591   3.566   0.927 -1.1281  0.6408 -1.5178
  755TIP3    H2 2272   2.592   3.456   1.031  0.8559  1.6063 -0.4559
  756TIP3   OH2 2273   1.432   2.510   3.758 -0.8617  0.3751 -0.3448
  756TIP3    H1 2274   1.384   2.484   3.679  0.8820 -0.3778 -1.1971
  756TIP3    H2 2275   1.374   2.484   3.830 -1.9376 -0.0652 -1.3295
  757TIP3   OH2 2276   4.967   5.145   0.750  0.6430 -0.3593 -0.0252
  757TIP3    H1 2277   4.909   5.218   0.773  0.2986 -0.5220 -0.3474
  757TIP3    H2 2278   4.915   5.067   0.769  0.9439 -0.5160  0.1553
  758TIP3   OH2 2279   3.681   3.265   1.431 -0.0068 -0.5336  0.6337
  758TIP3    H1 2280   3.667   3.359   1.440 -0.1153 -0.4824 -0.0050
  758TIP3    H2 2281   3.639   3.227   1.508  0.5688 -0.0164  1.2010
  759TIP3   OH2 2282   4.795   3.828   0.032 -0.3848  0.0419 -0.3808
  759TIP3    H1 2283   4.717   3.787   0.069 -0.0032  0.9034  1.4957
  759TIP3    H2 2284   4.824   3.890   0.099 -0.4466  2.7938 -2.7089
  760TIP3   OH2 2285   1.742   2.342   0.490 -0.4338  0.5475  0.3240
  760TIP3    H1 2286   1.800   2.412   0.519  0.1541  0.0421  0.3965
  760TIP3    H2 2287   1.686   2.383   0.424 -0.6734  1.2923  0.9849
  761TIP3   OH2 2288   2.246   2.221   4.364 -0.3251 -0.3605 -0.1667
  761TIP3    H1 2289   2.164   2.257   4.397  0.4330  0.5301  0.8319
  761TIP3    H2 2290   2.224   2.184   4.278 -1.3942  1.4846 -0.7394
  762TIP3   OH2 2291   2.069   1.870   3.451  0.3925  0.2061  0.0508
  762TIP3    H1 2292   2.006   1.802   3.425  1.1692 -0.3685 -0.3847
  762TIP3    H2 2293   2.033   1.951   3.415  0.4007 -0.2687 -1.0784
  763TIP3   OH2 2294   1.327   3.831   0.293 -0.2943 -0.5134  0.2831
  763TIP3    H1 2295   1.401   3.839   0.353 -0.4721 -1.3448  0.6217
  763TIP3    H2 2296   1.367   3.799   0.212  0.1435  1.7914 -0.5024
  764TIP3   OH2 2297   6.028   3.065   2.840  0.1903  0.0821 -0.3032
  764TIP3    H1 2298   6.105   3.111   2.806 -0.5424  1.3227 -0.3254
  764TIP3    H2 2299   5.976   3.046   2.761  0.3672 -0.5665 -0.2666
  765TIP3   OH2 2300   2.763   0.675   4.805  0.0827  0.9723 -0.0574
  765TIP3    H1 2301   2.716   0.597   4.833  2.6766  0.0548  2.2632
  765TIP3    H2 2302   2.748   0.680   4.711 -1.4987 -1.3756  0.0011
  766TIP3   OH2 2303   1.531   1.314   2.488  0.0451  0.4155  0.3801
  766TIP3    H1 2304   1.619   1.344   2.467  0.2717  0.6704  1.6097
  766TIP3    H2 2305   1.513   1.246   2.424  0.2572  1.8518 -1.2944
  767TIP3   OH2 2306   2.301   1.730   0.933  0.0823 -0.0254  0.3510
  767TIP3    H1 2307   2.371   1.727   0.998  0.6482  0.2553 -0.2376
  767TIP3    H2 2308   2.333   1.789   0.865 -1.0384  0.6977  0.4271
  768TIP3   OH2 2309   2.571   3.313   5.015  0.2349 -0.2322 -0.7946
  768TIP3    H1 2310   2.566   3.219   5.032  0.6054 -0.1339 -0.1319
  768TIP3    H2 2311   2.534   3.323   4.927  1.6878 -1.2103 -1.5623
  769TIP3   OH2 2312   0.178   5.309   2.730 -0.5312 -0.7323 -0.3423
  769TIP3    H1 2313   0.225   5.297   2.647 -1.4576  1.1960 -1.2135
  769TIP3    H2 2314   0.086   5.321   2.704 -0.7866  0.2772  0.9161
  770TIP3   OH2 2315   5.614   1.784   2.584 -0.0092  0.2409 -0.0492
  770TIP3    H1 2316   5.626   1.868   2.539  0.7385  0.5975  0.7872
  770TIP3    H2 2317   5.578   1.808   2.670 -2.7719 -0.5147 -0.8818
  771TIP3   OH2 2318   3.338   0.952   0.172 -0.1295  0.2316  0.3361
  771TIP3    H1 2319   3.260   0.904   0.145 -1.0417  0.3171  2.6685
  771TIP3    H2 2320   3.310   1.043   0.178  0.5331  0.4753 -0.1402
  772TIP3   OH2 2321   0.537   2.056   3.618 -0.5239  0.4740  0.0250
  772TIP3    H1 2322   0.612   1.998   3.623 -0.5453  0.5221  0.9618
  772TIP3    H2 2323   0.466   2.001   3.585 -0.2964  0.2222 -0.0458
  773TIP3   OH2 2324   3.209   2.680   2.128  0.2872  0.2263 -0.2185
  773TIP3    H1 2325   3.200   2.587   2.147  1.1301  0.1771 -0.0281
  773TIP3    H2 2326   3.225   2.684   2.034  4.1817 -0.1612  0.2814
  774TIP3   OH2 2327   4.099   4.051   1.312  0.5273  0.0950 -0.1398
  774TIP3    H1 2328   4.016   4.041   1.358  0.2920  1.3591 -0.2559
  774TIP3    H2 2329   4.077   4.040   1.219  0.9164 -1.9461 -0.0333
  775TIP3   OH2 2330   0.789   0.683   1.519  0.7424  0.1881 -0.5048
  775TIP3    H1 2331   0.752   0.755   1.569 -0.0278 -1.0189  0.7269
  775TIP3    H2 2332   0.868   0.719   1.480  0.3529  1.7015  0.0414
  776TIP3   OH2 2333   0.575   1.451   1.157 -0.2233  0.6182  0.0367
  776TIP3    H1 2334   0.656   1.489   1.192 -0.4667  1.2429 -0.0570
  776TIP3    H2 2335   0.552   1.509   1.084  0.7641 -1.1566 -1.7804
  777TIP3   OH2 2336   5.186   0.694   0.456  0.2368  0.2520 -0.2863
  777TIP3    H1 2337   5.110   0.738   0.418 -0.4061 -0.5782 -0.0006
  777TIP3    H2 2338   5.262   0.732   0.411 -0.2838  1.6633 -0.0105
  778TIP3   OH2 2339   4.454   3.691   3.857 -0.4034  0.2527  0.1511
  778TIP3    H1 2340   4.375   3.741   3.879 -1.7300 -1.4730 -0.4126
  778TIP3    H2 2341   4.437   3.657   3.769  2.0084  1.7195 -0.9658
  779TIP3   OH2 2342   1.365   5.164   1.074  0.3717 -0.0928 -0.6083
  779TIP3    H1 2343   1.386   5.253   1.100 -1.5156  0.6775 -1.5630
  779TIP3    H2 2344   1.353   5.168   0.980 -0.1375 -1.2733 -0.6115
  780TIP3   OH2 2345   2.783   3.238   1.523 -0.7551 -0.3281 -0.4651
  780TIP3    H1 2346   2.701   3.273   1.490 -1.2753 -2.1171 -1.2175
  780TIP3    H2 2347   2.841   3.236   1.447 -0.1832  0.4293 -0.0579
  781TIP3   OH2 2348   2.515   0.829   4.673 -0.2719 -0.0255 -0.1797
  781TIP3    H1 2349   2.531   0.868   4.759  0.6151 -0.4482 -0.1420
  781TIP3    H2 2350   2.572   0.878   4.613  0.3813 -0.8483 -0.2366
  782TIP3   OH2 2351   0.348   4.232   4.856  0.2438 -0.1951 -0.3057
  782TIP3    H1 2352   0.258   4.262   4.867  0.4207 -0.3524  2.1819
  782TIP3    H2 2353   0.401   4.311   4.863  0.3285 -0.0425 -2.1933
  783TIP3   OH2 2354   1.952   4.084   4.596  0.6443  0.2277  0.2818
  783TIP3    H1 2355   1.924   4.115   4.510 -0.5215 -1.0075  0.1898
  783TIP3    H2 2356   1.974   4.163   4.644 -0.5901  1.0689 -0.4974
  784TIP3   OH2 2357   3.060   0.268   0.864 -0.1724  0.4617 -0.3271
  784TIP3    H1 2358   3.137   0.281   0.920  0.7703 -1.1417 -1.1972
  784TIP3    H2 2359   3.015   0.193   0.902 -0.6145  0.5963 -0.5782
  785TIP3   OH2 2360   4.080   0.621   3.333 -0.1202 -0.0282  0.1257
  785TIP3    H1 2361   4.161   0.670   3.321  0.1540 -0.9712 -2.9979
  785TIP3    H2 2362   4.050   0.604   3.243 -2.6191 -1.5995  1.1604
  786TIP3   OH2 2363   3.868   5.670   3.688  0.0474  0.4564 -0.4612
  786TIP3    H1 2364   3.829   5.642   3.605 -0.1820 -0.7194  0.0186
  786TIP3    H2 2365   3.806   5.733   3.723 -1.5284 -1.4206  0.3113
  787TIP3   OH2 2366   1.922   0.034   3.638  0.1796  0.0151 -0.0165
  787TIP3    H1 2367   1.970  -0.047   3.654  4.4795  2.5377  1.6455
  787TIP3    H2 2368   1.918   0.040   3.542  1.3201 -1.3758 -0.2003
  788TIP3   OH2 2369   0.063   0.590   0.354  0.6574  0.1994 -0.1879
  788TIP3    H1 2370  -0.031   0.569   0.359  0.5490  0.1342 -2.0047
  788TIP3    H2 2371   0.099   0.524   0.295  2.4088 -1.4037  2.4481
  789TIP3   OH2 2372   4.601   5.431   0.184  0.3329 -0.1471  0.2075
  789TIP3    H1 2373   4.540   5.366   0.219  0.0350 -0.3912 -0.7348
  789TIP3    H2 2374   4.597   5.419   0.089  2.2658 -0.5584  0.1234
  790TIP3   OH2 2375   2.585   0.330   4.522  0.4184  0.0463  0.1260
  790TIP3    H1 2376   2.613   0.416   4.490  0.8846 -0.4793 -0.9124
  790TIP3    H2 2377   2.593   0.337   4.617  1.0567  0.9516  0.0218
  791TIP3   OH2 2378   0.099   3.309   1.774  0.5099  0.4664  0.8354
  791TIP3    H1 2379   0.049   3.389   1.788  0.9397  0.5472  2.0617
  791TIP3    H2 2380   0.052   3.243   1.825  1.0231  0.2961  1.0951
  792TIP3   OH2 2381   0.943   1.024   4.633  1.0664 -0.0781 -0.6664
  792TIP3    H1 2382   0.997   0.951   4.603  0.2180 -0.7341 -0.6383
  792TIP3    H2 2383   0.987   1.102   4.598  2.6726 -0.4877  0.3414
  793TIP3   OH2 2384   6.159   3.133   4.022 -0.1392 -0.1426 -0.1821
  793TIP3    H1 2385   6.246   3.171   4.036 -0.7029  0.8613  0.7773
  793TIP3    H2 2386   6.101   3.209   4.015 -1.1320 -0.8020  0.6436
  794TIP3   OH2 2387   5.011   1.457   3.111  0.1407  0.1923  0.8650
  794TIP3    H1 2388   4.938   1.428   3.055  0.3569  1.0077  0.1256
  794TIP3    H2 2389   5.089   1.444   3.057  0.3914  0.6514  1.1117
  795TIP3   OH2 2390   1.425   5.317   3.746  0.0384  0.2678 -0.3004
  795TIP3    H1 2391   1.415   5.222   3.744 -2.2504  0.4190  1.1195
  795TIP3    H2 2392   1.391   5.347   3.661 -1.5229 -0.0549  0.1816
  796TIP3   OH2 2393   3.599   0.938   0.240  0.1314 -0.2872  1.0384
  796TIP3    H1 2394   3.609   1.027   0.272 -0.5270  0.1901 -0.0091
  796TIP3    H2 2395   3.504   0.927   0.230  0.2161 -1.0541  1.0096
  797TIP3   OH2 2396   1.090   4.021   0.576 -0.3584  0.4939  0.3814
  797TIP3    H1 2397   1.018   4.077   0.548  0.1448 -0.2863 -2.9784
  797TIP3    H2 2398   1.169   4.069   0.549  0.3278  0.3442  1.9914
  798TIP3   OH2 2399   5.362   2.789   1.028  0.4555  0.1146 -0.1946
  798TIP3    H1 2400   5.379   2.794   0.934  0.7070 -1.1412 -0.2422
  798TIP3    H2 2401   5.267   2.796   1.036  0.4853  0.9080 -0.4766
  799TIP3   OH2 2402   1.142   1.030   4.152 -0.0977  0.1103  0.0977
  799TIP3    H1 2403   1.092   0.958   4.190 -1.9610  0.0536 -2.2656
  799TIP3    H2 2404   1.233   1.010   4.176 -0.7242 -2.1344  0.8952
  800TIP3   OH2 2405   2.003   4.561   1.831 -0.0756 -0.3473  0.4509
  800TIP3    H1 2406   1.961   4.493   1.883 -1.6093 -0.8374 -1.3500
  800TIP3    H2 2407   2.074   4.516   1.785 -1.8329 -1.1323 -1.6840
  801TIP3   OH2 2408   6.129   4.155   3.675 -1.0167 -0.8308 -0.3584
  801TIP3    H1 2409   6.187   4.183   3.746 -1.5515 -1.3645  0.2969
  801TIP3    H2 2410   6.103   4.236   3.631 -1.2609 -0.4351  0.5035
  802TIP3   OH2 2411   1.182   5.576   0.216  0.2897  0.3717 -0.0959
  802TIP3    H1 2412   1.256   5.574   0.276  1.1844 -1.7070 -1.1299
  802TIP3    H2 2413   1.215   5.621   0.138 -0.2150  1.2610  0.1932
  803TIP3   OH2 2414   1.664   4.124   1.179  0.2375  0.2464  0.4379
  803TIP3    H1 2415   1.584   4.177   1.180 -0.6226 -0.8114 -2.4084
  803TIP3    H2 2416   1.677   4.102   1.086  3.3416 -0.3938  0.9115
  804TIP3   OH2 2417   5.662   3.599   0.665  0.3986 -0.5769  0.2775
  804TIP3    H1 2418   5.624   3.634   0.585 -1.0989 -0.0120  1.1925
  804TIP3    H2 2419   5.648   3.667   0.731  1.4068 -1.1092  1.0864
  805TIP3   OH2 2420   5.727   3.916   4.013 -0.2798  0.5577 -0.2704
  805TIP3    H1 2421   5.649   3.938   3.962  0.8443  1.8068 -1.5449
  805TIP3    H2 2422   5.785   3.991   4.001  1.6609 -0.9005 -0.4876
  806TIP3   OH2 2423   5.356   2.259   4.978 -0.1035 -0.5036  0.0898
  806TIP3    H1 2424   5.350   2.168   4.948  0.0668 -0.3607 -0.3773
  806TIP3    H2 2425   5.449   2.279   4.974 -0.2906  0.2230 -1.4223
  807TIP3   OH2 2426   4.388   5.364   4.813 -0.0202  0.0155 -0.4356
  807TIP3    H1 2427   4.391   5.345   4.719  0.1104 -1.1132 -0.2144
  807TIP3    H2 2428   4.364   5.281   4.853 -0.9886  0.7036  0.4715
  808TIP3   OH2 2429   6.287   4.695   2.664  0.1281 -0.0514  0.2931
  808TIP3    H1 2430   6.226   4.665   2.597  1.3932 -1.5838 -0.2561
  808TIP3    H2 2431   6.237   4.692   2.745 -0.8741 -0.0305 -0.3011
  809TIP3   OH2 2432   5.994   5.075   2.693 -0.7565 -0.2812 -0.1245
  809TIP3    H1 2433   5.969   5.024   2.771  0.4486 -1.2643 -0.3439
  809TIP3    H2 2434   5.983   5.166   2.719 -0.0864 -0.5847  1.3183
  810TIP3   OH2 2435   5.839   1.401   3.344 -0.5102  0.3612  0.1770
  810TIP3    H1 2436   5.837   1.491   3.311 -1.1391  0.7885  1.3295
  810TIP3    H2 2437   5.750   1.368   3.329 -0.8785  0.6466  1.6369
  811TIP3   OH2 2438   6.138   2.701   3.965  0.1654 -0.1048 -0.1868
  811TIP3    H1 2439   6.124   2.608   3.949  0.7131 -0.1047 -0.6894
  811TIP3    H2 2440   6.077   2.745   3.905  0.0757 -0.1332 -0.1167
  812TIP3   OH2 2441   4.933   5.022   4.840  0.2403 -0.5502  0.1774
  812TIP3    H1 2442   4.909   5.072   4.918  0.0786 -0.1930 -0.1006
  812TIP3    H2 2443   4.890   5.067   4.768  3.1144  1.2116 -0.6070
  813TIP3   OH2 2444   2.882   1.721   1.459  0.0585  0.0263  0.3374
  813TIP3    H1 2445   2.947   1.790   1.448 -0.2258  0.2706  0.1899
  813TIP3    H2 2446   2.825   1.729   1.383  1.2830 -1.7544 -0.8787
  814TIP3   OH2 2447   5.110   3.673   1.442 -0.4929 -0.0481 -0.3188
  814TIP3    H1 2448   5.176   3.742   1.450  1.3514 -1.8160  0.6306
  814TIP3    H2 2449   5.134   3.626   1.363 -0.9170 -0.4330 -0.2191
  815TIP3   OH2 2450   3.146   5.188   4.310 -0.1474  0.7761  0.3973
  815TIP3    H1 2451   3.236   5.218   4.294  1.0564 -2.1494  0.9542
  815TIP3    H2 2452   3.129   5.211   4.401  0.8385 -0.3058  0.8881
  816TIP3   OH2 2453   2.315   5.897   2.656 -0.2661  0.0925  0.0105
  816TIP3    H1 2454   2.315   5.896   2.752  2.1841 -0.4172  0.0872
  816TIP3    H2 2455   2.229   5.930   2.632 -1.8421 -1.9304  2.3556
  817TIP3   OH2 2456   1.954   2.357   3.932 -0.2001 -0.2468  0.3973
  817TIP3    H1 2457   1.871   2.327   3.894 -0.3694  1.0068 -0.2491
  817TIP3    H2 2458   2.020   2.328   3.870 -0.4189  1.1994 -0.5628
  818TIP3   OH2 2459   1.005   2.875   3.990  0.1759  0.1595  0.5540
  818TIP3    H1 2460   0.993   2.782   3.974 -0.3083  0.3396 -0.2317
  818TIP3    H2 2461   0.957   2.917   3.918 -1.1331  1.0397  1.8972
  819TIP3   OH2 2462   5.494   3.942   3.236 -0.1688 -0.1501 -0.2116
  819TIP3    H1 2463   5.541   3.863   3.209  0.0121 -0.3198  0.5606
  819TIP3    H2 2464   5.550   3.981   3.304 -0.4372  0.4382 -0.3213
  820TIP3   OH2 2465   0.853   5.899   1.083  0.4874  0.0142 -0.0159
  820TIP3    H1 2466   0.896   5.956   1.147 -2.0398 -0.8917  2.6874
  820TIP3    H2 2467   0.774   5.946   1.059 -0.3489 -1.2124  0.2793
  821TIP3   OH2 2468   5.870   5.181   3.430  0.2916 -0.0349  0.5502
  821TIP3    H1 2469   5.852   5.166   3.337 -1.3967  0.1066  0.8153
  821TIP3    H2 2470   5.800   5.240   3.458  1.4849  0.9250  1.6387
  822TIP3   OH2 2471   3.725   4.949   0.719 -0.0195  0.1109 -0.4985
  822TIP3    H1 2472   3.781   4.903   0.782  0.1778 -0.1943 -0.8946
  822TIP3    H2 2473   3.682   4.880   0.669 -0.6577  0.3473 -0.2838
  823TIP3   OH2 2474   5.036   0.297   4.765  0.0314  0.1079 -0.1540
  823TIP3    H1 2475   4.998   0.237   4.700  0.5598  1.3453 -1.6827
  823TIP3    H2 2476   5.109   0.249   4.802  0.3287 -0.2909 -1.2033
  824TIP3   OH2 2477   5.229   3.604   0.957 -0.6585 -0.2252 -0.3120
  824TIP3    H1 2478   5.320   3.581   0.939  0.0448  0.4017  2.0403
  824TIP3    H2 2479   5.194   3.527   1.002 -0.7292  0.2162  0.3965
  825TIP3   OH2 2480   3.217   5.125   1.064  0.1720 -0.6989 -0.2133
  825TIP3    H1 2481   3.162   5.067   1.012 -0.7249  0.5754 -0.7490
  825TIP3    H2 2482   3.159   5.161   1.131  0.0040  1.4635 -1.4184
  826TIP3   OH2 2483   5.100   3.246   1.225 -0.8190 -0.7125 -0.0300
  826TIP3    H1 2484   5.031   3.310   1.242 -0.8807 -0.6830 -0.3747
  826TIP3    H2 2485   5.062   3.162   1.250  0.2200 -0.3582  3.1483
  827TIP3   OH2 2486   5.216   0.197   0.280  0.7562 -0.2207 -0.3935
  827TIP3    H1 2487   5.231   0.241   0.196  0.2159 -0.3856 -0.5821
  827TIP3    H2 2488   5.231   0.264   0.345 -0.8337  0.4696 -0.7087
  828TIP3   OH2 2489   2.459   5.055   2.935  0.1484 -0.1529  0.6072
  828TIP3    H1 2490   2.523   5.099   2.878 -1.3312  1.0559 -0.2202
  828TIP3    H2 2491   2.443   5.118   3.005  0.2382 -0.6709  1.1002
  829TIP3   OH2 2492   4.766   2.464   4.782 -0.3923 -0.0003  0.0022
  829TIP3    H1 2493   4.737   2.374   4.796 -0.9633  0.0683 -0.6660
  829TIP3    H2 2494   4.699   2.517   4.825 -1.5131  0.1704 -1.8398
  830TIP3   OH2 2495   0.591   3.111   0.113  0.4012  0.2782 -0.0397
  830TIP3    H1 2496   0.625   3.200   0.119  1.1812 -0.0049 -0.1956
  830TIP3    H2 2497   0.601   3.087   0.020  0.1088  0.0617 -0.0182
  831TIP3   OH2 2498   6.182   0.148   0.430  0.0034  0.1003  0.1063
  831TIP3    H1 2499   6.165   0.173   0.339  0.2544 -1.1686 -0.3081
  831TIP3    H2 2500   6.102   0.169   0.477 -0.1563  0.6911 -0.4160
  832TIP3   OH2 2501   0.502   4.699   5.011  0.3302  0.0263  0.1395
  832TIP3    H1 2502   0.547   4.677   5.092  0.6357 -0.0938 -0.0619
  832TIP3    H2 2503   0.492   4.795   5.014  0.9887  0.1047 -0.0156
  833TIP3   OH2 2504   5.053   0.759   0.829  0.1590  0.0116 -0.0148
  833TIP3    H1 2505   4.995   0.835   0.823 -0.9708 -0.8449 -0.0308
  833TIP3    H2 2506   5.047   0.731   0.920 -0.4616 -0.8629 -0.3222
  834TIP3   OH2 2507   2.586   4.477   4.198  0.1984  0.1843  0.6366
  834TIP3    H1 2508   2.580   4.442   4.287  1.6364  1.8088  1.4279
  834TIP3    H2 2509   2.532   4.557   4.201 -0.2892 -0.1064 -0.1643
  835TIP3   OH2 2510   0.639   5.492   1.795 -0.4174 -0.2026 -0.6937
  835TIP3    H1 2511   0.658   5.505   1.702 -1.3545  0.2730 -0.8308
  835TIP3    H2 2512   0.709   5.434   1.826  0.3055  0.2036 -1.5225
  836TIP3   OH2 2513   2.261   3.863   0.083 -0.1359  0.6584 -0.5675
  836TIP3    H1 2514   2.284   3.808   0.008  0.6441 -1.0674  0.8790
  836TIP3    H2 2515   2.173   3.836   0.107  0.7258 -0.9415  0.9354
  837TIP3   OH2 2516   3.839   0.293   4.303 -0.2898  0.3706 -0.4904
  837TIP3    H1 2517   3.836   0.198   4.316  1.0999  0.4958  1.1260
  837TIP3    H2 2518   3.751   0.323   4.324  0.0365 -0.2714  2.2142
  838TIP3   OH2 2519   0.578   0.614   0.853 -0.0565  0.5420  0.0884
  838TIP3    H1 2520   0.553   0.610   0.946  1.4747  1.7304  0.5977
  838TIP3    H2 2521   0.673   0.625   0.854  0.1293 -0.5486 -1.6767
  839TIP3   OH2 2522   1.711   1.319   5.032  0.5486  0.0731  0.7587
  839TIP3    H1 2523   1.722   1.299   4.939 -1.0495  0.1343  0.5328
  839TIP3    H2 2524   1.620   1.349   5.040  1.1729  1.8016  2.0487
  840TIP3   OH2 2525   4.415   0.512   2.611 -0.2111  0.4408 -0.4681
  840TIP3    H1 2526   4.451   0.424   2.604  0.8506  0.8503 -0.3012
  840TIP3    H2 2527   4.476   0.567   2.561 -0.9541  1.0605 -0.7136
  841TIP3   OH2 2528   5.599   3.480   1.630  0.3538  1.0632 -0.6338
  841TIP3    H1 2529   5.598   3.575   1.623 -0.2073  1.3907  2.4969
  841TIP3    H2 2530   5.516   3.452   1.589 -0.2461  2.0831 -0.1490
  842TIP3   OH2 2531   3.776   1.635   2.012 -0.0949  0.2094  0.0027
  842TIP3    H1 2532   3.695   1.668   2.051 -0.0251 -0.8197  1.0933
  842TIP3    H2 2533   3.841   1.703   2.029 -0.6341  0.8480 -0.4870
  843TIP3   OH2 2534   4.816   5.065   1.579  0.2508 -0.2110  0.0393
  843TIP3    H1 2535   4.817   5.160   1.566 -0.5429 -0.3062 -0.8053
  843TIP3    H2 2536   4.752   5.051   1.649  0.6875 -0.0961  0.4662
  844TIP3   OH2 2537   6.302   4.201   3.367  0.7475  0.6152 -0.1092
  844TIP3    H1 2538   6.335   4.232   3.282  0.0864  0.6371 -0.3633
  844TIP3    H2 2539   6.381   4.178   3.416  1.1982  1.6695 -0.3109
  845TIP3   OH2 2540   1.767   5.751   1.390 -0.4130 -0.1984  0.2223
  845TIP3    H1 2541   1.814   5.704   1.458  0.5638  0.8856  0.3296
  845TIP3    H2 2542   1.835   5.796   1.340 -0.9329 -2.1254 -2.4523
  846TIP3   OH2 2543   2.898   5.230   4.918 -0.0367  0.3887 -0.2500
  846TIP3    H1 2544   2.826   5.188   4.873  0.3816 -2.9323  1.8427
  846TIP3    H2 2545   2.856   5.279   4.989 -0.3549  0.5611 -0.5552
  847TIP3   OH2 2546   4.530   5.746   0.256  0.0196  0.2118  0.0892
  847TIP3    H1 2547   4.608   5.718   0.208 -1.1958  0.5135 -2.1596
  847TIP3    H2 2548   4.565   5.792   0.333  2.1442  2.4289 -2.0351
  848TIP3   OH2 2549   1.420   5.735   5.096  0.3941 -0.4810 -0.5306
  848TIP3    H1 2550   1.496   5.685   5.067  1.3913  0.9015 -0.4254
  848TIP3    H2 2551   1.403   5.796   5.024  1.4768  1.4460  0.7446
  849TIP3   OH2 2552   2.388   0.606   4.792 -0.3246  0.2850 -0.5788
  849TIP3    H1 2553   2.426   0.518   4.794 -0.9573 -0.0425 -1.7040
  849TIP3    H2 2554   2.452   0.659   4.745  0.5184  0.6810  0.9792
  850TIP3   OH2 2555   1.397   2.661   0.225 -0.3249 -0.3294 -0.3365
  850TIP3    H1 2556   1.434   2.693   0.143 -0.5446  0.5259 -0.1225
  850TIP3    H2 2557   1.429   2.724   0.291 -0.1570 -0.9943  0.2264
  851TIP3   OH2 2558   4.244   1.538   4.606 -0.0316 -0.1985  0.0386
  851TIP3    H1 2559   4.163   1.522   4.558  0.4384  0.7544 -1.1254
  851TIP3    H2 2560   4.218   1.594   4.679 -0.5042 -0.3360 -0.0223
  852TIP3   OH2 2561   0.576   3.471   1.168  0.3303 -0.5966 -0.1646
  852TIP3    H1 2562   0.639   3.542   1.179 -1.7295  1.6308 -1.6421
  852TIP3    H2 2563   0.572   3.429   1.253  2.6665  0.0902  0.3725
  853TIP3   OH2 2564   4.673   2.897   4.363 -0.4516  0.0992 -0.4566
  853TIP3    H1 2565   4.688   2.805   4.384 -1.8758 -0.2157 -0.7226
  853TIP3    H2 2566   4.721   2.911   4.281 -1.9430 -1.0163 -1.5859
  854TIP3   OH2 2567   3.659   5.884   3.842 -1.0956  0.1239  0.6393
  854TIP3    H1 2568   3.615   5.939   3.777  0.8184 -0.5415 -1.3258
  854TIP3    H2 2569   3.597   5.812   3.859 -0.8838 -0.7835 -2.0331
  855TIP3   OH2 2570   6.098   1.446   2.354 -0.1644  0.4053 -0.3057
  855TIP3    H1 2571   6.113   1.540   2.362 -1.1899  0.8288 -2.4206
  855TIP3    H2 2572   6.007   1.434   2.383  0.4796 -0.2569  1.5730
  856TIP3   OH2 2573   1.769   5.960   4.633  0.0316 -0.2428 -0.0426
  856TIP3    H1 2574   1.758   5.945   4.539  1.8220  0.3099 -0.3837
  856TIP3    H2 2575   1.762   6.055   4.643 -2.8482 -0.4370  0.8509
  857TIP3   OH2 2576   6.111   0.414   0.643  0.0090  0.3883 -0.1163
  857TIP3    H1 2577   6.203   0.409   0.670 -0.0404 -0.0333 -0.0192
  857TIP3    H2 2578   6.065   0.354   0.701 -0.5036  1.3569  0.5108
  858TIP3   OH2 2579   3.303   2.580   3.553  0.3435 -0.1559  0.3666
  858TIP3    H1 2580   3.326   2.497   3.512 -0.0397  0.8470 -2.0569
  858TIP3    H2 2581   3.312   2.645   3.484 -0.3181  1.7058  1.9140
  859TIP3   OH2 2582   4.325   1.372   3.070 -0.3598  0.5742 -0.2654
  859TIP3    H1 2583   4.344   1.379   3.164 -1.1402 -0.2493 -0.0329
  859TIP3    H2 2584   4.274   1.450   3.050  0.6138  1.2388 -0.2252
  860TIP3   OH2 2585   3.375   2.857   1.349 -0.0252 -0.2728 -0.2384
  860TIP3    H1 2586   3.298   2.914   1.345  0.0616 -0.1235  0.1696
  860TIP3    H2 2587   3.443   2.905   1.301 -0.5643 -1.0298 -1.8400
  861TIP3   OH2 2588   1.102   0.305   3.770  0.1295 -0.4165  0.5399
  861TIP3    H1 2589   1.183   0.305   3.719 -1.2385 -0.8229 -1.8214
  861TIP3    H2 2590   1.084   0.398   3.787  1.2302 -0.3408  1.4179
  862TIP3   OH2 2591   5.280   5.128   4.809  0.0712 -0.2370  0.3696
  862TIP3    H1 2592   5.199   5.161   4.848  0.1010  1.8082 -1.1525
  862TIP3    H2 2593   5.348   5.151   4.872 -0.4032 -1.3830  1.3498
  863TIP3   OH2 2594   1.215   3.112   3.179 -0.2533 -0.1385  0.1570
  863TIP3    H1 2595   1.308   3.129   3.189 -0.5263  1.2178  0.5239
  863TIP3    H2 2596   1.174   3.198   3.178 -1.4240 -0.6695 -0.9608
  864TIP3   OH2 2597   6.057   0.279   3.413  0.7195  0.3178 -0.4534
  864TIP3    H1 2598   6.118   0.280   3.486  0.5654  2.7317 -0.2856
  864TIP3    H2 2599   5.991   0.344   3.435 -0.8779 -0.8647 -1.5089
  865TIP3   OH2 2600   0.495   0.435   1.995 -0.2760 -0.8549 -0.0137
  865TIP3    H1 2601   0.567   0.495   2.016 -1.5861  0.1526  1.8986
  865TIP3    H2 2602   0.517   0.355   2.043 -0.6858 -0.3355  1.0823
  866TIP3   OH2 2603   0.149   2.685   4.369  0.2901 -0.3940 -0.2828
  866TIP3    H1 2604   0.221   2.746   4.354  0.7559 -0.9955 -0.4830
  866TIP3    H2 2605   0.085   2.707   4.300  1.3137 -1.4345 -1.6183
  867TIP3   OH2 2606   4.923   1.202   4.700  0.2533 -0.3969 -0.0895
  867TIP3    H1 2607   5.005   1.237   4.735 -0.4923 -0.0958  1.4579
  867TIP3    H2 2608   4.871   1.182   4.778 -1.1309 -0.6020 -1.0351
  868TIP3   OH2 2609   5.477   3.519   1.891  0.3025 -0.6617 -0.9439
  868TIP3    H1 2610   5.477   3.475   1.976 -1.5344 -1.4628 -1.3071
  868TIP3    H2 2611   5.534   3.466   1.836  0.6129 -0.7793 -0.5062
  869TIP3   OH2 2612   1.184   3.594   0.528 -0.1490  0.6524  0.4015
  869TIP3    H1 2613   1.159   3.502   0.523  0.8754  0.3409  0.7239
  869TIP3    H2 2614   1.237   3.609   0.449  1.3559  0.4023  1.3081
  870TIP3   OH2 2615   3.411   1.525   2.753 -0.2515  0.1991  0.3342
  870TIP3    H1 2616   3.406   1.510   2.847  0.1052 -0.2565  0.2851
  870TIP3    H2 2617   3.437   1.616   2.744 -0.3468  0.2624  0.6746
  871TIP3   OH2 2618   2.777   4.127   3.617 -0.2233 -0.0989 -0.1829
  871TIP3    H1 2619   2.859   4.087   3.585 -0.1144 -0.0490  0.0330
  871TIP3    H2 2620   2.729   4.055   3.656 -0.3258 -0.1463 -0.3939
  872TIP3   OH2 2621   4.531   4.234   2.624 -0.1284 -0.5197  0.3455
  872TIP3    H1 2622   4.515   4.267   2.535 -0.1705 -1.9980 -0.2402
  872TIP3    H2 2623   4.623   4.256   2.641 -0.3878  0.6291  0.3455
  873TIP3   OH2 2624   3.851   5.013   3.661 -0.0540 -0.7367  0.1147
  873TIP3    H1 2625   3.905   4.943   3.699  1.0128 -0.4667 -0.8346
  873TIP3    H2 2626   3.867   5.089   3.717 -0.6317 -1.0550  0.7139
  874TIP3   OH2 2627   1.931   5.412   0.336 -0.0687 -0.5274  0.1542
  874TIP3    H1 2628   2.013   5.394   0.291  0.0778 -0.2728  0.3207
  874TIP3    H2 2629   1.876   5.454   0.270 -0.0485 -0.6456  0.0603
  875TIP3   OH2 2630   1.926   2.070   5.013  0.0848  0.3185  0.2842
  875TIP3    H1 2631   1.872   2.087   4.936 -1.5750  2.5352  1.8071
  875TIP3    H2 2632   1.977   1.993   4.990 -2.5927 -0.9869 -1.8582
  876TIP3   OH2 2633   4.424   3.470   1.661 -0.1426 -0.9330 -0.4753
  876TIP3    H1 2634   4.363   3.482   1.589  0.4686 -1.6199 -1.1249
  876TIP3    H2 2635   4.453   3.379   1.653  0.0986 -0.9556  0.5103
  877TIP3   OH2 2636   3.900   0.776   4.233  0.4634 -0.6876 -0.2270
  877TIP3    H1 2637   3.912   0.712   4.304  0.5016  0.3677  0.7552
  877TIP3    H2 2638   3.864   0.853   4.277  0.7184  0.0778 -1.3301
  878TIP3   OH2 2639   0.491   3.728   4.796 -0.2273  0.1910  0.0392
  878TIP3    H1 2640   0.405   3.725   4.754  0.4587 -0.3511 -1.3707
  878TIP3    H2 2641   0.548   3.678   4.738  0.9113 -0.0109  1.2903
  879TIP3   OH2 2642   2.213   3.923   0.476  0.3037 -0.2476  0.0054
  879TIP3    H1 2643   2.215   4.003   0.528  1.6450  0.1964 -0.6867
  879TIP3    H2 2644   2.202   3.954   0.386 -2.1591 -1.0021 -0.0284
  880TIP3   OH2 2645   2.367   5.256   0.198  0.4280  0.2566  0.2234
  880TIP3    H1 2646   2.412   5.332   0.161  1.1357  0.0044  0.5501
  880TIP3    H2 2647   2.275   5.283   0.203  0.4774  0.6455 -0.7989
  881TIP3   OH2 2648   5.301   3.063   2.075 -0.4935 -0.0836  0.0325
  881TIP3    H1 2649   5.326   3.002   2.006 -0.1129 -0.0146  0.1037
  881TIP3    H2 2650   5.229   3.113   2.038 -0.4625 -0.2240 -0.2200
  882TIP3   OH2 2651   5.522   4.374   1.676 -0.0206  0.6643 -0.0542
  882TIP3    H1 2652   5.545   4.306   1.613  1.3043 -0.9880  2.0478
  882TIP3    H2 2653   5.427   4.364   1.688 -0.1350  0.3942 -1.0903
  883TIP3   OH2 2654   4.932   5.800   0.291  0.3533 -0.4247 -0.1571
  883TIP3    H1 2655   4.890   5.743   0.226  0.1526  0.4383 -0.8162
  883TIP3    H2 2656   4.997   5.849   0.240  0.0436  0.4161  0.2431
  884TIP3   OH2 2657   3.469   5.707   3.887 -0.5902  0.5836  0.4426
  884TIP3    H1 2658   3.499   5.726   3.975 -0.4323 -0.9985  0.7524
  884TIP3    H2 2659   3.498   5.617   3.870  1.1813  1.5058 -1.9959
  885TIP3   OH2 2660   3.782   3.207   4.937  0.1748 -0.1501  0.6531
  885TIP3    H1 2661   3.755   3.179   5.025 -0.9399 -1.7456 -0.1343
  885TIP3    H2 2662   3.702   3.198   4.884  1.5142 -2.3900 -1.2026
  886TIP3   OH2 2663   1.134   0.533   2.390 -0.1489 -0.0410  0.0096
  886TIP3    H1 2664   1.085   0.611   2.419 -1.5994 -0.6229 -0.7612
  886TIP3    H2 2665   1.167   0.556   2.304  0.8440  0.2880  0.4587
  887TIP3   OH2 2666   4.676   3.500   5.050  0.5602  0.2446  0.3687
  887TIP3    H1 2667   4.589   3.528   5.021  0.9304  1.4781  0.3751
  887TIP3    H2 2668   4.659   3.434   5.118 -0.4035  1.3026  1.1999
  888TIP3   OH2 2669   4.533   4.686   1.769  0.1376 -0.8408  0.1414
  888TIP3    H1 2670   4.546   4.596   1.798 -1.4494 -0.7270  1.3386
  888TIP3    H2 2671   4.467   4.680   1.701 -1.0396 -0.4732  1.2210
  889TIP3   OH2 2672   4.207   3.224   4.856 -0.2624 -0.2923  0.5889
  889TIP3    H1 2673   4.167   3.310   4.842  0.1535  0.0138  1.2229
  889TIP3    H2 2674   4.289   3.243   4.903  0.6489 -0.9008 -0.6899
  890TIP3   OH2 2675   3.252   5.258   0.065  0.5521  0.5522  0.3152
  890TIP3    H1 2676   3.333   5.297   0.098  0.9474  0.4522 -0.5055
  890TIP3    H2 2677   3.201   5.333   0.034  1.0475  0.4983 -0.6873
  891TIP3   OH2 2678   2.849   4.123   1.948  0.6930  0.2274 -0.0125
  891TIP3    H1 2679   2.920   4.176   1.986  0.2155 -0.3257  1.7576
  891TIP3    H2 2680   2.797   4.096   2.023 -1.4173  0.6148 -1.2713
  892TIP3   OH2 2681   6.277   3.617   4.812  0.2862  0.3146  0.0237
  892TIP3    H1 2682   6.287   3.699   4.764 -1.5139  0.2798 -0.4692
  892TIP3    H2 2683   6.300   3.639   4.902  0.4869  1.1879 -0.2339
  893TIP3   OH2 2684   2.945   2.547   2.020 -0.8786 -0.6634  0.5200
  893TIP3    H1 2685   2.935   2.453   2.005  0.3382 -0.8241  0.6199
  893TIP3    H2 2686   2.952   2.555   2.116 -1.5788 -0.4039  0.5528
  894TIP3   OH2 2687   0.115   3.427   1.258  0.3984 -0.5345  0.2129
  894TIP3    H1 2688   0.193   3.387   1.295  1.8117  1.5680 -0.2833
  894TIP3    H2 2689   0.049   3.421   1.327  1.5378 -0.8531  1.3010
  895TIP3   OH2 2690   1.948   0.455   1.577 -0.1891  0.1890  0.5895
  895TIP3    H1 2691   1.857   0.434   1.555  0.6014 -1.0380 -1.8594
  895TIP3    H2 2692   1.973   0.521   1.513  1.1529 -0.8195  0.0245
  896TIP3   OH2 2693   0.509   0.733   4.968 -0.6464 -0.5402  0.5554
  896TIP3    H1 2694   0.584   0.692   5.012 -1.0312 -1.3271  0.4977
  896TIP3    H2 2695   0.546   0.768   4.887  0.0349  0.7666  1.3837
  897TIP3   OH2 2696   1.958   5.957   2.007  0.4490 -0.1292  0.4798
  897TIP3    H1 2697   2.002   5.929   2.088 -0.9213 -0.6070  1.0811
  897TIP3    H2 2698   1.922   6.044   2.028  1.7492  0.6358 -0.2790
  898TIP3   OH2 2699   1.400   4.064   2.810 -0.5660 -0.9816  0.2682
  898TIP3    H1 2700   1.419   4.131   2.744 -1.7039 -0.9619 -0.0709
  898TIP3    H2 2701   1.464   4.079   2.879 -0.5175  0.1676 -0.0109
  899TIP3   OH2 2702   2.324   2.762   4.142  0.0213  0.2257 -0.8811
  899TIP3    H1 2703   2.261   2.713   4.089 -0.3447  0.0835 -0.3193
  899TIP3    H2 2704   2.342   2.841   4.091  1.2688 -0.8624 -2.2092
  900TIP3   OH2 2705   2.712   1.162   2.665 -0.2913 -0.1864 -0.8516
  900TIP3    H1 2706   2.625   1.169   2.626 -0.6129  0.0948 -0.0947
  900TIP3    H2 2707   2.757   1.097   2.611 -0.0292  1.6300 -2.9438
  901TIP3   OH2 2708   3.053   1.729   0.358 -0.5096 -0.1471 -1.3440
  901TIP3    H1 2709   2.971   1.695   0.396 -0.8397  0.4962 -1.4759
  901TIP3    H2 2710   3.088   1.655   0.309 -0.4108 -0.7984 -0.3349
  902TIP3   OH2 2711   4.553   0.463   1.094  0.8102 -0.5227 -0.0553
  902TIP3    H1 2712   4.494   0.536   1.114  2.9679  1.6488 -1.1886
  902TIP3    H2 2713   4.523   0.393   1.152 -1.7285  1.0230  0.6951
  903TIP3   OH2 2714   5.267   1.508   0.467  1.0759 -0.0717 -0.5844
  903TIP3    H1 2715   5.251   1.525   0.560 -0.8077 -1.8554 -0.5254
  903TIP3    H2 2716   5.324   1.580   0.439  1.7826  0.4518  1.9553
  904TIP3   OH2 2717   4.419   5.452   3.920 -0.8378  0.2770  0.1381
  904TIP3    H1 2718   4.463   5.495   3.846 -0.2636 -2.4096 -1.2163
  904TIP3    H2 2719   4.408   5.521   3.985  0.5424  2.2869 -1.6223
  905TIP3   OH2 2720   5.070   0.706   1.102 -0.1585  0.1216  0.0329
  905TIP3    H1 2721   5.117   0.622   1.096  2.4630  1.5193 -0.7558
  905TIP3    H2 2722   5.082   0.734   1.192 -1.1998 -0.4176  0.3472
  906TIP3   OH2 2723   5.648   2.823   2.232  0.0272 -0.3956  0.1150
  906TIP3    H1 2724   5.640   2.834   2.137 -0.6728 -0.1173  0.2011
  906TIP3    H2 2725   5.582   2.881   2.268  0.1859 -0.6218  0.7713
  907TIP3   OH2 2726   5.253   1.210   0.918 -0.6116  0.5793 -0.5521
  907TIP3    H1 2727   5.219   1.227   1.006 -2.2395  0.1422 -1.0542
  907TIP3    H2 2728   5.280   1.295   0.886  1.1918  0.5728  0.8053
  908TIP3   OH2 2729   3.711   5.728   4.868 -0.0290  0.3655  0.5824
  908TIP3    H1 2730   3.687   5.820   4.867 -1.7143 -0.0360  0.1014
  908TIP3    H2 2731   3.647   5.686   4.810  1.5358 -0.9105 -0.3119
  909TIP3   OH2 2732   4.616   2.261   2.769 -0.0988  0.4851 -0.2707
  909TIP3    H1 2733   4.599   2.167   2.769 -0.3228  0.5263 -0.0661
  909TIP3    H2 2734   4.710   2.268   2.750 -0.4846  0.2821 -2.5193
  910TIP3   OH2 2735   0.411   3.359   4.202  0.2901  0.3035 -0.0956
  910TIP3    H1 2736   0.403   3.296   4.273  1.7426  0.7051  0.4559
  910TIP3    H2 2737   0.322   3.369   4.168 -0.5315  0.5381  2.0245
  911TIP3   OH2 2738   1.658   3.887   3.903  0.1829  0.4029 -0.4369
  911TIP3    H1 2739   1.600   3.963   3.897 -0.7654 -0.3401 -0.7899
  911TIP3    H2 2740   1.742   3.923   3.933 -0.9842  1.2621  2.0360
  912TIP3   OH2 2741   1.662   5.149   5.040  0.4030  0.1189 -0.0985
  912TIP3    H1 2742   1.590   5.210   5.058 -0.0146 -0.4815  0.3136
  912TIP3    H2 2743   1.618   5.067   5.018  0.9016  0.5393 -2.9591
  913TIP3   OH2 2744   4.361   2.536   0.925  0.7812 -0.3207  0.6688
  913TIP3    H1 2745   4.351   2.607   0.989 -1.1598  0.3418 -0.3164
  913TIP3    H2 2746   4.370   2.581   0.841  1.2084 -1.2278  0.2190
  914TIP3   OH2 2747   1.723   5.254   0.033  0.1998  0.1887  0.3466
  914TIP3    H1 2748   1.760   5.175   0.074  0.2486  0.0365  0.0188
  914TIP3    H2 2749   1.637   5.264   0.073 -0.1421 -0.5013 -0.1944
  915TIP3   OH2 2750   0.997   0.275   1.169  0.2771  0.5510  0.1641
  915TIP3    H1 2751   1.044   0.292   1.251  1.0479  1.1425 -0.3965
  915TIP3    H2 2752   0.926   0.339   1.168 -0.1852  0.0643  0.7085
  916TIP3   OH2 2753   3.892   4.664   2.928 -0.3591 -0.1114  0.4384
  916TIP3    H1 2754   3.860   4.619   3.007  0.5285  0.1901  0.9841
  916TIP3    H2 2755   3.834   4.740   2.920 -0.3200 -0.0192  0.9424
  917TIP3   OH2 2756   4.853   3.614   1.994 -0.2687 -0.0508  0.1022
  917TIP3    H1 2757   4.769   3.648   2.024  0.3698  3.2342 -1.3809
  917TIP3    H2 2758   4.915   3.686   2.008  1.8895 -1.6572 -0.6197
  918TIP3   OH2 2759   2.381   4.043   4.394  0.0342  0.1119 -0.4403
  918TIP3    H1 2760   2.328   3.966   4.412  0.3871  0.1676  0.9443
  918TIP3    H2 2761   2.367   4.100   4.470  1.5941  0.3756 -0.3248
  919TIP3   OH2 2762   3.366   4.674   4.494 -0.1907  0.0026 -0.2320
  919TIP3    H1 2763   3.377   4.768   4.475  0.5026  0.3422  1.5674
  919TIP3    H2 2764   3.337   4.672   4.585  0.4165 -1.5562 -0.0401
  920TIP3   OH2 2765   1.718   5.613   4.014  0.3297  0.2876 -0.2174
  920TIP3    H1 2766   1.682   5.654   4.093 -0.4918  0.8341 -0.8611
  920TIP3    H2 2767   1.781   5.677   3.981  0.2148  0.3278 -0.3546
  921TIP3   OH2 2768   4.080   1.292   4.206  0.7024  0.0294 -0.3303
  921TIP3    H1 2769   4.059   1.205   4.170 -2.1064  0.4918 -0.0270
  921TIP3    H2 2770   4.071   1.351   4.132  1.6941  0.1939 -0.3290
  922TIP3   OH2 2771   0.196   1.305   3.181  0.9095  0.1708 -0.1652
  922TIP3    H1 2772   0.121   1.251   3.156  1.8071 -1.3844  0.4376
  922TIP3    H2 2773   0.166   1.354   3.258 -0.4725  1.8935 -1.6893
  923TIP3   OH2 2774   2.374   2.770   5.111  0.2761 -0.3715 -0.5999
  923TIP3    H1 2775   2.375   2.841   5.175  0.9711  0.2497 -1.2912
  923TIP3    H2 2776   2.305   2.795   5.049 -0.0100 -0.6950 -0.4172
  924TIP3   OH2 2777   0.372   1.311   3.659  0.3623 -0.1577 -0.5220
  924TIP3    H1 2778   0.371   1.394   3.707  2.5565 -0.4844  0.1997
  924TIP3    H2 2779   0.335   1.333   3.573  0.7040  1.5235 -0.2846
  925TIP3   OH2 2780   4.913   0.945   4.641 -0.0399 -0.4339  0.1309
  925TIP3    H1 2781   5.007   0.937   4.658 -0.2727 -0.7653  1.3486
  925TIP3    H2 2782   4.895   1.039   4.647  0.1187 -0.4229  0.4542
  926TIP3   OH2 2783   5.024   0.316   3.499 -0.3474  0.6307 -0.4579
  926TIP3    H1 2784   4.983   0.236   3.532  0.9298 -0.8185 -2.1688
  926TIP3    H2 2785   4.951   0.377   3.487 -1.5304 -0.6732 -0.2036
  927TIP3   OH2 2786   4.157   0.717   4.153  0.1469 -0.6528 -0.0292
  927TIP3    H1 2787   4.065   0.735   4.170 -0.0385 -0.0804 -1.4892
  927TIP3    H2 2788   4.203   0.792   4.190 -0.0683 -0.4045 -0.2620
  928TIP3   OH2 2789   0.808   2.771   3.317 -0.1804 -0.5062 -0.6746
  928TIP3    H1 2790   0.863   2.844   3.345  0.4639 -0.6435 -1.5283
  928TIP3    H2 2791   0.836   2.698   3.373  0.4811 -0.5592 -1.0600
  929TIP3   OH2 2792   2.722   2.919   1.242  0.2929  0.3673 -0.4500
  929TIP3    H1 2793   2.646   2.975   1.258  0.0642 -0.4657  1.6964
  929TIP3    H2 2794   2.797   2.979   1.241 -0.2731  1.1044 -1.8969
  930TIP3   OH2 2795   2.571   3.898   4.538 -0.3232  0.0278 -0.1015
  930TIP3    H1 2796   2.516   3.966   4.498 -0.1945 -0.0592 -0.4253
  930TIP3    H2 2797   2.529   3.816   4.512  0.3642 -0.0633 -0.9495
  931TIP3   OH2 2798   2.406   1.159   1.321 -0.1314  0.1325 -0.0197
  931TIP3    H1 2799   2.364   1.239   1.290 -0.1492 -0.5238 -1.7698
  931TIP3    H2 2800   2.336   1.107   1.359 -0.5733 -0.1022 -1.1287
  932TIP3   OH2 2801   2.526   0.916   2.700 -0.1780 -0.1453 -0.1093
  932TIP3    H1 2802   2.492   0.901   2.789 -1.6965  0.0275 -0.6292
  932TIP3    H2 2803   2.468   0.865   2.643  1.4391 -1.1305 -0.9400
  933TIP3   OH2 2804   2.240   2.851   4.500  0.2390  0.3708 -0.2685
  933TIP3    H1 2805   2.324   2.895   4.513  0.1462  0.7101 -0.7649
  933TIP3    H2 2806   2.229   2.851   4.405  0.9872 -2.1327 -0.4152
  934TIP3   OH2 2807   1.010   1.287   1.176  0.2414  0.2283  0.7504
  934TIP3    H1 2808   1.095   1.243   1.170  0.4981  0.8368 -0.3843
  934TIP3    H2 2809   0.967   1.268   1.093 -0.5056  0.3890  1.0917
  935TIP3   OH2 2810   3.674   1.961   0.730  0.0404 -0.0040 -0.1029
  935TIP3    H1 2811   3.766   1.982   0.713  0.2245 -0.8393 -0.1922
  935TIP3    H2 2812   3.673   1.866   0.741 -0.8795 -0.0456 -0.4990
  936TIP3   OH2 2813   1.315   0.395   0.812 -0.3892  0.1902 -0.3050
  936TIP3    H1 2814   1.409   0.383   0.799 -0.2869  0.0344  0.5584
  936TIP3    H2 2815   1.276   0.353   0.735  0.2204 -0.3272 -0.3504
  937TIP3   OH2 2816   3.956   4.336   4.306 -0.9294  0.0176 -0.1955
  937TIP3    H1 2817   4.002   4.361   4.227 -0.5977 -2.3340 -0.8340
  937TIP3    H2 2818   3.983   4.400   4.372  1.6831 -0.1175 -1.0574
  938TIP3   OH2 2819   5.598   5.634   2.801  0.6135 -0.1684 -0.0730
  938TIP3    H1 2820   5.620   5.704   2.739 -0.0125 -0.1850 -0.3277
  938TIP3    H2 2821   5.676   5.579   2.804  1.2315  0.7075  0.3731
  939TIP3   OH2 2822   0.793   0.326   4.365 -0.2644  0.1571  0.0582
  939TIP3    H1 2823   0.788   0.275   4.284 -0.3772  0.9513 -0.4433
  939TIP3    H2 2824   0.798   0.260   4.434 -2.3348 -0.6012 -0.4250
  940TIP3   OH2 2825   0.755   5.068   2.675 -0.0374  0.1398 -0.0036
  940TIP3    H1 2826   0.792   5.116   2.749 -1.8816  2.1905 -0.2879
  940TIP3    H2 2827   0.661   5.066   2.693 -0.2348 -1.5813 -1.0708
  941TIP3   OH2 2828   2.185   5.218   3.783  0.1540  0.1989 -0.2144
  941TIP3    H1 2829   2.160   5.170   3.862 -1.3984  0.6193 -0.4127
  941TIP3    H2 2830   2.201   5.307   3.813  0.8246  0.0697 -0.1844
  942TIP3   OH2 2831   0.772   4.923   1.838  0.1077 -0.2223  0.4558
  942TIP3    H1 2832   0.761   4.940   1.931 -1.5376  1.4859  0.0090
  942TIP3    H2 2833   0.702   4.862   1.816  0.4928 -0.6228  0.3047
  943TIP3   OH2 2834   2.284   0.834   4.547  0.2990 -0.0232 -0.1480
  943TIP3    H1 2835   2.294   0.901   4.480 -2.1402  1.9535  1.2758
  943TIP3    H2 2836   2.358   0.847   4.606  0.8992  0.1016 -0.9131
  944TIP3   OH2 2837   3.271   2.236   0.697  0.0497  0.6378  0.8089
  944TIP3    H1 2838   3.344   2.196   0.745 -1.2934 -1.3459  1.3383
  944TIP3    H2 2839   3.201   2.242   0.761 -0.1261  3.1263  0.4809
  945TIP3   OH2 2840   5.863   2.754   0.537 -0.3404 -0.1911 -0.2194
  945TIP3    H1 2841   5.894   2.700   0.609  1.6798 -0.8019 -1.4517
  945TIP3    H2 2842   5.863   2.843   0.571 -2.8529 -0.7631  1.5628
  946TIP3   OH2 2843   2.908   1.497   3.108  0.0850  0.4331 -0.1612
  946TIP3    H1 2844   2.874   1.408   3.102  1.0878 -0.0206  0.5800
  946TIP3    H2 2845   2.865   1.533   3.187 -1.2471  1.0528 -1.1259
  947TIP3   OH2 2846   5.910   0.913   3.096  0.2568  0.5198 -0.1980
  947TIP3    H1 2847   5.828   0.949   3.131 -0.9222 -0.3055 -1.9750
  947TIP3    H2 2848   5.882   0.851   3.029  2.3643  0.9011 -1.5075
  948TIP3   OH2 2849   4.473   1.586   2.251 -0.2032  0.4315 -0.5562
  948TIP3    H1 2850   4.507   1.609   2.165  1.5270  0.6865  0.1559
  948TIP3    H2 2851   4.503   1.656   2.308  0.1018 -0.5728  0.5499
  949TIP3   OH2 2852   5.445   3.545   3.031 -0.1868  0.3022  0.0609
  949TIP3    H1 2853   5.463   3.455   3.060  1.6510  0.0759 -1.5434
  949TIP3    H2 2854   5.473   3.546   2.939  0.2134  2.6109  0.1551
  950TIP3   OH2 2855   4.455   3.954   3.541 -0.0354 -0.2694 -0.0885
  950TIP3    H1 2856   4.412   3.874   3.571 -0.1568 -0.5720 -1.0289
  950TIP3    H2 2857   4.548   3.938   3.553 -0.0004 -0.9106 -1.0624
  951TIP3   OH2 2858   3.829   2.128   2.025  0.2543 -0.0105 -0.2118
  951TIP3    H1 2859   3.839   2.210   2.072  1.2082 -0.0950 -0.2486
  951TIP3    H2 2860   3.741   2.133   1.986 -0.1100  0.5274  0.6460
  952TIP3   OH2 2861   2.574   1.418   2.134  0.0182  0.6724  0.2781
  952TIP3    H1 2862   2.566   1.380   2.047  0.1552 -0.7202  0.8440
  952TIP3    H2 2863   2.540   1.508   2.125  1.8219  1.2269 -1.6191
  953TIP3   OH2 2864   3.792   2.959   1.045  0.0760 -0.1857  0.2039
  953TIP3    H1 2865   3.715   2.904   1.058  1.3422 -2.0610  0.0462
  953TIP3    H2 2866   3.780   3.031   1.107 -0.8959 -1.4285  1.5297
  954TIP3   OH2 2867   0.638   5.613   1.549  0.3197 -0.2561  0.2495
  954TIP3    H1 2868   0.610   5.689   1.499  0.8020  0.6102  1.2561
  954TIP3    H2 2869   0.604   5.538   1.501 -1.0800  0.6357 -0.1878
  955TIP3   OH2 2870   3.299   5.753   0.815  0.3808 -0.0690 -0.0189
  955TIP3    H1 2871   3.325   5.691   0.747 -1.4640 -2.5927  1.3881
  955TIP3    H2 2872   3.221   5.796   0.781  1.4158  1.2640 -0.8174
  956TIP3   OH2 2873   1.829   3.967   3.447  0.2550  0.5663  0.4901
  956TIP3    H1 2874   1.874   3.955   3.530  2.2548 -1.2990 -0.7406
  956TIP3    H2 2875   1.893   4.011   3.391 -0.0796 -0.4433 -0.7494
  957TIP3   OH2 2876   5.074   5.778   1.438  0.5652 -0.4331 -0.9109
  957TIP3    H1 2877   5.079   5.682   1.431  0.2915 -0.5180 -0.0553
  957TIP3    H2 2878   5.109   5.797   1.525  0.3662  0.2202 -0.9745
  958TIP3   OH2 2879   4.368   0.893   3.776  0.0843 -0.2049  0.3599
  958TIP3    H1 2880   4.326   0.952   3.839 -0.9279 -1.0355  0.4782
  958TIP3    H2 2881   4.404   0.823   3.830  0.0553 -0.4210  0.0970
  959TIP3   OH2 2882   6.261   2.878   0.209  0.6336 -0.1406  0.2038
  959TIP3    H1 2883   6.206   2.888   0.287  1.0990  0.8330  0.4235
  959TIP3    H2 2884   6.350   2.870   0.244  0.5753 -2.9513 -0.0765
  960TIP3   OH2 2885   3.663   3.847   0.117 -0.1625  0.4601 -0.4709
  960TIP3    H1 2886   3.578   3.859   0.159 -0.1574  0.1099 -0.3595
  960TIP3    H2 2887   3.693   3.936   0.098 -1.2647  0.5502 -1.9637
  961TIP3   OH2 2888   0.153   2.878   5.182 -0.0568  0.0376  0.2264
  961TIP3    H1 2889   0.179   2.845   5.096 -1.1358  1.2858 -0.6256
  961TIP3    H2 2890   0.216   2.948   5.201  0.2280 -0.2894  0.4922
  962TIP3   OH2 2891   6.090   2.581   1.393  0.2941  0.3501 -0.3246
  962TIP3    H1 2892   6.184   2.575   1.404  0.3103  0.9025 -0.1076
  962TIP3    H2 2893   6.065   2.660   1.442 -0.2384  0.3639 -0.6080
  963TIP3   OH2 2894   4.909   4.431   0.914 -0.2305  0.3166  0.2761
  963TIP3    H1 2895   5.000   4.448   0.940  0.3292 -1.0916 -0.6295
  963TIP3    H2 2896   4.893   4.341   0.943 -1.1265  0.3425 -0.1183
  964TIP3   OH2 2897   2.556   2.313   0.635  0.4115 -1.0008 -0.1788
  964TIP3    H1 2898   2.556   2.249   0.706  0.4528 -0.1760  0.5820
  964TIP3    H2 2899   2.549   2.398   0.679 -1.1864 -0.5446 -1.2282
  965TIP3   OH2 2900   0.451   4.011   0.928  0.3998 -0.2323 -0.1220
  965TIP3    H1 2901   0.542   4.038   0.934  0.0854  1.0956 -1.1016
  965TIP3    H2 2902   0.446   3.932   0.982  2.1355 -0.3688 -0.1259
  966TIP3   OH2 2903   0.226   5.673   4.720 -0.8436  0.0019  0.6571
  966TIP3    H1 2904   0.149   5.618   4.703 -0.8132 -0.1408  0.9657
  966TIP3    H2 2905   0.207   5.715   4.805 -1.0420  0.7720  0.2463
  967TIP3   OH2 2906   2.372   5.086  -0.013 -0.4612  0.1612 -0.0275
  967TIP3    H1 2907   2.373   5.145   0.062  0.1381 -0.8751  0.8188
  967TIP3    H2 2908   2.428   5.013   0.014  0.2026  0.0146 -1.7097
  968TIP3   OH2 2909   6.324   3.628   1.729  0.1409 -0.0401  0.0993
  968TIP3    H1 2910   6.280   3.675   1.799  0.6583  1.4416 -0.5087
  968TIP3    H2 2911   6.414   3.617   1.760 -0.0204 -0.8045  0.3089
  969TIP3   OH2 2912   4.538   1.801   1.361 -0.0388  0.1863  0.4267
  969TIP3    H1 2913   4.564   1.728   1.418  0.0824 -0.0026  0.1336
  969TIP3    H2 2914   4.466   1.843   1.407 -1.5249 -1.3978 -0.3800
  970TIP3   OH2 2915   1.405   5.330   0.078 -0.2395  0.2097 -0.5850
  970TIP3    H1 2916   1.412   5.406   0.135 -2.4158  0.3132 -0.3894
  970TIP3    H2 2917   1.354   5.266   0.128 -1.2438 -0.1183 -1.9632
  971TIP3   OH2 2918   2.804   4.538   4.003  0.5736 -0.4555 -0.1962
  971TIP3    H1 2919   2.899   4.533   4.017  0.4898 -0.3465  0.4703
  971TIP3    H2 2920   2.767   4.512   4.088  0.0286  1.9913  0.3953
  972TIP3   OH2 2921   3.544   4.674   3.028 -0.0913  0.4082 -1.2552
  972TIP3    H1 2922   3.533   4.721   2.945 -2.5671  0.3752 -1.0313
  972TIP3    H2 2923   3.464   4.623   3.037  1.0224 -1.1887  0.2027
  973TIP3   OH2 2924   6.020   3.205   1.301 -0.3315 -0.0888 -0.0959
  973TIP3    H1 2925   5.984   3.132   1.250  1.3577 -1.0383  0.0089
  973TIP3    H2 2926   5.957   3.276   1.287 -0.4566 -0.6027 -2.6988
  974TIP3   OH2 2927   4.770   2.351   2.368 -0.3572 -0.3465  0.4305
  974TIP3    H1 2928   4.739   2.362   2.278 -1.2214  0.4027  0.7937
  974TIP3    H2 2929   4.733   2.268   2.396 -1.9497  0.4368  0.7849
  975TIP3   OH2 2930   0.597   5.635   0.335  0.4307  0.4012  0.0036
  975TIP3    H1 2931   0.616   5.569   0.268  4.1287  1.1181  0.1583
  975TIP3    H2 2932   0.554   5.586   0.405  0.5882 -1.2664 -1.0059
  976TIP3   OH2 2933   3.506   0.943   1.132  0.4035  0.4143  0.1145
  976TIP3    H1 2934   3.429   0.994   1.109 -0.0647 -0.0392  0.6537
  976TIP3    H2 2935   3.529   0.971   1.220  0.4607  0.0733  0.2099
  977TIP3   OH2 2936   4.921   4.866   3.676 -0.4521 -0.4325 -0.0854
  977TIP3    H1 2937   4.830   4.847   3.701 -0.3731 -0.7788 -0.0701
  977TIP3    H2 2938   4.961   4.781   3.662 -0.6446 -0.2532 -1.9197
  978TIP3   OH2 2939   1.258   4.322   3.656  0.0351 -0.0959 -0.4490
  978TIP3    H1 2940   1.200   4.361   3.721 -0.7263 -0.7227 -0.7346
  978TIP3    H2 2941   1.220   4.237   3.637 -0.5337  0.5689 -2.6784
  979TIP3   OH2 2942   6.243   5.751   0.706  0.2762 -0.2070  0.8120
  979TIP3    H1 2943   6.192   5.827   0.735  0.4002  1.0526 -1.9825
  979TIP3    H2 2944   6.327   5.787   0.680  0.4647 -1.3571 -0.2301
  980TIP3   OH2 2945   6.156   5.413   3.951 -0.1946  0.3776 -0.0594
  980TIP3    H1 2946   6.172   5.464   4.031  0.1518 -0.4294  0.3936
  980TIP3    H2 2947   6.163   5.322   3.978 -1.6946  0.0406 -0.6680
  981TIP3   OH2 2948   5.785   1.499   3.859 -0.1394  0.3749  0.0891
  981TIP3    H1 2949   5.821   1.586   3.877 -1.0379  0.9352 -0.7296
  981TIP3    H2 2950   5.803   1.484   3.766 -0.5448 -0.0484  0.0765
  982TIP3   OH2 2951  -0.027   3.256   2.046  0.5416 -0.1124  0.4708
  982TIP3    H1 2952   0.051   3.309   2.058  0.1127  0.3190  1.4910
  982TIP3    H2 2953   0.005   3.167   2.032  1.2116  0.0392  1.0182
  983TIP3   OH2 2954   1.803   4.300   3.286  0.7755  0.8676  1.1323
  983TIP3    H1 2955   1.846   4.215   3.272 -0.1397  0.6703 -0.9503
  983TIP3    H2 2956   1.711   4.278   3.301 -0.2854  1.4390 -3.1072
  984TIP3   OH2 2957   4.213   4.673   1.863  0.2219 -0.0557 -0.0338
  984TIP3    H1 2958   4.183   4.715   1.783 -0.3592 -0.0413  0.1844
  984TIP3    H2 2959   4.165   4.717   1.933  0.1794 -0.5613  0.2599
  985TIP3   OH2 2960   3.327   2.659   3.276 -0.5231  0.0592  0.0551
  985TIP3    H1 2961   3.263   2.589   3.261 -0.1277 -0.7772  1.8659
  985TIP3    H2 2962   3.402   2.635   3.221 -0.6171 -0.6453  0.2168
  986TIP3   OH2 2963   4.080   2.247   2.720  0.3823 -0.2816  0.0551
  986TIP3    H1 2964   4.083   2.325   2.775  0.0479 -1.1340  1.3369
  986TIP3    H2 2965   4.112   2.276   2.634  1.6213  0.9350  0.8873
  987TIP3   OH2 2966   4.119   5.806   4.009 -0.4354 -0.0065 -0.0528
  987TIP3    H1 2967   4.059   5.776   4.077  0.8410  0.4305  1.3358
  987TIP3    H2 2968   4.116   5.901   4.015 -0.3049  0.0356 -0.6188
  988TIP3   OH2 2969   5.946   4.085   2.101 -0.0353  0.0834 -0.7709
  988TIP3    H1 2970   5.854   4.057   2.097 -0.0423 -0.1491  0.4300
  988TIP3    H2 2971   5.942   4.180   2.110 -0.3733 -0.1136  2.7047
  989TIP3   OH2 2972   4.780   5.844   3.828  0.6564 -0.1238  0.4496
  989TIP3    H1 2973   4.761   5.838   3.735  1.7782 -1.2820  0.2805
  989TIP3    H2 2974   4.845   5.915   3.835  0.7679 -0.2144  0.3245
  990TIP3   OH2 2975   0.625   5.953   3.358  0.7757  0.2055 -0.0046
  990TIP3    H1 2976   0.598   5.885   3.296 -0.3980 -0.6484  1.3614
  990TIP3    H2 2977   0.561   6.023   3.346  0.8082  0.2244 -0.0644
  991TIP3   OH2 2978   3.915   5.697   1.897 -0.5102 -0.2790 -0.1870
  991TIP3    H1 2979   3.929   5.764   1.964 -0.5183 -2.2919  1.9522
  991TIP3    H2 2980   3.996   5.696   1.847  0.4532 -0.3001  1.3074
  992TIP3   OH2 2981   2.388   5.331   0.939  0.3850 -0.0676 -0.1239
  992TIP3    H1 2982   2.343   5.388   1.002  0.6510 -0.4304  0.4091
  992TIP3    H2 2983   2.318   5.294   0.885  0.1092 -0.0566  0.2200
  993TIP3   OH2 2984   2.083   2.339   3.268 -0.6171 -0.3347  0.0181
  993TIP3    H1 2985   2.136   2.303   3.197 -0.9685  0.4989 -0.6876
  993TIP3    H2 2986   2.096   2.434   3.262 -0.5663 -0.2496  1.1437
  994TIP3   OH2 2987   1.030   2.951   0.986 -0.1679 -0.4424  0.2892
  994TIP3    H1 2988   0.976   2.928   1.062 -1.7098  0.3380 -0.5121
  994TIP3    H2 2989   1.000   2.891   0.918 -1.5906  1.3468 -0.7596
  995TIP3   OH2 2990   0.667   0.234   3.342  0.5727  0.2836  0.2560
  995TIP3    H1 2991   0.676   0.144   3.311 -1.4084  0.8277 -2.2563
  995TIP3    H2 2992   0.755   0.270   3.338  0.9689 -0.7536 -1.5472
  996TIP3   OH2 2993   4.814   2.621   0.861 -0.8013 -0.5239 -0.2631
  996TIP3    H1 2994   4.824   2.710   0.894  0.3002 -0.7709  0.1432
  996TIP3    H2 2995   4.856   2.567   0.928  2.0909 -1.0052 -2.2558
  997TIP3   OH2 2996   2.073   3.203   2.815 -0.1520 -0.3839 -0.2725
  997TIP3    H1 2997   2.059   3.112   2.840 -0.3494 -0.4534 -0.6295
  997TIP3    H2 2998   2.161   3.224   2.846 -0.3610 -0.4894  0.4060
  998TIP3   OH2 2999   2.836   1.425   2.499  0.2129 -0.1764 -0.3359
  998TIP3    H1 3000   2.794   1.344   2.468  1.6356 -1.4569  0.9419
  998TIP3    H2 3001   2.777   1.458   2.567  0.7279 -1.4139  0.7466
  999TIP3   OH2 3002   4.943   2.976   1.630 -0.1537 -0.6341 -0.1366
  999TIP3    H1 3003   5.020   3.033   1.636 -0.4067 -0.3819  0.8432
  999TIP3    H2 3004   4.881   3.025   1.577 -0.1609 -0.2220  0.2428
 1000TIP3   OH2 3005   4.530   5.677   2.667 -0.3064 -0.6814 -0.2262
 1000TIP3    H1 3006   4.579   5.752   2.635  0.6882 -0.7641  1.0199
 1000TIP3    H2 3007   4.531   5.615   2.594  0.4468 -0.2172 -0.6239
 1001TIP3   OH2 3008   1.708   2.892   3.739 -0.3962 -0.2364 -0.5803
 1001TIP3    H1 3009   1.767   2.845   3.680 -0.4221 -0.9711 -0.0315
 1001TIP3    H2 3010   1.700   2.835   3.815  0.5153  1.1745  0.6442
 1002TIP3   OH2 3011   0.925   3.608   2.130  0.1448  0.4872  0.3255
 1002TIP3    H1 3012   0.937   3.697   2.165 -0.4210  0.2564  1.1254
 1002TIP3    H2 3013   0.838   3.582   2.159  0.6268 -0.6528  0.8138
 1003TIP3   OH2 3014   3.704   4.564   2.570 -0.4225  0.1302  0.8562
 1003TIP3    H1 3015   3.784   4.607   2.600  0.8037 -1.3796 -0.1096
 1003TIP3    H2 3016   3.686   4.497   2.637  0.5331 -1.1377 -0.1058
 1004TIP3   OH2 3017   5.129   2.404   3.449  0.0732 -0.3215 -0.5914
 1004TIP3    H1 3018   5.080   2.456   3.513  2.0677 -0.0639  0.7997
 1004TIP3    H2 3019   5.198   2.462   3.418 -1.0534 -0.2989 -3.3843
 1005TIP3   OH2 3020   2.298   1.880   2.582  0.4747 -0.2038  0.4338
 1005TIP3    H1 3021   2.225   1.937   2.607 -0.8432 -1.2428 -0.8373
 1005TIP3    H2 3022   2.314   1.900   2.490  2.3557  0.5429  0.8714
 1006TIP3   OH2 3023   5.635   2.652   3.507  0.3435  0.0087 -0.7289
 1006TIP3    H1 3024   5.583   2.723   3.546 -0.8343 -1.2483  0.0616
 1006TIP3    H2 3025   5.614   2.655   3.414 -1.2314 -0.5053 -0.4142
 1007TIP3   OH2 3026   4.083   1.749   3.531 -0.1124 -0.4164  0.4160
 1007TIP3    H1 3027   4.104   1.788   3.446 -1.9718  0.1835  0.1837
 1007TIP3    H2 3028   4.109   1.816   3.595  0.8237 -0.6618  0.3050
 1008TIP3   OH2 3029   2.755   2.245   3.715 -0.2729 -0.3299  0.2565
 1008TIP3    H1 3030   2.805   2.169   3.685 -0.7543 -1.8402  2.9232
 1008TIP3    H2 3031   2.668   2.233   3.677  0.1208 -0.1742 -0.7079
 1009TIP3   OH2 3032   4.259   2.685   2.352 -0.2914  0.2902 -0.4128
 1009TIP3    H1 3033   4.180   2.701   2.301 -0.2229  1.3283 -0.2049
 1009TIP3    H2 3034   4.312   2.764   2.342  1.2405 -0.7967 -1.4503
 1010TIP3   OH2 3035   6.222   5.809   1.604  0.1778  0.0052  0.2707
 1010TIP3    H1 3036   6.170   5.730   1.592  0.8073 -0.6726  1.8513
 1010TIP3    H2 3037   6.312   5.778   1.610  0.5805  0.9848 -0.4351
 1011TIP3   OH2 3038   0.825   0.431   1.600 -0.0684  0.0372 -0.1996
 1011TIP3    H1 3039   0.920   0.434   1.610  0.2749 -0.9425 -2.4845
 1011TIP3    H2 3040   0.801   0.520   1.572  0.0483  0.4721  1.0225
 1012TIP3   OH2 3041   4.902   3.082   0.718  0.2762  0.0000 -0.2738
 1012TIP3    H1 3042   4.895   3.170   0.682  0.9907 -0.2656 -1.0898
 1012TIP3    H2 3043   4.982   3.083   0.771 -1.0870  0.5663  1.8984
 1013TIP3   OH2 3044   3.597   3.215   4.430  0.0793  0.2861  0.1104
 1013TIP3    H1 3045   3.549   3.139   4.397 -0.3380  0.5938 -0.0084
 1013TIP3    H2 3046   3.688   3.196   4.411  0.6719 -2.3933  4.3352
 1014TIP3   OH2 3047   0.739   1.614   2.323 -0.0022  0.1168  0.4967
 1014TIP3    H1 3048   0.769   1.608   2.414 -1.0941  0.3651  0.8969
 1014TIP3    H2 3049   0.805   1.568   2.272  0.0287 -1.0603  1.5581
 1015TIP3   OH2 3050   4.035   4.991   4.634 -0.0478 -0.2768 -0.0540
 1015TIP3    H1 3051   4.010   4.946   4.553 -0.9310  0.8560 -0.4374
 1015TIP3    H2 3052   4.117   5.035   4.612 -0.7216  0.7313 -0.6289
 1016TIP3   OH2 3053   4.924   3.139   3.934 -0.1348  0.0454 -0.0075
 1016TIP3    H1 3054   4.853   3.201   3.919 -1.0201 -0.9976 -0.3027
 1016TIP3    H2 3055   4.888   3.077   3.997  0.6221 -0.3325  0.0619
 1017TIP3   OH2 3056   3.439   3.546   0.653  0.4379  0.1203  0.8327
 1017TIP3    H1 3057   3.402   3.463   0.681 -1.4238  0.2353 -1.0480
 1017TIP3    H2 3058   3.387   3.612   0.699 -0.7315  0.2503 -0.5835
 1018TIP3   OH2 3059   0.184   1.244   0.728  0.7613 -0.7719  0.4598
 1018TIP3    H1 3060   0.249   1.174   0.719  2.5890  0.4757  2.6994
 1018TIP3    H2 3061   0.101   1.198   0.741  1.6535 -2.5034  0.3498
 1019TIP3   OH2 3062   3.543   2.762   3.641 -0.2355  0.3616  0.1491
 1019TIP3    H1 3063   3.615   2.723   3.692 -0.3324  0.8838  0.6904
 1019TIP3    H2 3064   3.486   2.688   3.622  1.1380 -0.3495 -1.5210
 1020TIP3   OH2 3065   2.906   3.832   1.918 -0.8540  0.1448 -0.2218
 1020TIP3    H1 3066   2.969   3.837   1.989  1.0965 -0.8131 -1.7631
 1020TIP3    H2 3067   2.902   3.922   1.883 -2.7295  0.8966  1.7235
 1021TIP3   OH2 3068   1.197   3.543   2.273  0.1477  0.2079 -0.5269
 1021TIP3    H1 3069   1.268   3.555   2.336 -0.4173  0.6078  0.0364
 1021TIP3    H2 3070   1.241   3.544   2.188  0.8727 -0.0096 -0.1656
 1022TIP3   OH2 3071   3.576   1.972   4.024  0.0634 -0.6209  0.0314
 1022TIP3    H1 3072   3.567   2.008   3.936 -0.1920  0.2273  0.3949
 1022TIP3    H2 3073   3.498   1.918   4.035 -0.4011  0.0508  0.0916
 1023TIP3   OH2 3074   2.731   4.082   2.188  0.0485 -0.1468  0.0923
 1023TIP3    H1 3075   2.801   4.121   2.240  0.8153 -0.7932 -0.4228
 1023TIP3    H2 3076   2.678   4.034   2.251 -2.1450  3.2787  1.1057
 1024TIP3   OH2 3077   5.022   4.059   1.036  0.1631 -0.5227  0.2767
 1024TIP3    H1 3078   5.035   4.037   0.944  0.4244  0.2013  0.1383
 1024TIP3    H2 3079   5.045   3.978   1.083  2.3142 -0.2183 -0.1522
 1025TIP3   OH2 3080   1.369   3.642   5.084 -0.5733  0.0445  0.1064
 1025TIP3    H1 3081   1.440   3.696   5.049 -1.3189  0.3796 -0.9499
 1025TIP3    H2 3082   1.374   3.561   5.033 -1.4923  0.4243 -0.6180
 1026TIP3   OH2 3083   1.592   1.894   4.976  0.3427  0.3334  0.9700
 1026TIP3    H1 3084   1.682   1.882   5.007  0.6529 -0.0406 -0.0220
 1026TIP3    H2 3085   1.554   1.958   5.036  1.8046  1.7988  0.3946
 1027TIP3   OH2 3086   4.825   4.143   1.821  0.3547  0.1951 -0.3056
 1027TIP3    H1 3087   4.804   4.171   1.910  0.0789 -0.8655 -0.0245
 1027TIP3    H2 3088   4.898   4.199   1.795  0.3072  0.6492  0.5188
 1028TIP3   OH2 3089   6.264   3.999   0.431  0.5487 -0.2147 -0.0312
 1028TIP3    H1 3090   6.198   3.995   0.362 -0.2571  0.1976  0.6853
 1028TIP3    H2 3091   6.233   4.070   0.488  1.0951 -0.6707  0.8450
 1029TIP3   OH2 3092   3.648   5.700   5.146 -0.9037  0.5518 -0.2081
 1029TIP3    H1 3093   3.613   5.709   5.057 -0.7041  0.2640 -0.3157
 1029TIP3    H2 3094   3.738   5.671   5.134 -1.3101 -0.9150  0.1098
 1030TIP3   OH2 3095   0.942   4.400   4.905 -0.0349  0.0090 -0.0950
 1030TIP3    H1 3096   0.955   4.306   4.895 -1.0305 -0.2421  0.7634
 1030TIP3    H2 3097   1.008   4.428   4.967  0.0686 -0.1829 -0.1189
 1031TIP3   OH2 3098   4.332   0.402   0.221  0.8532 -0.3030  0.2634
 1031TIP3    H1 3099   4.411   0.447   0.250  2.3044 -1.7167 -1.1761
 1031TIP3    H2 3100   4.325   0.424   0.128  1.7265 -2.9835 -0.5488
 1032TIP3   OH2 3101   1.370   0.284   4.638 -0.4136 -0.4773 -0.1044
 1032TIP3    H1 3102   1.453   0.279   4.589 -0.4100 -0.9798 -0.0473
 1032TIP3    H2 3103   1.303   0.259   4.574 -0.5631  0.2719 -0.2484
 1033TIP3   OH2 3104   1.043   2.883   1.443  0.2566 -0.4527 -0.3773
 1033TIP3    H1 3105   1.102   2.869   1.517 -2.0430 -0.1648  1.6566
 1033TIP3    H2 3106   0.992   2.802   1.437 -0.6450  0.1125 -0.5754
 1034TIP3   OH2 3107   0.745   2.528   4.109  0.1393  0.3328  0.2952
 1034TIP3    H1 3108   0.704   2.506   4.025  0.9304 -0.0859  0.0101
 1034TIP3    H2 3109   0.686   2.491   4.175 -1.2181  1.8334 -0.0002
 1035TIP3   OH2 3110   2.791   3.895   0.649  0.1305  0.5528  0.8373
 1035TIP3    H1 3111   2.704   3.932   0.633  0.2571  1.3806  2.0000
 1035TIP3    H2 3112   2.838   3.909   0.567 -0.8253  0.0540  0.1724
 1036TIP3   OH2 3113   1.216   0.839   0.177  0.8069  0.0019 -0.3618
 1036TIP3    H1 3114   1.139   0.871   0.223  0.9865 -0.1517  0.0499
 1036TIP3    H2 3115   1.188   0.831   0.086  0.1505 -0.6430 -0.1101
 1037TIP3   OH2 3116   3.892   1.047   4.885  0.2724 -0.6805  0.7320
 1037TIP3    H1 3117   3.877   1.137   4.856  0.0597 -1.1423 -0.6475
 1037TIP3    H2 3118   3.915   0.999   4.806 -0.8773 -2.1258  1.2263
 1038TIP3   OH2 3119   2.160   3.346   1.980  0.5458  0.0736  0.7732
 1038TIP3    H1 3120   2.231   3.310   1.926  0.6549  1.8107 -0.2988
 1038TIP3    H2 3121   2.080   3.312   1.940  0.6798  0.1072  0.4786
 1039TIP3   OH2 3122   3.291   1.754   0.946  0.2943  0.0778  0.0904
 1039TIP3    H1 3123   3.368   1.811   0.947 -0.4106  1.0921 -0.9421
 1039TIP3    H2 3124   3.317   1.678   0.998  2.0497  0.3080 -0.3798
 1040TIP3   OH2 3125   1.624   5.015   1.776  0.2875  0.6543  0.2029
 1040TIP3    H1 3126   1.691   5.077   1.748  2.0119 -1.5779 -0.9098
 1040TIP3    H2 3127   1.613   5.032   1.869  1.9399  1.5138  0.2717
 1041TIP3   OH2 3128   4.780   2.439   1.397 -0.2013  0.2303  0.5463
 1041TIP3    H1 3129   4.706   2.391   1.434  0.5328 -1.2747  0.1332
 1041TIP3    H2 3130   4.854   2.417   1.453  0.4601 -0.3106 -0.5127
 1042TIP3   OH2 3131   5.074   1.686   0.957 -0.1628  0.3609 -0.1750
 1042TIP3    H1 3132   5.133   1.667   1.029 -0.1505 -1.6299 -0.6699
 1042TIP3    H2 3133   4.988   1.695   0.998 -0.0764 -0.2512  0.1528
 1043TIP3   OH2 3134   0.217   3.226   3.147 -0.0528  0.7989  0.1459
 1043TIP3    H1 3135   0.219   3.131   3.137 -1.9563  0.7004  0.2838
 1043TIP3    H2 3136   0.215   3.259   3.057  0.8251  0.7372  0.0946
 1044TIP3   OH2 3137   4.652   1.823   0.096 -0.0721 -0.0574  0.2720
 1044TIP3    H1 3138   4.717   1.888   0.123 -1.4321  1.2076  0.6880
 1044TIP3    H2 3139   4.620   1.855   0.011 -0.7004 -0.2166  0.4391
 1045TIP3   OH2 3140   2.989   2.009   1.091  0.6791 -0.0935  0.6068
 1045TIP3    H1 3141   2.986   2.062   1.011  0.7692  1.6025  1.6734
 1045TIP3    H2 3142   2.965   1.921   1.062  1.5391  0.2795 -1.4222
 1046TIP3   OH2 3143   0.022   0.457   1.331 -0.0289  0.1437 -1.0683
 1046TIP3    H1 3144   0.002   0.426   1.243  0.6371 -1.6184 -0.6559
 1046TIP3    H2 3145   0.117   0.444   1.340 -0.3797 -2.0375  0.6603
 1047TIP3   OH2 3146   2.188   0.257   0.036  0.4452  0.0940 -0.8978
 1047TIP3    H1 3147   2.129   0.326   0.066 -0.4732 -1.3434  0.7610
 1047TIP3    H2 3148   2.131   0.182   0.020  1.7576 -1.1939  0.2758
 1048TIP3   OH2 3149   4.481   2.799   4.616  0.1130 -0.8361 -0.6004
 1048TIP3    H1 3150   4.515   2.801   4.526 -2.1918  2.3343 -1.6093
 1048TIP3    H2 3151   4.465   2.891   4.637  0.5278 -1.4750  3.1215
 1049TIP3   OH2 3152   6.093   4.213   0.758 -0.1460  0.3627 -0.4811
 1049TIP3    H1 3153   6.160   4.185   0.821 -0.1976  1.4481  0.0755
 1049TIP3    H2 3154   6.073   4.303   0.782  0.1099  0.9477 -2.3070
 1050TIP3   OH2 3155   3.199   2.092   2.003  0.2985 -0.0406  0.1856
 1050TIP3    H1 3156   3.293   2.085   2.017  0.2081 -0.8972  0.4168
 1050TIP3    H2 3157   3.181   2.033   1.929  0.0586  0.7267 -0.3769
 1051TIP3   OH2 3158   4.225   2.151   0.223 -0.4681  0.5347  0.3852
 1051TIP3    H1 3159   4.292   2.184   0.283  1.5122  0.3680 -1.6083
 1051TIP3    H2 3160   4.166   2.101   0.279  1.1523  0.5525  2.2261
 1052TIP3   OH2 3161   5.277   2.097   3.333 -0.0557  0.1601 -0.4134
 1052TIP3    H1 3162   5.343   2.130   3.394  0.6079 -0.0552 -1.0121
 1052TIP3    H2 3163   5.268   2.005   3.355  0.9473 -0.1687 -1.3115
 1053TIP3   OH2 3164   4.611   5.944   0.459  0.0177  0.2242  0.2365
 1053TIP3    H1 3165   4.682   5.967   0.519  0.1332  2.9449 -0.8261
 1053TIP3    H2 3166   4.532   5.955   0.512  0.2268 -0.7388  0.7985
 1054TIP3   OH2 3167   5.943   1.795   2.986 -0.0825 -0.8870 -0.5090
 1054TIP3    H1 3168   5.971   1.724   2.929  0.2543 -0.6302 -0.6644
 1054TIP3    H2 3169   6.014   1.859   2.981 -0.7107 -0.2118 -0.9460
 1055TIP3   OH2 3170   1.921   5.605   0.535  0.4576 -0.0890  0.3505
 1055TIP3    H1 3171   1.978   5.535   0.503 -2.2086 -0.8132 -3.5946
 1055TIP3    H2 3172   1.875   5.568   0.609  1.2247 -1.4243  0.1900
 1056TIP3   OH2 3173   6.048   4.889   4.910 -0.5930  0.0270  0.6002
 1056TIP3    H1 3174   6.123   4.915   4.963  0.7243  1.6778 -1.8209
 1056TIP3    H2 3175   5.987   4.962   4.918 -0.0040  0.7011 -0.7337
 1057TIP3   OH2 3176   1.836   3.112   2.063 -0.0791  0.0270 -0.2363
 1057TIP3    H1 3177   1.912   3.108   2.005 -1.7005 -0.6219 -2.4548
 1057TIP3    H2 3178   1.871   3.091   2.149  2.1025 -1.1855 -1.3202
 1058TIP3   OH2 3179   2.714   1.917   3.621 -0.0508 -0.6037  1.2403
 1058TIP3    H1 3180   2.704   1.897   3.715 -1.1332 -1.1052  1.0453
 1058TIP3    H2 3181   2.625   1.906   3.586  0.2042  0.3070  0.2888
 1059TIP3   OH2 3182   0.017   0.302   1.573  0.8055  0.2350  0.0331
 1059TIP3    H1 3183   0.035   0.345   1.489  1.2061  1.7271  0.8520
 1059TIP3    H2 3184   0.099   0.257   1.595  0.9701  0.5226  0.0138
 1060TIP3   OH2 3185   1.303   4.489   1.417  0.4177 -0.7070 -0.1754
 1060TIP3    H1 3186   1.345   4.438   1.348  0.0333 -2.8014  1.0588
 1060TIP3    H2 3187   1.371   4.503   1.482  0.0586 -1.2713  0.3322
 1061TIP3   OH2 3188   1.078   0.295   2.765  0.5006 -0.9624  0.2954
 1061TIP3    H1 3189   1.014   0.366   2.773  2.1284  0.5982 -0.0512
 1061TIP3    H2 3190   1.030   0.225   2.722 -0.4868  0.8684 -1.7519
 1062TIP3   OH2 3191   1.775   0.170   3.335 -0.6005  0.5341 -0.5021
 1062TIP3    H1 3192   1.715   0.124   3.395  0.4492 -1.1925 -0.7174
 1062TIP3    H2 3193   1.719   0.231   3.288 -1.8132  0.4854  0.7937
 1063TIP3   OH2 3194   2.413   0.285   3.464 -0.3107 -0.0667 -0.4034
 1063TIP3    H1 3195   2.477   0.346   3.502 -0.9775 -0.1417  0.9054
 1063TIP3    H2 3196   2.337   0.340   3.445 -1.7383 -0.7357  2.7763
 1064TIP3   OH2 3197   3.506   2.900   0.274 -0.3314  0.2254 -0.3311
 1064TIP3    H1 3198   3.430   2.952   0.247 -1.1498  0.1401  1.6437
 1064TIP3    H2 3199   3.571   2.965   0.301 -0.2299  0.2761 -0.7000
 1065TIP3   OH2 3200   2.658   3.650   4.837  0.1116 -0.3900 -0.3935
 1065TIP3    H1 3201   2.748   3.653   4.871  0.2340 -0.3592 -0.7238
 1065TIP3    H2 3202   2.605   3.629   4.914  0.3492  0.0593 -0.1037
 1066TIP3   OH2 3203   0.114   3.478   3.830  0.0078  0.4008 -0.0309
 1066TIP3    H1 3204   0.038   3.489   3.773 -0.2838 -0.8955  0.0697
 1066TIP3    H2 3205   0.132   3.565   3.864 -0.8076  0.9014 -0.8595
 1067TIP3   OH2 3206   3.597   0.976   4.995  0.4535  0.0783  0.1368
 1067TIP3    H1 3207   3.663   1.025   4.946  0.9612 -0.0722  0.6686
 1067TIP3    H2 3208   3.518   0.982   4.941  1.1113 -0.4385 -0.9128
 1068TIP3   OH2 3209   1.601   0.774   4.386  0.2781  0.3239  0.2174
 1068TIP3    H1 3210   1.592   0.704   4.451  0.7402  0.8958  0.9199
 1068TIP3    H2 3211   1.610   0.854   4.438 -0.7701  0.9876 -0.5774
 1069TIP3   OH2 3212   4.463   5.563   0.729 -0.1166  0.0811 -0.2375
 1069TIP3    H1 3213   4.510   5.629   0.780 -1.4167 -0.0141  1.1810
 1069TIP3    H2 3214   4.456   5.601   0.641  0.3232  1.2392  0.2064
 1070TIP3   OH2 3215   3.392   2.200   1.671  0.4047 -0.1518  0.1004
 1070TIP3    H1 3216   3.473   2.149   1.668  0.7535  0.3019  1.1806
 1070TIP3    H2 3217   3.330   2.149   1.619  0.7541 -1.6757  1.0954
 1071TIP3   OH2 3218   4.243   1.123   1.101  0.3819 -0.3067 -0.2129
 1071TIP3    H1 3219   4.294   1.149   1.179 -0.7453 -2.1543  1.2265
 1071TIP3    H2 3220   4.281   1.040   1.074  0.4286  0.0725 -1.3774
 1072TIP3   OH2 3221   0.715   1.189   3.605 -0.5141  0.1823 -0.1085
 1072TIP3    H1 3222   0.674   1.241   3.675 -1.1705  0.5077 -0.7209
 1072TIP3    H2 3223   0.647   1.182   3.537  0.9267  2.0409 -1.8383
 1073TIP3   OH2 3224   5.579   3.823   0.849  0.0817  0.4838  0.2691
 1073TIP3    H1 3225   5.626   3.892   0.802  1.0364 -1.1577 -1.3225
 1073TIP3    H2 3226   5.496   3.814   0.802  0.0639  0.3914  0.3180
 1074TIP3   OH2 3227   5.228   3.430   2.762  0.2152  0.7027 -0.2295
 1074TIP3    H1 3228   5.134   3.412   2.775  0.0730  0.6803 -1.2324
 1074TIP3    H2 3229   5.240   3.429   2.667  1.2369  0.7261 -0.1107
 1075TIP3   OH2 3230   5.579   4.891   2.035 -0.2674  0.2246  0.5323
 1075TIP3    H1 3231   5.654   4.919   2.088 -0.4470 -1.0319  1.5113
 1075TIP3    H2 3232   5.619   4.844   1.961 -0.0503  0.7324  0.3268
 1076TIP3   OH2 3233   6.317   4.523   2.374  0.1405  0.4261  0.2593
 1076TIP3    H1 3234   6.390   4.461   2.364  0.2136  0.4880  0.4159
 1076TIP3    H2 3235   6.260   4.503   2.300  1.9419  2.5767 -1.8843
 1077TIP3   OH2 3236   0.885   5.200   0.762  0.0903 -0.0034 -0.0314
 1077TIP3    H1 3237   0.900   5.106   0.765  0.5049  0.0520 -0.3369
 1077TIP3    H2 3238   0.791   5.209   0.749 -0.0505 -0.3666  0.6684
 1078TIP3   OH2 3239   2.215   4.352   4.931 -0.6008 -0.5451 -0.3134
 1078TIP3    H1 3240   2.230   4.344   5.025 -1.4011  0.7939 -0.0539
 1078TIP3    H2 3241   2.184   4.266   4.904 -1.0120 -0.7528  0.7794
 1079TIP3   OH2 3242   2.056   1.790   3.085  0.0966 -0.4581 -0.1430
 1079TIP3    H1 3243   2.083   1.781   2.994 -0.3476  2.7819 -0.7278
 1079TIP3    H2 3244   2.136   1.808   3.134  0.2989 -1.9223  0.1003
 1080TIP3   OH2 3245   4.279   4.122   3.843 -0.1990  0.4004  0.0598
 1080TIP3    H1 3246   4.304   4.038   3.882  0.2297  1.4364  2.1755
 1080TIP3    H2 3247   4.185   4.130   3.860 -0.2419  0.3508 -0.1502
 1081TIP3   OH2 3248   4.180   2.605   4.388 -0.4564  0.1183 -0.7032
 1081TIP3    H1 3249   4.253   2.566   4.341  2.0888  0.2690  2.7123
 1081TIP3    H2 3250   4.120   2.532   4.405  1.2927 -1.1566  0.4185
 1082TIP3   OH2 3251   1.428   2.950   2.037 -0.2401  0.3200 -0.2008
 1082TIP3    H1 3252   1.459   2.952   1.947  0.0270 -2.7397 -0.2622
 1082TIP3    H2 3253   1.502   2.982   2.088 -0.4028  2.0996 -1.0085
 1083TIP3   OH2 3254   0.120   2.999   1.726 -0.1666  0.0182  0.0447
 1083TIP3    H1 3255   0.066   2.930   1.687  0.7715 -1.3813  1.1745
 1083TIP3    H2 3256   0.153   3.048   1.650 -0.4848 -1.0268 -0.7977
 1084TIP3   OH2 3257   0.443   3.478   0.349  0.0376  0.1947  0.1156
 1084TIP3    H1 3258   0.503   3.551   0.364 -0.3359  0.4660  0.2951
 1084TIP3    H2 3259   0.419   3.485   0.257  0.3703  0.0131  0.0111
 1085TIP3   OH2 3260   3.238   4.914   0.428  0.1260  0.4005  0.0545
 1085TIP3    H1 3261   3.152   4.904   0.470 -0.2817  0.6290 -0.7088
 1085TIP3    H2 3262   3.219   4.952   0.342  1.2691  4.8766  1.4646
 1086TIP3   OH2 3263   5.869   0.991   3.878  0.0260  0.5985 -0.1168
 1086TIP3    H1 3264   5.913   1.003   3.794  0.1804  0.9282  0.0082
 1086TIP3    H2 3265   5.800   1.057   3.879 -0.0322  0.5371 -0.0227
 1087TIP3   OH2 3266   5.435   4.438   3.630 -0.3569 -0.0919  0.0406
 1087TIP3    H1 3267   5.414   4.485   3.710 -0.4408 -1.7799  1.0639
 1087TIP3    H2 3268   5.524   4.466   3.608 -0.1879  0.1063  0.9375
 1088TIP3   OH2 3269   3.800   2.408   2.772 -0.9349  0.0945 -0.3229
 1088TIP3    H1 3270   3.827   2.500   2.771 -0.3139 -0.0799 -1.4270
 1088TIP3    H2 3271   3.829   2.376   2.857  1.4853  0.2026 -1.0125
 1089TIP3   OH2 3272   2.489   0.924   1.219 -0.7503 -0.0237 -0.5920
 1089TIP3    H1 3273   2.460   0.994   1.277 -1.9277 -0.3619 -0.7424
 1089TIP3    H2 3274   2.424   0.924   1.148 -0.6290 -1.1081 -0.7124
 1090TIP3   OH2 3275   1.441   2.368   1.590  0.7972 -0.2784 -0.7411
 1090TIP3    H1 3276   1.406   2.291   1.633  2.3047 -0.8137 -0.4055
 1090TIP3    H2 3277   1.364   2.418   1.563 -0.3499  0.7411  3.5888
 1091TIP3   OH2 3278   2.701   1.393   1.331 -0.4123 -0.3127  0.1530
 1091TIP3    H1 3279   2.646   1.403   1.253 -1.1654 -0.1951  0.6937
 1091TIP3    H2 3280   2.655   1.330   1.386 -1.3387  1.6316  1.7395
 1092TIP3   OH2 3281   5.180   4.203   0.706 -0.7149 -0.0176  0.4418
 1092TIP3    H1 3282   5.099   4.151   0.710 -0.7331  0.0778  1.5079
 1092TIP3    H2 3283   5.250   4.138   0.711 -0.7371  0.0406  1.9482
 1093TIP3   OH2 3284   3.555   2.335   2.826  0.0076  0.2293 -0.1981
 1093TIP3    H1 3285   3.493   2.402   2.854  0.9504  1.6514 -1.3808
 1093TIP3    H2 3286   3.637   2.382   2.813  0.7471 -1.1885 -0.9247
 1094TIP3   OH2 3287   1.214   4.652   1.096 -0.0534  0.2549  0.1570
 1094TIP3    H1 3288   1.293   4.672   1.146 -0.4101  0.6042  0.5813
 1094TIP3    H2 3289   1.142   4.690   1.146 -0.4168  0.6095 -0.6112
 1095TIP3   OH2 3290   1.895   3.807   4.799 -0.3382  0.1249 -0.9655
 1095TIP3    H1 3291   1.935   3.856   4.871  0.3684  0.9437 -1.8977
 1095TIP3    H2 3292   1.901   3.715   4.826 -1.4572  0.4867  0.6994
 1096TIP3   OH2 3293   3.738   5.289   1.179 -0.7312 -0.1988  0.4898
 1096TIP3    H1 3294   3.816   5.290   1.236 -1.2699 -1.0467  1.2704
 1096TIP3    H2 3295   3.665   5.279   1.240 -1.5631  1.7110 -0.1470
 1097TIP3   OH2 3296   1.600   0.447   0.425 -0.1728 -0.3920 -0.2147
 1097TIP3    H1 3297   1.560   0.534   0.413  0.2113 -0.0444  0.9066
 1097TIP3    H2 3298   1.581   0.401   0.343 -1.2678  0.3954 -0.4369
 1098TIP3   OH2 3299   0.577   5.459   2.683 -0.6983 -0.2382 -0.6274
 1098TIP3    H1 3300   0.583   5.378   2.734 -1.4104  0.1575  0.1205
 1098TIP3    H2 3301   0.483   5.473   2.671 -0.7722  1.8517  1.5918
 1099TIP3   OH2 3302   1.857   3.489   4.749  0.1070 -0.8370 -0.0682
 1099TIP3    H1 3303   1.937   3.461   4.705 -0.3722 -1.5070 -0.5295
 1099TIP3    H2 3304   1.879   3.488   4.842  0.4042 -1.8239 -0.1369
 1100TIP3   OH2 3305   6.287   5.528   3.020 -0.2917 -0.3038 -0.7735
 1100TIP3    H1 3306   6.201   5.491   3.038  0.4497 -1.5612  0.4007
 1100TIP3    H2 3307   6.348   5.464   3.057  1.0660  2.5727  2.3842
 1101TIP3   OH2 3308   5.662   3.863   1.278  0.2156 -0.5004 -0.4797
 1101TIP3    H1 3309   5.724   3.858   1.205 -2.0440 -0.5824 -2.4933
 1101TIP3    H2 3310   5.656   3.773   1.311  1.5981 -0.3792  0.1782
 1102TIP3   OH2 3311   4.860   3.284   4.932 -0.6564 -0.2114 -0.3518
 1102TIP3    H1 3312   4.835   3.213   4.990 -0.8732  0.9691  1.0735
 1102TIP3    H2 3313   4.834   3.364   4.979 -0.4453  0.8126 -1.8929
 1103TIP3   OH2 3314   0.991   3.909   2.186  0.0712 -0.0584  0.0644
 1103TIP3    H1 3315   1.037   3.898   2.103  1.2953  4.6410 -0.1057
 1103TIP3    H2 3316   1.060   3.926   2.250 -1.0671  1.9136  0.8543
 1104TIP3   OH2 3317   5.931   0.307   2.544  0.0203 -0.2373 -0.2927
 1104TIP3    H1 3318   5.950   0.214   2.557  0.6898 -0.4747 -2.5121
 1104TIP3    H2 3319   5.963   0.349   2.624 -1.0752 -1.9664  1.1355
 1105TIP3   OH2 3320   3.724   1.613   3.554 -0.4960 -0.4482  0.6320
 1105TIP3    H1 3321   3.793   1.668   3.592 -0.4022  0.8358 -1.2631
 1105TIP3    H2 3322   3.769   1.565   3.485 -1.2368 -0.6058  0.2603
 1106TIP3   OH2 3323   5.033   2.492   0.024  0.3696 -0.3237  0.7635
 1106TIP3    H1 3324   5.105   2.509  -0.036 -0.3318 -0.0613 -0.0199
 1106TIP3    H2 3325   5.057   2.540   0.104  0.7497  0.2950  0.2862
 1107TIP3   OH2 3326   1.213   2.559   0.035 -0.6136  0.0097  0.7271
 1107TIP3    H1 3327   1.281   2.601   0.087  0.4085 -0.2815 -0.3077
 1107TIP3    H2 3328   1.237   2.466   0.035  0.5168  0.2120 -1.7128
 1108TIP3   OH2 3329   5.800   3.468   1.425 -0.3548  0.1144  0.6073
 1108TIP3    H1 3330   5.887   3.493   1.458  0.1404 -2.4258  1.4169
 1108TIP3    H2 3331   5.752   3.440   1.503 -0.8762 -1.2779 -0.1833
 1109TIP3   OH2 3332   1.131   5.890   1.867 -0.2793 -0.0306  0.0593
 1109TIP3    H1 3333   1.070   5.940   1.813 -0.1752  0.1643  0.1207
 1109TIP3    H2 3334   1.093   5.802   1.872 -0.4630  0.0426 -0.0477
 1110TIP3   OH2 3335   3.672   2.673   0.703 -0.2743 -0.2571 -0.5783
 1110TIP3    H1 3336   3.761   2.649   0.676 -0.0605  0.7612 -0.7995
 1110TIP3    H2 3337   3.619   2.662   0.624  0.1994  1.9086 -1.2635
 1111TIP3   OH2 3338   0.078   2.505   2.380  0.0515 -0.2655  0.1519
 1111TIP3    H1 3339   0.015   2.540   2.316  1.1278  0.2733 -0.6486
 1111TIP3    H2 3340   0.034   2.429   2.418 -1.1046  0.1304 -0.3425
 1112TIP3   OH2 3341   1.450   0.042   0.595  0.1809 -0.0081  0.1556
 1112TIP3    H1 3342   1.517   0.084   0.649  0.3993  1.7160 -1.3590
 1112TIP3    H2 3343   1.369   0.056   0.643  0.5893 -0.1025  0.8965
 1113TIP3   OH2 3344   4.347   0.099   4.890 -0.0997  0.2970 -0.1482
 1113TIP3    H1 3345   4.256   0.078   4.871 -0.0145  1.8170 -2.6514
 1113TIP3    H2 3346   4.342   0.168   4.957 -0.6024 -1.7237  2.0150
 1114TIP3   OH2 3347   5.088   1.998   4.964 -0.2137  0.2199 -0.0243
 1114TIP3    H1 3348   5.081   2.074   5.022 -1.8672 -0.6269  0.9297
 1114TIP3    H2 3349   5.028   2.018   4.891 -0.0622  0.1652 -0.1645
 1115TIP3   OH2 3350   3.653   4.186   0.720 -0.3823 -0.7980 -0.1937
 1115TIP3    H1 3351   3.726   4.227   0.767 -0.5664 -0.5602 -0.1143
 1115TIP3    H2 3352   3.685   4.099   0.698 -0.7797 -1.4233  1.5693
 1116TIP3   OH2 3353   0.104   5.165   4.204 -0.4427 -0.1573  0.2377
 1116TIP3    H1 3354   0.160   5.218   4.260 -0.7289  0.2805  0.1117
 1116TIP3    H2 3355   0.164   5.103   4.162 -0.1739 -0.2386  0.7362
 1117TIP3   OH2 3356   4.831   1.893   0.524  0.0020 -0.3235 -0.0003
 1117TIP3    H1 3357   4.899   1.957   0.508 -1.3376  1.5304  1.3465
 1117TIP3    H2 3358   4.849   1.858   0.611 -1.6496  1.4794  1.1482
 1118TIP3   OH2 3359   6.134   2.188   4.708  0.8728  0.2185  0.4572
 1118TIP3    H1 3360   6.098   2.260   4.760  2.5042  1.1196  0.4109
 1118TIP3    H2 3361   6.229   2.203   4.708  1.1663 -1.3687 -0.4119
 1119TIP3   OH2 3362   3.689   1.215   0.235  0.0017 -0.1477 -0.5014
 1119TIP3    H1 3363   3.602   1.251   0.249 -0.7893 -1.7235 -1.0583
 1119TIP3    H2 3364   3.717   1.253   0.152  0.1326  0.8538 -0.0143
 1120TIP3   OH2 3365   3.093   4.284   3.941  0.0083 -0.3996  0.5002
 1120TIP3    H1 3366   3.049   4.344   4.001  2.5681  0.2769  1.8308
 1120TIP3    H2 3367   3.043   4.203   3.948 -0.1820 -0.1450  3.0715
 1121TIP3   OH2 3368   0.301   0.796   3.936  0.5042 -0.3867 -0.3776
 1121TIP3    H1 3369   0.289   0.805   4.030 -0.0150  0.4203 -0.5069
 1121TIP3    H2 3370   0.303   0.887   3.903 -2.4556 -0.6025 -1.5023
 1122TIP3   OH2 3371   5.576   3.972   4.775  0.5024 -0.0465  0.1094
 1122TIP3    H1 3372   5.599   4.054   4.730  1.3863 -0.8140 -0.8651
 1122TIP3    H2 3373   5.536   3.918   4.707 -0.1165 -0.4209  0.7637
 1123TIP3   OH2 3374   3.416   1.457   3.030  0.1136  1.0610  0.0952
 1123TIP3    H1 3375   3.345   1.464   3.093  1.0511  2.9034  1.0281
 1123TIP3    H2 3376   3.496   1.460   3.083  0.9425 -1.2184 -0.8895
 1124TIP3   OH2 3377   0.444   1.729   5.011 -0.2561 -0.0508 -0.1306
 1124TIP3    H1 3378   0.390   1.742   4.933 -1.2308 -0.0868  0.5184
 1124TIP3    H2 3379   0.382   1.733   5.084  0.3865 -1.6610  0.5464
 1125TIP3   OH2 3380   5.631   1.181   4.173 -0.3184  0.1939 -0.6369
 1125TIP3    H1 3381   5.704   1.221   4.126  0.7213 -0.1956  0.6045
 1125TIP3    H2 3382   5.651   1.087   4.173 -1.9307 -0.2051 -2.1470
 1126TIP3   OH2 3383   0.146   5.693   0.064 -0.0249  0.0463 -0.9725
 1126TIP3    H1 3384   0.220   5.753   0.048 -2.4067  3.2539 -0.9300
 1126TIP3    H2 3385   0.156   5.668   0.156  0.4351  1.3190 -0.6520
 1127TIP3   OH2 3386   4.525   3.655   4.625 -0.5891  0.1887  0.0811
 1127TIP3    H1 3387   4.529   3.562   4.606 -1.1071  0.4706 -1.6446
 1127TIP3    H2 3388   4.596   3.671   4.687 -0.7580 -1.4108  0.7119
 1128TIP3   OH2 3389   3.223   2.675   0.616  0.4561 -0.0732 -0.9431
 1128TIP3    H1 3390   3.136   2.713   0.606 -0.4396 -0.8956  2.4182
 1128TIP3    H2 3391   3.283   2.748   0.601 -0.8244  0.8249 -1.9836
 1129TIP3   OH2 3392   5.849   4.329   5.179 -0.1019 -0.5308 -0.1131
 1129TIP3    H1 3393   5.883   4.418   5.172 -0.0998 -0.3192  1.9138
 1129TIP3    H2 3394   5.847   4.297   5.089  2.6200  0.4958 -0.6519
 1130TIP3   OH2 3395   2.308   3.038   5.003 -0.0868  0.5675 -0.6324
 1130TIP3    H1 3396   2.276   3.047   5.092 -0.3596 -1.8858 -0.4325
 1130TIP3    H2 3397   2.402   3.053   5.009  0.6568 -3.5354  0.9125
 1131TIP3   OH2 3398   5.376   1.837   2.159  0.8211 -0.2566 -0.3065
 1131TIP3    H1 3399   5.453   1.838   2.216  2.3280 -1.8438 -2.1766
 1131TIP3    H2 3400   5.365   1.745   2.135 -1.6513 -0.0632 -0.1861
 1132TIP3   OH2 3401   0.797   2.053   0.123  0.3224 -0.4196 -0.4433
 1132TIP3    H1 3402   0.778   2.110   0.197 -1.0932 -1.1003 -0.2561
 1132TIP3    H2 3403   0.853   2.105   0.066  0.9014  0.3428  0.7816
 1133TIP3   OH2 3404   3.878   1.801   4.314  0.2672  0.1059  0.0781
 1133TIP3    H1 3405   3.893   1.884   4.358 -0.3860  0.4301 -0.3113
 1133TIP3    H2 3406   3.966   1.762   4.307  0.5703  0.7413  0.2767
 1134TIP3   OH2 3407   5.326   2.923   4.233 -0.2918 -0.1893  0.2632
 1134TIP3    H1 3408   5.336   3.010   4.271 -0.3491 -0.5306  1.0670
 1134TIP3    H2 3409   5.413   2.901   4.200 -0.5567  0.6950 -1.1111
 1135TIP3   OH2 3410   4.313   1.874   3.093  0.4309 -0.1061 -0.2408
 1135TIP3    H1 3411   4.279   1.807   3.035 -0.6394  0.7463 -0.6394
 1135TIP3    H2 3412   4.408   1.866   3.087  0.3423 -1.9490  0.1913
 1136TIP3   OH2 3413   4.726   5.040   0.836 -0.6815  0.2717  0.1950
 1136TIP3    H1 3414   4.738   5.071   0.925  0.5465  0.5093 -0.0263
 1136TIP3    H2 3415   4.675   4.960   0.844  1.9027 -1.3900  1.4292
 1137TIP3   OH2 3416   5.475   5.262   0.469 -0.4202 -0.6162 -0.2950
 1137TIP3    H1 3417   5.446   5.221   0.550 -1.0920 -0.0778 -0.2605
 1137TIP3    H2 3418   5.416   5.336   0.456  0.8946  0.4595 -0.2688
 1138TIP3   OH2 3419   3.178   5.052   2.056 -0.2571  0.2974 -0.4847
 1138TIP3    H1 3420   3.208   5.094   2.137  0.6719  0.4075 -0.8751
 1138TIP3    H2 3421   3.225   5.097   1.987 -0.2726 -0.4894 -1.0141
 1139TIP3   OH2 3422   1.949   0.904   3.206  0.1411  0.7123  0.0056
 1139TIP3    H1 3423   1.999   0.980   3.178  1.8958 -0.4187 -0.1411
 1139TIP3    H2 3424   1.943   0.850   3.127  0.0013  0.1561  0.3912
 1140TIP3   OH2 3425   2.655   5.731   0.219 -0.7392  0.0525  0.1482
 1140TIP3    H1 3426   2.731   5.746   0.162 -1.5520  0.2410 -0.9068
 1140TIP3    H2 3427   2.655   5.806   0.278 -0.4836  0.3957 -0.2814
 1141TIP3   OH2 3428   5.680   5.555   0.424 -0.3250  0.0182  0.0874
 1141TIP3    H1 3429   5.771   5.554   0.396 -0.4413  0.2029 -0.3029
 1141TIP3    H2 3430   5.677   5.497   0.500  0.1253  0.0465  0.1254
 1142TIP3   OH2 3431   0.299   1.576   0.394  0.1032  0.0015 -0.4009
 1142TIP3    H1 3432   0.250   1.592   0.314 -0.4034 -0.9934 -0.3034
 1142TIP3    H2 3433   0.233   1.574   0.463  0.3170 -0.8822 -0.2035
 1143TIP3   OH2 3434   2.191   4.079   4.869 -0.3019  0.2311 -0.6965
 1143TIP3    H1 3435   2.113   4.040   4.908 -1.3505  1.8040 -1.1232
 1143TIP3    H2 3436   2.242   4.005   4.837 -1.9074 -0.8157 -0.9263
 1144TIP3   OH2 3437   3.946   4.917   4.185  0.1875  0.3608  0.5765
 1144TIP3    H1 3438   3.945   4.834   4.137 -0.7079  0.9234 -0.4124
 1144TIP3    H2 3439   4.005   4.973   4.134  0.6529  0.4024  1.1464
 1145TIP3   OH2 3440   1.354   5.920   2.562 -0.3428 -0.0815 -0.0103
 1145TIP3    H1 3441   1.318   5.861   2.628  1.3922  0.1094  1.1671
 1145TIP3    H2 3442   1.285   5.984   2.546 -1.6079 -1.3976 -0.0277
 1146TIP3   OH2 3443   6.183   1.691   4.304  0.1361 -0.5238 -0.0955
 1146TIP3    H1 3444   6.260   1.740   4.273 -0.4833 -0.0852 -0.9979
 1146TIP3    H2 3445   6.197   1.683   4.398  1.2140 -0.3219 -0.2166
 1147TIP3   OH2 3446   3.619   4.212   1.946  0.0813 -0.0312 -0.4426
 1147TIP3    H1 3447   3.669   4.132   1.930  1.9112  0.7247  1.0800
 1147TIP3    H2 3448   3.608   4.251   1.859 -0.5243 -1.7147 -1.1634
 1148TIP3   OH2 3449   5.185   2.645   2.791  0.0072 -0.1513  0.5663
 1148TIP3    H1 3450   5.199   2.739   2.792 -0.3480 -0.0884 -0.1692
 1148TIP3    H2 3451   5.251   2.610   2.852  0.0376  0.5788  0.9538
 1149TIP3   OH2 3452   1.907   5.196   0.710 -0.3086  0.5595 -0.1636
 1149TIP3    H1 3453   1.995   5.162   0.726 -0.9987 -1.1973  0.0661
 1149TIP3    H2 3454   1.892   5.256   0.782 -0.6066 -1.8038  1.8603
 1150TIP3   OH2 3455   0.914   3.512   5.006  0.0662 -0.7296  0.0104
 1150TIP3    H1 3456   0.871   3.426   5.011 -2.7737  0.5987  0.7085
 1150TIP3    H2 3457   0.967   3.517   5.085  1.0014 -2.1649 -0.4944
 1151TIP3   OH2 3458   5.074   0.428   0.118 -0.2436 -0.1246 -0.2903
 1151TIP3    H1 3459   5.080   0.523   0.106 -0.3026  0.1700  1.7245
 1151TIP3    H2 3460   5.126   0.392   0.046 -1.0718  1.3813 -1.7095
 1152TIP3   OH2 3461   1.100   5.039   2.923  0.4002 -0.2155 -0.0422
 1152TIP3    H1 3462   1.163   5.090   2.972 -0.1198  0.4672 -0.0774
 1152TIP3    H2 3463   1.015   5.059   2.962 -0.0692  0.5910 -1.3914
 1153TIP3   OH2 3464   5.383   2.139   0.886  0.3910  0.1793  0.8874
 1153TIP3    H1 3465   5.324   2.213   0.871 -1.5414 -1.7902 -2.1647
 1153TIP3    H2 3466   5.350   2.098   0.966  0.1039  1.3000  1.3728
 1154TIP3   OH2 3467   5.691   4.064   2.359 -0.5502 -0.6343  0.1981
 1154TIP3    H1 3468   5.672   4.054   2.265  0.5056  0.6260 -0.1647
 1154TIP3    H2 3469   5.660   3.982   2.397 -1.0072 -1.1770 -1.2453
 1155TIP3   OH2 3470   4.318   3.069   4.206 -0.4985  0.3632 -0.9775
 1155TIP3    H1 3471   4.269   3.028   4.277 -0.0034 -0.4749 -1.1077
 1155TIP3    H2 3472   4.253   3.123   4.160 -1.2175 -0.4477 -0.9328
 1156TIP3   OH2 3473   1.096   3.896   1.608  0.0042 -0.1390  0.1491
 1156TIP3    H1 3474   1.161   3.950   1.652 -0.1450 -0.8793  1.3328
 1156TIP3    H2 3475   1.147   3.842   1.548  0.1909  1.0236 -0.7776
 1157TIP3   OH2 3476   3.668   3.557   1.241 -0.2731  0.0845  0.2137
 1157TIP3    H1 3477   3.592   3.510   1.207  0.6924 -1.2901 -0.1180
 1157TIP3    H2 3478   3.657   3.556   1.336 -1.3785  1.1692  0.1235
 1158TIP3   OH2 3479   0.265   3.680   2.284  0.3042 -0.0260 -0.5976
 1158TIP3    H1 3480   0.356   3.709   2.298  0.2108  0.1103 -0.2520
 1158TIP3    H2 3481   0.212   3.756   2.306  0.0983 -0.1545 -0.6464
 1159TIP3   OH2 3482   5.251   3.119   2.941 -0.1830 -0.2684 -0.7281
 1159TIP3    H1 3483   5.320   3.185   2.935 -0.4750  0.1919  0.6545
 1159TIP3    H2 3484   5.175   3.161   2.900 -0.1734 -0.0103 -0.4850
 1160TIP3   OH2 3485   5.766   3.378   0.399  0.4182 -0.3889 -0.4838
 1160TIP3    H1 3486   5.739   3.469   0.396 -0.3510 -0.6129 -0.8901
 1160TIP3    H2 3487   5.684   3.329   0.387  1.1112 -1.1006 -3.0975
 1161TIP3   OH2 3488   5.914   1.526   4.410  0.0182 -0.2833 -0.0668
 1161TIP3    H1 3489   5.823   1.498   4.402 -0.6772  1.0847  2.0448
 1161TIP3    H2 3490   5.919   1.608   4.361  0.3853 -0.8426 -0.9808
 1162TIP3   OH2 3491   5.146   1.648   4.435 -0.2933  0.6159  0.3469
 1162TIP3    H1 3492   5.238   1.629   4.414 -0.5944 -1.8040  0.8580
 1162TIP3    H2 3493   5.129   1.597   4.514 -2.3929  0.0626 -0.3949
 1163TIP3   OH2 3494   0.482   1.050   4.083  0.0390 -0.2604 -0.7852
 1163TIP3    H1 3495   0.536   1.012   4.014  0.5280 -1.7442  0.3618
 1163TIP3    H2 3496   0.433   1.120   4.040  1.5788 -0.0230 -2.2386
 1164TIP3   OH2 3497   3.360   4.019   0.906 -0.0259  0.1554  0.2034
 1164TIP3    H1 3498   3.432   3.968   0.944  0.0869  0.1984  0.0455
 1164TIP3    H2 3499   3.357   4.099   0.958 -0.6174 -0.2813  0.8744
 1165TIP3   OH2 3500   1.763   2.654   1.102 -0.6246 -0.3215  0.4636
 1165TIP3    H1 3501   1.736   2.746   1.106  0.4248  0.0541 -0.6853
 1165TIP3    H2 3502   1.682   2.605   1.118 -1.1547  0.7875  1.3466
 1166TIP3   OH2 3503   2.980   1.782   1.914 -0.4330  0.1344 -0.3465
 1166TIP3    H1 3504   2.936   1.724   1.977 -3.2959  2.6836  0.2635
 1166TIP3    H2 3505   2.914   1.797   1.846  1.1470  0.6779 -1.8326
 1167TIP3   OH2 3506   2.344   3.537   4.274 -0.3414  0.3353  0.6170
 1167TIP3    H1 3507   2.358   3.450   4.312  2.0567  0.7802  0.9319
 1167TIP3    H2 3508   2.251   3.555   4.289 -0.3395 -1.1169  2.8749
 1168TIP3   OH2 3509   0.342   1.462   3.386  0.2631 -0.3557 -0.3767
 1168TIP3    H1 3510   0.300   1.525   3.328 -0.4227 -0.9023 -0.4907
 1168TIP3    H2 3511   0.411   1.423   3.333 -0.0962 -0.5609 -0.7010
 1169TIP3   OH2 3512   4.187   0.169   1.219  1.3775 -0.1837  0.1249
 1169TIP3    H1 3513   4.164   0.079   1.245  0.7095 -0.0005  0.1836
 1169TIP3    H2 3514   4.160   0.175   1.127  2.4907 -0.4013 -0.2335
 1170TIP3   OH2 3515   2.173   5.495   0.546  0.2842 -0.0617  0.2467
 1170TIP3    H1 3516   2.232   5.535   0.483  1.0449  1.4347  1.8197
 1170TIP3    H2 3517   2.226   5.427   0.589  0.9200  1.2636  1.6401
 1171TIP3   OH2 3518   2.562   2.181   3.256 -0.2493  0.1666  0.4522
 1171TIP3    H1 3519   2.552   2.265   3.212  0.8996  0.4702  0.7468
 1171TIP3    H2 3520   2.656   2.168   3.262 -0.4126 -1.0623  0.5746
 1172TIP3   OH2 3521   2.479   0.036   2.176  0.2362 -0.0813 -0.1083
 1172TIP3    H1 3522   2.496   0.076   2.091 -1.7411 -0.5857 -0.7692
 1172TIP3    H2 3523   2.428   0.102   2.223  0.2463 -0.3160  0.2333
 1173TIP3   OH2 3524   5.612   0.158   0.126 -0.0869  0.0859 -0.5929
 1173TIP3    H1 3525   5.534   0.120   0.085 -0.2670  0.6143 -0.7478
 1173TIP3    H2 3526   5.597   0.148   0.220  1.0230 -2.5439 -0.6181
 1174TIP3   OH2 3527   3.432   5.832   4.781 -0.5469  0.6024 -0.0984
 1174TIP3    H1 3528   3.434   5.778   4.702 -0.0966  2.1245 -1.1720
 1174TIP3    H2 3529   3.420   5.770   4.853  0.4394 -0.9508 -1.2313
 1175TIP3   OH2 3530   0.548   5.922   2.432  0.2593 -0.3096 -0.0818
 1175TIP3    H1 3531   0.484   5.898   2.499 -0.5268 -1.4224 -1.1851
 1175TIP3    H2 3532   0.496   5.953   2.358  1.0487 -0.2388 -0.6217
 1176TIP3   OH2 3533   1.772   3.923   1.455 -0.4031  0.1091 -0.4448
 1176TIP3    H1 3534   1.854   3.969   1.441 -1.1015  1.2991 -0.7828
 1176TIP3    H2 3535   1.704   3.989   1.437 -1.4180 -0.3581  1.4076
 1177TIP3   OH2 3536   2.339   5.771   0.473  0.6557  0.0926 -0.4851
 1177TIP3    H1 3537   2.395   5.718   0.417 -0.2074  0.4399 -1.7068
 1177TIP3    H2 3538   2.390   5.784   0.553  0.4301 -3.6304  0.4221
 1178TIP3   OH2 3539   6.005   3.793   2.843  0.2177  0.5831  0.3057
 1178TIP3    H1 3540   6.077   3.737   2.872  0.7742  0.8761 -0.4725
 1178TIP3    H2 3541   6.040   3.882   2.851 -0.2225  0.7533  0.3535
 1179TIP3   OH2 3542   5.933   4.819   0.810  0.2530  0.1889  0.5291
 1179TIP3    H1 3543   5.966   4.781   0.729 -1.9114  1.4854 -1.0448
 1179TIP3    H2 3544   5.939   4.914   0.797 -2.2875  0.4675  0.8443
 1180TIP3   OH2 3545   4.549   5.430   4.190 -0.3732 -0.6455  0.3072
 1180TIP3    H1 3546   4.598   5.484   4.252  0.9695  0.4874 -1.5906
 1180TIP3    H2 3547   4.616   5.401   4.127 -1.8233 -0.6558 -1.3075
 1181TIP3   OH2 3548   2.323   4.595   2.510  0.2417  0.2386 -0.3014
 1181TIP3    H1 3549   2.338   4.640   2.427 -0.7594 -0.4834 -0.8990
 1181TIP3    H2 3550   2.228   4.590   2.517  0.3156 -1.3802 -0.0516
 1182TIP3   OH2 3551   4.192   2.085   3.010  0.3181  0.5823  0.4474
 1182TIP3    H1 3552   4.235   2.024   3.068 -0.4966 -0.4041  0.0481
 1182TIP3    H2 3553   4.226   2.064   2.923 -1.9300 -1.1912 -0.0952
 1183TIP3   OH2 3554   5.741   5.470   4.189 -0.1160 -0.0794  0.4808
 1183TIP3    H1 3555   5.720   5.561   4.207  0.3396  0.6391 -2.2500
 1183TIP3    H2 3556   5.828   5.457   4.227  0.2398  0.9408  0.0566
 1184TIP3   OH2 3557   0.409   0.327   3.504  0.3272 -0.2648  0.1983
 1184TIP3    H1 3558   0.420   0.294   3.415  1.1268 -0.3698  0.3288
 1184TIP3    H2 3559   0.318   0.358   3.507  0.6237  0.8298 -1.0211
 1185TIP3   OH2 3560   5.470   2.492   2.131  0.6850 -0.0736  0.0301
 1185TIP3    H1 3561   5.383   2.531   2.145  0.4777 -0.6053  0.2497
 1185TIP3    H2 3562   5.530   2.550   2.177  0.3032 -0.3594  0.9089
 1186TIP3   OH2 3563   0.891   2.981   3.766 -0.2829  0.1487 -0.4463
 1186TIP3    H1 3564   0.830   3.041   3.724 -1.2993  0.5565  1.4941
 1186TIP3    H2 3565   0.940   2.942   3.694 -0.1343  2.6879 -1.8264
 1187TIP3   OH2 3566   3.597   4.740   1.739 -0.0110 -0.1014  0.4130
 1187TIP3    H1 3567   3.558   4.700   1.661 -1.3419  1.0147  0.4593
 1187TIP3    H2 3568   3.690   4.717   1.734 -0.4023 -1.6089 -0.5042
 1188TIP3   OH2 3569   5.368   4.100   4.187  0.4976 -0.2237  0.1796
 1188TIP3    H1 3570   5.352   4.065   4.274  1.0818 -1.2378 -0.0993
 1188TIP3    H2 3571   5.281   4.121   4.153  0.1461 -1.1118  0.4962
 1189TIP3   OH2 3572   2.749   5.886   1.595  0.0634  0.3210 -0.2991
 1189TIP3    H1 3573   2.822   5.919   1.648 -0.9868  1.7181  0.3362
 1189TIP3    H2 3574   2.706   5.821   1.651  0.0700  0.4134 -0.1876
 1190TIP3   OH2 3575   5.726   3.465   3.775 -0.1846 -0.3960 -0.1505
 1190TIP3    H1 3576   5.642   3.512   3.771  1.1429  2.0760 -1.7170
 1190TIP3    H2 3577   5.717   3.394   3.712 -1.1690 -0.3138 -0.1174
 1191TIP3   OH2 3578   3.860   5.167   0.587  0.2039 -0.0014 -0.2696
 1191TIP3    H1 3579   3.799   5.230   0.626 -0.6181 -1.2198  0.4571
 1191TIP3    H2 3580   3.838   5.083   0.628  2.5712 -0.4425  0.2534
 1192TIP3   OH2 3581   5.193   2.586   2.150  0.5458 -0.1229 -0.5369
 1192TIP3    H1 3582   5.162   2.670   2.184  0.6345 -0.6490  0.9356
 1192TIP3    H2 3583   5.145   2.520   2.200  0.4307 -0.9678 -1.7098
 1193TIP3   OH2 3584   3.431   3.662   0.182  0.1180  0.2280  0.0269
 1193TIP3    H1 3585   3.484   3.631   0.109  0.8515  0.9792  0.2319
 1193TIP3    H2 3586   3.465   3.614   0.258  0.8283  1.0578  0.2378
 1194TIP3   OH2 3587   6.244   3.225   3.131  0.1668  0.0439  0.2332
 1194TIP3    H1 3588   6.231   3.208   3.224  1.6953 -2.4047  0.1136
 1194TIP3    H2 3589   6.318   3.285   3.127 -1.4536  2.1605  0.5798
 1195TIP3   OH2 3590   2.425   0.504   1.210 -0.9522 -0.3739 -0.2615
 1195TIP3    H1 3591   2.464   0.521   1.296 -1.8311  0.5701 -0.0269
 1195TIP3    H2 3592   2.398   0.412   1.214 -0.5811 -0.4647  0.3143
 1196TIP3   OH2 3593   4.656   2.651   4.968  0.0157 -0.1451 -0.2958
 1196TIP3    H1 3594   4.578   2.686   5.012 -1.6971  0.4411 -3.4561
 1196TIP3    H2 3595   4.705   2.607   5.037 -2.4361  0.5954  2.1132
 1197TIP3   OH2 3596   2.776   5.189   0.566  1.0528  0.5742  0.1909
 1197TIP3    H1 3597   2.797   5.238   0.646  0.4913  1.5341 -0.2346
 1197TIP3    H2 3598   2.757   5.257   0.501  1.9732 -0.1821 -0.8996
 1198TIP3   OH2 3599   4.385   3.291   0.139 -0.0603  0.0943 -0.3290
 1198TIP3    H1 3600   4.399   3.269   0.047  1.9434 -1.7946  0.3339
 1198TIP3    H2 3601   4.292   3.278   0.153 -0.1862 -0.8359 -1.8000
 1199TIP3   OH2 3602   0.605   2.413   0.336  0.2456 -0.7648  0.0856
 1199TIP3    H1 3603   0.590   2.477   0.266  2.5292  0.0504  0.2370
 1199TIP3    H2 3604   0.518   2.389   0.366 -0.7649 -0.2418 -2.2365
 1200TIP3   OH2 3605   6.162   3.588   0.820 -0.2677 -0.1714 -0.0102
 1200TIP3    H1 3606   6.137   3.513   0.765  0.5153 -1.3968  1.2330
 1200TIP3    H2 3607   6.112   3.661   0.784 -1.1579 -1.3011 -1.2069
 1201TIP3   OH2 3608   0.705   5.183   3.300 -0.0589 -0.3875  0.1383
 1201TIP3    H1 3609   0.794   5.191   3.334  0.3734  0.4660 -1.0919
 1201TIP3    H2 3610   0.717   5.158   3.208 -1.1102 -0.9081  0.1339
 1202TIP3   OH2 3611   2.386   3.193   1.878  0.1376  0.1125  0.1783
 1202TIP3    H1 3612   2.409   3.201   1.785  0.5936 -1.4543  0.1315
 1202TIP3    H2 3613   2.469   3.181   1.923 -0.2217 -1.1617  0.5418
 1203TIP3   OH2 3614   0.718   0.295   1.155  0.1550  0.1607 -0.1361
 1203TIP3    H1 3615   0.653   0.261   1.216  2.4359 -2.8311  0.8566
 1203TIP3    H2 3616   0.701   0.249   1.073 -0.2567  0.9912 -0.5323
 1204TIP3   OH2 3617   4.409   5.274   1.077 -0.2187 -0.1721 -0.2068
 1204TIP3    H1 3618   4.450   5.194   1.111 -1.5181 -1.2361 -0.9864
 1204TIP3    H2 3619   4.451   5.289   0.992  0.1221  0.0557  0.0016
 1205TIP3   OH2 3620   4.071   4.380   1.420 -0.0315  0.3212  1.1873
 1205TIP3    H1 3621   3.977   4.362   1.421  0.0997 -0.4358  2.6118
 1205TIP3    H2 3622   4.110   4.304   1.462  1.5375 -0.8857 -2.1081
 1206TIP3   OH2 3623   3.914   3.906   3.634 -0.0583 -0.3493  0.0350
 1206TIP3    H1 3624   3.936   3.852   3.557 -0.3674  0.2050 -0.4462
 1206TIP3    H2 3625   3.999   3.934   3.667  0.0463  0.1579 -0.6488
 1207TIP3   OH2 3626   1.167   2.446   2.665 -0.0904  0.5369 -0.6407
 1207TIP3    H1 3627   1.223   2.391   2.719 -0.4867 -0.3399 -1.1023
 1207TIP3    H2 3628   1.078   2.415   2.683 -0.3565  1.2882 -0.6127
 1208TIP3   OH2 3629   2.737   1.661   0.356 -0.2005  0.3577 -0.0763
 1208TIP3    H1 3630   2.766   1.619   0.275 -1.1130  0.2062 -0.3390
 1208TIP3    H2 3631   2.673   1.599   0.393  0.2057  0.4245  0.7657
 1209TIP3   OH2 3632   0.179   5.625   0.325 -0.8095 -0.1390  0.3979
 1209TIP3    H1 3633   0.214   5.713   0.316  0.2436 -0.3751  1.8685
 1209TIP3    H2 3634   0.114   5.632   0.395  1.6756 -1.0949  2.9904
 1210TIP3   OH2 3635   3.550   1.309   0.977  0.3599  0.6414 -0.4948
 1210TIP3    H1 3636   3.597   1.236   0.937  0.1071  0.6777 -0.8604
 1210TIP3    H2 3637   3.619   1.367   1.009  0.5646 -0.1420  0.5172
 1211TIP3   OH2 3638   0.481   2.565   2.821  0.0612 -0.0128  0.4092
 1211TIP3    H1 3639   0.517   2.509   2.752 -2.3845 -1.1115 -0.0550
 1211TIP3    H2 3640   0.526   2.536   2.901  1.6526  0.0845 -0.3993
 1212TIP3   OH2 3641   4.082   0.625   2.306 -0.1169 -0.1924 -0.0359
 1212TIP3    H1 3642   4.103   0.715   2.332 -1.5169  0.1934 -0.1476
 1212TIP3    H2 3643   4.149   0.572   2.348  0.2352  0.8318  0.7539
 1213TIP3   OH2 3644   5.850   4.635   3.545 -0.4080  0.4952  0.1831
 1213TIP3    H1 3645   5.797   4.606   3.471  1.8644  1.1473 -1.8737
 1213TIP3    H2 3646   5.844   4.731   3.543 -2.0958  0.4996  2.3358
 1214TIP3   OH2 3647   2.879   0.275   4.709 -0.4463 -0.3358 -0.1284
 1214TIP3    H1 3648   2.881   0.329   4.629 -2.0514 -0.0205  0.0092
 1214TIP3    H2 3649   2.789   0.281   4.739 -0.3089 -1.9638  0.7046
 1215TIP3   OH2 3650   4.918   5.409   2.822 -0.2182  0.3460 -0.3367
 1215TIP3    H1 3651   4.897   5.458   2.902  1.1234  0.9022 -0.3037
 1215TIP3    H2 3652   5.013   5.407   2.819 -0.2500 -0.3577 -1.5222
 1216TIP3   OH2 3653   4.086   4.294   2.946  0.2758  0.8488  0.1603
 1216TIP3    H1 3654   4.120   4.372   2.990  0.5203  1.2374 -0.6975
 1216TIP3    H2 3655   4.037   4.328   2.871  1.0087  0.1641 -0.6490
 1217TIP3   OH2 3656   3.760   1.269   4.468  0.1986  0.0673 -0.3017
 1217TIP3    H1 3657   3.819   1.292   4.541  1.3423 -1.6063 -0.6549
 1217TIP3    H2 3658   3.758   1.348   4.414  1.1053  0.5805  0.3795
 1218TIP3   OH2 3659   4.559   0.573   4.637 -0.0440 -0.0767  0.4860
 1218TIP3    H1 3660   4.593   0.573   4.548  1.1566 -0.5872  0.9175
 1218TIP3    H2 3661   4.584   0.488   4.673  1.9138  1.0846  2.1508
 1219TIP3   OH2 3662   4.532   1.061   4.686  0.0170 -0.1418 -0.0050
 1219TIP3    H1 3663   4.447   1.056   4.730 -0.4081  1.3425 -0.6099
 1219TIP3    H2 3664   4.590   1.104   4.749 -0.1090  0.3137 -0.1980
 1220TIP3   OH2 3665   6.199   0.631   3.503  0.3204  0.4730  0.4586
 1220TIP3    H1 3666   6.190   0.559   3.565  1.6890  0.0819  0.2236
 1220TIP3    H2 3667   6.241   0.701   3.553  1.9314 -0.0330 -0.1436
 1221TIP3   OH2 3668   0.559   1.296   3.201  0.4590  0.5871 -0.0073
 1221TIP3    H1 3669   0.489   1.267   3.143 -0.5741  0.1587  1.4068
 1221TIP3    H2 3670   0.596   1.373   3.157 -1.5410  1.4273 -0.3306
 1222TIP3   OH2 3671   4.455   4.393   0.165 -0.2198  0.4509  0.7442
 1222TIP3    H1 3672   4.361   4.379   0.175 -0.2750 -0.2142 -0.5192
 1222TIP3    H2 3673   4.478   4.346   0.085  1.2283  0.4403  1.1384
 1223TIP3   OH2 3674   2.498   1.138   4.979 -0.0285  0.1712 -0.1117
 1223TIP3    H1 3675   2.554   1.060   4.989 -0.3244 -0.2208 -1.3967
 1223TIP3    H2 3676   2.550   1.209   5.017 -0.8194 -1.0175  3.6349
 1224TIP3   OH2 3677   2.657   4.604   0.674  0.0937 -0.0061  0.0987
 1224TIP3    H1 3678   2.725   4.643   0.620 -1.2410  2.0560 -0.1850
 1224TIP3    H2 3679   2.649   4.662   0.750  0.5678 -1.7827  1.6000
 1225TIP3   OH2 3680   0.198   4.133   1.472  0.3541  0.5324  0.1117
 1225TIP3    H1 3681   0.116   4.181   1.458 -0.4208 -0.5572  0.7393
 1225TIP3    H2 3682   0.239   4.129   1.386 -1.3235 -0.7787 -0.6753
 1226TIP3   OH2 3683   3.528   0.098   0.924  0.3014  0.3289  0.3380
 1226TIP3    H1 3684   3.442   0.140   0.918  0.7621  1.5323  1.5860
 1226TIP3    H2 3685   3.545   0.066   0.835 -1.8975 -0.9429  0.2951
 1227TIP3   OH2 3686   1.452   1.351   5.133 -0.3956 -0.0093 -0.0134
 1227TIP3    H1 3687   1.481   1.411   5.201  0.3933 -1.3793  0.9228
 1227TIP3    H2 3688   1.358   1.368   5.123 -0.7066 -0.2817  1.9916
 1228TIP3   OH2 3689   1.836   0.406   2.827 -0.4716  0.0688  0.4117
 1228TIP3    H1 3690   1.791   0.322   2.821  0.5580 -0.4952  0.2888
 1228TIP3    H2 3691   1.894   0.397   2.902  0.1704  0.4069 -0.0318
 1229TIP3   OH2 3692   1.325   1.883   1.357 -0.2406  0.1280 -0.0819
 1229TIP3    H1 3693   1.317   1.968   1.314  0.1136 -0.4505 -1.3669
 1229TIP3    H2 3694   1.419   1.875   1.376 -0.0785 -0.4519 -1.0498
 1230TIP3   OH2 3695   4.907   3.442   1.298  0.1964  0.2947  0.5556
 1230TIP3    H1 3696   4.894   3.533   1.269 -2.9524 -0.2882 -0.2418
 1230TIP3    H2 3697   4.925   3.449   1.392  0.9877  1.7731  0.3180
 1231TIP3   OH2 3698   2.816   5.078   1.045  0.2440  0.4853 -0.2049
 1231TIP3    H1 3699   2.876   5.109   1.112  0.9381  0.5030 -0.8241
 1231TIP3    H2 3700   2.757   5.151   1.029 -0.2353  0.3164  0.7221
 1232TIP3   OH2 3701   1.203   3.348   4.545  0.1726  0.6351  0.1802
 1232TIP3    H1 3702   1.206   3.389   4.631  0.5151  0.6716  0.1535
 1232TIP3    H2 3703   1.291   3.312   4.532 -1.0219 -3.4982  1.8457
 1233TIP3   OH2 3704   3.930   5.298   4.904 -0.1898 -0.3045  0.2188
 1233TIP3    H1 3705   3.968   5.251   4.978  1.3910  0.3635 -0.1289
 1233TIP3    H2 3706   3.990   5.371   4.888 -2.7850  2.2315  1.0867
 1234TIP3   OH2 3707   2.973   4.961   3.843 -0.5477 -0.5897 -0.1506
 1234TIP3    H1 3708   3.029   4.976   3.919 -1.7027 -1.7612  0.9533
 1234TIP3    H2 3709   2.907   4.899   3.872 -1.2197 -0.8247 -2.0232
 1235TIP3   OH2 3710   5.517   1.340   3.700  0.4603 -0.2464 -0.3029
 1235TIP3    H1 3711   5.495   1.433   3.692 -1.1596 -0.5518  0.3744
 1235TIP3    H2 3712   5.449   1.295   3.651  1.6268 -1.0664 -1.2056
 1236TIP3   OH2 3713   2.204   3.817   4.211 -0.0450 -0.4660 -0.1621
 1236TIP3    H1 3714   2.147   3.892   4.224 -0.8929 -1.2531  0.8914
 1236TIP3    H2 3715   2.180   3.783   4.125  0.6735  0.7213 -0.8478
 1237TIP3   OH2 3716   3.437   3.593   4.059 -0.2551 -0.5299 -0.2237
 1237TIP3    H1 3717   3.478   3.544   3.988  0.6650 -1.1874  0.7387
 1237TIP3    H2 3718   3.464   3.548   4.139  0.0486  1.1333  0.6579
 1238TIP3   OH2 3719   5.036   1.871   3.534  0.6155 -0.0233  0.9677
 1238TIP3    H1 3720   4.960   1.908   3.489  1.5597  0.5549 -0.2111
 1238TIP3    H2 3721   5.011   1.780   3.551 -0.1431  0.0077  0.1082
 1239TIP3   OH2 3722   3.542   4.174   4.519  0.0313  0.0663 -0.1151
 1239TIP3    H1 3723   3.458   4.139   4.548  0.0797  0.4581  0.5194
 1239TIP3    H2 3724   3.601   4.159   4.593  0.1647  1.0556 -0.0001
 1240TIP3   OH2 3725   5.660   0.836   3.442  0.6217  0.1514  0.8828
 1240TIP3    H1 3726   5.665   0.745   3.412  2.1839 -0.3580  2.4945
 1240TIP3    H2 3727   5.743   0.851   3.486  0.3965  2.3933  0.6500
 1241TIP3   OH2 3728   0.313   4.427   1.268  0.0550 -0.4939  0.1809
 1241TIP3    H1 3729   0.254   4.353   1.251 -0.5435  0.0562 -0.1582
 1241TIP3    H2 3730   0.398   4.386   1.283  0.3823 -1.1719 -2.7681
 1242TIP3   OH2 3731   5.616   5.933   2.288 -0.1382 -0.6963  0.2803
 1242TIP3    H1 3732   5.610   5.856   2.344 -0.3688 -0.3436  0.7597
 1242TIP3    H2 3733   5.540   5.927   2.230 -1.2718  0.1369  1.6079
 1243TIP3   OH2 3734   5.688   1.373   4.390  0.2959  0.0059  0.6018
 1243TIP3    H1 3735   5.688   1.337   4.479  0.8298 -0.5793  0.3688
 1243TIP3    H2 3736   5.657   1.301   4.335 -0.2232  0.4291  0.3341
 1244TIP3   OH2 3737   4.822   4.717   2.451 -0.2997 -0.4073  0.3661
 1244TIP3    H1 3738   4.861   4.701   2.537  0.4721 -0.9367 -0.0745
 1244TIP3    H2 3739   4.885   4.773   2.406  0.2443 -1.6960 -0.5396
 1245TIP3   OH2 3740   2.550   1.379   1.057 -0.0672 -0.0395 -0.3942
 1245TIP3    H1 3741   2.461   1.379   1.091  0.2425  2.5860  0.6790
 1245TIP3    H2 3742   2.550   1.445   0.988  0.8215 -0.7578 -1.1059
 1246TIP3   OH2 3743   3.740   3.656   2.206 -0.2607 -0.1254  0.3756
 1246TIP3    H1 3744   3.756   3.561   2.203 -0.9447 -0.2261 -0.5786
 1246TIP3    H2 3745   3.758   3.687   2.118  0.5186  0.7467  0.8274
 1247TIP3   OH2 3746   1.083   1.370   4.755 -0.1979 -0.8834  0.3581
 1247TIP3    H1 3747   1.055   1.442   4.812  1.6975  1.0051 -0.9242
 1247TIP3    H2 3748   1.130   1.310   4.812 -0.3868 -0.2577  1.1892
 1248TIP3   OH2 3749   0.915   3.495   3.478  0.7406  0.1814  0.7006
 1248TIP3    H1 3750   0.930   3.504   3.572  1.3025 -0.3737  0.6682
 1248TIP3    H2 3751   0.865   3.414   3.470  0.8112  0.1562  0.5100
 1249TIP3   OH2 3752   3.633   5.189   1.439  0.2521 -0.3152 -0.0806
 1249TIP3    H1 3753   3.599   5.114   1.391 -0.7265 -0.1986  0.4174
 1249TIP3    H2 3754   3.727   5.173   1.445  0.2042 -0.9706 -0.8916
 1250TIP3   OH2 3755   6.231   3.786   3.691 -0.3669  0.5184  0.0427
 1250TIP3    H1 3756   6.181   3.820   3.766  1.8833  0.1805  1.7941
 1250TIP3    H2 3757   6.318   3.825   3.700  0.2286 -0.1967 -1.9602
 1251TIP3   OH2 3758   3.755   3.219   1.167 -0.2558 -0.2600  0.4661
 1251TIP3    H1 3759   3.848   3.222   1.191  0.1461  1.8409 -1.0287
 1251TIP3    H2 3760   3.708   3.241   1.247  0.5863 -0.4369  1.0186
 1252TIP3   OH2 3761   2.792   0.861   2.623 -0.0220 -0.2371  0.2009
 1252TIP3    H1 3762   2.700   0.886   2.627 -0.4298 -1.5056 -0.7522
 1252TIP3    H2 3763   2.792   0.774   2.585  1.6276  0.0293 -0.4951
 1253TIP3   OH2 3764   3.029   2.542   1.088 -0.1567  0.2261  0.2988
 1253TIP3    H1 3765   2.962   2.518   1.024 -0.2654  1.0491  0.0849
 1253TIP3    H2 3766   2.987   2.608   1.144  0.6701  1.3012 -0.2960
 1254TIP3   OH2 3767   4.759   2.721   1.229 -0.7146  0.0333 -0.1476
 1254TIP3    H1 3768   4.803   2.645   1.267 -0.2169 -0.1240 -1.0202
 1254TIP3    H2 3769   4.670   2.690   1.209 -0.5090 -0.3304 -0.5130
 1255TIP3   OH2 3770   4.830   3.692   1.507 -0.1906  0.3405 -0.2179
 1255TIP3    H1 3771   4.903   3.705   1.446 -0.1779 -1.3699 -0.5977
 1255TIP3    H2 3772   4.870   3.697   1.594  0.3882 -0.5268 -0.4211
 1256TIP3   OH2 3773   4.969   4.368   4.852 -0.5904 -0.3727 -0.3988
 1256TIP3    H1 3774   4.969   4.295   4.915 -0.0043  1.6682  2.1014
 1256TIP3    H2 3775   5.061   4.391   4.842 -0.8855  1.3156  0.4866
 1257TIP3   OH2 3776   0.857   3.178   1.272 -0.1392 -0.5336  0.1151
 1257TIP3    H1 3777   0.934   3.191   1.327 -0.8429 -0.1559  1.0280
 1257TIP3    H2 3778   0.784   3.214   1.323 -0.7601  0.1570 -1.2115
 1258TIP3   OH2 3779   1.857   2.171   2.344 -0.1873 -0.1018 -0.1376
 1258TIP3    H1 3780   1.774   2.131   2.320 -0.2996  0.0023  0.0796
 1258TIP3    H2 3781   1.837   2.226   2.420  0.1684 -0.4197  0.1900
 1259TIP3   OH2 3782   3.072   0.538   4.691 -0.0887 -0.0731 -1.1425
 1259TIP3    H1 3783   3.032   0.476   4.629  0.1446 -1.2028 -0.1922
 1259TIP3    H2 3784   3.045   0.506   4.777  0.2428  1.0200 -0.6209
 1260TIP3   OH2 3785   4.227   2.383   1.234  0.6129 -0.3417  0.0702
 1260TIP3    H1 3786   4.228   2.449   1.303  0.6998  0.1889 -0.4258
 1260TIP3    H2 3787   4.314   2.388   1.195  0.5999 -0.7075 -0.0087
 1261TIP3   OH2 3788   1.232   5.249   4.961 -0.0375 -0.1516 -0.0268
 1261TIP3    H1 3789   1.156   5.292   4.924  0.6958  0.7829 -0.4938
 1261TIP3    H2 3790   1.301   5.315   4.958  1.7632 -1.9165 -2.7965
 1262TIP3   OH2 3791   4.948   2.630   3.323  0.3756 -0.5896  0.4386
 1262TIP3    H1 3792   4.910   2.699   3.270  2.6214  1.7164  1.6299
 1262TIP3    H2 3793   5.010   2.586   3.265 -0.4977 -1.1168 -0.1050
 1263TIP3   OH2 3794   1.714   2.979   1.005 -0.1818 -0.1069  0.5563
 1263TIP3    H1 3795   1.676   2.979   0.917  2.0592  1.1263 -0.5149
 1263TIP3    H2 3796   1.647   3.016   1.061 -1.4549 -0.3693 -0.7382
 1264TIP3   OH2 3797   2.832   5.773   3.530 -0.2655 -0.2367  0.0452
 1264TIP3    H1 3798   2.881   5.714   3.588  1.6178 -0.0939 -1.2965
 1264TIP3    H2 3799   2.896   5.798   3.462 -1.3722  2.3246 -0.1616
 1265TIP3   OH2 3800   4.048   2.833   1.613 -0.4999  0.4898  0.5090
 1265TIP3    H1 3801   4.124   2.848   1.668  1.0549  1.7098 -1.7948
 1265TIP3    H2 3802   3.976   2.818   1.674  1.4669 -0.3142  2.7914
 1266TIP3   OH2 3803   5.535   2.234   3.387  0.0260  0.3404 -0.4163
 1266TIP3    H1 3804   5.601   2.173   3.354  2.1656  1.0776  2.1045
 1266TIP3    H2 3805   5.551   2.315   3.338  0.5511  0.3063 -0.3098
 1267TIP3   OH2 3806   0.921   4.622   1.384  0.1422  0.6630 -0.3325
 1267TIP3    H1 3807   0.965   4.538   1.370  1.6323  0.9675  1.8879
 1267TIP3    H2 3808   0.859   4.605   1.455  0.6757  1.4691  0.3527
 1268TIP3   OH2 3809   6.250   1.390   4.283  0.8235 -0.7546 -0.1061
 1268TIP3    H1 3810   6.248   1.484   4.267  0.2171 -0.1176  3.0951
 1268TIP3    H2 3811   6.343   1.369   4.294  0.9952 -0.6495 -1.2662
 1269TIP3   OH2 3812   5.270   2.349   1.690  0.5795  0.0363 -0.2248
 1269TIP3    H1 3813   5.283   2.290   1.616  0.1944 -1.1458  0.6286
 1269TIP3    H2 3814   5.348   2.406   1.689  0.8180 -0.2939 -1.2268
 1270TIP3   OH2 3815   1.313   3.306   3.767 -0.3495 -0.0654  0.3512
 1270TIP3    H1 3816   1.268   3.227   3.799 -1.3822  0.7011  0.8615
 1270TIP3    H2 3817   1.277   3.320   3.680 -1.0725  0.4948  0.7233
 1271TIP3   OH2 3818   2.310   5.466   4.883  0.0646  0.2561 -0.4236
 1271TIP3    H1 3819   2.330   5.546   4.834  2.3499  0.3177  0.4822
 1271TIP3    H2 3820   2.331   5.395   4.822  1.3090  0.3489 -0.1318
 1272TIP3   OH2 3821   4.812   2.179   1.787 -0.1738 -0.2524 -0.1611
 1272TIP3    H1 3822   4.844   2.184   1.697  1.5850 -0.8700  0.3859
 1272TIP3    H2 3823   4.873   2.119   1.830 -1.4935 -0.6315  1.2371
 1273TIP3   OH2 3824   2.859   3.359   4.012 -0.0986 -0.2273 -0.1128
 1273TIP3    H1 3825   2.911   3.368   4.092 -0.2918 -0.6370  0.0573
 1273TIP3    H2 3826   2.873   3.268   3.984 -0.1604 -0.1337 -0.4567
 1274TIP3   OH2 3827   5.750   1.207   0.214  0.4576 -0.3612  0.0702
 1274TIP3    H1 3828   5.793   1.253   0.287 -0.3331  0.1582  0.2197
 1274TIP3    H2 3829   5.743   1.273   0.145  1.8827 -1.0549 -0.7759
 1275TIP3   OH2 3830   4.485   5.025   1.161  0.2497  0.0706  0.5226
 1275TIP3    H1 3831   4.540   5.027   1.240 -0.2932 -0.3292  0.9190
 1275TIP3    H2 3832   4.438   4.941   1.166 -0.9573  0.7237  0.5872
 1276TIP3   OH2 3833   4.441   4.538   0.820  0.1102 -0.4547 -0.2136
 1276TIP3    H1 3834   4.529   4.510   0.795  0.5850  0.4509  0.3824
 1276TIP3    H2 3835   4.453   4.577   0.907 -0.5265  1.4457 -0.9364
 1277TIP3   OH2 3836   1.971   4.181   5.058  0.0653 -0.3027 -0.3918
 1277TIP3    H1 3837   1.908   4.177   4.987 -0.5199 -0.1475  0.1068
 1277TIP3    H2 3838   1.927   4.140   5.132  0.8164 -0.8283 -0.2184
 1278TIP3   OH2 3839   4.101   5.963   4.984 -0.0561 -0.2706  0.2904
 1278TIP3    H1 3840   4.085   5.882   4.936  0.9980 -1.0940  1.2864
 1278TIP3    H2 3841   4.110   6.029   4.915 -0.4621 -1.0755 -0.5620
 1279TIP3   OH2 3842   5.261   0.910   1.070  0.1504  0.1895  0.5222
 1279TIP3    H1 3843   5.250   0.973   0.999  1.6452  0.0594  0.1433
 1279TIP3    H2 3844   5.188   0.848   1.058 -0.0129  0.5524 -0.4887
 1280TIP3   OH2 3845   2.359   4.628   0.390 -0.1401  0.6645  0.2353
 1280TIP3    H1 3846   2.375   4.658   0.480  0.0577  0.6191  0.2161
 1280TIP3    H2 3847   2.300   4.694   0.353  0.0017  0.8331  0.3088
 1281TIP3   OH2 3848   2.006   4.794   3.891 -1.0559 -0.2658  0.1156
 1281TIP3    H1 3849   2.009   4.767   3.799  0.4362  0.5009 -0.0911
 1281TIP3    H2 3850   2.065   4.869   3.896  0.5779 -1.5892  2.1284
 1282TIP3   OH2 3851   3.743   3.589   0.075 -0.8451  0.2683 -0.1405
 1282TIP3    H1 3852   3.753   3.588  -0.021 -2.4476 -2.2565 -0.3721
 1282TIP3    H2 3853   3.716   3.678   0.095  0.0313  1.0022 -1.9813
 1283TIP3   OH2 3854   5.701   5.950   5.077  0.3560 -0.8103  0.0524
 1283TIP3    H1 3855   5.787   5.970   5.114  0.4535  0.1691 -0.6689
 1283TIP3    H2 3856   5.694   6.007   5.000 -1.8455  0.8435  1.3400
 1284TIP3   OH2 3857   3.985   4.168   0.592 -0.1718  0.1727 -0.0013
 1284TIP3    H1 3858   3.909   4.148   0.538  0.2802 -0.7243 -0.3324
 1284TIP3    H2 3859   3.987   4.099   0.658  0.3815  0.1460 -0.0356
 1285TIP3   OH2 3860   3.667   3.915   0.797  0.1527 -0.3408  0.4871
 1285TIP3    H1 3861   3.620   3.973   0.858 -0.3304 -0.3372  0.1209
 1285TIP3    H2 3862   3.697   3.842   0.851  0.9385  0.3379  0.9972
 1286TIP3   OH2 3863   1.044   2.581   4.604 -0.8715 -0.1524  0.2888
 1286TIP3    H1 3864   1.045   2.615   4.515  0.1634  1.4182  0.8714
 1286TIP3    H2 3865   1.122   2.525   4.609 -0.6708  0.1271  0.3320
 1287TIP3   OH2 3866   2.356   4.896   2.706 -0.2540 -0.0490 -0.0373
 1287TIP3    H1 3867   2.400   4.928   2.785 -0.6500 -0.7310  0.4767
 1287TIP3    H2 3868   2.412   4.923   2.634 -0.6899  2.0041  0.3427
 1288TIP3   OH2 3869   2.640   2.999   4.058 -0.0372 -0.2528  0.1681
 1288TIP3    H1 3870   2.618   2.976   3.968 -1.6861  1.5115  0.0557
 1288TIP3    H2 3871   2.576   2.952   4.111 -1.6066  1.7048  0.1112
 1289TIP3   OH2 3872   5.506   1.143   2.781  0.0761 -0.2549  0.1215
 1289TIP3    H1 3873   5.433   1.099   2.825  1.2233 -0.0157  2.3979
 1289TIP3    H2 3874   5.555   1.184   2.851  1.7453  0.6199 -1.4764
 1290TIP3   OH2 3875   2.726   4.972   1.546  0.2357  0.5866  0.9241
 1290TIP3    H1 3876   2.647   4.974   1.600  0.6621 -0.1418  1.5915
 1290TIP3    H2 3877   2.700   4.924   1.467 -0.0156  0.4574  1.0843
 1291TIP3   OH2 3878   2.839   3.404   3.509 -0.1895  0.2852 -0.2380
 1291TIP3    H1 3879   2.845   3.344   3.584 -1.6895 -0.5683 -0.7486
 1291TIP3    H2 3880   2.758   3.378   3.464 -1.0368  2.8648 -0.3589
 1292TIP3   OH2 3881   2.672   2.028   2.498  0.2954 -0.3077 -0.2213
 1292TIP3    H1 3882   2.621   2.099   2.460  0.4863  0.1034  0.2773
 1292TIP3    H2 3883   2.675   2.049   2.592  0.1008 -1.1243 -0.0196
 1293TIP3   OH2 3884   4.329   2.250   0.867 -0.1239 -0.2669  0.0313
 1293TIP3    H1 3885   4.347   2.344   0.856 -0.1153 -0.3137 -0.3608
 1293TIP3    H2 3886   4.349   2.233   0.958  0.6151 -0.0519 -0.0861
 1294TIP3   OH2 3887   4.677   4.123   0.606  1.2578 -0.1378 -0.4265
 1294TIP3    H1 3888   4.649   4.049   0.660  1.4816  0.2177  0.1779
 1294TIP3    H2 3889   4.596   4.169   0.583  1.2848  0.6420  0.9597
 1295TIP3   OH2 3890   4.451   0.597   1.381 -0.4949 -0.2514  0.3001
 1295TIP3    H1 3891   4.409   0.523   1.423 -0.6233 -0.3473  0.0052
 1295TIP3    H2 3892   4.393   0.620   1.308 -0.6897  0.4208  0.6524
 1296TIP3   OH2 3893   4.725   4.859   0.442  0.1008 -0.1169  0.4993
 1296TIP3    H1 3894   4.671   4.820   0.510  1.0155 -1.5814  0.4220
 1296TIP3    H2 3895   4.815   4.835   0.466  0.4467 -0.5910 -1.1556
 1297TIP3   OH2 3896   5.344   1.272   0.381 -0.3758  0.1516  0.0255
 1297TIP3    H1 3897   5.382   1.245   0.465 -0.1242 -0.4590 -0.2801
 1297TIP3    H2 3898   5.308   1.359   0.399  3.0816  1.7870 -0.1900
 1298TIP3   OH2 3899   1.823   2.006   4.740  0.2550  0.3168  0.3075
 1298TIP3    H1 3900   1.745   1.951   4.735  0.1335  0.3248  1.6484
 1298TIP3    H2 3901   1.792   2.094   4.719 -0.3097  0.4718  1.6251
 1299TIP3   OH2 3902   0.770   4.008   4.020  0.7282  0.6598 -0.0448
 1299TIP3    H1 3903   0.748   4.073   3.953  1.3852 -0.1214 -1.0592
 1299TIP3    H2 3904   0.848   4.042   4.062 -0.1108  1.5199  0.8633
 1300TIP3   OH2 3905   3.857   0.605   2.688 -0.2440 -0.4161  0.1327
 1300TIP3    H1 3906   3.924   0.669   2.664 -1.2865  1.4913  1.9792
 1300TIP3    H2 3907   3.775   0.645   2.660 -0.7827 -2.1418 -0.9232
 1301TIP3   OH2 3908   0.500   2.889   1.346  0.0285 -0.6465  0.6823
 1301TIP3    H1 3909   0.515   2.922   1.257 -0.4166 -0.9721  0.4834
 1301TIP3    H2 3910   0.483   2.796   1.335 -1.9745 -0.3426  0.8875
 1302TIP3   OH2 3911   0.594   5.229   0.360 -0.1895 -0.5546 -0.8739
 1302TIP3    H1 3912   0.667   5.168   0.364  0.0047 -0.2820  0.4601
 1302TIP3    H2 3913   0.604   5.282   0.439 -1.5602 -0.2100 -0.9103
 1303TIP3   OH2 3914   3.241   0.701   3.508 -0.7580  0.7501  0.5214
 1303TIP3    H1 3915   3.207   0.708   3.419  1.1461 -0.2802 -0.3697
 1303TIP3    H2 3916   3.197   0.624   3.544  0.2032 -0.3319 -0.4729
 1304TIP3   OH2 3917   6.324   2.491   3.111  0.2059  0.2551  0.2463
 1304TIP3    H1 3918   6.408   2.456   3.142 -0.6948  0.5390  3.3824
 1304TIP3    H2 3919   6.259   2.451   3.169 -1.5456  2.1128 -0.3109
 1305TIP3   OH2 3920   1.181   0.551   4.318  0.6926 -0.3729  0.5265
 1305TIP3    H1 3921   1.253   0.533   4.257  0.5370 -0.7148  0.4422
 1305TIP3    H2 3922   1.224   0.568   4.402  0.9059  0.0583  0.3357
 1306TIP3   OH2 3923   4.334   4.566   0.388 -0.0122  0.0122  0.4470
 1306TIP3    H1 3924   4.265   4.500   0.392 -0.2679  0.2741  0.3932
 1306TIP3    H2 3925   4.292   4.641   0.346 -0.4556  1.1034  2.7112
 1307TIP3   OH2 3926   2.834   2.810   3.845  0.6071  0.1065 -0.2860
 1307TIP3    H1 3927   2.842   2.747   3.917  0.0305  0.0106 -0.3002
 1307TIP3    H2 3928   2.862   2.761   3.767  1.3913  0.2608 -0.1109
 1308TIP3   OH2 3929   1.186   0.225   2.055  0.3877  0.6235 -0.0465
 1308TIP3    H1 3930   1.139   0.308   2.053  1.3423  1.1899  0.3772
 1308TIP3    H2 3931   1.268   0.244   2.101  0.1438 -0.8058  1.0353
 1309TIP3   OH2 3932   0.415   4.652   3.803 -0.0910  0.1070 -0.1727
 1309TIP3    H1 3933   0.373   4.649   3.717 -1.3091 -0.6652  0.4197
 1309TIP3    H2 3934   0.415   4.745   3.827 -0.6005  0.2203 -0.6084
 1310TIP3   OH2 3935   0.031   3.927   2.156  0.3292 -0.1510 -0.1748
 1310TIP3    H1 3936  -0.010   4.005   2.120  0.5762  0.5071  0.9034
 1310TIP3    H2 3937   0.105   3.960   2.207 -0.4962 -0.9217  1.6203
 1311TIP3   OH2 3938   4.314   4.804   1.125  1.0403 -0.7079  0.0717
 1311TIP3    H1 3939   4.233   4.763   1.153 -1.5289  1.4971 -3.2716
 1311TIP3    H2 3940   4.369   4.732   1.094 -1.8834 -2.0806 -2.4192
 1312TIP3   OH2 3941   4.172   1.575   2.981 -0.2149 -0.5201 -0.0562
 1312TIP3    H1 3942   4.132   1.624   2.909  1.1657 -0.1176 -0.5754
 1312TIP3    H2 3943   4.110   1.584   3.053 -1.4099 -0.5373 -1.0360
 1313TIP3   OH2 3944   3.174   5.340   0.647 -0.0921  0.3292 -0.3106
 1313TIP3    H1 3945   3.085   5.353   0.681 -1.2424 -1.9071 -2.1228
 1313TIP3    H2 3946   3.164   5.346   0.552  1.7174  0.0557 -0.5503
 1314TIP3   OH2 3947   3.187   1.433   3.204  0.0056 -0.3566  0.0772
 1314TIP3    H1 3948   3.119   1.467   3.146  0.3873 -0.1013 -0.2217
 1314TIP3    H2 3949   3.140   1.407   3.284 -0.3444  0.4613  0.1436
 1315TIP3   OH2 3950   3.677   2.371   0.918 -0.4456  0.0473  0.5825
 1315TIP3    H1 3951   3.758   2.333   0.952  0.1009 -0.2048 -0.9199
 1315TIP3    H2 3952   3.612   2.301   0.927 -0.0500 -0.3823  0.1561
 1316TIP3   OH2 3953   0.022   4.305   0.581  0.2478 -0.0250 -0.1169
 1316TIP3    H1 3954   0.027   4.263   0.667 -1.2027  1.6565  0.8575
 1316TIP3    H2 3955   0.032   4.233   0.519 -0.2806 -1.5389  1.4675
 1317TIP3   OH2 3956   5.380   2.578   2.984 -0.4479  0.5069 -0.5595
 1317TIP3    H1 3957   5.376   2.484   2.966 -0.6589  1.0652 -4.2243
 1317TIP3    H2 3958   5.471   2.601   2.969 -0.2612  0.8513  0.9409
 1318TIP3   OH2 3959   4.370   4.560   1.372 -0.7385  0.0379  0.4169
 1318TIP3    H1 3960   4.287   4.519   1.397 -0.0152  0.0352  3.0723
 1318TIP3    H2 3961   4.436   4.492   1.389 -0.0006  0.6811  0.1623
 1319TIP3   OH2 3962   4.980   5.696   4.181 -0.0507 -0.2118 -0.0609
 1319TIP3    H1 3963   4.889   5.709   4.156  0.4362  2.2297 -0.8441
 1319TIP3    H2 3964   5.030   5.748   4.118  1.6134  1.5188  2.4927
 1320TIP3   OH2 3965   2.986   0.846   4.913 -1.0357 -0.0484 -0.0015
 1320TIP3    H1 3966   2.920   0.782   4.888 -0.6101  0.9790 -4.6754
 1320TIP3    H2 3967   3.064   0.794   4.933 -0.8260 -1.2071 -3.2741
 1321TIP3   OH2 3968   1.936   3.838   1.027 -0.7281 -0.2482  0.2782
 1321TIP3    H1 3969   1.996   3.907   0.999 -1.0862 -0.6312 -1.5791
 1321TIP3    H2 3970   1.853   3.883   1.042 -0.4560  0.0070  1.0821
 1322TIP3   OH2 3971   5.610   2.208   2.932 -0.0813 -0.2367  0.7050
 1322TIP3    H1 3972   5.698   2.176   2.917 -0.9129 -1.3466 -2.6670
 1322TIP3    H2 3973   5.586   2.173   3.018  1.8888 -1.9700  0.6224
 1323TIP3   OH2 3974   4.856   5.623   2.988  0.2254  0.2994  0.5715
 1323TIP3    H1 3975   4.929   5.657   2.937  0.7726  0.6898  1.5915
 1323TIP3    H2 3976   4.888   5.620   3.078 -0.5561 -0.8191  0.8458
 1324TIP3   OH2 3977   5.006   3.542   3.495 -0.6256 -0.0362 -0.2990
 1324TIP3    H1 3978   4.919   3.575   3.514 -0.5308 -0.3829  0.7857
 1324TIP3    H2 3979   5.056   3.556   3.575  0.4936  0.6985 -1.0980
 1325TIP3   OH2 3980   2.802   4.536   4.661 -0.1250  0.3148 -0.3727
 1325TIP3    H1 3981   2.715   4.555   4.628  0.0573 -1.2009 -1.8335
 1325TIP3    H2 3982   2.795   4.547   4.756 -2.5363 -1.9935 -0.1882
 1326TIP3   OH2 3983   3.617   0.555   4.243 -0.5608 -0.0038  0.0850
 1326TIP3    H1 3984   3.524   0.552   4.221 -0.4485  0.0137 -0.4076
 1326TIP3    H2 3985   3.660   0.586   4.163 -0.0823 -0.5001  0.1398
 1327TIP3   OH2 3986   0.667   0.108   3.766  0.8541  0.2014 -0.2296
 1327TIP3    H1 3987   0.575   0.109   3.739 -0.2151  0.2559  2.9311
 1327TIP3    H2 3988   0.700   0.194   3.742 -0.9661  1.4623  1.4745
 1328TIP3   OH2 3989   2.310   0.980   4.861  0.0696  0.3467 -0.2004
 1328TIP3    H1 3990   2.362   1.050   4.900  0.9173  0.3955 -1.3605
 1328TIP3    H2 3991   2.253   1.024   4.798  0.2215  0.0539 -0.5455
 1329TIP3   OH2 3992   0.081   0.997   1.081  0.0511  0.1745 -0.3770
 1329TIP3    H1 3993   0.025   1.057   1.032  0.0354 -0.2033 -0.8274
 1329TIP3    H2 3994   0.027   0.920   1.095  0.3333 -0.0408 -0.4803
 1330TIP3   OH2 3995   5.165   5.569   5.093 -0.3027  0.2753 -0.0850
 1330TIP3    H1 3996   5.081   5.575   5.046  0.7073 -0.7519 -2.1524
 1330TIP3    H2 3997   5.159   5.487   5.143 -0.7953  0.5764  0.3575
 1331TIP3   OH2 3998   3.430   5.855   3.451  0.2997 -0.4299  0.1496
 1331TIP3    H1 3999   3.399   5.875   3.539  0.7459 -2.5617  0.8436
 1331TIP3    H2 4000   3.438   5.941   3.409 -1.7325  0.5263  1.5334
 1332TIP3   OH2 4001   0.696   0.867   0.772 -0.0190 -0.6934  0.0706
 1332TIP3    H1 4002   0.709   0.877   0.866  0.3377  0.5550 -0.0869
 1332TIP3    H2 4003   0.602   0.849   0.763  0.0589 -1.4675  0.6920
 1333TIP3   OH2 4004   4.134   4.276   2.127 -0.3240 -0.1962  0.0163
 1333TIP3    H1 4005   4.055   4.327   2.147  0.0126  0.5968 -0.6354
 1333TIP3    H2 4006   4.184   4.331   2.068 -0.3026 -1.5897 -1.3270
 1334TIP3   OH2 4007   4.955   4.746   4.785  0.1576  0.8560 -0.4420
 1334TIP3    H1 4008   4.941   4.841   4.788 -1.5757  0.6492 -1.1908
 1334TIP3    H2 4009   5.000   4.727   4.868 -0.7955  2.1310  0.4188
 1335TIP3   OH2 4010   4.587   1.784   0.969 -0.0447  0.5557 -0.6493
 1335TIP3    H1 4011   4.531   1.733   1.028  0.5538  2.0281  1.3103
 1335TIP3    H2 4012   4.528   1.844   0.925 -0.2500  0.8947  0.0725
 1336TIP3   OH2 4013   2.867   1.587   2.083  0.3122  0.2133 -0.4201
 1336TIP3    H1 4014   2.811   1.623   2.151 -0.0543 -0.1843 -0.5047
 1336TIP3    H2 4015   2.918   1.518   2.127  0.7873  0.6160 -0.3284
 1337TIP3   OH2 4016   2.567   1.481   4.393 -0.1000 -0.0805 -0.5217
 1337TIP3    H1 4017   2.561   1.531   4.474 -0.0452 -0.4794 -0.2667
 1337TIP3    H2 4018   2.501   1.412   4.403  0.8395 -0.9563 -0.2281
 1338TIP3   OH2 4019   3.796   4.761   0.504  0.0292  1.1658 -0.2774
 1338TIP3    H1 4020   3.731   4.708   0.457 -1.6625  1.8799  1.1231
 1338TIP3    H2 4021   3.834   4.701   0.568  0.2277  0.9257 -0.6171
 1339TIP3   OH2 4022   2.955   0.415   1.148  0.0637  0.1414 -0.3999
 1339TIP3    H1 4023   3.024   0.378   1.204 -1.4704 -0.8008  0.9565
 1339TIP3    H2 4024   2.878   0.362   1.167 -1.3884  1.9682 -0.8894
 1340TIP3   OH2 4025   4.118   5.096   2.843  0.4459 -0.1979 -0.2254
 1340TIP3    H1 4026   4.200   5.050   2.859  0.5932 -0.9097 -2.7224
 1340TIP3    H2 4027   4.109   5.097   2.748 -1.3089  1.8898 -0.1099
 1341TIP3   OH2 4028   5.932   1.858   3.496  0.2466  0.2862  0.4891
 1341TIP3    H1 4029   5.874   1.804   3.442  0.3073  1.1166 -0.4351
 1341TIP3    H2 4030   6.014   1.863   3.446 -0.1744  2.2739 -0.1050
 1342TIP3   OH2 4031   5.249   2.910   1.453  0.2839  0.1595  0.1089
 1342TIP3    H1 4032   5.268   2.997   1.487  1.2862 -0.4592  1.2259
 1342TIP3    H2 4033   5.268   2.916   1.360  1.3861  0.8757  0.3521
 1343TIP3   OH2 4034   3.172   1.817   1.483  0.3964  0.3386  0.3165
 1343TIP3    H1 4035   3.216   1.737   1.512 -0.5860  0.4400  2.2486
 1343TIP3    H2 4036   3.169   1.809   1.387  1.5299 -1.2619  0.3679
 1344TIP3   OH2 4037   3.311   4.223   1.078  0.0746 -0.1584  0.4192
 1344TIP3    H1 4038   3.387   4.280   1.072 -0.5269  0.7017  0.6995
 1344TIP3    H2 4039   3.288   4.223   1.171  0.7397 -1.7926  0.6125
 1345TIP3   OH2 4040   2.784   2.459   4.672  0.1777 -0.0882  0.4532
 1345TIP3    H1 4041   2.708   2.408   4.643  0.4182 -0.5372  0.6004
 1345TIP3    H2 4042   2.850   2.393   4.694  0.9024  0.3095 -0.4511
 1346TIP3   OH2 4043   4.459   1.588   2.836  0.2138  0.3206 -0.4170
 1346TIP3    H1 4044   4.552   1.606   2.822  0.1711  1.2277  0.3377
 1346TIP3    H2 4045   4.414   1.644   2.772  0.2054 -1.0350 -1.6261
 1347TIP3   OH2 4046   6.106   2.078   1.516  0.4014 -0.2261 -0.6220
 1347TIP3    H1 4047   6.045   2.098   1.587  0.1577  1.2883 -1.2202
 1347TIP3    H2 4048   6.129   1.986   1.529  2.6781  0.6368  3.2027
 1348TIP3   OH2 4049   5.543   5.803   0.897 -0.0793 -0.1412 -0.0475
 1348TIP3    H1 4050   5.580   5.809   0.809  0.3931 -1.6743  0.0194
 1348TIP3    H2 4051   5.612   5.761   0.949 -1.2007 -1.3685  0.5146
 1349TIP3   OH2 4052   2.641   4.466   3.320 -0.3050 -0.3749 -0.8048
 1349TIP3    H1 4053   2.688   4.494   3.398 -0.4635 -0.7438 -0.5726
 1349TIP3    H2 4054   2.659   4.373   3.312  0.1609 -0.2323 -1.5320
 1350TIP3   OH2 4055   2.038   4.497   2.486 -0.2051  0.2607 -0.2773
 1350TIP3    H1 4056   2.078   4.410   2.495 -0.4256  0.1029 -0.7825
 1350TIP3    H2 4057   1.979   4.504   2.560 -3.6778 -1.9124 -2.5456
 1351TIP3   OH2 4058   1.979   0.441   1.844 -0.6203  0.0459  0.1649
 1351TIP3    H1 4059   1.943   0.414   1.759  2.1649 -0.2013 -1.0476
 1351TIP3    H2 4060   1.986   0.360   1.894  0.4567 -0.3201 -0.5322
 1352TIP3   OH2 4061   6.000   2.765   0.093  0.4860  0.0604 -0.2025
 1352TIP3    H1 4062   6.077   2.803   0.135 -1.1917  0.8271  2.4807
 1352TIP3    H2 4063   5.973   2.829   0.027  2.4195 -0.5229 -1.6431
 1353TIP3   OH2 4064   4.590   3.570   1.409  0.4085  0.2676  0.2110
 1353TIP3    H1 4065   4.628   3.488   1.440  0.2481  0.4899  1.0248
 1353TIP3    H2 4066   4.643   3.638   1.450  0.5755  0.5729 -0.5051
 1354TIP3   OH2 4067   1.532   0.616   0.998  0.7726  0.4511  0.5752
 1354TIP3    H1 4068   1.570   0.664   0.925  1.7558  0.2450  0.9402
 1354TIP3    H2 4069   1.555   0.524   0.982 -1.0204  0.0728 -0.0713
 1355TIP3   OH2 4070   0.686   3.389   0.081 -0.3279  0.0139  0.5697
 1355TIP3    H1 4071   0.751   3.455   0.057 -0.0138  0.6815  2.9951
 1355TIP3    H2 4072   0.606   3.438   0.095 -0.4559 -0.3053  0.9872
 1356TIP3   OH2 4073   3.335   5.542   4.732 -0.0724 -0.1690 -0.5404
 1356TIP3    H1 4074   3.341   5.447   4.733  0.8988 -0.1570 -1.9525
 1356TIP3    H2 4075   3.396   5.569   4.663  1.4324  1.6163  1.3733
 1357TIP3   OH2 4076   5.953   2.351   0.544 -0.0587 -0.1676  0.2485
 1357TIP3    H1 4077   6.009   2.336   0.620  0.7536 -1.2018 -0.5344
 1357TIP3    H2 4078   5.982   2.436   0.510  0.5012 -0.3306  0.3097
 1358TIP3   OH2 4079   4.012   4.266   4.749 -0.2547 -0.4661 -0.7912
 1358TIP3    H1 4080   4.056   4.252   4.833  1.5506 -0.9190 -1.7715
 1358TIP3    H2 4081   3.983   4.357   4.752 -1.8851 -0.9590  1.0280
 1359TIP3   OH2 4082   0.591   2.463   5.185 -0.1442 -0.1509  0.4507
 1359TIP3    H1 4083   0.552   2.390   5.137 -0.6991  1.1383 -1.1597
 1359TIP3    H2 4084   0.634   2.515   5.118 -0.5079  1.4573  1.4166
 1360TIP3   OH2 4085   5.269   1.392   3.889  0.6019 -0.8759 -0.2842
 1360TIP3    H1 4086   5.267   1.340   3.969  1.5302 -0.7115 -0.1329
 1360TIP3    H2 4087   5.356   1.432   3.889  0.8566 -1.3428 -1.6743
 1361TIP3   OH2 4088   1.322   0.707   2.208 -0.0761  0.7297  0.3916
 1361TIP3    H1 4089   1.330   0.748   2.294  0.5985  1.2095  0.1091
 1361TIP3    H2 4090   1.357   0.771   2.147 -0.0339  0.1726 -0.1866
 1362TIP3   OH2 4091   4.016   2.115   3.341  0.3599 -0.1155  0.6170
 1362TIP3    H1 4092   4.085   2.079   3.396  1.0762  0.7136  0.2799
 1362TIP3    H2 4093   4.001   2.049   3.275  1.7487  0.2225 -0.0683
 1363TIP3   OH2 4094   4.124   1.250   2.563 -0.0011 -0.1152  0.0878
 1363TIP3    H1 4095   4.040   1.205   2.551  0.6077 -1.4377  0.5447
 1363TIP3    H2 4096   4.141   1.243   2.657  1.9011 -2.3190 -0.3520
 1364TIP3   OH2 4097   3.298   0.894   0.518  0.1425  0.0157 -0.7716
 1364TIP3    H1 4098   3.253   0.863   0.597  3.5509 -0.3324  1.2709
 1364TIP3    H2 4099   3.282   0.826   0.453 -0.8940 -0.8715  0.3640
 1365TIP3   OH2 4100   0.533   1.221   0.984  0.2025  0.9134 -0.2901
 1365TIP3    H1 4101   0.464   1.287   0.996  0.9324  1.3239  2.0317
 1365TIP3    H2 4102   0.615   1.271   0.986  0.7136  0.0818  0.2542
 1366TIP3   OH2 4103   4.211   4.702   3.399  0.1496  0.4175  0.3359
 1366TIP3    H1 4104   4.263   4.783   3.405 -0.9557  1.2779 -1.0318
 1366TIP3    H2 4105   4.216   4.677   3.307 -0.8208 -0.1803  0.4371
 1367TIP3   OH2 4106   2.946   4.824   3.276  0.1471  0.1435  0.0707
 1367TIP3    H1 4107   3.036   4.800   3.257 -0.6886 -1.9039 -1.7284
 1367TIP3    H2 4108   2.914   4.863   3.194 -1.2759 -1.4886 -0.2145
 1368TIP3   OH2 4109   4.370   5.608   4.621 -0.6911 -0.3021  0.7015
 1368TIP3    H1 4110   4.389   5.519   4.589 -3.9034 -1.4134  1.5033
 1368TIP3    H2 4111   4.340   5.656   4.544  2.2407  0.6244 -0.0037
 1369TIP3   OH2 4112   5.565   0.088   4.532 -0.1840 -0.3215 -0.4182
 1369TIP3    H1 4113   5.478   0.047   4.528 -0.4470  0.1005  0.5957
 1369TIP3    H2 4114   5.585   0.092   4.626  0.3462  0.7814 -0.5623
 1370TIP3   OH2 4115   6.027   5.842   2.645 -0.9319  0.4296 -0.0220
 1370TIP3    H1 4116   6.073   5.925   2.649  0.6661 -0.3965 -0.3801
 1370TIP3    H2 4117   5.962   5.846   2.716  0.0728  1.4212  0.8649
 1371TIP3   OH2 4118   5.211   5.288   3.447  0.1572 -0.1401  0.5859
 1371TIP3    H1 4119   5.299   5.260   3.420  0.5432  2.5393 -1.2914
 1371TIP3    H2 4120   5.225   5.373   3.489 -1.4001 -0.4500  1.8007
 1372TIP3   OH2 4121   3.495   0.905   2.278 -0.1081 -0.0048 -0.7789
 1372TIP3    H1 4122   3.515   0.999   2.286  0.2758  0.0581 -2.1455
 1372TIP3    H2 4123   3.402   0.899   2.299 -0.1368  0.6862 -0.6718
 1373TIP3   OH2 4124   2.902   3.631   3.635  0.1468 -0.0129 -0.1346
 1373TIP3    H1 4125   2.968   3.595   3.694  1.0887  1.8565 -0.0055
 1373TIP3    H2 4126   2.870   3.555   3.586  0.0175 -1.4683  2.0713
 1374TIP3   OH2 4127   4.560   1.964   5.124 -0.6384  0.3115  0.1084
 1374TIP3    H1 4128   4.626   2.031   5.109 -0.8514  0.5815  0.3633
 1374TIP3    H2 4129   4.609   1.882   5.123 -0.0260  0.6096  1.8954
 1375TIP3   OH2 4130   4.365   2.377   3.795  0.0947 -0.7900  0.0927
 1375TIP3    H1 4131   4.286   2.423   3.825 -0.6321 -1.4018 -0.8314
 1375TIP3    H2 4132   4.339   2.338   3.711  1.0294 -1.9778  0.3374
 1376TIP3   OH2 4133   2.757   3.452   4.565 -0.6883 -0.5362  0.3597
 1376TIP3    H1 4134   2.781   3.513   4.495 -0.2182 -0.1929  0.8091
 1376TIP3    H2 4135   2.760   3.366   4.524 -1.2309 -0.2738 -0.2540
 1377TIP3   OH2 4136   1.265   5.145   0.791 -0.3298 -0.0565 -0.4255
 1377TIP3    H1 4137   1.333   5.101   0.741 -1.4416 -1.7583 -0.5401
 1377TIP3    H2 4138   1.250   5.227   0.744  0.3821 -0.4883 -1.4440
 1378TIP3   OH2 4139   3.347   4.176   0.502 -0.0119 -0.5148 -0.2281
 1378TIP3    H1 4140   3.329   4.098   0.555  0.3181 -1.0295 -0.8611
 1378TIP3    H2 4141   3.260   4.209   0.478 -0.1556 -0.5863  0.1808
 1379TIP3   OH2 4142   2.929   3.593   2.125 -0.0537 -0.0502 -0.0599
 1379TIP3    H1 4143   2.967   3.676   2.096 -1.4695  1.0762  1.1066
 1379TIP3    H2 4144   2.836   3.602   2.104 -0.3284 -1.0942  0.6564
 1380TIP3   OH2 4145   1.012   4.166   3.897  0.1856  0.1930  0.0659
 1380TIP3    H1 4146   1.023   4.156   3.991  0.8931  1.2556  0.1082
 1380TIP3    H2 4147   1.008   4.261   3.882  1.3872  0.1017 -1.0925
 1381TIP3   OH2 4148   3.579   5.164   4.481  0.0859 -0.3176  0.0292
 1381TIP3    H1 4149   3.546   5.083   4.442 -1.2019  0.3624 -0.3535
 1381TIP3    H2 4150   3.505   5.198   4.532  0.3354  1.0232 -0.4666
 1382TIP3   OH2 4151   0.635   4.250   0.311 -0.4452  0.9343 -0.3810
 1382TIP3    H1 4152   0.594   4.243   0.225 -0.1358 -0.1631 -0.4451
 1382TIP3    H2 4153   0.564   4.230   0.372  0.2799 -2.7728 -0.5376
 1383TIP3   OH2 4154   4.635   2.245   4.854  0.1225  0.3943 -0.1185
 1383TIP3    H1 4155   4.542   2.245   4.834  0.0071  0.9960  0.3656
 1383TIP3    H2 4156   4.640   2.211   4.944  0.2015  1.8935  0.4709
 1384TIP3   OH2 4157   3.493   0.416   1.147  0.1351  0.1851 -0.2182
 1384TIP3    H1 4158   3.537   0.459   1.073 -1.9838  2.8370 -0.1093
 1384TIP3    H2 4159   3.473   0.488   1.208 -2.1182 -1.2114  0.8290
 1385TIP3   OH2 4160   3.755   4.068   0.444  0.1700 -0.2031  0.2082
 1385TIP3    H1 4161   3.774   4.086   0.351 -0.2083 -0.7375  0.0218
 1385TIP3    H2 4162   3.694   3.995   0.442  0.6432 -0.6307  0.9060
 1386TIP3   OH2 4163   2.978   5.809   0.480 -0.1691 -0.2057  0.5292
 1386TIP3    H1 4164   2.923   5.886   0.488  2.1994  1.6686  0.0274
 1386TIP3    H2 4165   3.008   5.810   0.389  1.5323 -0.4786  1.0411
 1387TIP3   OH2 4166   5.683   3.737   3.210  0.4052 -0.1101 -0.6574
 1387TIP3    H1 4167   5.670   3.644   3.228 -3.2652  0.4173  0.2821
 1387TIP3    H2 4168   5.664   3.747   3.117 -0.2396 -0.1712 -0.5342
 1388TIP3   OH2 4169   0.402   3.353   1.820  0.6225 -0.2098 -0.4976
 1388TIP3    H1 4170   0.469   3.322   1.760  0.4141  0.2189 -0.9686
 1388TIP3    H2 4171   0.321   3.314   1.788  0.8008 -1.7686  0.8315
 1389TIP3   OH2 4172   3.703   4.440   3.136  0.2467 -0.0985  0.0941
 1389TIP3    H1 4173   3.664   4.527   3.130 -3.0379 -1.4743 -0.8580
 1389TIP3    H2 4174   3.708   4.422   3.230 -1.7164  0.0912  0.2729
 1390TIP3   OH2 4175   1.283   0.389   2.582  0.0686  0.2580  0.2681
 1390TIP3    H1 4176   1.245   0.429   2.503  0.5703 -0.5500 -0.4054
 1390TIP3    H2 4177   1.226   0.417   2.653 -0.3602  1.0629 -0.3727
 1391TIP3   OH2 4178   6.199   3.707   3.296  0.4766 -0.6010 -0.1102
 1391TIP3    H1 4179   6.109   3.740   3.294  0.1290 -1.4742  0.4372
 1391TIP3    H2 4180   6.253   3.785   3.309 -0.1047  0.0754 -1.4990
 1392TIP3   OH2 4181   2.933   3.124   3.938 -0.3442 -0.3578  0.6151
 1392TIP3    H1 4182   3.021   3.122   3.901 -0.3819  1.0047  0.3897
 1392TIP3    H2 4183   2.904   3.033   3.937  0.7847 -0.7275  0.0312
 1393TIP3   OH2 4184   0.549   4.102   2.077  0.4877 -0.3711 -0.1366
 1393TIP3    H1 4185   0.639   4.078   2.100  0.9347 -0.4108 -1.8158
 1393TIP3    H2 4186   0.516   4.027   2.027  0.4943  0.7552 -1.9196
 1394TIP3   OH2 4187   3.765   5.122   3.244 -0.7192 -0.1576 -0.1411
 1394TIP3    H1 4188   3.719   5.109   3.327 -1.6171 -0.1176 -0.6143
 1394TIP3    H2 4189   3.730   5.053   3.187  0.5113 -0.7250 -0.2541
 1395TIP3   OH2 4190   2.537   3.979   4.149  0.8307 -0.1445 -0.1256
 1395TIP3    H1 4191   2.573   4.065   4.169 -1.9011  0.8751  0.8545
 1395TIP3    H2 4192   2.494   3.952   4.231 -1.7507 -0.5978 -1.5338
 1396TIP3   OH2 4193   5.854   4.639   4.200  0.8209  0.1707  0.7084
 1396TIP3    H1 4194   5.809   4.645   4.283  0.1505  0.1931  0.3460
 1396TIP3    H2 4195   5.903   4.556   4.204 -0.0758 -0.3696  0.6977
 1397TIP3   OH2 4196   4.411   0.507   4.890 -0.4019 -0.4584  0.3563
 1397TIP3    H1 4197   4.352   0.543   4.824  0.0712 -1.9850 -0.9656
 1397TIP3    H2 4198   4.353   0.461   4.951 -0.7101 -0.6314 -0.0582
 1398TIP3   OH2 4199   3.463   4.944   1.028  0.1072 -0.0602  0.1654
 1398TIP3    H1 4200   3.396   4.900   0.974 -1.6957  1.6272  0.9142
 1398TIP3    H2 4201   3.460   5.035   0.999  1.1483  0.2982  1.1551
 1399TIP3   OH2 4202   5.098   0.863   1.421  0.1635  0.2011  0.6872
 1399TIP3    H1 4203   5.061   0.774   1.419  0.5136  0.0577 -0.7645
 1399TIP3    H2 4204   5.022   0.920   1.413  0.0254 -0.0212  0.3375
 1400TIP3   OH2 4205   2.479   1.597   2.590 -0.2541 -0.0449 -0.1634
 1400TIP3    H1 4206   2.540   1.581   2.662 -1.5511 -0.0890  0.9563
 1400TIP3    H2 4207   2.426   1.517   2.586  0.2425 -0.3269 -1.6319
 1401TIP3   OH2 4208   5.674   0.574   3.276 -0.0218  0.4922 -0.0566
 1401TIP3    H1 4209   5.762   0.539   3.268 -0.2085 -0.2061  0.7736
 1401TIP3    H2 4210   5.657   0.617   3.192  0.7184 -0.2438 -0.5970
 1402TIP3   OH2 4211   5.782   3.625   0.993  0.9237 -0.1143  0.4492
 1402TIP3    H1 4212   5.841   3.676   1.049  2.0246  0.0279 -0.7854
 1402TIP3    H2 4213   5.754   3.686   0.925  0.4120 -0.5397  0.2732
 1403TIP3   OH2 4214   5.401   4.694   0.477  0.6034  0.2756 -0.0594
 1403TIP3    H1 4215   5.495   4.676   0.486  0.4811  0.3008  1.4329
 1403TIP3    H2 4216   5.360   4.607   0.474  0.7135  0.2370 -1.6576
 1404TIP3   OH2 4217   1.006   0.527   0.583 -0.4152  0.3861  0.0159
 1404TIP3    H1 4218   0.998   0.602   0.525  0.0215 -0.2807 -0.9380
 1404TIP3    H2 4219   1.066   0.468   0.537  0.4792  0.1260  1.4563
 1405TIP3   OH2 4220   4.298   0.339   3.755 -0.1560 -0.0518  0.7035
 1405TIP3    H1 4221   4.393   0.328   3.748 -0.2867 -1.1831  0.5479
 1405TIP3    H2 4222   4.282   0.427   3.721  0.6359 -0.5828 -1.1983
 1406TIP3   OH2 4223   5.868   6.024   3.518  0.6715 -0.7196 -0.3766
 1406TIP3    H1 4224   5.875   5.999   3.610 -1.9066 -2.8807 -0.6449
 1406TIP3    H2 4225   5.900   5.948   3.470 -4.9646 -3.0695 -1.1829
 1407TIP3   OH2 4226   1.209   2.342   1.979  0.2245  0.2192  0.0608
 1407TIP3    H1 4227   1.182   2.281   2.047  0.5906  0.7565  0.7100
 1407TIP3    H2 4228   1.297   2.371   2.006  0.3173  0.5550 -0.5608
 1408TIP3   OH2 4229   2.420   3.695   4.487 -0.2781  0.1709  0.1379
 1408TIP3    H1 4230   2.388   3.663   4.402  0.9982  0.0028 -0.2916
 1408TIP3    H2 4231   2.432   3.615   4.539  2.6271 -0.1258 -0.8371
 1409TIP3   OH2 4232   3.391   1.365   3.825  0.1071  0.3199  0.5342
 1409TIP3    H1 4233   3.408   1.354   3.919  0.5834  0.2050  0.4370
 1409TIP3    H2 4234   3.411   1.457   3.807  0.8836  0.1261  0.3713
 1410TIP3   OH2 4235   6.304   0.498   4.832  0.2000 -0.2233  0.1014
 1410TIP3    H1 4236   6.254   0.552   4.893 -0.8990 -1.6239  0.5031
 1410TIP3    H2 4237   6.390   0.539   4.828 -1.3569  3.3078 -1.9237
 1411TIP3   OH2 4238   3.939   4.695   2.638  0.0209 -0.3296  0.0481
 1411TIP3    H1 4239   4.030   4.672   2.617  0.6320  2.2257 -0.4674
 1411TIP3    H2 4240   3.936   4.697   2.733 -0.1474 -2.5769  0.1393
 1412TIP3   OH2 4241   3.863   2.323   4.543  0.2283  0.2980 -0.1522
 1412TIP3    H1 4242   3.784   2.363   4.506  0.5214  0.0946 -1.0074
 1412TIP3    H2 4243   3.879   2.373   4.623  0.5270  1.8504 -1.1409
 1413TIP3   OH2 4244   6.171   3.107   4.756  0.1469 -0.1668 -0.2584
 1413TIP3    H1 4245   6.079   3.104   4.729 -0.0602 -1.3058  0.5365
 1413TIP3    H2 4246   6.175   3.056   4.836  1.3039  0.7126  0.2734
 1414TIP3   OH2 4247   0.821   3.142   3.206 -0.4407 -0.3635  0.2133
 1414TIP3    H1 4248   0.730   3.120   3.188 -1.4876  2.7059  1.0337
 1414TIP3    H2 4249   0.839   3.217   3.149  1.4338 -0.5988  0.4278
 1415TIP3   OH2 4250   4.989   2.075   4.449 -0.4143 -0.2698 -0.3188
 1415TIP3    H1 4251   4.903   2.113   4.466 -0.2888 -0.7819  1.7060
 1415TIP3    H2 4252   5.033   2.139   4.392 -0.7352  1.9752  1.7815
 1416TIP3   OH2 4253   4.090   2.890   0.592 -0.3805 -0.1467 -0.2736
 1416TIP3    H1 4254   4.051   2.848   0.516  0.8051 -1.7047 -0.0780
 1416TIP3    H2 4255   4.035   2.864   0.666 -0.8550  0.4062 -0.4231
 1417TIP3   OH2 4256   3.976   2.293   3.027  0.0115  0.3448 -0.5357
 1417TIP3    H1 4257   4.010   2.340   3.102 -1.9981 -2.1380  2.1451
 1417TIP3    H2 4258   4.052   2.248   2.989  0.8908  0.8345  0.6093
 1418TIP3   OH2 4259   0.823   3.960   1.960  0.3745  0.2536  0.3173
 1418TIP3    H1 4260   0.750   3.910   1.997  0.4304  2.3887  3.7303
 1418TIP3    H2 4261   0.899   3.903   1.971 -0.3152 -0.9429 -0.8243
 1419TIP3   OH2 4262   4.973   5.889   2.038  0.4883  0.7772 -0.0981
 1419TIP3    H1 4263   4.934   5.840   2.110  1.5035 -0.7678 -0.5515
 1419TIP3    H2 4264   4.920   5.969   2.032 -1.9046 -0.7168 -0.0224
 1420TIP3   OH2 4265   5.167   5.731   3.422 -0.1611  0.3950  0.8001
 1420TIP3    H1 4266   5.232   5.690   3.479  0.1163  0.4000  0.4942
 1420TIP3    H2 4267   5.083   5.700   3.455  0.0829 -1.6475 -0.3518
 1421TIP3   OH2 4268   5.656   4.981   3.238  0.5877 -0.1690  0.0782
 1421TIP3    H1 4269   5.597   4.952   3.168  1.2543 -0.4515 -0.3722
 1421TIP3    H2 4270   5.643   4.916   3.307  0.5093 -0.3389 -0.0931
 1422TIP3   OH2 4271   2.166   1.639   2.492 -0.1371  0.4761  0.2938
 1422TIP3    H1 4272   2.178   1.562   2.548 -0.2876  1.1446  1.2561
 1422TIP3    H2 4273   2.245   1.691   2.505 -1.1392  1.7136  1.6227
 1423TIP3   OH2 4274   5.229   2.108   1.186  0.6056  0.0237 -0.5443
 1423TIP3    H1 4275   5.284   2.035   1.159 -1.0075 -1.5297  0.1456
 1423TIP3    H2 4276   5.163   2.115   1.117 -0.0308 -0.0787  0.0377
 1424TIP3   OH2 4277   5.918   1.862   2.638  0.3448  0.1987  0.1977
 1424TIP3    H1 4278   5.924   1.902   2.551 -2.2488 -0.5209 -0.4213
 1424TIP3    H2 4279   6.008   1.861   2.671  1.5072  0.0176 -2.6821
 1425TIP3   OH2 4280   1.833   3.722   5.087 -0.5357 -0.5995  0.0471
 1425TIP3    H1 4281   1.875   3.636   5.087  0.2696 -0.2129  0.0784
 1425TIP3    H2 4282   1.903   3.783   5.062 -0.8600  0.1591  0.9464
 1426TIP3   OH2 4283   1.675   0.812   3.643 -0.4768  0.1792 -0.4606
 1426TIP3    H1 4284   1.729   0.733   3.643  0.1246  0.5726  0.4998
 1426TIP3    H2 4285   1.729   0.877   3.688 -1.4181  0.8199 -0.2450
 1427TIP3   OH2 4286   3.453   3.222   0.469  0.0547 -0.1599  0.4417
 1427TIP3    H1 4287   3.481   3.210   0.560 -0.6870  0.2806  0.7404
 1427TIP3    H2 4288   3.372   3.272   0.476 -0.1847 -0.4107 -0.4494
 1428TIP3   OH2 4289   2.295   0.181   0.302  0.4512 -0.0052  0.4895
 1428TIP3    H1 4290   2.215   0.211   0.346  0.6178 -1.6296  1.9921
 1428TIP3    H2 4291   2.283   0.208   0.211 -2.1463 -0.8139  0.4919
 1429TIP3   OH2 4292   3.243   1.220   4.510 -0.2764 -0.7345  0.1397
 1429TIP3    H1 4293   3.192   1.170   4.573 -0.6805 -2.7246 -1.6111
 1429TIP3    H2 4294   3.180   1.277   4.466 -0.2951 -0.5180  0.4482
 1430TIP3   OH2 4295   1.278   5.651   1.747  0.4761 -0.4253 -0.0247
 1430TIP3    H1 4296   1.364   5.692   1.757  0.2845  0.1631 -0.7221
 1430TIP3    H2 4297   1.216   5.724   1.753  0.0151 -0.8667  0.6319
 1431TIP3   OH2 4298   1.578   5.451   1.885  0.0367  0.2104  0.2534
 1431TIP3    H1 4299   1.651   5.421   1.938 -0.2771  0.5150  0.8644
 1431TIP3    H2 4300   1.504   5.396   1.911 -0.0622  0.1971 -0.0456
 1432TIP3   OH2 4301   3.345   2.327   3.402  0.3670 -0.0239 -0.0817
 1432TIP3    H1 4302   3.324   2.234   3.411  1.6321 -0.2922  0.3189
 1432TIP3    H2 4303   3.395   2.333   3.321  0.1249  0.3445 -0.2061
 1433TIP3   OH2 4304   3.189   3.362   2.068 -0.1371  0.5281  0.2079
 1433TIP3    H1 4305   3.181   3.268   2.056 -1.2482  0.7123 -0.5589
 1433TIP3    H2 4306   3.165   3.400   1.983  2.2040  1.4479 -0.1357
 1434TIP3   OH2 4307   2.838   2.146   4.545 -0.1130  0.1297  0.2422
 1434TIP3    H1 4308   2.812   2.227   4.500  0.3820  0.5418  0.6745
 1434TIP3    H2 4309   2.796   2.152   4.631  1.1368  0.6708  0.8422
 1435TIP3   OH2 4310   5.304   0.045   3.446 -0.2011 -0.0868  0.3017
 1435TIP3    H1 4311   5.344   0.132   3.436  1.0964 -0.7313 -0.3296
 1435TIP3    H2 4312   5.292   0.035   3.540 -1.4248  1.2234  0.3148
 1436TIP3   OH2 4313   2.845   2.271   0.648  0.2672  0.1972 -0.5846
 1436TIP3    H1 4314   2.886   2.234   0.570  0.1276  1.9117 -1.5366
 1436TIP3    H2 4315   2.756   2.295   0.620 -0.8456 -1.8448  0.9538
 1437TIP3   OH2 4316   5.489   5.179   3.489  0.1387 -0.0347 -0.3637
 1437TIP3    H1 4317   5.566   5.223   3.453  0.4752  0.1701  0.5778
 1437TIP3    H2 4318   5.448   5.138   3.414  0.5903  0.7322 -1.0503
 1438TIP3   OH2 4319   5.622   5.295   1.957  0.6609 -0.3716 -0.2960
 1438TIP3    H1 4320   5.714   5.317   1.972  0.7032 -0.7956  0.0913
 1438TIP3    H2 4321   5.624   5.232   1.885  0.6849 -0.4713 -0.2086
 1439TIP3   OH2 4322   4.838   5.864   0.987  0.1054  0.6177 -0.2772
 1439TIP3    H1 4323   4.882   5.939   0.947 -0.4553  0.9714 -0.2414
 1439TIP3    H2 4324   4.845   5.880   1.082 -2.8466  2.3760 -0.2189
 1440TIP3   OH2 4325   5.458   2.882   3.567 -0.2835  0.2621  0.1510
 1440TIP3    H1 4326   5.366   2.899   3.546  0.2951  6.5956  0.8244
 1440TIP3    H2 4327   5.459   2.870   3.662 -0.3886 -0.4301  0.0733
 1441TIP3   OH2 4328   2.048   5.709   4.539 -0.0144 -0.3193 -0.6149
 1441TIP3    H1 4329   2.003   5.654   4.475 -0.6428  0.4476 -0.8393
 1441TIP3    H2 4330   2.141   5.691   4.524 -0.0522  0.9865 -2.8181
 1442TIP3   OH2 4331   3.800   0.771   0.841 -0.3340  0.2106  0.5782
 1442TIP3    H1 4332   3.724   0.827   0.853 -0.8693 -0.5289  0.7293
 1442TIP3    H2 4333   3.858   0.820   0.783  0.0048  1.6542  2.0829
 1443TIP3   OH2 4334   2.308   1.193   0.922  0.7703 -0.5840 -0.2877
 1443TIP3    H1 4335   2.297   1.117   0.978  0.1585  0.6241  1.2791
 1443TIP3    H2 4336   2.389   1.174   0.873  0.8836 -2.0183  0.3932
 1444TIP3   OH2 4337   4.277   2.799   0.017 -0.0155  0.2495  0.4664
 1444TIP3    H1 4338   4.266   2.841   0.102  2.3092  0.8391  0.5505
 1444TIP3    H2 4339   4.365   2.826  -0.012  0.8159 -2.9647 -0.3758
 1445TIP3   OH2 4340   3.312   0.861   4.520  0.2558  0.2812 -0.2406
 1445TIP3    H1 4341   3.240   0.799   4.511  0.4395 -0.1729  1.2130
 1445TIP3    H2 4342   3.333   0.885   4.430  0.5465 -2.2037 -0.9364
 1446TIP3   OH2 4343   3.579   1.866   3.534  0.0787  0.4230  0.3677
 1446TIP3    H1 4344   3.515   1.893   3.469  1.9282  0.6257 -1.4907
 1446TIP3    H2 4345   3.615   1.784   3.500  0.9659  0.4365  1.2113
 1447TIP3   OH2 4346   1.776   1.900   2.827  0.3684 -0.1810  0.1809
 1447TIP3    H1 4347   1.831   1.883   2.903  0.2307  1.6068  0.7149
 1447TIP3    H2 4348   1.690   1.920   2.863 -0.7062 -2.8863 -0.6353
 1448TIP3   OH2 4349   0.811   2.942   2.221 -0.4198  0.4321 -0.2431
 1448TIP3    H1 4350   0.806   2.945   2.317 -0.9342  0.5291 -0.2675
 1448TIP3    H2 4351   0.867   2.866   2.202 -1.4650 -0.4542  0.1180
 1449TIP3   OH2 4352   1.724   2.967   0.178 -0.5381  0.6293  0.7369
 1449TIP3    H1 4353   1.818   2.984   0.172 -0.7235  1.5070 -0.0199
 1449TIP3    H2 4354   1.717   2.876   0.205  0.5252  1.2396  3.2702
 1450TIP3   OH2 4355   1.575   5.552   4.497  0.0982 -0.2431 -0.3840
 1450TIP3    H1 4356   1.646   5.513   4.547 -0.6684 -1.4037 -0.1711
 1450TIP3    H2 4357   1.496   5.532   4.547 -0.4042  0.9740 -0.6495
 1451TIP3   OH2 4358   4.917   3.898   3.277 -0.1647  0.3823  0.3714
 1451TIP3    H1 4359   4.974   3.974   3.292 -0.0369  0.1990  0.8133
 1451TIP3    H2 4360   4.976   3.823   3.282  0.2921  0.3720 -2.9269
 1452TIP3   OH2 4361   0.533   2.764   2.387  0.0192  0.1225  0.0191
 1452TIP3    H1 4362   0.571   2.851   2.373  1.5032 -0.5978 -0.6422
 1452TIP3    H2 4363   0.484   2.773   2.469  2.1144  0.9783  1.2644
 1453TIP3   OH2 4364   0.989   1.619   0.350  0.4595  0.1332  0.4602
 1453TIP3    H1 4365   1.006   1.567   0.271  1.9301 -1.9461  2.0616
 1453TIP3    H2 4366   0.981   1.709   0.317  0.1351 -0.7628 -2.1514
 1454TIP3   OH2 4367   5.947   0.154   1.579 -0.0804  0.4506 -0.0427
 1454TIP3    H1 4368   5.912   0.174   1.666 -0.8852 -1.3801  0.1143
 1454TIP3    H2 4369   5.923   0.229   1.525 -1.3444  0.7314  0.8642
 1455TIP3   OH2 4370   0.753   2.931   1.806 -0.3698 -0.5943 -0.5280
 1455TIP3    H1 4371   0.741   2.916   1.712 -0.5921 -0.3206 -0.5442
 1455TIP3    H2 4372   0.668   2.910   1.844 -0.2112 -0.9370 -0.3574
 1456TIP3   OH2 4373   1.541   1.538   2.230  0.0538 -0.1478 -0.8550
 1456TIP3    H1 4374   1.590   1.592   2.293  0.4060  1.5017 -2.4526
 1456TIP3    H2 4375   1.589   1.549   2.147 -0.4031 -2.2333 -1.4495
 1457TIP3   OH2 4376   4.992   4.966   5.180 -0.3249 -0.1456 -0.2829
 1457TIP3    H1 4377   5.053   4.925   5.119 -0.5920 -0.4453 -0.3491
 1457TIP3    H2 4378   5.049   5.010   5.244 -0.0320 -0.7273 -0.1325
 1458TIP3   OH2 4379   2.789   1.103   4.740  0.3084 -0.4625  0.0823
 1458TIP3    H1 4380   2.727   1.152   4.687 -0.1342 -1.5076 -0.3918
 1458TIP3    H2 4381   2.737   1.035   4.781  1.2417 -1.8175 -0.9009
 1459TIP3   OH2 4382   4.617   3.201   3.722  0.4231  0.1993 -0.0299
 1459TIP3    H1 4383   4.631   3.296   3.716 -1.3761  0.4956 -0.2416
 1459TIP3    H2 4384   4.684   3.163   3.665  0.4598  1.4325 -0.8448
 1460TIP3   OH2 4385   2.045   0.763   5.119 -0.4514  0.5737  0.3343
 1460TIP3    H1 4386   2.042   0.827   5.048  0.8125  0.9042  0.5560
 1460TIP3    H2 4387   2.137   0.741   5.128 -0.8546 -1.3722  0.2073
 1461TIP3   OH2 4388   2.418   0.299   3.910 -0.5797 -0.2585  0.1814
 1461TIP3    H1 4389   2.409   0.333   3.999 -1.8096 -2.2502  0.8835
 1461TIP3    H2 4390   2.333   0.261   3.890 -0.1692 -0.2949 -1.6724
 1462TIP3   OH2 4391   3.498   2.772   2.827  0.1279  0.5341 -0.1396
 1462TIP3    H1 4392   3.496   2.776   2.731  0.7324  0.5748 -0.1580
 1462TIP3    H2 4393   3.408   2.754   2.852  0.1594 -0.6361 -0.7740
 1463TIP3   OH2 4394   2.093   0.787   2.055  0.3609  0.5046  0.2389
 1463TIP3    H1 4395   2.057   0.783   1.967 -1.6606  2.2054  0.8781
 1463TIP3    H2 4396   2.028   0.837   2.105  0.7722 -1.5032  3.0300
 1464TIP3   OH2 4397   3.503   3.196   2.753  0.2348 -0.0527  0.1482
 1464TIP3    H1 4398   3.498   3.101   2.745  0.0643 -0.1853  1.6434
 1464TIP3    H2 4399   3.446   3.229   2.683 -0.3971 -1.0723  0.1616
 1465TIP3   OH2 4400   0.367   4.593   3.219  0.1000 -0.2598 -0.8307
 1465TIP3    H1 4401   0.301   4.629   3.278  0.6707  1.2308 -1.0532
 1465TIP3    H2 4402   0.318   4.562   3.143 -0.3082  1.7992 -1.4673
 1466TIP3   OH2 4403   0.880   0.110   4.097  0.5784  0.1951 -0.0287
 1466TIP3    H1 4404   0.821   0.157   4.039  1.6857  0.2913 -1.1312
 1466TIP3    H2 4405   0.871   0.018   4.072  0.6808  0.1783 -0.0071
 1467TIP3   OH2 4406   2.222   5.620   0.990 -0.3571 -0.1622 -0.1017
 1467TIP3    H1 4407   2.228   5.706   1.031 -1.6608  0.8823 -1.9502
 1467TIP3    H2 4408   2.165   5.570   1.048 -1.8626  1.1510 -0.3999
 1468TIP3   OH2 4409   3.030   5.812   3.352 -0.2027 -0.2443  0.2412
 1468TIP3    H1 4410   2.968   5.844   3.287 -0.0911 -0.5506 -0.0192
 1468TIP3    H2 4411   3.071   5.891   3.387  1.9783 -0.1436 -2.2539
 1469TIP3   OH2 4412   0.746   0.062   0.838  1.0433 -0.7475 -0.5676
 1469TIP3    H1 4413   0.709   0.141   0.799  2.4814 -0.2764 -1.0441
 1469TIP3    H2 4414   0.776   0.010   0.763  0.6579 -1.4745 -0.2297
 1470TIP3   OH2 4415   6.235   4.015   1.692 -0.2508  0.2508  0.3347
 1470TIP3    H1 4416   6.184   3.981   1.765 -0.0996  1.0646  0.8391
 1470TIP3    H2 4417   6.215   4.109   1.691 -1.8285 -0.0247 -1.9446
 1471TIP3   OH2 4418   0.838   4.545   3.532 -0.3846  0.0653  0.1740
 1471TIP3    H1 4419   0.888   4.463   3.530  0.4752  0.5858  0.0177
 1471TIP3    H2 4420   0.857   4.587   3.448 -2.1319 -0.3287 -0.4606
 1472TIP3   OH2 4421   5.813   1.171   1.310 -0.2861  0.2821 -0.5571
 1472TIP3    H1 4422   5.893   1.214   1.339  0.1186 -1.0380  0.3957
 1472TIP3    H2 4423   5.823   1.164   1.215  1.4752 -1.1899 -0.3277
 1473TIP3   OH2 4424   6.043   2.206   0.997 -0.1288 -0.8559  0.2049
 1473TIP3    H1 4425   6.109   2.260   1.039 -1.4965  0.6235  0.5206
 1473TIP3    H2 4426   6.070   2.201   0.905  0.0253  0.3689  0.1771
 1474TIP3   OH2 4427   5.294   2.673   1.588 -0.1871 -0.0455  0.1187
 1474TIP3    H1 4428   5.296   2.754   1.537 -1.0555 -0.2281 -0.2355
 1474TIP3    H2 4429   5.200   2.657   1.602 -0.0649 -1.4365 -0.5422
 1475TIP3   OH2 4430   1.301   4.332   2.318 -0.3633  0.0610 -0.1311
 1475TIP3    H1 4431   1.295   4.426   2.330  1.1267  0.2449 -0.6673
 1475TIP3    H2 4432   1.215   4.307   2.284 -1.3564  0.9400  1.5967
 1476TIP3   OH2 4433   3.531   0.691   3.437 -0.0804 -0.2903 -0.1415
 1476TIP3    H1 4434   3.622   0.695   3.468  0.3605  0.0916 -1.4332
 1476TIP3    H2 4435   3.480   0.726   3.510  1.0759  2.1848 -0.4201
 1477TIP3   OH2 4436   1.381   3.731   0.918  0.3764 -0.1058  0.4171
 1477TIP3    H1 4437   1.440   3.662   0.949  0.3475  0.6968  2.4124
 1477TIP3    H2 4438   1.397   3.804   0.977 -1.6276  0.6200  0.1310
 1478TIP3   OH2 4439   0.160   2.379   4.685  0.2829 -0.1844  0.2111
 1478TIP3    H1 4440   0.080   2.412   4.644  0.2381  0.0044  0.4474
 1478TIP3    H2 4441   0.159   2.285   4.665 -0.6603 -0.4263  1.2785
 1479TIP3   OH2 4442   4.228   5.115   3.602  0.4278  0.0109 -0.3164
 1479TIP3    H1 4443   4.259   5.042   3.548  0.2338  0.3340 -0.8766
 1479TIP3    H2 4444   4.209   5.076   3.687  1.0612 -0.4423 -0.3790
 1480TIP3   OH2 4445   4.864   5.439   0.899 -0.1240  0.0013 -0.7495
 1480TIP3    H1 4446   4.850   5.415   0.990  2.8854 -2.1261 -0.7045
 1480TIP3    H2 4447   4.910   5.523   0.902 -1.0375  0.4971 -0.3924
 1481TIP3   OH2 4448   3.943   2.150   4.147 -0.0345 -0.1695  0.4223
 1481TIP3    H1 4449   4.015   2.090   4.128 -0.9604 -1.4408  0.8436
 1481TIP3    H2 4450   3.915   2.182   4.061  2.6725  2.4191  0.3323
 1482TIP3   OH2 4451   0.123   4.690   1.357  0.4682  0.1495 -0.4171
 1482TIP3    H1 4452   0.051   4.628   1.368  1.2031 -0.7940 -0.8758
 1482TIP3    H2 4453   0.159   4.672   1.271  3.5348 -1.8861  1.1235
 1483TIP3   OH2 4454   0.722   0.830   1.045  0.7577  0.4051  0.3623
 1483TIP3    H1 4455   0.709   0.747   1.090 -3.7716 -2.3253 -4.7855
 1483TIP3    H2 4456   0.661   0.890   1.088  0.4409 -0.4014  1.0646
 1484TIP3   OH2 4457   1.166   1.165   4.914  0.4112 -0.7468  0.9499
 1484TIP3    H1 4458   1.111   1.091   4.889  1.3645 -0.8855 -0.9308
 1484TIP3    H2 4459   1.252   1.144   4.878  0.7940  1.1311  0.6621
 1485TIP3   OH2 4460   4.204   3.952   0.421  0.5195 -0.0989 -0.1433
 1485TIP3    H1 4461   4.230   4.038   0.389  1.7120 -0.6154 -0.6277
 1485TIP3    H2 4462   4.126   3.929   0.370  0.4421  0.5085 -0.3032
 1486TIP3   OH2 4463   0.398   2.805   2.981  0.4817  0.0532 -0.2652
 1486TIP3    H1 4464   0.446   2.849   2.911 -0.6776  0.1395 -1.0314
 1486TIP3    H2 4465   0.440   2.719   2.987  2.0040  0.8107  0.4559
 1487TIP3   OH2 4466   3.557   5.104   4.755 -0.2272  0.1332  0.6739
 1487TIP3    H1 4467   3.645   5.132   4.731 -0.1327 -1.0641 -0.4985
 1487TIP3    H2 4468   3.561   5.092   4.850  1.1073 -0.6601  0.5401
 1488TIP3   OH2 4469   3.152   3.722   2.900  0.1479  0.2623 -0.2904
 1488TIP3    H1 4470   3.226   3.761   2.853 -2.3972  1.2988 -3.8581
 1488TIP3    H2 4471   3.150   3.631   2.870 -0.6931  0.5742 -1.2457
 1489TIP3   OH2 4472   6.287   3.733   1.021 -0.3118  0.2678  0.1071
 1489TIP3    H1 4473   6.298   3.823   0.991  0.9113  0.0836 -0.0183
 1489TIP3    H2 4474   6.248   3.687   0.946  0.1427  0.4276 -0.2264
 1490TIP3   OH2 4475   2.376   0.816   2.960 -0.0093  0.7305  0.0555
 1490TIP3    H1 4476   2.300   0.820   3.019  0.4657 -0.6869  0.8028
 1490TIP3    H2 4477   2.430   0.891   2.986  0.0572  0.2961  1.2663
 1491TIP3   OH2 4478   0.534   0.831   3.226 -0.2473  0.1296  0.4972
 1491TIP3    H1 4479   0.612   0.886   3.219 -1.1320  1.4171  0.4212
 1491TIP3    H2 4480   0.474   0.882   3.281 -0.1892 -1.8774  2.5593
 1492TIP3   OH2 4481   4.308   5.705   4.348 -0.0030 -0.3091  0.0254
 1492TIP3    H1 4482   4.341   5.698   4.258  0.2079  0.2707  0.0574
 1492TIP3    H2 4483   4.329   5.794   4.375 -1.6193  0.0898  0.0362
 1493TIP3   OH2 4484   3.416   2.764   2.555  0.1636  0.5309  0.2563
 1493TIP3    H1 4485   3.439   2.681   2.515  1.2759  0.5083  0.9222
 1493TIP3    H2 4486   3.420   2.827   2.483 -0.2996  0.0920 -0.1652
 1494TIP3   OH2 4487   0.726   5.235   3.775  0.4003  0.2814 -0.6274
 1494TIP3    H1 4488   0.778   5.155   3.766  0.1109  0.0768 -0.5108
 1494TIP3    H2 4489   0.740   5.264   3.865  0.8830  0.6295 -0.8125
 1495TIP3   OH2 4490   3.892   5.886   4.651  0.3919 -0.1692  0.1616
 1495TIP3    H1 4491   3.845   5.964   4.681  1.5657  0.3853  0.6082
 1495TIP3    H2 4492   3.949   5.863   4.724  1.0410 -0.6396 -0.4870
 1496TIP3   OH2 4493   5.867   0.457   0.381  0.3263 -0.1886 -0.1142
 1496TIP3    H1 4494   5.879   0.362   0.385 -0.9442 -0.4293 -1.1900
 1496TIP3    H2 4495   5.799   0.470   0.315 -1.1572  1.3234  1.5884
 1497TIP3   OH2 4496   0.758   3.110   4.777  0.4369 -0.8431  0.2668
 1497TIP3    H1 4497   0.843   3.125   4.737  1.1201 -0.0809  1.9187
 1497TIP3    H2 4498   0.734   3.021   4.750  0.6743 -0.2630 -2.0499
 1498TIP3   OH2 4499   1.065   5.729   4.146  0.0488 -0.6611  0.3156
 1498TIP3    H1 4500   1.111   5.786   4.085 -1.4920  1.5121  1.0610
 1498TIP3    H2 4501   1.000   5.683   4.093 -0.2325  0.0434  0.0344
 1499TIP3   OH2 4502   0.991   2.901   4.883 -0.5300  0.0441 -0.4625
 1499TIP3    H1 4503   1.051   2.831   4.859  0.6065  1.0643 -0.6697
 1499TIP3    H2 4504   0.953   2.929   4.800 -0.3213  0.2677 -0.4816
 1500TIP3   OH2 4505   5.366   4.946   3.035  0.0081 -0.3740  0.0789
 1500TIP3    H1 4506   5.413   4.878   2.987  0.0982 -0.0069 -0.3691
 1500TIP3    H2 4507   5.275   4.935   3.010  0.0837 -0.0465 -0.3570
 1501TIP3   OH2 4508   4.910   1.163   4.993 -0.8300  0.5777  0.6004
 1501TIP3    H1 4509   4.974   1.221   5.034 -0.3014  0.7274 -0.4052
 1501TIP3    H2 4510   4.961   1.086   4.967 -1.3404  0.0758  1.0623
 1502TIP3   OH2 4511   3.174   4.598   3.890 -0.0113  0.1992  0.6264
 1502TIP3    H1 4512   3.165   4.523   3.832 -0.3889  0.3288  0.5133
 1502TIP3    H2 4513   3.268   4.610   3.901  0.0530 -0.6215  1.0714
 1503TIP3   OH2 4514   0.271   4.430   3.860  0.3786  0.5286  0.1179
 1503TIP3    H1 4515   0.206   4.450   3.794 -1.2358  0.0658  1.4948
 1503TIP3    H2 4516   0.323   4.510   3.868  0.2148  0.7880 -1.2351
 1504TIP3   OH2 4517   4.068   3.758   3.424  0.1616 -0.2125  0.3000
 1504TIP3    H1 4518   4.111   3.843   3.437 -0.9789  0.4203  0.0980
 1504TIP3    H2 4519   4.013   3.770   3.347  0.6878 -1.4410 -0.2924
 1505TIP3   OH2 4520   5.582   4.706   4.400 -0.4393 -0.1698  0.1185
 1505TIP3    H1 4521   5.517   4.761   4.357 -0.7749  0.8231  1.8060
 1505TIP3    H2 4522   5.556   4.617   4.377 -0.7411  0.3024 -1.4781
 1506TIP3   OH2 4523   6.071   3.752   0.563  0.0639  0.3871 -0.4134
 1506TIP3    H1 4524   6.012   3.752   0.488 -0.2164 -1.1238 -0.2256
 1506TIP3    H2 4525   6.141   3.693   0.538  1.0319  1.4396 -0.2598
 1507TIP3   OH2 4526   1.136   4.674   2.086  0.1922  0.1212  0.1828
 1507TIP3    H1 4527   1.231   4.662   2.088  0.3233  0.4280 -2.1245
 1507TIP3    H2 4528   1.100   4.587   2.104  0.9579 -0.4677 -1.0072
 1508TIP3   OH2 4529   4.186   2.595   2.020  0.0484  0.0266 -0.1935
 1508TIP3    H1 4530   4.263   2.552   2.058 -1.0817 -1.1805  0.8332
 1508TIP3    H2 4531   4.150   2.647   2.092  1.0697  2.3488 -1.2576
 1509TIP3   OH2 4532   1.239   4.318   4.869 -0.7439 -0.2407  0.4965
 1509TIP3    H1 4533   1.238   4.294   4.776 -0.7853  0.4297  0.3204
 1509TIP3    H2 4534   1.195   4.245   4.913  0.2763 -1.1008  0.1266
 1510TIP3   OH2 4535   1.536   3.253   2.762 -0.3087  0.1402  0.3467
 1510TIP3    H1 4536   1.472   3.325   2.761  0.0023  0.5055 -3.0069
 1510TIP3    H2 4537   1.614   3.292   2.802 -0.5910  1.2441 -0.1363
 1511TIP3   OH2 4538   5.346   5.806   3.677 -0.0356  0.5957  0.3991
 1511TIP3    H1 4539   5.387   5.888   3.649 -0.0316  1.3042  2.3198
 1511TIP3    H2 4540   5.258   5.832   3.704 -0.1135 -0.0788  0.8054
 1512TIP3   OH2 4541   3.839   4.866   1.273  0.0884  0.2328  0.1728
 1512TIP3    H1 4542   3.866   4.779   1.302 -0.3330 -0.5883 -1.7253
 1512TIP3    H2 4543   3.909   4.894   1.213 -0.4902  0.5400 -0.3715
 1513TIP3   OH2 4544   1.777   4.393   1.201  0.4611  0.2653  0.1062
 1513TIP3    H1 4545   1.870   4.415   1.208  0.7294 -0.5864 -0.6376
 1513TIP3    H2 4546   1.766   4.365   1.110 -0.3263 -0.5350  0.4380
 1514TIP3   OH2 4547   3.563   3.159   0.718  0.4923 -0.2770 -0.2338
 1514TIP3    H1 4548   3.627   3.190   0.782  1.1218 -0.3096 -0.8289
 1514TIP3    H2 4549   3.566   3.063   0.726  1.1369 -0.3176 -0.8272
 1515TIP3   OH2 4550   1.198   0.119   2.532 -0.3683  0.2443  0.0845
 1515TIP3    H1 4551   1.258   0.192   2.547  0.3124  0.1963 -2.0074
 1515TIP3    H2 4552   1.114   0.150   2.564 -0.3529  2.4640 -1.7251
 1516TIP3   OH2 4553   1.620   3.008   2.677 -0.4626  0.3691 -0.5528
 1516TIP3    H1 4554   1.702   3.027   2.632  0.2226 -1.3745 -0.1173
 1516TIP3    H2 4555   1.582   3.094   2.696  2.4909  1.3749  1.5233
 1517TIP3   OH2 4556   5.564   1.252   5.081  0.3354 -0.0768  0.4944
 1517TIP3    H1 4557   5.632   1.258   5.147  0.5525 -1.2816  0.4005
 1517TIP3    H2 4558   5.486   1.288   5.124  0.9772  1.2307  0.6279
 1518TIP3   OH2 4559   0.704   1.342   4.986 -0.2996  0.1468  0.0148
 1518TIP3    H1 4560   0.735   1.304   4.904  0.4236 -2.3419  1.3483
 1518TIP3    H2 4561   0.772   1.320   5.050 -2.2418 -0.7324  1.9113
 1519TIP3   OH2 4562   4.756   5.645   0.141  0.1794 -0.3019 -0.4311
 1519TIP3    H1 4563   4.787   5.659   0.052  2.3129  0.0967  0.3206
 1519TIP3    H2 4564   4.713   5.559   0.139  0.2642 -0.3236 -1.8002
 1520TIP3   OH2 4565   4.585   5.006   4.115  0.4956  0.0988 -0.1018
 1520TIP3    H1 4566   4.591   5.101   4.119 -0.0324  0.1182  0.6029
 1520TIP3    H2 4567   4.633   4.981   4.036 -0.4539  1.0523 -1.0139
 1521TIP3   OH2 4568   1.429   3.118   3.408  0.4455  0.4390  0.1121
 1521TIP3    H1 4569   1.489   3.099   3.336  0.3069 -0.4575  0.2195
 1521TIP3    H2 4570   1.485   3.128   3.484  0.5478  0.7664 -0.0068
 1522TIP3   OH2 4571   0.275   3.316   2.684  0.3147 -0.5162  0.0580
 1522TIP3    H1 4572   0.209   3.247   2.696  0.8573 -0.9300  0.7552
 1522TIP3    H2 4573   0.227   3.389   2.645 -0.3170 -1.2131 -0.5189
 1523TIP3   OH2 4574   2.241   1.766   2.859  0.5913 -0.0052 -0.1021
 1523TIP3    H1 4575   2.238   1.758   2.764 -0.5166 -1.9766  0.0491
 1523TIP3    H2 4576   2.304   1.699   2.886  0.7201  0.3819  0.5675
 1524TIP3   OH2 4577   4.623   1.107   1.189 -0.3112 -0.0273  0.0453
 1524TIP3    H1 4578   4.546   1.159   1.164 -1.2965 -2.6505 -3.0034
 1524TIP3    H2 4579   4.596   1.061   1.268 -1.2419  0.4144  0.0042
 1525TIP3   OH2 4580   4.254   4.016   0.887  0.5591  0.2719 -0.2466
 1525TIP3    H1 4581   4.277   4.010   0.980  0.8875 -1.1346 -0.4067
 1525TIP3    H2 4582   4.272   4.108   0.865 -0.3036  0.8538  1.2617
 1526TIP3   OH2 4583   4.113   3.056   0.054  0.0016  0.3492 -0.3633
 1526TIP3    H1 4584   4.196   3.040   0.100 -0.3331  1.7524  0.8032
 1526TIP3    H2 4585   4.109   3.151   0.044 -1.5970  0.3311 -0.1378
 1527TIP3   OH2 4586   6.004   4.420   0.020  0.3879  0.3368 -0.3202
 1527TIP3    H1 4587   6.062   4.490   0.050 -0.6830  0.7658  0.8323
 1527TIP3    H2 4588   6.021   4.348   0.081 -0.2286  0.4409 -0.0214
 1528TIP3   OH2 4589   5.312   5.829   0.598  0.3955  0.3555 -0.2387
 1528TIP3    H1 4590   5.359   5.747   0.583  1.4291  1.3234 -2.8553
 1528TIP3    H2 4591   5.339   5.856   0.685 -0.3101 -2.2273  0.8822
 1529TIP3   OH2 4592   3.762   3.748   4.770  0.1029  0.3105  0.5033
 1529TIP3    H1 4593   3.689   3.787   4.722  0.2615  0.3254  0.2746
 1529TIP3    H2 4594   3.831   3.815   4.767  0.9371 -0.5742 -1.2110
 1530TIP3   OH2 4595   3.538   3.478   1.937 -0.9020  0.3147  0.0270
 1530TIP3    H1 4596   3.487   3.546   1.980 -0.4583  2.6924 -2.8927
 1530TIP3    H2 4597   3.612   3.461   1.996 -1.4556  1.7774  1.1763
 1531TIP3   OH2 4598   2.305   3.608   2.289 -0.0745  0.0394  0.2449
 1531TIP3    H1 4599   2.333   3.540   2.228  0.4802  1.3376 -1.0087
 1531TIP3    H2 4600   2.380   3.620   2.348  2.0549  2.9935 -2.6513
 1532TIP3   OH2 4601   2.196   0.914   0.354 -0.4017 -0.4843 -0.4231
 1532TIP3    H1 4602   2.113   0.935   0.397 -0.7176  0.4415 -1.4388
 1532TIP3    H2 4603   2.260   0.913   0.425 -1.3992 -2.0422  0.5065
 1533TIP3   OH2 4604   6.096   3.460   4.558  0.6982 -0.3158 -0.0634
 1533TIP3    H1 4605   6.085   3.371   4.591 -2.6646  0.0278  0.0495
 1533TIP3    H2 4606   6.031   3.512   4.606  1.8752  2.0412 -0.8431
 1534TIP3   OH2 4607   1.506   3.638   2.228  0.7714 -0.0305 -0.3008
 1534TIP3    H1 4608   1.505   3.720   2.179  0.0203 -0.5779 -1.2581
 1534TIP3    H2 4609   1.490   3.571   2.161  0.5670 -0.8805  0.5850
 1535TIP3   OH2 4610   2.374   5.327   3.055 -0.2750 -0.5746  0.7348
 1535TIP3    H1 4611   2.339   5.334   2.966  1.2172  0.6158  0.1990
 1535TIP3    H2 4612   2.303   5.358   3.111  0.1589  2.8022 -0.3931
 1536TIP3   OH2 4613   4.516   4.895   3.069 -1.0490 -0.0856  0.1690
 1536TIP3    H1 4614   4.563   4.812   3.058 -1.6776 -0.2906 -1.2125
 1536TIP3    H2 4615   4.544   4.928   3.154  2.9671  0.6627 -1.2358
 1537TIP3   OH2 4616   0.751   2.574   4.601 -0.2405  0.4661  0.2144
 1537TIP3    H1 4617   0.696   2.571   4.679 -0.4485 -5.0470  0.2041
 1537TIP3    H2 4618   0.840   2.581   4.635 -0.4113 -0.5930  0.9292
 1538TIP3   OH2 4619   1.723   2.539   4.162 -0.0584 -0.3150 -0.0255
 1538TIP3    H1 4620   1.647   2.480   4.167 -0.5299  0.2698 -0.2015
 1538TIP3    H2 4621   1.766   2.531   4.247 -0.8714  0.0836  0.4350
 1539TIP3   OH2 4622   5.143   2.887   4.586 -0.4951 -0.8858  0.0032
 1539TIP3    H1 4623   5.103   2.813   4.632 -1.2329 -1.1812 -1.0792
 1539TIP3    H2 4624   5.213   2.916   4.644 -0.8037 -1.8319  0.8786
 1540TIP3   OH2 4625   4.660   0.651   3.614 -0.1856  0.4188 -0.5582
 1540TIP3    H1 4626   4.716   0.672   3.689  1.3141 -0.6755 -1.3093
 1540TIP3    H2 4627   4.660   0.730   3.560  0.8685  0.3622 -0.6640
 1541TIP3   OH2 4628   0.992   3.649   3.725 -0.4298  0.6174  0.2822
 1541TIP3    H1 4629   0.979   3.706   3.649 -0.7947  0.4845  0.2403
 1541TIP3    H2 4630   1.081   3.667   3.754  0.1974 -0.3147 -0.9952
 1542TIP3   OH2 4631   3.212   0.803   1.596  0.5265  0.6256 -0.0618
 1542TIP3    H1 4632   3.199   0.801   1.691  0.7943 -0.2494 -0.0326
 1542TIP3    H2 4633   3.169   0.723   1.564  0.3893  0.9405 -0.6833
 1543TIP3   OH2 4634   5.464   1.062   3.526 -0.2541 -0.3846  0.6950
 1543TIP3    H1 4635   5.394   1.000   3.509 -2.2222  1.2700  2.2651
 1543TIP3    H2 4636   5.476   1.109   3.443 -0.6003 -1.0464  0.2662
 1544TIP3   OH2 4637   1.031   4.980   4.927  0.5453 -0.0661  0.2581
 1544TIP3    H1 4638   1.060   5.025   5.006  2.8988 -1.2357  0.1724
 1544TIP3    H2 4639   0.980   4.905   4.959 -2.5400  1.9550  0.4215
 1545TIP3   OH2 4640   2.337   1.312   3.236  0.2752  0.0792  0.4554
 1545TIP3    H1 4641   2.365   1.279   3.151  0.8080 -0.2374  0.7541
 1545TIP3    H2 4642   2.417   1.339   3.280  0.1433 -0.9014  1.3436
 1546TIP3   OH2 4643   3.254   1.318   2.639  0.6507  0.3443 -0.0317
 1546TIP3    H1 4644   3.298   1.387   2.688 -0.6612  2.3455 -1.5177
 1546TIP3    H2 4645   3.187   1.363   2.588 -1.6363 -2.2632  0.3959
 1547TIP3   OH2 4646   2.216   2.109   4.743 -0.0778 -0.4877 -0.0857
 1547TIP3    H1 4647   2.187   2.185   4.793  0.2071 -0.7409  0.4719
 1547TIP3    H2 4648   2.273   2.145   4.675  1.2086 -0.2970  1.0360
 1548TIP3   OH2 4649   1.453   4.482   4.225  0.1512  0.4562 -0.2655
 1548TIP3    H1 4650   1.506   4.526   4.291 -2.0097  1.3118  1.0131
 1548TIP3    H2 4651   1.432   4.550   4.161  2.4728 -0.4294 -2.1272
 1549TIP3   OH2 4652   1.696   0.123   1.044  0.4186 -0.5303 -0.6145
 1549TIP3    H1 4653   1.785   0.089   1.053 -0.0590 -1.7320 -0.0211
 1549TIP3    H2 4654   1.659   0.116   1.132  0.1178  1.1121 -0.5911
 1550TIP3   OH2 4655   1.132   3.835   2.574  0.5393  0.0257 -0.2677
 1550TIP3    H1 4656   1.168   3.889   2.645  1.5563 -1.7729  0.6748
 1550TIP3    H2 4657   1.202   3.832   2.508  0.1943  0.4535 -0.6563
 1551TIP3   OH2 4658   1.194   2.783   1.232 -0.5393  0.4602  0.0695
 1551TIP3    H1 4659   1.204   2.849   1.163 -0.5686  0.6099  0.2069
 1551TIP3    H2 4660   1.144   2.827   1.300  1.0732  0.9371  0.9989
 1552TIP3   OH2 4661   0.751   1.191   0.206  0.1013 -0.5780  0.2527
 1552TIP3    H1 4662   0.741   1.230   0.293  1.2507 -1.5039  0.8160
 1552TIP3    H2 4663   0.711   1.255   0.147  0.9652  0.9549  1.2571
 1553TIP3   OH2 4664   1.159   5.867   1.115  0.3195 -0.7858  0.5032
 1553TIP3    H1 4665   1.171   5.874   1.020 -0.7635  0.6575  0.4295
 1553TIP3    H2 4666   1.104   5.943   1.137  1.5023 -0.4494  2.4495
 1554TIP3   OH2 4667   4.756   2.296   2.093  0.9016  0.4719 -0.6759
 1554TIP3    H1 4668   4.824   2.233   2.071  1.0281  0.1735  0.5145
 1554TIP3    H2 4669   4.733   2.337   2.009  1.1677 -0.7874 -1.3865
 1555TIP3   OH2 4670   5.158   1.167  -0.007 -0.0743  0.2497 -0.1693
 1555TIP3    H1 4671   5.182   1.125   0.075 -0.1617  0.7481  0.1162
 1555TIP3    H2 4672   5.217   1.242  -0.014  1.7278 -1.1889 -1.8389
 1556TIP3   OH2 4673   0.498   4.837   2.444 -0.3111 -0.7398  0.3329
 1556TIP3    H1 4674   0.569   4.774   2.453  0.6493  0.3372  0.5101
 1556TIP3    H2 4675   0.506   4.894   2.521 -1.1384 -0.3685  0.1596
 1557TIP3   OH2 4676   1.398   1.314   3.466 -0.2142 -0.4647 -0.0765
 1557TIP3    H1 4677   1.425   1.384   3.525  1.8790  0.5431 -2.0744
 1557TIP3    H2 4678   1.405   1.234   3.519 -1.4363  0.6337  1.8710
 1558TIP3   OH2 4679   0.782   2.363   0.880  0.3144  0.3186  0.5226
 1558TIP3    H1 4680   0.866   2.392   0.917  0.9471 -0.0103 -0.6203
 1558TIP3    H2 4681   0.789   2.268   0.875  0.9608  0.4255 -1.9963
 1559TIP3   OH2 4682   5.348   5.097   0.101 -0.0592  0.1043  0.5946
 1559TIP3    H1 4683   5.278   5.141   0.053 -0.5914 -1.1139  0.2013
 1559TIP3    H2 4684   5.304   5.025   0.147  0.8551 -0.3763  0.7469
 1560TIP3   OH2 4685   3.043   3.083   4.220  0.4537 -0.6645  0.1927
 1560TIP3    H1 4686   3.061   3.164   4.172  0.3672 -0.8179 -0.0999
 1560TIP3    H2 4687   3.106   3.020   4.185 -0.1306 -0.9935 -0.2841
 1561TIP3   OH2 4688   5.873   5.243   0.988  0.1804 -0.1743 -0.1228
 1561TIP3    H1 4689   5.800   5.202   0.941 -1.0403 -0.8735  2.2325
 1561TIP3    H2 4690   5.944   5.179   0.981 -0.0199 -0.3276 -0.8661
 1562TIP3   OH2 4691   3.987   2.938   4.048  0.3673 -0.4341  0.0518
 1562TIP3    H1 4692   4.060   2.906   3.995 -0.0744  0.0416 -0.8718
 1562TIP3    H2 4693   4.008   3.030   4.064  0.2447 -0.4443  0.2697
 1563TIP3   OH2 4694   6.208   0.034   3.540 -0.1457 -0.4069  0.2295
 1563TIP3    H1 4695   6.212  -0.058   3.513 -2.5324 -0.2945 -0.7545
 1563TIP3    H2 4696   6.124   0.065   3.506 -0.7361  1.3463  2.9774
 1564TIP3   OH2 4697   1.323   1.041   2.839  0.4738  0.0202 -0.4384
 1564TIP3    H1 4698   1.388   1.109   2.857  1.8281 -0.5415 -2.7982
 1564TIP3    H2 4699   1.244   1.089   2.813  1.7768  0.8142 -3.3165
 1565TIP3   OH2 4700   2.538   3.004   1.664 -0.1530  0.1899  0.2260
 1565TIP3    H1 4701   2.622   3.029   1.702  0.2771  1.0089 -1.1685
 1565TIP3    H2 4702   2.497   3.087   1.639 -0.6946 -0.2776 -0.4829
 1566TIP3   OH2 4703   3.992   6.003   4.431 -0.0138 -0.2779 -0.0224
 1566TIP3    H1 4704   3.990   5.947   4.354  0.2454 -0.6994  0.2738
 1566TIP3    H2 4705   3.987   5.943   4.505  0.2326  0.0885  0.2977
 1567TIP3   OH2 4706   3.520   3.953   4.741  0.8365  0.1543 -0.0788
 1567TIP3    H1 4707   3.474   3.881   4.784 -0.3680  0.3312 -0.9998
 1567TIP3    H2 4708   3.532   3.923   4.651 -1.0211  1.6162 -0.8941
 1568TIP3   OH2 4709   1.591   1.653   2.870  0.0142  0.5324 -0.8466
 1568TIP3    H1 4710   1.680   1.669   2.898  0.9669 -0.1738 -3.2017
 1568TIP3    H2 4711   1.546   1.736   2.884  1.3521  1.2599 -0.7128
 1569TIP3   OH2 4712   6.039   3.179   4.393 -0.3417  0.2862 -0.3872
 1569TIP3    H1 4713   6.037   3.260   4.342 -1.6555  0.6939  0.2627
 1569TIP3    H2 4714   6.107   3.126   4.352  0.4263  1.6469 -0.9375
 1570TIP3   OH2 4715   4.797   1.820   3.784  0.1617 -0.0966  0.0138
 1570TIP3    H1 4716   4.784   1.740   3.835 -2.4243 -0.7894 -1.5008
 1570TIP3    H2 4717   4.805   1.790   3.694  0.3240  1.3043 -0.4645
 1571TIP3   OH2 4718   1.757   4.304   2.271  0.0099  0.1301  0.3656
 1571TIP3    H1 4719   1.844   4.338   2.248 -0.6622  2.4804  1.0880
 1571TIP3    H2 4720   1.764   4.284   2.365 -0.8738  2.7250  1.0587
 1572TIP3   OH2 4721   6.177   0.746   3.111  0.7425  0.2485  0.1799
 1572TIP3    H1 4722   6.180   0.682   3.182  0.6806  0.3648  0.2858
 1572TIP3    H2 4723   6.120   0.705   3.045  0.2043  0.4656  0.5102
 1573TIP3   OH2 4724   1.717   4.242   4.363 -0.1176  0.3817  0.6569
 1573TIP3    H1 4725   1.682   4.273   4.446  2.1449 -0.6183  2.0703
 1573TIP3    H2 4726   1.772   4.314   4.332  0.8264 -0.1065  1.1826
 1574TIP3   OH2 4727   0.824   0.232   3.069  0.1219  0.5899 -0.1562
 1574TIP3    H1 4728   0.869   0.295   3.125  1.6906 -1.8594  1.5339
 1574TIP3    H2 4729   0.757   0.284   3.024  0.2198  3.1204  2.3256
 1575TIP3   OH2 4730   3.740   5.414   2.309  0.3201 -0.1170 -0.5532
 1575TIP3    H1 4731   3.785   5.351   2.365  1.8068 -0.1622 -1.7388
 1575TIP3    H2 4732   3.672   5.363   2.265  1.0377 -0.7494 -0.9576
 1576TIP3   OH2 4733   2.732   3.524   1.747  0.4065 -0.4997  0.2697
 1576TIP3    H1 4734   2.681   3.585   1.694 -0.3591 -1.5259 -0.2012
 1576TIP3    H2 4735   2.727   3.559   1.835  0.5871  0.5123 -0.1105
 1577TIP3   OH2 4736   2.529   1.879   2.732 -0.2269  0.0101 -0.2210
 1577TIP3    H1 4737   2.505   1.971   2.745  0.3877 -0.0815  2.0489
 1577TIP3    H2 4738   2.463   1.845   2.673 -0.0210  2.0857 -1.7812
 1578TIP3   OH2 4739   5.985   2.118   1.762  0.4974  0.2461 -0.2684
 1578TIP3    H1 4740   6.005   2.143   1.852  0.4837 -1.5895  0.2789
 1578TIP3    H2 4741   5.898   2.077   1.767 -0.0419  1.1677 -1.3361
 1579TIP3   OH2 4742   5.613   4.402   1.995  0.7498  0.3693  0.5655
 1579TIP3    H1 4743   5.576   4.487   2.021 -0.4349  0.3433 -0.8741
 1579TIP3    H2 4744   5.606   4.402   1.899  0.2051 -1.5641  0.5718
 1580TIP3   OH2 4745   1.641   0.310   4.488 -0.2194 -0.2547  0.3328
 1580TIP3    H1 4746   1.727   0.348   4.471  0.8526 -3.1227 -1.6218
 1580TIP3    H2 4747   1.660   0.224   4.527 -2.0960 -1.2526 -0.7730
 1581TIP3   OH2 4748   3.447   1.120   3.702 -0.7667  0.1132 -0.3972
 1581TIP3    H1 4749   3.542   1.131   3.704 -0.8860  1.2534 -0.5492
 1581TIP3    H2 4750   3.413   1.192   3.755 -1.5656 -0.0128 -0.7268
 1582TIP3   OH2 4751   0.679   5.415   0.162 -0.6770 -0.5536  0.1699
 1582TIP3    H1 4752   0.670   5.330   0.205  0.2368 -1.5882 -1.5955
 1582TIP3    H2 4753   0.764   5.448   0.191 -1.4365  0.2456  1.6017
 1583TIP3   OH2 4754   0.185   5.511   0.668  0.0867  0.3113  1.2467
 1583TIP3    H1 4755   0.207   5.576   0.735  0.8433  0.6996  0.6418
 1583TIP3    H2 4756   0.270   5.476   0.639  0.1713  2.6535 -1.9405
 1584TIP3   OH2 4757   5.253   5.065   4.551  0.1595 -0.2686  0.1610
 1584TIP3    H1 4758   5.248   5.104   4.638 -0.9849  1.0037 -0.4453
 1584TIP3    H2 4759   5.166   5.078   4.514  1.4788  2.2090 -2.3994
 1585TIP3   OH2 4760   5.711   0.579   0.151  0.0146  0.0275  0.0024
 1585TIP3    H1 4761   5.655   0.587   0.074  1.0528  1.8975 -0.6115
 1585TIP3    H2 4762   5.774   0.651   0.144  0.2295  0.1987  2.5394
 1586TIP3   OH2 4763   1.086   1.636   1.393 -0.2658 -0.0044 -0.2828
 1586TIP3    H1 4764   1.149   1.693   1.349 -0.2177  1.7036  1.8519
 1586TIP3    H2 4765   1.135   1.600   1.467 -0.6584 -1.9368 -0.9018
 1587TIP3   OH2 4766   3.796   0.726   3.102  0.0358  0.0255  0.1416
 1587TIP3    H1 4767   3.885   0.749   3.075 -0.2366 -0.8833 -1.6814
 1587TIP3    H2 4768   3.741   0.798   3.070 -0.0937 -0.2519 -0.2585
 1588TIP3   OH2 4769   4.610   2.950   1.715 -0.2021  0.1683  0.2282
 1588TIP3    H1 4770   4.550   2.908   1.777 -2.2117  0.4371 -1.4145
 1588TIP3    H2 4771   4.635   2.880   1.655 -0.9066  0.5723 -0.5582
 1589TIP3   OH2 4772   4.638   0.267   0.496  0.7089 -0.0562  0.1940
 1589TIP3    H1 4773   4.549   0.265   0.463  0.9038  1.4290 -0.5227
 1589TIP3    H2 4774   4.674   0.349   0.462  1.9588 -0.0404  1.4633
 1590TIP3   OH2 4775   3.168   1.715   2.127  0.5442 -0.4350 -0.1985
 1590TIP3    H1 4776   3.117   1.748   2.053 -0.0294  1.7577  1.0963
 1590TIP3    H2 4777   3.252   1.689   2.088  0.0502  0.1351 -1.7026
 1591TIP3   OH2 4778   0.959   1.878   0.302 -0.0479 -0.0742 -0.3242
 1591TIP3    H1 4779   1.031   1.942   0.296 -1.0878  1.1780  0.1982
 1591TIP3    H2 4780   0.893   1.911   0.241 -0.9137 -0.2308  0.5227
 1592TIP3   OH2 4781   0.833   0.715   3.027 -0.3231 -0.1222  0.1090
 1592TIP3    H1 4782   0.776   0.638   3.033 -0.0956 -0.3926 -0.9038
 1592TIP3    H2 4783   0.847   0.726   2.933 -0.7345  1.4511  0.2154
 1593TIP3   OH2 4784  -0.013   5.231   1.414  0.2009 -0.6872  0.3737
 1593TIP3    H1 4785   0.080   5.238   1.436 -0.3330  1.0572  2.3854
 1593TIP3    H2 4786  -0.057   5.217   1.498 -1.4001 -1.1117 -0.4947
 1594TIP3   OH2 4787   3.590   5.659   2.206  0.0892 -0.3068 -0.0219
 1594TIP3    H1 4788   3.654   5.639   2.275 -1.1133 -1.6219  0.7671
 1594TIP3    H2 4789   3.637   5.643   2.125  0.9120 -0.7761  0.5319
 1595TIP3   OH2 4790   6.295   4.553   3.483  0.0210  0.1019 -0.0727
 1595TIP3    H1 4791   6.271   4.563   3.390 -0.7457 -1.9103 -0.1239
 1595TIP3    H2 4792   6.235   4.612   3.529  0.0701  0.7423 -0.7950
 1596TIP3   OH2 4793   1.447   3.258   4.509 -0.1686 -0.6800  0.0881
 1596TIP3    H1 4794   1.508   3.211   4.453 -0.4350 -0.5876 -0.2783
 1596TIP3    H2 4795   1.503   3.307   4.570  0.1368 -2.5639  1.4312
 1597TIP3   OH2 4796   2.067   5.937   2.923 -0.5801  0.3568  0.2992
 1597TIP3    H1 4797   2.047   6.030   2.908 -0.1869  0.4725  0.4826
 1597TIP3    H2 4798   2.162   5.934   2.933 -0.4764 -0.2289 -0.7833
 1598TIP3   OH2 4799   1.948   4.321   4.761  0.1948 -0.2531 -0.0350
 1598TIP3    H1 4800   1.906   4.393   4.713 -0.5001 -1.1647 -0.8293
 1598TIP3    H2 4801   1.958   4.355   4.850 -1.9538  0.1367  0.1170
 1599TIP3   OH2 4802   4.010   2.381   4.326  0.1935 -0.1538  0.1912
 1599TIP3    H1 4803   3.988   2.306   4.271  0.6440  1.9041 -3.0917
 1599TIP3    H2 4804   3.975   2.359   4.412 -0.4944 -3.6692 -0.8270
 1600TIP3   OH2 4805   5.766   5.617   1.595 -0.1698  0.1843 -0.5184
 1600TIP3    H1 4806   5.688   5.573   1.559 -0.7310  1.6557 -1.1720
 1600TIP3    H2 4807   5.734   5.660   1.675  0.2288 -0.0975 -0.2071
 1601TIP3   OH2 4808   1.190   1.377   5.108  0.4241  0.1951 -0.6774
 1601TIP3    H1 4809   1.176   1.295   5.060  1.3150  1.5484 -3.4940
 1601TIP3    H2 4810   1.153   1.445   5.051  1.2447  1.9229  0.7388
 1602TIP3   OH2 4811   4.356   2.179   4.763  0.4425 -0.1653 -0.2688
 1602TIP3    H1 4812   4.262   2.163   4.763  0.3750  0.2087  0.3280
 1602TIP3    H2 4813   4.366   2.265   4.803  0.8666  0.9197 -2.5373
 1603TIP3   OH2 4814   0.591   2.000   2.279 -0.1195  0.4441  0.8102
 1603TIP3    H1 4815   0.552   1.954   2.354  1.1531 -1.8206  0.1939
 1603TIP3    H2 4816   0.522   2.001   2.213 -0.3471 -0.0939  1.0325
 1604TIP3   OH2 4817   0.138   4.105   0.307 -0.4380  0.5555 -0.1850
 1604TIP3    H1 4818   0.131   4.077   0.215 -0.1606 -0.0743 -0.0162
 1604TIP3    H2 4819   0.076   4.049   0.354  1.7536 -1.4678  0.5175
 1605TIP3   OH2 4820   4.668   2.526   0.210 -0.1910 -0.7969  0.3028
 1605TIP3    H1 4821   4.755   2.501   0.238  0.2890 -0.5937 -0.9299
 1605TIP3    H2 4822   4.630   2.446   0.174 -0.6144 -0.9465  1.0757
 1606TIP3   OH2 4823   6.327   5.741   1.208  0.0638 -0.1780 -0.4256
 1606TIP3    H1 4824   6.241   5.765   1.242 -0.1045 -1.3508  0.0142
 1606TIP3    H2 4825   6.350   5.660   1.255  1.2080 -0.1185 -0.8536
 1607TIP3   OH2 4826   3.763   2.687   2.029 -0.0439 -0.4786 -0.1950
 1607TIP3    H1 4827   3.711   2.745   2.085 -0.6410  0.7664 -1.9653
 1607TIP3    H2 4828   3.709   2.609   2.018  0.2872 -0.9639  1.2916
 1608TIP3   OH2 4829   6.292   0.625   1.605  0.3058 -0.0312 -0.1883
 1608TIP3    H1 4830   6.286   0.552   1.544 -2.4566 -0.0673 -0.0094
 1608TIP3    H2 4831   6.333   0.695   1.556 -0.0999 -0.6695 -1.4700
 1609TIP3   OH2 4832   2.697   0.647   0.640 -0.1667 -0.0024  0.5589
 1609TIP3    H1 4833   2.759   0.584   0.676  0.4529 -0.3737 -1.1011
 1609TIP3    H2 4834   2.711   0.645   0.546 -1.9834  0.6833  0.2220
 1610TIP3   OH2 4835   3.233   2.956   4.071 -0.1441 -0.2721  0.3558
 1610TIP3    H1 4836   3.249   2.876   4.123  1.5496  0.4998  1.0960
 1610TIP3    H2 4837   3.269   2.936   3.985 -0.3648 -0.5536  0.3271
 1611TIP3   OH2 4838   4.216   3.720   1.335  0.3462  0.7650 -0.1713
 1611TIP3    H1 4839   4.199   3.705   1.243 -0.6329  0.2488  0.0864
 1611TIP3    H2 4840   4.248   3.636   1.368  0.8931  1.0031 -0.0767
 1612TIP3   OH2 4841   4.746   2.070   1.542  0.0432 -0.1678  0.3149
 1612TIP3    H1 4842   4.736   2.011   1.617  2.5871  0.0931  0.9487
 1612TIP3    H2 4843   4.838   2.060   1.516 -0.2213  1.3808 -1.4015
 1613TIP3   OH2 4844   0.561   3.932   3.857 -0.1449 -0.4810  0.0334
 1613TIP3    H1 4845   0.651   3.912   3.886  0.8141  2.0138 -0.9717
 1613TIP3    H2 4846   0.542   4.018   3.895 -0.4164  1.0091 -3.1455
 1614TIP3   OH2 4847   1.915   3.737   2.600 -0.0928 -0.1402 -0.8761
 1614TIP3    H1 4848   1.963   3.717   2.681 -0.8407  0.1638 -0.3396
 1614TIP3    H2 4849   1.960   3.686   2.532  1.2537  0.4826 -0.4830
 1615TIP3   OH2 4850   2.662   5.307   1.049  0.3584 -0.5224 -0.1489
 1615TIP3    H1 4851   2.572   5.297   1.019  0.6305 -0.6954 -0.9356
 1615TIP3    H2 4852   2.656   5.310   1.144 -0.4157 -1.1721 -0.1738
 1616TIP3   OH2 4853   2.524   0.065   4.552  0.2435 -0.0031  0.1338
 1616TIP3    H1 4854   2.566  -0.009   4.509  3.6688  1.1564  1.1509
 1616TIP3    H2 4855   2.571   0.141   4.520 -0.4891  1.3435  2.0852
 1617TIP3   OH2 4856   6.314   2.882   1.099  0.3595  0.1077 -0.6612
 1617TIP3    H1 4857   6.230   2.923   1.119 -0.2817 -1.2478 -0.4757
 1617TIP3    H2 4858   6.366   2.891   1.179 -0.3461 -0.8008 -0.0873
 1618TIP3   OH2 4859   3.313   5.903   0.485 -0.4703  0.7275 -0.0219
 1618TIP3    H1 4860   3.245   5.945   0.537 -0.5325 -0.2964  0.7657
 1618TIP3    H2 4861   3.321   5.815   0.524  1.0492  0.7151 -0.3356
 1619TIP3   OH2 4862   0.564   3.340   1.395 -0.0797 -0.0766  0.2107
 1619TIP3    H1 4863   0.530   3.399   1.463  2.6546  0.3917  1.3241
 1619TIP3    H2 4864   0.544   3.252   1.427  0.7463  0.1559  1.4638
 1620TIP3   OH2 4865   0.967   5.967   3.178 -0.7278 -0.0066 -0.1755
 1620TIP3    H1 4866   1.013   6.033   3.229 -2.5892  0.8298  0.5003
 1620TIP3    H2 4867   1.035   5.904   3.154  0.5211  0.4300  1.9321
 1621TIP3   OH2 4868   2.961   0.111   0.459 -0.0035  0.3034  0.4081
 1621TIP3    H1 4869   3.023   0.062   0.513  0.5276  0.3597 -0.1430
 1621TIP3    H2 4870   2.916   0.045   0.407  1.1584  0.4150 -0.8003
 1622TIP3   OH2 4871   4.561   5.201   3.912  0.5062 -0.6036  0.1484
 1622TIP3    H1 4872   4.533   5.290   3.934 -0.2984 -0.8056  0.0080
 1622TIP3    H2 4873   4.601   5.210   3.826  0.4881 -0.3609  0.1633
 1623TIP3   OH2 4874   6.108   3.263   0.101 -0.2736 -0.8155  0.0712
 1623TIP3    H1 4875   6.117   3.238   0.192  1.7009 -1.3796 -0.2251
 1623TIP3    H2 4876   6.126   3.182   0.052  2.6695  0.2205 -0.8278
 1624TIP3   OH2 4877   5.907   4.182   4.652  0.2592  0.3680 -0.4316
 1624TIP3    H1 4878   5.855   4.233   4.590 -0.2978 -0.8276 -0.9789
 1624TIP3    H2 4879   5.934   4.105   4.603  1.5961  0.4090  0.1993
 1625TIP3   OH2 4880   4.531   3.277   3.993 -0.4041 -0.6840  0.3653
 1625TIP3    H1 4881   4.616   3.313   3.968  0.1134 -0.8734  1.7404
 1625TIP3    H2 4882   4.500   3.336   4.062 -1.2851 -0.7593  0.0476
 1626TIP3   OH2 4883   2.056   3.644   0.405  0.4421  0.6315 -0.5143
 1626TIP3    H1 4884   2.025   3.684   0.323 -0.2840  0.5772 -0.2763
 1626TIP3    H2 4885   2.086   3.717   0.458  0.7595  0.6830 -0.7609
 1627TIP3   OH2 4886   3.267   5.382   2.700 -0.5322 -0.2227  0.1909
 1627TIP3    H1 4887   3.340   5.394   2.760 -0.0699 -0.5905 -0.2888
 1627TIP3    H2 4888   3.246   5.471   2.670 -0.2766 -0.1167  0.3218
 1628TIP3   OH2 4889   5.089   2.836   1.024 -0.5471  0.1418 -0.5917
 1628TIP3    H1 4890   5.030   2.911   1.019 -0.7534 -0.0695 -1.3731
 1628TIP3    H2 4891   5.099   2.807   0.934 -0.1377 -0.5194 -0.3397
 1629TIP3   OH2 4892   4.022   0.203   4.114  0.5720  0.5719  0.1652
 1629TIP3    H1 4893   3.999   0.110   4.109  0.0184  0.7523 -0.8565
 1629TIP3    H2 4894   3.978   0.234   4.193  1.1497 -0.1369  0.7762
 1630TIP3   OH2 4895   2.743   0.846   3.856 -0.1161  0.4294  0.2591
 1630TIP3    H1 4896   2.824   0.797   3.841 -1.2984 -1.2063 -1.1208
 1630TIP3    H2 4897   2.697   0.795   3.923 -1.0606 -0.0054 -0.6995
 1631TIP3   OH2 4898   0.345   3.317   3.859 -0.0613 -0.3234  0.0622
 1631TIP3    H1 4899   0.271   3.377   3.865 -1.1576 -1.7411  2.2398
 1631TIP3    H2 4900   0.422   3.374   3.856 -1.0886  1.2048  1.1576
 1632TIP3   OH2 4901   3.564   3.216   3.688 -0.0803 -0.0979 -0.7244
 1632TIP3    H1 4902   3.512   3.286   3.728 -1.8322 -1.8963  0.3817
 1632TIP3    H2 4903   3.545   3.139   3.742  0.8923 -1.6897 -2.5316
 1633TIP3   OH2 4904   1.884   4.371   2.016 -0.1309 -0.3096  0.9485
 1633TIP3    H1 4905   1.850   4.301   1.960 -0.0369  0.4043 -0.0396
 1633TIP3    H2 4906   1.932   4.325   2.085 -0.3038 -1.2252  0.4844
 1634TIP3   OH2 4907   3.795   2.996   0.550 -0.2663  0.2597  0.5011
 1634TIP3    H1 4908   3.810   3.000   0.645 -0.1005 -1.8456  0.6107
 1634TIP3    H2 4909   3.750   2.912   0.537  0.9175 -0.1153 -1.4326
 1635TIP3   OH2 4910   3.148   4.327   2.733 -0.7082 -0.2594  0.2958
 1635TIP3    H1 4911   3.080   4.304   2.797 -0.1016  1.3633  1.5834
 1635TIP3    H2 4912   3.212   4.377   2.783  0.2162  0.3475 -1.4216
 1636TIP3   OH2 4913   0.336   1.981   0.017  0.6665 -0.0386 -0.5015
 1636TIP3    H1 4914   0.354   1.932   0.097 -1.8994  0.8878  0.7563
 1636TIP3    H2 4915   0.263   2.038   0.040  0.7732  1.2978 -3.1250
 1637TIP3   OH2 4916   2.675   3.439   3.798 -0.2074 -0.0449  0.4344
 1637TIP3    H1 4917   2.716   3.392   3.870  1.3526  1.1940  0.3934
 1637TIP3    H2 4918   2.585   3.406   3.797  0.6075 -2.5112  0.8160
 1638TIP3   OH2 4919   1.356   2.048   4.778 -0.2634 -0.3912  0.2407
 1638TIP3    H1 4920   1.366   2.090   4.864  0.9739 -2.1112  0.9974
 1638TIP3    H2 4921   1.313   2.114   4.725  0.9777  1.6085  1.5411
 1639TIP3   OH2 4922   1.350   1.369   0.593 -0.4497 -0.1299  0.1128
 1639TIP3    H1 4923   1.341   1.464   0.605 -1.6271 -0.2948  0.6619
 1639TIP3    H2 4924   1.445   1.355   0.590 -0.2091  0.8799  1.6235
 1640TIP3   OH2 4925   0.040   0.247   2.793 -0.6517 -0.4543 -0.2446
 1640TIP3    H1 4926  -0.018   0.193   2.738 -1.5784  0.3751 -0.1042
 1640TIP3    H2 4927   0.033   0.335   2.756  2.8313 -0.7857 -2.0999
 1641TIP3   OH2 4928   2.773   2.514   3.087 -0.5196 -0.3958  0.8211
 1641TIP3    H1 4929   2.831   2.551   3.021 -1.4003  2.8526  1.6435
 1641TIP3    H2 4930   2.714   2.456   3.039  1.1194 -0.9755 -0.5756
 1642TIP3   OH2 4931   0.599   2.422   2.596 -0.1455  0.2067  0.1073
 1642TIP3    H1 4932   0.573   2.466   2.516  2.4018 -1.6929 -1.9398
 1642TIP3    H2 4933   0.549   2.340   2.596 -0.9734  0.6830  1.1204
 1643TIP3   OH2 4934   4.761   1.011   1.964  0.6345 -0.0471  0.0441
 1643TIP3    H1 4935   4.669   0.993   1.979 -0.3636  3.2281 -1.1348
 1643TIP3    H2 4936   4.769   1.016   1.868  1.4737  1.8505  0.1722
 1644TIP3   OH2 4937   2.127   2.450   1.443 -0.6443  0.0432 -0.1275
 1644TIP3    H1 4938   2.056   2.513   1.452  0.3135  1.6975 -2.8924
 1644TIP3    H2 4939   2.084   2.366   1.432 -2.1235  0.8433 -0.6408
 1645TIP3   OH2 4940   1.213   3.952   0.823  0.4095  0.3105 -0.0311
 1645TIP3    H1 4941   1.176   3.943   0.735  0.0988 -0.4307  0.1677
 1645TIP3    H2 4942   1.276   3.881   0.830  1.1619  0.9726 -0.0063
 1646TIP3   OH2 4943   1.188   1.373   4.347  0.2097  0.2597  0.8302
 1646TIP3    H1 4944   1.258   1.438   4.357  1.4461 -1.0219  0.8140
 1646TIP3    H2 4945   1.111   1.424   4.324  0.7980  1.8672  2.2015
 1647TIP3   OH2 4946   3.020   3.368   4.300  0.3539 -0.0640 -0.1030
 1647TIP3    H1 4947   2.993   3.456   4.325  1.1057  0.6996 -1.8291
 1647TIP3    H2 4948   3.111   3.361   4.329  0.2964 -0.2860  0.0320
 1648TIP3   OH2 4949   3.070   3.113   0.513  0.3943 -0.0908 -0.0217
 1648TIP3    H1 4950   3.025   3.100   0.429  1.7359 -0.5650 -0.7073
 1648TIP3    H2 4951   3.019   3.063   0.576 -1.5961  1.6082 -0.1982
 1649TIP3   OH2 4952   0.251   3.835   2.723 -0.5457  0.1924 -0.1578
 1649TIP3    H1 4953   0.289   3.862   2.807  0.0706  0.3753 -0.4943
 1649TIP3    H2 4954   0.297   3.754   2.701 -0.9320 -0.0266 -0.1701
 1650TIP3   OH2 4955   2.068   2.962   2.949  0.5426  0.5446 -0.3973
 1650TIP3    H1 4956   2.073   2.968   3.045  2.2725 -1.5829 -0.2655
 1650TIP3    H2 4957   2.003   2.894   2.933 -1.4166  2.4575 -0.8692
 1651TIP3   OH2 4958   3.401   4.000   4.174  0.3044 -0.0715 -0.2434
 1651TIP3    H1 4959   3.387   3.956   4.258 -2.3462 -0.0536 -0.5729
 1651TIP3    H2 4960   3.392   4.093   4.194  1.3456  0.0490 -0.2948
 1652TIP3   OH2 4961   0.035   3.407   0.699 -0.1008  0.1303 -0.2934
 1652TIP3    H1 4962  -0.014   3.468   0.754  2.6452  1.6603  0.6393
 1652TIP3    H2 4963   0.079   3.462   0.635 -0.8376 -1.3574 -2.1743
 1653TIP3   OH2 4964   3.113   0.221   4.371 -0.0180  0.0051  0.0940
 1653TIP3    H1 4965   3.145   0.170   4.298  0.2129 -0.4989  0.5417
 1653TIP3    H2 4966   3.111   0.160   4.445  0.4737  0.6856  0.6928
 1654TIP3   OH2 4967   0.668   1.263   2.901  0.8054  0.2693  0.7031
 1654TIP3    H1 4968   0.725   1.186   2.908 -0.7490 -0.9889  0.0945
 1654TIP3    H2 4969   0.585   1.235   2.940 -0.4588  0.9024 -1.3905
 1655TIP3   OH2 4970   6.213   5.083   1.232 -0.4253 -0.2299 -0.0334
 1655TIP3    H1 4971   6.243   5.156   1.286  1.2990 -0.4506 -0.6536
 1655TIP3    H2 4972   6.228   5.112   1.142  0.4214 -1.4030 -0.2842
 1656TIP3   OH2 4973   2.903   0.497   0.147  0.7420 -0.1455 -0.9094
 1656TIP3    H1 4974   2.916   0.405   0.127  1.8386 -0.2535  0.1740
 1656TIP3    H2 4975   2.892   0.500   0.242  3.0617  1.0416 -0.6164
 1657TIP3   OH2 4976   4.854   1.786   0.779 -0.2152 -0.1561  0.0516
 1657TIP3    H1 4977   4.802   1.707   0.793  1.6677 -1.7551 -1.4352
 1657TIP3    H2 4978   4.945   1.758   0.791  0.5940  1.5203 -1.6075
 1658TIP3   OH2 4979   2.140   0.834   2.752 -0.1409 -0.2861 -0.0165
 1658TIP3    H1 4980   2.115   0.850   2.661 -0.7186 -0.0682  0.1744
 1658TIP3    H2 4981   2.229   0.799   2.746 -0.9846 -2.4651 -0.8210
 1659TIP3   OH2 4982   0.136   4.858   4.815 -0.3589 -0.0149 -0.2065
 1659TIP3    H1 4983   0.229   4.856   4.839 -0.6275  0.3992  0.9385
 1659TIP3    H2 4984   0.092   4.887   4.895 -1.6210 -1.6069 -0.2907
 1660TIP3   OH2 4985   2.886   5.483   3.226  0.0509  0.0680 -0.2805
 1660TIP3    H1 4986   2.924   5.400   3.200 -0.2228  0.0596 -0.6560
 1660TIP3    H2 4987   2.949   5.520   3.288 -1.5544 -2.1912  3.0405
 1661TIP3   OH2 4988   3.772   1.552   4.429  0.4437 -0.3135  0.2672
 1661TIP3    H1 4989   3.730   1.615   4.371  0.7437  0.3083  0.7144
 1661TIP3    H2 4990   3.796   1.602   4.507 -0.8319 -1.3264  1.3723
 1662TIP3   OH2 4991   0.875   2.112   4.243 -0.0069 -0.2345  0.2916
 1662TIP3    H1 4992   0.913   2.038   4.196 -0.6612 -0.2929 -0.1633
 1662TIP3    H2 4993   0.813   2.151   4.181  1.4569  1.6802 -0.0869
 1663TIP3   OH2 4994   4.569   0.021   0.955 -0.0722  0.0422 -0.2096
 1663TIP3    H1 4995   4.546   0.073   0.878  1.0561  0.3558 -0.3512
 1663TIP3    H2 4996   4.663   0.033   0.965 -0.3375  0.9125  1.8784
 1664TIP3   OH2 4997   5.697   1.337   0.508  0.0740  0.8595 -0.3609
 1664TIP3    H1 4998   5.721   1.345   0.600  1.0046 -0.5217 -0.4444
 1664TIP3    H2 4999   5.736   1.414   0.466  1.3848  0.4862  0.1032
 1665TIP3   OH2 5000   1.175   2.135   2.178 -0.2853  0.0878 -0.3391
 1665TIP3    H1 5001   1.154   2.042   2.167  0.3251 -0.0324 -0.5040
 1665TIP3    H2 5002   1.106   2.168   2.236  0.9177 -1.0714  1.9290
 1666TIP3   OH2 5003   5.299   0.902   2.531  0.2314 -0.6650  0.2577
 1666TIP3    H1 5004   5.391   0.890   2.505  0.3074  0.5589 -0.1071
 1666TIP3    H2 5005   5.303   0.928   2.623  0.4280  1.5306 -0.3262
 1667TIP3   OH2 5006   0.128   0.685   2.406 -0.5279  0.1995  0.7078
 1667TIP3    H1 5007   0.112   0.670   2.312 -0.8590  0.9006  0.6480
 1667TIP3    H2 5008   0.166   0.603   2.437 -1.7417 -0.5554  0.2640
 1668TIP3   OH2 5009   2.545   0.514   3.603 -0.3062 -0.6076  0.4405
 1668TIP3    H1 5010   2.458   0.503   3.640 -0.0357 -1.2254  0.9049
 1668TIP3    H2 5011   2.601   0.535   3.678 -0.4963  2.6090 -0.1648
 1669TIP3   OH2 5012   1.747   5.422   1.325  0.3679  0.0135  0.4008
 1669TIP3    H1 5013   1.817   5.470   1.281 -1.8118  1.1624 -2.1114
 1669TIP3    H2 5014   1.757   5.443   1.417  3.4495 -0.1482  0.2343
 1670TIP3   OH2 5015   3.460   2.331   4.876 -0.3570  0.0543 -0.6166
 1670TIP3    H1 5016   3.469   2.399   4.942 -1.3541 -1.1529  0.8448
 1670TIP3    H2 5017   3.366   2.310   4.877 -0.7947  1.2629 -3.7808
 1671TIP3   OH2 5018   1.216   3.598   4.797 -0.2299  0.0295  0.0171
 1671TIP3    H1 5019   1.233   3.507   4.823 -1.1563 -0.2127 -0.1814
 1671TIP3    H2 5020   1.137   3.593   4.743 -0.9910  1.0794  0.9743
 1672TIP3   OH2 5021   1.929   2.593   2.695 -0.5504 -0.4839 -0.1322
 1672TIP3    H1 5022   1.872   2.648   2.749 -0.6530 -0.6939 -0.0245
 1672TIP3    H2 5023   1.969   2.532   2.758 -0.3082 -0.4240 -0.2258
 1673TIP3   OH2 5024   0.630   2.795   1.598  0.6531  0.4355  0.1631
 1673TIP3    H1 5025   0.613   2.703   1.614  0.7356  0.7988  2.8462
 1673TIP3    H2 5026   0.590   2.813   1.513  0.1753 -1.9305 -0.1681
 1674TIP3   OH2 5027   5.664   0.807   2.699  0.3781  0.1191 -0.4394
 1674TIP3    H1 5028   5.601   0.869   2.736 -0.6778 -1.3790  0.3871
 1674TIP3    H2 5029   5.688   0.750   2.772  2.3685  0.3397 -0.8492
 1675TIP3   OH2 5030   2.183   1.134   4.666  0.3627 -0.0001  0.0725
 1675TIP3    H1 5031   2.198   1.077   4.591 -0.8295 -0.5121  0.2028
 1675TIP3    H2 5032   2.136   1.209   4.630  0.2814  0.0141  0.2054
 1676TIP3   OH2 5033   4.812   4.719   0.920 -0.4532 -0.1189  0.1047
 1676TIP3    H1 5034   4.857   4.641   0.952 -0.5970  0.3568  1.5858
 1676TIP3    H2 5035   4.751   4.686   0.854  1.9459 -0.7861 -1.9227
 1677TIP3   OH2 5036   5.712   3.193   1.592  0.3666  0.3160  0.0178
 1677TIP3    H1 5037   5.669   3.218   1.674  0.0925 -0.2002  0.0300
 1677TIP3    H2 5038   5.640   3.186   1.529  0.6944  1.9764 -0.6012
 1678TIP3   OH2 5039   1.052   3.288   5.198  0.3640  0.2800  0.6800
 1678TIP3    H1 5040   1.041   3.229   5.123 -0.0352  0.9700  0.1829
 1678TIP3    H2 5041   1.117   3.351   5.168  0.9585 -0.0279  1.2914
 1679TIP3   OH2 5042   6.005   3.199   3.470 -0.0742  0.0211 -0.5423
 1679TIP3    H1 5043   6.062   3.274   3.490 -0.1257  0.3954 -1.7192
 1679TIP3    H2 5044   6.065   3.134   3.433 -0.0807 -0.4139  0.1930
 1680TIP3   OH2 5045   5.442   3.170   4.326  0.3910  0.3394 -0.6997
 1680TIP3    H1 5046   5.535   3.157   4.307  0.6409  2.4511 -1.2123
 1680TIP3    H2 5047   5.423   3.257   4.291 -1.0144  1.2737  2.0895
 1681TIP3   OH2 5048   4.657   5.798   1.882 -0.0141  0.2849 -0.5887
 1681TIP3    H1 5049   4.676   5.887   1.910 -1.3188  0.5775 -0.5383
 1681TIP3    H2 5050   4.727   5.776   1.821  0.3755  1.3077 -0.5331
 1682TIP3   OH2 5051   3.916   3.996   2.049  0.7149 -0.2204  0.3630
 1682TIP3    H1 5052   3.899   3.968   1.959 -0.5049 -0.3260  0.5985
 1682TIP3    H2 5053   3.828   4.005   2.088  1.2161 -0.4638  1.6178
 1683TIP3   OH2 5054   1.229   5.116   2.057 -0.2561  0.4834 -0.1375
 1683TIP3    H1 5055   1.190   5.119   2.144 -0.3195  2.6676 -0.1957
 1683TIP3    H2 5056   1.305   5.058   2.066  1.7411  3.2278  2.2566
 1684TIP3   OH2 5057   5.954   0.753   3.361 -0.7248  0.0485 -0.1011
 1684TIP3    H1 5058   5.945   0.671   3.313  1.3359 -0.2159 -0.1419
 1684TIP3    H2 5059   6.007   0.808   3.304  0.7643  0.1569  1.3218
 1685TIP3   OH2 5060   3.408   4.660   3.423 -0.0780  0.0317 -0.1118
 1685TIP3    H1 5061   3.401   4.756   3.429  1.1038  0.1814 -0.8014
 1685TIP3    H2 5062   3.501   4.642   3.434 -0.2199 -1.0117 -0.5069
 1686TIP3   OH2 5063   6.102   2.321   2.800  0.1945 -0.6253  0.0250
 1686TIP3    H1 5064   6.169   2.387   2.817  1.4516 -1.3595 -1.7065
 1686TIP3    H2 5065   6.143   2.238   2.825  0.2616 -1.1623 -1.6968
 1687TIP3   OH2 5066   1.439   0.681   0.209  0.0765 -0.0963  0.3741
 1687TIP3    H1 5067   1.376   0.746   0.178  1.9949  1.3222 -0.8891
 1687TIP3    H2 5068   1.446   0.618   0.137  0.4640  0.0608  0.2696
 1688TIP3   OH2 5069   6.003   3.873   1.285 -0.2853  0.0424 -0.0104
 1688TIP3    H1 5070   6.025   3.785   1.314 -0.5016  0.0654  0.2238
 1688TIP3    H2 5071   6.088   3.917   1.277 -0.0539 -0.6297 -1.5910
 1689TIP3   OH2 5072   1.553   4.132   1.498  0.2906  0.6754 -0.2905
 1689TIP3    H1 5073   1.471   4.096   1.462  0.6414  0.7945 -1.2279
 1689TIP3    H2 5074   1.564   4.216   1.453  0.9065  0.6815 -0.1291
 1690TIP3   OH2 5075   2.704   3.671   0.136  0.2308  0.4571  0.4254
 1690TIP3    H1 5076   2.622   3.629   0.113  0.3975  1.4233 -2.3219
 1690TIP3    H2 5077   2.693   3.697   0.228 -2.8310  1.2651 -0.0635
 1691TIP3   OH2 5078   2.519   0.127   1.298 -0.1984  0.3861 -0.8389
 1691TIP3    H1 5079   2.498   0.167   1.382  0.9303  0.7794 -0.7252
 1691TIP3    H2 5080   2.514   0.033   1.313  0.7362  0.4455 -0.1312
 1692TIP3   OH2 5081   0.948   5.699   0.908  0.7277 -0.1943 -0.3562
 1692TIP3    H1 5082   0.916   5.756   0.977  0.4002 -0.2569 -0.4561
 1692TIP3    H2 5083   0.911   5.613   0.928 -0.8828  0.1657 -1.6097
 1693TIP3   OH2 5084   1.827   0.764   3.900 -0.3190 -0.0934 -0.5091
 1693TIP3    H1 5085   1.892   0.831   3.877  2.1767 -1.4717  1.8721
 1693TIP3    H2 5086   1.828   0.703   3.826 -0.1964  0.7878 -1.2503
 1694TIP3   OH2 5087   6.162   0.543   4.337 -0.2306 -0.1822  0.3498
 1694TIP3    H1 5088   6.198   0.467   4.290  0.7079  0.4059  0.1024
 1694TIP3    H2 5089   6.210   0.546   4.420 -0.6426 -0.1717  0.5903
 1695TIP3   OH2 5090   6.286   5.346   2.635  0.3445 -0.2264 -0.4959
 1695TIP3    H1 5091   6.257   5.298   2.557 -1.5095  1.0291 -0.6435
 1695TIP3    H2 5092   6.237   5.307   2.707 -0.4061  0.7120 -0.4709
 1696TIP3   OH2 5093   3.350   5.158   1.886  0.0732  0.2770  0.6145
 1696TIP3    H1 5094   3.415   5.219   1.920  0.0535 -0.1106  1.3652
 1696TIP3    H2 5095   3.397   5.107   1.820  0.2670  0.6397  0.4684
 1697TIP3   OH2 5096   2.065   5.313   3.554 -0.0011  0.0175 -0.2446
 1697TIP3    H1 5097   2.102   5.271   3.632 -1.0785  0.3981  0.4970
 1697TIP3    H2 5098   1.973   5.286   3.554 -0.4881  1.5642 -0.2922
 1698TIP3   OH2 5099   6.035   2.840   1.525 -0.5478  0.1183  0.3599
 1698TIP3    H1 5100   5.980   2.901   1.575  0.7628  1.9756 -0.3752
 1698TIP3    H2 5101   6.002   2.847   1.435  0.0419  0.2569  0.1539
 1699TIP3   OH2 5102   5.134   0.078   1.722 -0.2748 -0.1554 -0.0938
 1699TIP3    H1 5103   5.190   0.060   1.646  1.6739 -0.3610  1.2915
 1699TIP3    H2 5104   5.179   0.149   1.768 -1.6257  0.2425  0.6717
 1700TIP3   OH2 5105   3.105   3.957   0.387 -0.2606 -0.3063  0.0322
 1700TIP3    H1 5106   3.142   3.889   0.444 -1.3475 -0.4694  0.5757
 1700TIP3    H2 5107   3.168   3.965   0.315  0.9194 -0.4200  1.0136
 1701TIP3   OH2 5108   1.416   1.336   2.939 -0.0390  0.0591  0.4544
 1701TIP3    H1 5109   1.385   1.415   2.982 -0.5088 -0.5079  1.1806
 1701TIP3    H2 5110   1.482   1.301   2.997  1.6517  0.9680 -0.8319
 1702TIP3   OH2 5111   0.703   1.219   4.730 -0.5389 -0.5415 -0.0558
 1702TIP3    H1 5112   0.634   1.174   4.681 -2.0801  1.3316  0.2848
 1702TIP3    H2 5113   0.772   1.234   4.665 -0.9487 -1.3632 -0.7080
 1703TIP3   OH2 5114   2.182   1.523   1.487 -0.2987 -0.2228 -0.3348
 1703TIP3    H1 5115   2.234   1.449   1.517  0.7641  0.7412  0.2762
 1703TIP3    H2 5116   2.092   1.490   1.483  0.0954 -1.4156  0.3144
 1704TIP3   OH2 5117   4.300   0.371   1.456 -0.4599  0.0799 -0.0598
 1704TIP3    H1 5118   4.349   0.325   1.388 -0.2988  0.6073 -0.3035
 1704TIP3    H2 5119   4.312   0.318   1.534  1.1095  0.5805  0.0626
 1705TIP3   OH2 5120   4.550   0.898   5.014  0.3525 -0.1105  0.4282
 1705TIP3    H1 5121   4.612   0.955   4.969 -0.6372  0.1202 -0.6867
 1705TIP3    H2 5122   4.465   0.916   4.972 -0.2303 -1.3738  1.0030
 1706TIP3   OH2 5123   1.041   1.319   3.533  0.5967  0.6147  0.0412
 1706TIP3    H1 5124   1.065   1.238   3.579 -0.6309 -0.8616 -1.7656
 1706TIP3    H2 5125   0.984   1.290   3.462 -1.1965  3.2574  0.2661
 1707TIP3   OH2 5126   2.343   2.352   0.476 -0.4223  0.3852  0.2239
 1707TIP3    H1 5127   2.308   2.267   0.449  0.4737  0.1176 -0.1329
 1707TIP3    H2 5128   2.415   2.330   0.536  0.1911  0.8633 -0.3192
 1708TIP3   OH2 5129   0.243   1.623   2.472 -0.2061 -0.2152  0.5416
 1708TIP3    H1 5130   0.317   1.571   2.440 -0.7070  0.1290 -1.2753
 1708TIP3    H2 5131   0.166   1.580   2.435 -0.9357 -0.4436  2.2393
 1709TIP3   OH2 5132   5.873   4.895   2.561 -0.3835  0.2332 -0.0483
 1709TIP3    H1 5133   5.849   4.819   2.614  1.1624 -0.4200 -0.2371
 1709TIP3    H2 5134   5.929   4.947   2.619 -0.4509  0.6214 -0.3302
 1710TIP3   OH2 5135   5.256   0.123   0.575 -0.2440  0.1746 -0.3967
 1710TIP3    H1 5136   5.194   0.150   0.642 -2.2388 -1.2317 -1.5784
 1710TIP3    H2 5137   5.222   0.162   0.494  2.1060  1.8419 -0.7122
 1711TIP3   OH2 5138   1.420   5.724   0.843  0.0121 -0.4054  0.5246
 1711TIP3    H1 5139   1.492   5.710   0.781 -0.3283  0.4628 -0.0847
 1711TIP3    H2 5140   1.411   5.640   0.887  1.8637 -0.3325  1.1301
 1712TIP3   OH2 5141   0.291   4.305   2.046  0.5181  0.3983 -0.0487
 1712TIP3    H1 5142   0.250   4.261   1.971 -1.4297  1.5228  0.2978
 1712TIP3    H2 5143   0.368   4.251   2.066 -0.9937 -2.0970 -0.4999
 1713TIP3   OH2 5144   3.852   2.020   3.666 -0.5555  0.2582  0.3800
 1713TIP3    H1 5145   3.778   2.036   3.724 -0.9304  1.1602 -0.3091
 1713TIP3    H2 5146   3.832   2.072   3.588  0.7381  0.3870  0.1213
 1714TIP3   OH2 5147   4.235   1.278   4.414 -0.0280 -0.7178  0.0897
 1714TIP3    H1 5148   4.191   1.306   4.333 -0.3294  0.0112  0.5028
 1714TIP3    H2 5149   4.192   1.327   4.483 -0.1146 -1.7147  0.7675
 1715TIP3   OH2 5150   1.317   4.661   0.072  0.1368 -0.1586  0.1018
 1715TIP3    H1 5151   1.381   4.687   0.138 -0.3135 -1.2972  1.0263
 1715TIP3    H2 5152   1.360   4.591   0.023 -0.1214 -0.4051  0.2285
 1716TIP3   OH2 5153   1.013   5.003   4.549  0.0544  0.6389 -0.5759
 1716TIP3    H1 5154   1.028   4.917   4.590  2.9209  0.9779 -0.6906
 1716TIP3    H2 5155   1.076   5.061   4.593 -1.0768  2.4464 -1.2670
 1717TIP3   OH2 5156   4.009   2.093   2.383  0.8956  0.0402  0.0401
 1717TIP3    H1 5157   4.103   2.110   2.383  0.8442  0.5595  2.0206
 1717TIP3    H2 5158   3.999   2.011   2.432  0.3845 -0.8172 -1.4111
 1718TIP3   OH2 5159   5.361   0.296   3.621 -0.5953  0.3402 -0.1825
 1718TIP3    H1 5160   5.417   0.228   3.657  0.1913 -0.4247 -2.6355
 1718TIP3    H2 5161   5.273   0.275   3.653 -0.6356 -2.7424 -1.9070
 1719TIP3   OH2 5162   4.927   1.015   3.395 -0.0648  0.0548 -0.1652
 1719TIP3    H1 5163   4.944   1.091   3.339 -1.5130 -0.2784 -1.1075
 1719TIP3    H2 5164   4.919   1.051   3.483  0.6570  0.7989 -0.3868
 1720TIP3   OH2 5165   0.066   1.939   1.370  0.2076  0.2464  0.7882
 1720TIP3    H1 5166   0.130   1.907   1.307 -0.1392 -0.3851  0.7496
 1720TIP3    H2 5167  -0.017   1.937   1.322 -0.5540 -2.8035  2.0222
 1721TIP3   OH2 5168   6.106   3.609   1.318  0.1719  0.3548  0.7571
 1721TIP3    H1 5169   6.200   3.612   1.301 -0.0439 -0.1207 -0.5925
 1721TIP3    H2 5170   6.100   3.586   1.411  1.4067 -1.3435  0.4756
 1722TIP3   OH2 5171   5.784   3.490   2.562  0.0424 -0.0695  0.1436
 1722TIP3    H1 5172   5.775   3.440   2.480 -0.0646 -1.1355  0.7820
 1722TIP3    H2 5173   5.878   3.500   2.574  0.0544  0.2594 -0.2062
 1723TIP3   OH2 5174   3.567   3.530   0.383  0.0961 -0.3538 -0.0327
 1723TIP3    H1 5175   3.663   3.536   0.387  0.1303  0.8363 -1.5118
 1723TIP3    H2 5176   3.540   3.521   0.474  1.5924 -0.2889  0.4547
 1724TIP3   OH2 5177   3.735   2.609   3.773 -0.7148  0.3575 -0.3605
 1724TIP3    H1 5178   3.821   2.633   3.805 -0.8727  0.4697 -0.0130
 1724TIP3    H2 5179   3.741   2.514   3.756 -0.6312  0.2953  0.0086
 1725TIP3   OH2 5180   4.804   3.028   5.033  0.2537 -0.7266 -0.0139
 1725TIP3    H1 5181   4.740   2.986   4.976 -1.8119  1.7747  0.2601
 1725TIP3    H2 5182   4.822   2.963   5.101  0.0329 -2.4519 -1.5348
 1726TIP3   OH2 5183   3.890   4.442   5.182  0.0416  0.3307 -0.3812
 1726TIP3    H1 5184   3.808   4.392   5.182  0.1249  0.1862 -1.1227
 1726TIP3    H2 5185   3.900   4.472   5.092 -0.3251  2.2431  0.1744
 1727TIP3   OH2 5186   6.318   5.579   0.502 -0.2022  0.4735  0.5904
 1727TIP3    H1 5187   6.263   5.637   0.555 -1.3004  0.2895 -0.3094
 1727TIP3    H2 5188   6.388   5.552   0.561 -1.7482 -0.2466  2.1692
 1728TIP3   OH2 5189   2.667   2.496   2.568 -0.0880  0.1079  0.2338
 1728TIP3    H1 5190   2.620   2.424   2.526 -2.1870  0.8529  1.1699
 1728TIP3    H2 5191   2.694   2.460   2.653 -1.9362  0.6393  1.0863
 1729TIP3   OH2 5192   1.371   3.801   2.740 -0.0901 -0.6434 -0.0973
 1729TIP3    H1 5193   1.380   3.890   2.773  1.2749 -1.2863  1.4102
 1729TIP3    H2 5194   1.413   3.802   2.655 -0.4512  0.2342 -0.2769
 1730TIP3   OH2 5195   3.016   1.117   4.996 -0.3002  0.3758 -0.7651
 1730TIP3    H1 5196   2.979   1.042   4.949  0.7024 -0.2152 -0.6365
 1730TIP3    H2 5197   3.097   1.084   5.033 -1.5577  0.4948  2.3384
 1731TIP3   OH2 5198   6.282   1.515   3.029 -0.1012 -0.1985 -0.0026
 1731TIP3    H1 5199   6.229   1.547   2.956 -0.2251  1.4652  0.7736
 1731TIP3    H2 5200   6.223   1.461   3.081  0.0577 -1.6185 -1.2467
 1732TIP3   OH2 5201   4.378   1.418   1.828 -0.0988  0.4960  0.2013
 1732TIP3    H1 5202   4.364   1.326   1.853  2.3381  0.2015  0.7697
 1732TIP3    H2 5203   4.324   1.468   1.889 -0.5196 -0.5150  0.6833
 1733TIP3   OH2 5204   0.940   0.703   0.890  0.8822 -0.1651  0.1445
 1733TIP3    H1 5205   0.935   0.736   0.800 -0.7134  1.2288  0.6929
 1733TIP3    H2 5206   0.890   0.767   0.942  0.6257 -1.6508  1.8146
 1734TIP3   OH2 5207   0.036   4.236   4.146 -0.0071  0.1496  0.0524
 1734TIP3    H1 5208   0.114   4.181   4.141 -0.4474 -0.4797  0.0847
 1734TIP3    H2 5209   0.049   4.290   4.224 -0.1194 -0.7534  0.7141
 1735TIP3   OH2 5210   3.263   0.099   2.479  0.2065 -0.1191  0.0216
 1735TIP3    H1 5211   3.238   0.108   2.387 -0.8456 -0.0512  0.3059
 1735TIP3    H2 5212   3.201   0.036   2.515 -0.7024  1.3644  1.1745
 1736TIP3   OH2 5213   4.507   5.314   0.457  0.0616  0.8281 -0.2868
 1736TIP3    H1 5214   4.435   5.251   0.459 -0.9632  1.9537  0.2111
 1736TIP3    H2 5215   4.586   5.262   0.472 -0.8060 -0.2570  0.6847
 1737TIP3   OH2 5216   6.213   3.767   4.457  0.2474  0.0560  0.3446
 1737TIP3    H1 5217   6.130   3.727   4.433  1.0813 -1.3263 -0.3701
 1737TIP3    H2 5218   6.249   3.800   4.374 -0.0143  1.5472  0.7925
 1738TIP3   OH2 5219   3.728   5.843   0.420  0.6254 -0.0799 -0.0820
 1738TIP3    H1 5220   3.709   5.934   0.441  0.0924 -0.5541  1.6713
 1738TIP3    H2 5221   3.645   5.807   0.389 -0.1149 -0.7692  2.4366
 1739TIP3   OH2 5222   0.632   0.859   4.693 -0.3627 -0.2075  0.1153
 1739TIP3    H1 5223   0.582   0.919   4.638 -0.7589 -0.1495  0.5414
 1739TIP3    H2 5224   0.659   0.789   4.632  1.8248  1.3505 -0.8636
 1740TIP3   OH2 5225   5.130   1.756   1.891  0.5523  0.0206 -0.4558
 1740TIP3    H1 5226   5.120   1.663   1.872 -0.2283 -0.4992  2.1177
 1740TIP3    H2 5227   5.208   1.783   1.842  1.5986 -2.3043 -0.1704
 1741TIP3   OH2 5228   2.459   0.333   0.066  0.6748  0.1096 -0.2401
 1741TIP3    H1 5229   2.437   0.254   0.016 -0.2726  0.6807 -0.7671
 1741TIP3    H2 5230   2.376   0.381   0.073  1.5906  2.0432 -1.6959
 1742TIP3   OH2 5231   0.730   2.605   5.019  0.2517 -0.5397  0.1078
 1742TIP3    H1 5232   0.791   2.570   4.955  0.2732 -1.5602  0.6729
 1742TIP3    H2 5233   0.683   2.674   4.972  1.7326  0.1774 -0.3692
 1743TIP3   OH2 5234   2.411   3.404   2.172 -0.5470 -0.3608 -0.6217
 1743TIP3    H1 5235   2.343   3.384   2.107 -1.7129 -1.3261  0.8023
 1743TIP3    H2 5236   2.455   3.320   2.187 -0.5059 -0.2212  0.0547
 1744TIP3   OH2 5237   2.674   3.086   0.134  0.1073 -0.1245  0.2422
 1744TIP3    H1 5238   2.702   3.081   0.225  2.7110  1.5800 -0.3729
 1744TIP3    H2 5239   2.646   3.177   0.122 -2.5309 -0.8809 -0.1441
 1745TIP3   OH2 5240   4.656   0.043   4.447  0.2958 -0.4164  0.0702
 1745TIP3    H1 5241   4.579   0.061   4.501 -0.2575 -1.1487 -0.4629
 1745TIP3    H2 5242   4.621   0.028   4.360  1.1850  0.7798 -0.5176
 1746TIP3   OH2 5243   5.011   3.801   1.769 -0.4399 -0.3367 -0.5143
 1746TIP3    H1 5244   5.064   3.839   1.839 -0.5926 -0.3549 -0.3891
 1746TIP3    H2 5245   5.053   3.716   1.750 -0.8566 -0.6872  0.0966
 1747TIP3   OH2 5246   4.218   1.290   2.842  0.2398 -0.3896 -0.0229
 1747TIP3    H1 5247   4.207   1.383   2.820  1.0991  0.1913  1.8175
 1747TIP3    H2 5248   4.199   1.286   2.935 -1.1772 -2.3500 -0.3385
 1748TIP3   OH2 5249   2.993   4.690   1.348 -0.1180 -0.0813 -0.1220
 1748TIP3    H1 5250   3.019   4.633   1.421  0.7818 -0.3691 -0.6563
 1748TIP3    H2 5251   3.010   4.778   1.380 -2.2878 -0.0196  1.0218
 1749TIP3   OH2 5252   5.523   0.228   3.877  0.2915 -0.1702 -0.3024
 1749TIP3    H1 5253   5.577   0.284   3.822  2.8189 -0.5897  1.5693
 1749TIP3    H2 5254   5.460   0.287   3.919  0.7253  0.6970 -0.8564
 1750TIP3   OH2 5255   4.614   5.148   4.970  0.2624  0.3212 -0.3439
 1750TIP3    H1 5256   4.662   5.174   5.048  0.8101 -1.9572  0.1611
 1750TIP3    H2 5257   4.522   5.152   4.995  0.2988  1.9477 -0.3969
 1751TIP3   OH2 5258   2.886   5.677   2.258 -0.2213  0.1007 -0.0059
 1751TIP3    H1 5259   2.959   5.632   2.301  0.2028 -1.8861 -2.4974
 1751TIP3    H2 5260   2.842   5.608   2.208 -0.5839  2.1398 -2.7432
 1752TIP3   OH2 5261   2.363   1.326   0.631 -0.0676  0.1271  0.1128
 1752TIP3    H1 5262   2.371   1.234   0.656  0.6339  0.1813  0.1277
 1752TIP3    H2 5263   2.310   1.365   0.700 -1.0088 -0.4120 -0.2842
 1753TIP3   OH2 5264   3.931   5.760   0.590 -0.1258 -0.1162  0.3959
 1753TIP3    H1 5265   3.888   5.687   0.634  0.0233  0.6109  1.8142
 1753TIP3    H2 5266   3.866   5.794   0.529 -0.2312 -1.3430 -0.2110
 1754TIP3   OH2 5267   4.449   2.662   3.092 -0.0747 -0.5543  0.3201
 1754TIP3    H1 5268   4.456   2.752   3.125  0.9757 -0.5722  0.2006
 1754TIP3    H2 5269   4.514   2.657   3.022  0.5583 -1.6704  0.9519
 1755TIP3   OH2 5270   2.976   1.629   2.858 -0.0576  0.0534  0.0748
 1755TIP3    H1 5271   2.926   1.710   2.852 -0.8711 -0.4678 -0.3572
 1755TIP3    H2 5272   2.953   1.592   2.944  1.1777  0.8205  0.7592
 1756TIP3   OH2 5273   0.160   0.401   2.417  0.1074 -0.5789 -0.2642
 1756TIP3    H1 5274   0.110   0.406   2.336 -0.6975  1.2471  0.2900
 1756TIP3    H2 5275   0.095   0.401   2.487  0.8273 -0.3189  0.4312
 1757TIP3   OH2 5276   4.008   1.432   2.120 -0.7596  0.0594 -0.2232
 1757TIP3    H1 5277   4.003   1.426   2.215  1.2986  2.5239  0.1436
 1757TIP3    H2 5278   3.931   1.484   2.096 -0.5775  0.5664  0.2616
 1758TIP3   OH2 5279   4.396   0.858   4.497  0.5423 -0.2183 -0.2082
 1758TIP3    H1 5280   4.480   0.866   4.452  0.1397  0.4634 -0.8796
 1758TIP3    H2 5281   4.413   0.888   4.586  1.3017 -1.3647  0.0452
 1759TIP3   OH2 5282   5.934   5.415   4.803  0.2559  0.4452 -0.3881
 1759TIP3    H1 5283   6.012   5.423   4.748  0.0784 -0.9427 -0.8735
 1759TIP3    H2 5284   5.867   5.380   4.744 -0.0946 -0.5234  0.5682
 1760TIP3   OH2 5285   1.657   4.576   0.519 -0.6166  0.3101 -0.9163
 1760TIP3    H1 5286   1.726   4.634   0.488 -0.0535 -0.1741 -0.5936
 1760TIP3    H2 5287   1.626   4.616   0.600 -0.3831  0.2841 -0.8121
 1761TIP3   OH2 5288   1.180   2.924   1.669 -0.4317 -0.0696  0.4576
 1761TIP3    H1 5289   1.130   2.907   1.749 -0.9032  1.6319  0.5525
 1761TIP3    H2 5290   1.228   3.005   1.687 -0.7425  0.4822 -1.0579
 1762TIP3   OH2 5291   2.096   4.371   4.486  0.0559  0.1375 -0.4099
 1762TIP3    H1 5292   2.130   4.430   4.419 -0.0164 -0.5738 -1.0947
 1762TIP3    H2 5293   2.003   4.392   4.491  0.2254  0.8002  0.1182
 1763TIP3   OH2 5294   2.105   2.271   4.917 -0.4642  0.7288 -0.1996
 1763TIP3    H1 5295   2.062   2.208   4.975  1.6239  0.3801  1.0634
 1763TIP3    H2 5296   2.087   2.356   4.957 -1.9148  0.8469 -1.0129
 1764TIP3   OH2 5297   1.420   2.568   4.798  0.1074 -0.5836 -0.6045
 1764TIP3    H1 5298   1.474   2.646   4.784 -1.0755  0.5514  0.7503
 1764TIP3    H2 5299   1.450   2.506   4.732  2.0182  0.5210 -0.8584
 1765TIP3   OH2 5300   5.423   5.790   3.984 -0.5221 -0.1329 -0.2892
 1765TIP3    H1 5301   5.450   5.778   4.075 -0.6517  0.6301 -0.1463
 1765TIP3    H2 5302   5.340   5.741   3.976  0.0153 -1.0639 -0.2826
 1766TIP3   OH2 5303   0.189   1.614   3.201  0.0268  1.0177  0.0359
 1766TIP3    H1 5304   0.229   1.560   3.133  1.8492  1.1921  0.9094
 1766TIP3    H2 5305   0.102   1.635   3.167  1.1277  1.7440 -2.6083
 1767TIP3   OH2 5306   3.732   0.973   3.383  0.1087 -0.0378 -0.0099
 1767TIP3    H1 5307   3.652   1.025   3.378 -0.4644 -0.8680  0.2091
 1767TIP3    H2 5308   3.755   0.954   3.293 -0.0027  0.1079 -0.0692
 1768TIP3   OH2 5309   1.938   3.420   1.415  0.1097  0.2707  0.5216
 1768TIP3    H1 5310   1.916   3.507   1.447 -2.8022  0.0428 -0.6209
 1768TIP3    H2 5311   1.975   3.435   1.328  0.1736  0.3898  0.5686
 1769TIP3   OH2 5312   4.348   0.739   3.367  0.0306  0.2090 -0.0234
 1769TIP3    H1 5313   4.347   0.827   3.406 -0.5043  0.0992  0.2144
 1769TIP3    H2 5314   4.397   0.750   3.285 -0.2131  0.7707 -0.0988
 1770TIP3   OH2 5315   2.774   2.054   2.973  0.7248 -0.0650  0.3262
 1770TIP3    H1 5316   2.794   2.059   3.066  1.7399  1.5893  0.0569
 1770TIP3    H2 5317   2.856   2.026   2.932  0.5323  0.0461 -0.1475
 1771TIP3   OH2 5318   5.975   0.275   4.528  1.1756  0.0459 -0.2514
 1771TIP3    H1 5319   6.031   0.231   4.593  1.1674 -0.4083 -0.5488
 1771TIP3    H2 5320   6.033   0.339   4.487  0.8393  1.2582  1.1043
 1772TIP3   OH2 5321   6.022   5.188   0.082  0.2614 -0.5057 -0.5882
 1772TIP3    H1 5322   5.992   5.109   0.127  1.9702  0.2016  1.9759
 1772TIP3    H2 5323   5.943   5.241   0.072 -0.3676 -1.1888  0.5865
 1773TIP3   OH2 5324   2.873   4.144   2.716  0.0868 -0.2001 -0.0164
 1773TIP3    H1 5325   2.938   4.153   2.646 -0.1013  0.6021 -0.0891
 1773TIP3    H2 5326   2.908   4.074   2.772 -0.6625 -2.2213 -1.9091
 1774TIP3   OH2 5327   0.807   0.948   2.498  0.2693 -0.0022 -0.1215
 1774TIP3    H1 5328   0.745   1.009   2.536  1.7167  0.9764  0.7923
 1774TIP3    H2 5329   0.825   0.982   2.410 -0.8615 -0.5991 -0.5988
 1775TIP3   OH2 5330   3.272   5.521   0.342 -0.0937  0.6292  0.0550
 1775TIP3    H1 5331   3.326   5.492   0.269  0.0648 -1.9528  1.0858
 1775TIP3    H2 5332   3.211   5.449   0.357 -1.4730  1.9635  1.1835
 1776TIP3   OH2 5333   1.313   2.759   3.261  0.2192 -0.0925 -0.4450
 1776TIP3    H1 5334   1.301   2.822   3.332 -0.0861  0.5409 -1.0524
 1776TIP3    H2 5335   1.381   2.699   3.294  1.2613  1.1419 -0.2603
 1777TIP3   OH2 5336   5.138   1.100   2.624 -0.5926 -0.3369 -0.4115
 1777TIP3    H1 5337   5.133   1.040   2.697  1.9333  1.6504  1.5694
 1777TIP3    H2 5338   5.207   1.065   2.567  0.3136  0.2126  0.3258
 1778TIP3   OH2 5339   3.893   4.588   1.719  0.1143 -0.5723  0.3592
 1778TIP3    H1 5340   3.956   4.517   1.737 -0.1755 -0.8645  0.2211
 1778TIP3    H2 5341   3.948   4.663   1.699  0.4230 -1.0914 -0.7882
 1779TIP3   OH2 5342   5.005   1.409   0.522 -0.2803 -0.3974 -0.1817
 1779TIP3    H1 5343   5.007   1.427   0.616  0.0141  0.5899 -0.3617
 1779TIP3    H2 5344   5.090   1.440   0.490 -1.0069  0.8022 -1.0271
 1780TIP3   OH2 5345   0.940   0.831   2.234  0.0207  0.2379 -0.8171
 1780TIP3    H1 5346   0.858   0.879   2.225 -0.0723  0.0850 -0.8001
 1780TIP3    H2 5347   0.915   0.749   2.278  0.6606  1.5466  2.2249
 1781TIP3   OH2 5348   0.863   0.957   5.195  0.2100 -0.1771 -0.1015
 1781TIP3    H1 5349   0.893   1.048   5.194  2.4944 -0.8526  0.3403
 1781TIP3    H2 5350   0.812   0.948   5.115  0.6199  1.3034 -0.5618
 1782TIP3   OH2 5351   0.625   0.407   4.974  0.5540  0.1302  0.6691
 1782TIP3    H1 5352   0.646   0.495   5.004  0.3685  1.0302 -1.6791
 1782TIP3    H2 5353   0.705   0.376   4.931  0.6264 -0.8866  1.4861
 1783TIP3   OH2 5354   2.221   4.126   3.243 -0.4174 -0.6363  0.6283
 1783TIP3    H1 5355   2.285   4.166   3.303  0.6574 -1.6177  0.1899
 1783TIP3    H2 5356   2.272   4.106   3.164 -1.6674  0.0668 -0.3918
 1784TIP3   OH2 5357   5.590   2.647   2.555 -0.3371  0.2770 -0.7250
 1784TIP3    H1 5358   5.517   2.669   2.497 -0.3123  1.0013 -0.4943
 1784TIP3    H2 5359   5.570   2.694   2.636  1.3160  2.0617 -1.2679
 1785TIP3   OH2 5360   1.446   5.445   4.890  0.3236  0.7155  0.2739
 1785TIP3    H1 5361   1.395   5.494   4.955  2.7856  0.0498  2.9018
 1785TIP3    H2 5362   1.535   5.477   4.901  1.0960 -0.5887 -1.7048
 1786TIP3   OH2 5363   5.051   3.200   0.102 -0.9588  0.1677 -0.3947
 1786TIP3    H1 5364   5.022   3.290   0.084  0.5452  0.3983 -1.8867
 1786TIP3    H2 5365   5.032   3.152   0.021 -0.9275 -0.6499  0.0724
 1787TIP3   OH2 5366   2.212   5.543   1.620  0.5776 -0.0974 -0.3363
 1787TIP3    H1 5367   2.169   5.594   1.551 -1.8815 -1.2926  0.1903
 1787TIP3    H2 5368   2.214   5.453   1.586  1.2969 -0.3351  0.2991
 1788TIP3   OH2 5369   4.712   4.503   0.729  0.5068  0.1477  0.1734
 1788TIP3    H1 5370   4.726   4.501   0.634  0.0492  0.9899  0.0797
 1788TIP3    H2 5371   4.799   4.490   0.766  0.6554 -0.4202 -0.3615
 1789TIP3   OH2 5372   2.291   0.082   0.938  0.0044 -0.0502 -0.1504
 1789TIP3    H1 5373   2.266   0.115   0.852  0.3513  0.4638 -0.0536
 1789TIP3    H2 5374   2.355   0.013   0.919  2.1984  1.8994 -0.2290
 1790TIP3   OH2 5375   1.670   3.769   3.333 -0.2317  0.0230  0.5000
 1790TIP3    H1 5376   1.667   3.778   3.238 -0.5813  2.3755  0.6828
 1790TIP3    H2 5377   1.743   3.824   3.361 -1.4365  1.0912  1.7235
 1791TIP3   OH2 5378   1.022   0.870   4.899  0.1206 -0.0719  0.2892
 1791TIP3    H1 5379   1.020   0.795   4.840  0.6750  0.3948 -0.3375
 1791TIP3    H2 5380   0.961   0.932   4.861  0.3885  0.1840  0.2748
 1792TIP3   OH2 5381   5.385   3.804   4.631 -0.1867  0.2580  0.4060
 1792TIP3    H1 5382   5.321   3.745   4.671  0.5189 -0.4385  0.5506
 1792TIP3    H2 5383   5.437   3.747   4.574  1.0442  0.5686  1.1729
 1793TIP3   OH2 5384   0.681   1.676   1.568  0.0392  0.2779  0.1394
 1793TIP3    H1 5385   0.622   1.602   1.578  1.3761 -0.8217  0.2854
 1793TIP3    H2 5386   0.750   1.644   1.510 -0.1983  1.9653 -1.1360
 1794TIP3   OH2 5387   4.956   3.521   4.131 -0.2040  0.4271  0.2388
 1794TIP3    H1 5388   4.930   3.517   4.223 -0.0869  0.7210  0.2873
 1794TIP3    H2 5389   4.944   3.613   4.107 -1.0069  0.1939 -0.2688
 1795TIP3   OH2 5390   2.508   2.025   1.415  0.0818  0.3825 -0.3035
 1795TIP3    H1 5391   2.594   2.027   1.457  0.7126 -0.9504 -1.4513
 1795TIP3    H2 5392   2.476   2.115   1.420  1.3493  0.8042  0.5107
 1796TIP3   OH2 5393   5.837   2.780   2.509 -0.2990 -0.5656 -0.5864
 1796TIP3    H1 5394   5.851   2.693   2.547  0.5063  0.0909  0.7089
 1796TIP3    H2 5395   5.749   2.776   2.472 -1.0886 -1.3431  1.2288
 1797TIP3   OH2 5396   1.167   1.244   0.143 -0.1817  0.1577  0.1355
 1797TIP3    H1 5397   1.252   1.202   0.154  0.7238  1.9338  0.3516
 1797TIP3    H2 5398   1.125   1.239   0.229  0.6585  1.1572  0.6324
 1798TIP3   OH2 5399   5.900   1.042   0.040  0.0031  0.1966  0.3242
 1798TIP3    H1 5400   5.984   1.081   0.064  0.1552 -0.9763  1.8499
 1798TIP3    H2 5401   5.842   1.062   0.113 -1.1397  1.1730 -0.8004
 1799TIP3   OH2 5402   6.236   4.216  -0.006 -0.0805 -0.3279 -0.1451
 1799TIP3    H1 5403   6.216   4.237   0.085  1.4529  0.3798  0.0739
 1799TIP3    H2 5404   6.153   4.189  -0.044 -0.8826  0.0370  1.2855
 1800TIP3   OH2 5405   0.072   2.993   4.085  0.6628  0.1075  0.3264
 1800TIP3    H1 5406   0.073   3.042   4.002  0.0592  1.2345  0.9552
 1800TIP3    H2 5407   0.156   3.016   4.126  2.6215 -3.1554 -1.4053
 1801TIP3   OH2 5408   1.569   1.931   3.731  0.1726  0.1778 -0.4414
 1801TIP3    H1 5409   1.655   1.908   3.696 -0.1213 -2.2505  0.2563
 1801TIP3    H2 5410   1.567   1.891   3.818 -1.7698 -0.1289 -0.5738
 1802TIP3   OH2 5411   4.707   2.418   3.272  0.5061 -0.3048  0.1242
 1802TIP3    H1 5412   4.666   2.372   3.198  0.6772 -1.9300  0.9939
 1802TIP3    H2 5413   4.721   2.507   3.239  0.2577 -0.8781 -1.6828
 1803TIP3   OH2 5414   3.092   4.211   2.038 -0.2852  0.5944 -0.0354
 1803TIP3    H1 5415   3.187   4.221   2.033 -0.4060  1.4006 -0.9049
 1803TIP3    H2 5416   3.072   4.222   2.131  0.6267 -1.1941  0.4256
 1804TIP3   OH2 5417   5.810   5.535   3.727  0.2529 -0.1831  0.3200
 1804TIP3    H1 5418   5.727   5.557   3.685  0.9970 -0.9839 -1.6514
 1804TIP3    H2 5419   5.788   5.460   3.783 -0.7401  0.8828  1.4361
 1805TIP3   OH2 5420   3.292   2.850   3.829 -0.1877 -0.2953  0.0320
 1805TIP3    H1 5421   3.380   2.882   3.806  0.0548 -2.1008 -1.7950
 1805TIP3    H2 5422   3.237   2.876   3.755 -1.5288  1.7614  1.6285
 1806TIP3   OH2 5423   0.753   5.502   2.478 -0.4562 -0.1918 -0.1896
 1806TIP3    H1 5424   0.828   5.486   2.536 -0.9031 -0.1465  0.4136
 1806TIP3    H2 5425   0.682   5.524   2.538 -0.4015  2.0512 -0.8608
 1807TIP3   OH2 5426   5.086   2.687   0.803  0.1037 -0.4859  0.0659
 1807TIP3    H1 5427   5.112   2.706   0.713 -1.7185 -0.1290 -0.4139
 1807TIP3    H2 5428   4.997   2.652   0.796 -0.3626  0.2534  1.7731
 1808TIP3   OH2 5429   4.805   1.440   2.702 -0.2376  0.0346 -0.4680
 1808TIP3    H1 5430   4.897   1.417   2.689 -0.5217 -1.7512  0.3235
 1808TIP3    H2 5431   4.765   1.434   2.615 -0.0794 -1.7021 -0.4616
 1809TIP3   OH2 5432   3.150   1.473   0.296  0.3914  0.4930  0.3671
 1809TIP3    H1 5433   3.109   1.404   0.245  0.2945  0.7943  0.0328
 1809TIP3    H2 5434   3.239   1.441   0.314  0.1953  0.0866  0.6076
 1810TIP3   OH2 5435   1.916   5.251   4.073  0.4826 -0.3529  0.5442
 1810TIP3    H1 5436   1.884   5.305   4.001  0.2080 -0.2615  0.7303
 1810TIP3    H2 5437   1.837   5.210   4.109  0.7530 -1.3588  0.0234
 1811TIP3   OH2 5438   0.800   3.984   1.291  0.1448 -0.4094  0.6294
 1811TIP3    H1 5439   0.729   4.003   1.230  0.8248 -2.9874 -1.1085
 1811TIP3    H2 5440   0.869   4.045   1.267 -0.7941  0.9229  1.1782
 1812TIP3   OH2 5441   2.386   2.142   2.721 -0.7083  0.5811 -0.0319
 1812TIP3    H1 5442   2.408   2.226   2.761  1.0001  1.1707 -2.0228
 1812TIP3    H2 5443   2.363   2.164   2.631 -1.3700 -0.9850 -0.2788
 1813TIP3   OH2 5444   0.435   2.612   1.926  0.1770 -0.0413 -0.3047
 1813TIP3    H1 5445   0.415   2.671   1.999 -1.4003 -1.6381  0.6420
 1813TIP3    H2 5446   0.515   2.567   1.952  1.1190  1.2810 -0.8151
 1814TIP3   OH2 5447   5.699   1.168   4.554  0.2280  0.1985  0.5560
 1814TIP3    H1 5448   5.705   1.152   4.649 -0.3989  0.3415  0.6272
 1814TIP3    H2 5449   5.713   1.083   4.515 -1.7538 -0.3375  0.8824
 1815TIP3   OH2 5450   5.159   3.374   2.207 -0.4019  0.7129  0.0636
 1815TIP3    H1 5451   5.091   3.427   2.248 -0.7757  1.6530 -1.6672
 1815TIP3    H2 5452   5.113   3.328   2.136  0.2241 -0.8276  0.6077
 1816TIP3   OH2 5453   1.342   2.254   3.678  0.0025 -0.1141  0.1593
 1816TIP3    H1 5454   1.345   2.245   3.773  2.9716  0.3918  0.1987
 1816TIP3    H2 5455   1.359   2.166   3.644  0.9155  0.0528  0.1560
 1817TIP3   OH2 5456   2.462   3.140   2.658 -0.4289 -0.0286  0.1711
 1817TIP3    H1 5457   2.382   3.162   2.610 -0.1377  0.5984 -0.0380
 1817TIP3    H2 5458   2.508   3.078   2.601  0.5186  1.6485 -0.9998
 1818TIP3   OH2 5459   2.933   2.985   4.586  0.7197 -0.6687 -0.1662
 1818TIP3    H1 5460   2.919   2.993   4.492 -1.3408  0.2646  0.1754
 1818TIP3    H2 5461   2.920   2.892   4.605  0.8912 -0.8126 -0.7524
 1819TIP3   OH2 5462   0.421   0.320   1.038  0.4214  0.0800  0.5321
 1819TIP3    H1 5463   0.491   0.385   1.033  0.9454 -0.4238  1.0623
 1819TIP3    H2 5464   0.365   0.339   0.963  0.3865  1.3292  0.8492
 1820TIP3   OH2 5465   5.749   2.952   0.923  0.4898 -0.0695  0.1292
 1820TIP3    H1 5466   5.721   3.021   0.983 -0.9109 -0.9183  0.4836
 1820TIP3    H2 5467   5.838   2.930   0.952  1.3579  2.1653 -0.5669
 1821TIP3   OH2 5468   2.547   4.194   1.946 -0.6595 -0.5560 -0.1496
 1821TIP3    H1 5469   2.564   4.204   2.040  0.6971  0.0016 -0.4167
 1821TIP3    H2 5470   2.569   4.103   1.927  0.7584 -0.2259 -0.2103
 1822TIP3   OH2 5471   4.057   1.087   4.459  0.1570 -0.4983 -0.4506
 1822TIP3    H1 5472   4.133   1.141   4.435  0.0780 -0.3546 -0.3839
 1822TIP3    H2 5473   4.020   1.132   4.535 -0.6744  0.0850 -1.1738
 1823TIP3   OH2 5474   5.284   1.843   3.462  0.0601  0.3493  0.0977
 1823TIP3    H1 5475   5.330   1.840   3.546  0.5433 -1.6139 -0.1971
 1823TIP3    H2 5476   5.191   1.848   3.485 -0.0249 -2.7998  0.8774
 1824TIP3   OH2 5477   0.170   1.344   4.310  0.5637 -0.0137 -0.1204
 1824TIP3    H1 5478   0.138   1.335   4.400 -1.4896 -1.4394 -0.9103
 1824TIP3    H2 5479   0.244   1.285   4.305 -0.7867 -1.7987  0.0508
 1825TIP3   OH2 5480   1.537   5.794   2.933 -0.5571  0.5984  0.5619
 1825TIP3    H1 5481   1.502   5.878   2.962  1.2859  1.3730  0.7034
 1825TIP3    H2 5482   1.631   5.800   2.951 -0.1968 -1.0276 -0.5465
 1826TIP3   OH2 5483   2.631   0.329   3.230 -0.3874  0.6938 -0.7334
 1826TIP3    H1 5484   2.560   0.390   3.250 -1.2096 -0.8608  1.4199
 1826TIP3    H2 5485   2.589   0.258   3.182 -0.9001 -1.2493  2.2787
 1827TIP3   OH2 5486   0.100   0.665   2.143 -0.5575 -0.0793 -0.2127
 1827TIP3    H1 5487   0.104   0.575   2.111  1.2013  0.3613 -1.3549
 1827TIP3    H2 5488   0.122   0.719   2.067  0.3162  1.2096  0.9084
 1828TIP3   OH2 5489   0.464   5.578   3.877  0.6233  0.3474 -0.5155
 1828TIP3    H1 5490   0.437   5.502   3.825  0.4717 -0.8367  1.2185
 1828TIP3    H2 5491   0.391   5.639   3.870  0.4469  0.0568 -1.3555
 1829TIP3   OH2 5492   2.372   2.234   1.547  0.1963  0.1311 -0.1747
 1829TIP3    H1 5493   2.286   2.266   1.519  1.0582  1.1257 -1.8885
 1829TIP3    H2 5494   2.403   2.300   1.609 -0.4920 -0.5241  0.8853
 1830TIP3   OH2 5495   5.569   4.005   2.744  0.3656 -0.3514  0.5101
 1830TIP3    H1 5496   5.508   3.989   2.672 -0.5594  0.7640  1.0070
 1830TIP3    H2 5497   5.516   4.048   2.811  1.3108 -0.9266  1.6826
 1831TIP3   OH2 5498   4.522   3.357   4.579  0.0140  0.0930  0.3173
 1831TIP3    H1 5499   4.583   3.301   4.627  0.1471  0.4046  0.5141
 1831TIP3    H2 5500   4.516   3.317   4.492  0.3021 -0.0822  0.3766
 1832TIP3   OH2 5501   6.225   1.116   2.245  0.4489 -0.2268  0.2857
 1832TIP3    H1 5502   6.261   1.079   2.164 -0.7960 -0.8833  0.0214
 1832TIP3    H2 5503   6.302   1.134   2.299  1.5125  2.0471 -1.7649
 1833TIP3   OH2 5504   2.623   5.900   0.436 -0.3452  0.4890  0.7172
 1833TIP3    H1 5505   2.568   5.895   0.514  0.0473  0.9449  1.0289
 1833TIP3    H2 5506   2.701   5.948   0.464 -0.4481  1.1629 -0.0880
 1834TIP3   OH2 5507   5.599   4.270   0.618 -0.3774 -0.2841 -0.3949
 1834TIP3    H1 5508   5.522   4.320   0.595 -0.3772 -0.0282  0.1392
 1834TIP3    H2 5509   5.672   4.330   0.604 -0.1760 -0.8378 -1.8476
 1835TIP3   OH2 5510   5.865   3.936   1.523 -0.1930  0.2098  0.4466
 1835TIP3    H1 5511   5.867   4.026   1.555  2.6146  0.1796  0.6465
 1835TIP3    H2 5512   5.939   3.931   1.462 -0.2927 -1.9680  0.4263
 1836TIP3   OH2 5513   2.169   1.588   3.434 -0.0800 -0.3165 -0.2065
 1836TIP3    H1 5514   2.208   1.638   3.363 -1.9706  0.0210 -1.0511
 1836TIP3    H2 5515   2.160   1.651   3.505  1.2714 -0.5151  0.1869
 1837TIP3   OH2 5516   2.361   0.756   2.567 -0.0432  0.3255  0.4770
 1837TIP3    H1 5517   2.363   0.796   2.481 -0.9731 -1.4471 -0.4296
 1837TIP3    H2 5518   2.378   0.663   2.551  2.2776  0.2983  2.5052
 1838TIP3   OH2 5519   5.233   5.105   0.835  0.3784 -0.3761  0.6342
 1838TIP3    H1 5520   5.204   5.187   0.876  0.5281 -0.7533  1.5190
 1838TIP3    H2 5521   5.153   5.067   0.799 -0.0632 -0.8324  2.0274
 1839TIP3   OH2 5522   0.156   1.526   1.182  0.4749  0.5793 -0.3332
 1839TIP3    H1 5523   0.062   1.544   1.179  0.5179  0.7014 -1.3685
 1839TIP3    H2 5524   0.194   1.603   1.224  0.2916  1.4147 -1.6180
 1840TIP3   OH2 5525   0.720   4.640   2.478  0.1317  0.3551  0.3716
 1840TIP3    H1 5526   0.738   4.572   2.413  1.3213  1.1002 -0.1165
 1840TIP3    H2 5527   0.797   4.641   2.534 -0.0137  1.0864  0.5642
 1841TIP3   OH2 5528   2.643   2.910   4.847  0.0406  0.2924 -0.3882
 1841TIP3    H1 5529   2.547   2.913   4.849  0.0133  3.2601 -1.5097
 1841TIP3    H2 5530   2.671   2.982   4.904  1.5781  0.1462 -0.9166
 1842TIP3   OH2 5531   4.292   2.125   4.126 -0.4845 -0.2896 -0.4468
 1842TIP3    H1 5532   4.213   2.084   4.092 -0.7381 -0.5355  0.4057
 1842TIP3    H2 5533   4.360   2.059   4.116  0.2085  0.7116 -3.3475
 1843TIP3   OH2 5534   4.638   0.602   1.747 -0.3677  0.0284  0.0113
 1843TIP3    H1 5535   4.625   0.525   1.801  1.4814  0.4229  1.1063
 1843TIP3    H2 5536   4.571   0.664   1.776 -0.4244 -0.3631  0.7171
 1844TIP3   OH2 5537   2.044   1.692   3.668 -0.1736 -0.3750 -0.4656
 1844TIP3    H1 5538   2.021   1.698   3.761 -0.7253 -0.0705 -0.6211
 1844TIP3    H2 5539   2.116   1.754   3.657  1.6487 -2.2345  0.2874
 1845TIP3   OH2 5540   4.699   5.831   5.046 -0.1632  0.0334 -0.3574
 1845TIP3    H1 5541   4.773   5.893   5.042 -0.5493  0.6425  1.3150
 1845TIP3    H2 5542   4.622   5.887   5.049 -0.5051 -0.4773  1.5349
 1846TIP3   OH2 5543   5.537   5.558   1.822 -0.1783  0.0605 -0.5973
 1846TIP3    H1 5544   5.553   5.486   1.883 -0.4368  0.1693 -0.3994
 1846TIP3    H2 5545   5.620   5.605   1.817 -0.5470  0.8905  0.7633
 1847TIP3   OH2 5546   1.629   4.661   4.354 -0.2833  0.4944  0.2163
 1847TIP3    H1 5547   1.711   4.704   4.331  0.6835  0.0483  2.5445
 1847TIP3    H2 5548   1.614   4.684   4.446 -2.4996  0.1005  0.0300
 1848TIP3   OH2 5549   0.765   0.558   1.217  0.3712 -0.3595 -0.0572
 1848TIP3    H1 5550   0.759   0.465   1.194  1.8240 -0.4805 -0.0647
 1848TIP3    H2 5551   0.700   0.569   1.286  1.0287 -1.7027  0.8372
 1849TIP3   OH2 5552   4.067   1.783   2.856  0.2260 -0.2427  0.0806
 1849TIP3    H1 5553   4.100   1.873   2.848  3.8855 -1.5657 -1.9670
 1849TIP3    H2 5554   3.989   1.782   2.801  1.8860  1.0544 -2.5189
 1850TIP3   OH2 5555   1.220   0.652   3.563  0.8013 -0.0887 -0.1227
 1850TIP3    H1 5556   1.158   0.607   3.620  1.3699 -0.5822  0.1158
 1850TIP3    H2 5557   1.299   0.662   3.617  0.6957  1.1927 -0.1705
 1851TIP3   OH2 5558   6.325   3.137   0.389  0.3999  0.1098 -0.3425
 1851TIP3    H1 5559   6.252   3.083   0.420  0.8730 -0.4554 -0.1825
 1851TIP3    H2 5560   6.399   3.076   0.383  1.2808  0.9769  1.0199
 1852TIP3   OH2 5561   5.227   1.023   1.808  0.3862  0.0580  0.1375
 1852TIP3    H1 5562   5.234   1.023   1.903  0.8633  0.5848  0.1087
 1852TIP3    H2 5563   5.288   0.955   1.779 -3.9178 -4.4836  0.4150
 1853TIP3   OH2 5564   3.023   0.195   1.932  0.8240 -1.2458 -0.6419
 1853TIP3    H1 5565   3.070   0.274   1.904  1.2934 -1.5194 -0.6325
 1853TIP3    H2 5566   3.035   0.133   1.860  0.7688 -1.4352 -0.4871
 1854TIP3   OH2 5567   5.109   1.731   0.562 -0.2380 -0.2805 -1.0482
 1854TIP3    H1 5568   5.142   1.819   0.548  1.2646 -0.6090  0.2432
 1854TIP3    H2 5569   5.084   1.701   0.474  0.5565  0.9029 -1.7056
 1855TIP3   OH2 5570   6.270   3.174   1.184 -0.2435  0.3654 -0.4547
 1855TIP3    H1 5571   6.344   3.183   1.244 -1.1284  1.8541  0.4926
 1855TIP3    H2 5572   6.194   3.199   1.237 -1.6755 -2.5813 -0.9295
 1856TIP3   OH2 5573   2.585   2.850   0.415  0.3801  0.1538 -0.2140
 1856TIP3    H1 5574   2.585   2.945   0.412 -3.3527  0.3466  0.6738
 1856TIP3    H2 5575   2.601   2.823   0.324  0.0678  1.6870 -0.7499
 1857TIP3   OH2 5576   1.855   1.653   3.417  0.5432 -0.2289 -0.1117
 1857TIP3    H1 5577   1.916   1.605   3.473  1.1616  0.9120  0.2202
 1857TIP3    H2 5578   1.818   1.586   3.360  2.0325 -0.9855 -0.2535
 1858TIP3   OH2 5579   0.844   4.751   2.947 -0.2043 -0.7393  0.0146
 1858TIP3    H1 5580   0.813   4.661   2.959  0.6079 -0.8785  1.1641
 1858TIP3    H2 5581   0.934   4.743   2.917 -0.1241 -0.2990  0.1244
 1859TIP3   OH2 5582   5.025   0.477   2.173  0.1924 -0.0289 -0.4801
 1859TIP3    H1 5583   5.000   0.554   2.225 -0.9432 -0.9693  0.4204
 1859TIP3    H2 5584   5.084   0.428   2.230 -0.3141 -0.5968 -0.4356
 1860TIP3   OH2 5585   5.295   0.744   5.022 -0.3010 -0.3568  1.0294
 1860TIP3    H1 5586   5.376   0.703   4.991 -0.2206  0.5804 -0.0960
 1860TIP3    H2 5587   5.319   0.835   5.039 -1.9596  1.3921 -3.9940
 1861TIP3   OH2 5588   3.361   3.876   1.945  0.4792 -0.0442  0.0766
 1861TIP3    H1 5589   3.340   3.926   2.024 -1.6626  0.4333 -0.7198
 1861TIP3    H2 5590   3.387   3.790   1.978 -0.6217  0.0605  1.3203
 1862TIP3   OH2 5591   5.703   3.601   4.360 -0.4739  0.3029  0.2012
 1862TIP3    H1 5592   5.635   3.638   4.415 -0.2336  2.6377 -0.9492
 1862TIP3    H2 5593   5.675   3.511   4.344 -1.3895  0.0840  2.6713
 1863TIP3   OH2 5594   3.716   1.148   2.114 -0.3200  0.0115 -0.3468
 1863TIP3    H1 5595   3.748   1.058   2.125 -3.1059 -1.0343 -0.0393
 1863TIP3    H2 5596   3.626   1.138   2.084 -0.3784  2.7466 -1.3779
 1864TIP3   OH2 5597   0.981   1.922   4.002 -0.1065  0.3865 -0.3541
 1864TIP3    H1 5598   1.012   1.863   3.934 -2.2921 -0.0260 -1.0536
 1864TIP3    H2 5599   0.896   1.888   4.027 -0.0391  1.4378  1.4976
 1865TIP3   OH2 5600   3.194   3.600   2.236 -0.3374  0.9294 -0.0806
 1865TIP3    H1 5601   3.132   3.657   2.191 -0.7159  1.0743  0.6133
 1865TIP3    H2 5602   3.183   3.515   2.194 -0.6628  1.0694 -0.2851
 1866TIP3   OH2 5603   1.591   2.514   3.014 -0.6644 -0.2352 -0.1775
 1866TIP3    H1 5604   1.500   2.542   3.021 -0.0816  1.6434  0.4221
 1866TIP3    H2 5605   1.633   2.546   3.094  0.5549 -0.9754 -0.4864
 1867TIP3   OH2 5606   4.288   4.292   0.802 -0.3608 -0.1432  0.3188
 1867TIP3    H1 5607   4.354   4.355   0.832  0.2463 -0.2916 -0.6332
 1867TIP3    H2 5608   4.298   4.291   0.707 -1.8657 -0.0590  0.1423
 1868TIP3   OH2 5609   4.232   4.035   2.624 -0.2037 -0.1499 -0.6168
 1868TIP3    H1 5610   4.140   4.043   2.646 -0.2808  2.1393 -1.4640
 1868TIP3    H2 5611   4.247   4.102   2.557  2.3903  0.7039  0.6407
 1869TIP3   OH2 5612   5.569   3.145   0.693 -0.2730 -0.0384 -0.1655
 1869TIP3    H1 5613   5.660   3.172   0.708 -0.5999  1.6830 -1.0080
 1869TIP3    H2 5614   5.575   3.082   0.621  0.1007  1.7420 -1.7553
 1870TIP3   OH2 5615   5.266   0.813   2.130 -0.7111  0.0541  0.7011
 1870TIP3    H1 5616   5.288   0.738   2.075 -1.8949 -0.7309  1.2449
 1870TIP3    H2 5617   5.189   0.852   2.087  0.1487  1.2266  0.1907
 1871TIP3   OH2 5618   1.812   0.966   0.162 -0.2294 -0.4375  0.4159
 1871TIP3    H1 5619   1.853   0.994   0.080 -1.0412 -0.3255  0.0355
 1871TIP3    H2 5620   1.786   0.875   0.146 -0.3827 -0.4178  0.5452
 1872TIP3   OH2 5621   1.801   5.823   4.880 -0.0398  0.0419 -0.4990
 1872TIP3    H1 5622   1.749   5.845   4.957 -0.4131 -0.6294 -0.5502
 1872TIP3    H2 5623   1.766   5.879   4.810 -2.4994 -2.1697 -1.1884
 1873TIP3   OH2 5624   3.457   0.300   2.941  0.2728 -0.1815 -0.2431
 1873TIP3    H1 5625   3.367   0.324   2.921  0.7467  0.8822 -1.2493
 1873TIP3    H2 5626   3.460   0.289   3.036 -1.1941 -1.5085 -0.3148
 1874TIP3   OH2 5627   3.743   1.409   3.156 -0.6753 -0.2542  0.2735
 1874TIP3    H1 5628   3.781   1.377   3.238 -2.7646 -0.9220  1.0488
 1874TIP3    H2 5629   3.811   1.393   3.090  0.5486 -0.9277  1.6481
 1875TIP3   OH2 5630   3.152   2.684   0.904 -0.4256  0.4792 -0.1485
 1875TIP3    H1 5631   3.116   2.645   0.983 -0.6815 -0.4648 -0.7106
 1875TIP3    H2 5632   3.165   2.610   0.844  0.6221  1.0477 -0.6674
 1876TIP3   OH2 5633   2.486   5.759   1.431 -0.0132 -0.2183 -0.0138
 1876TIP3    H1 5634   2.498   5.760   1.526  1.4416 -0.4987 -0.1774
 1876TIP3    H2 5635   2.399   5.721   1.419 -0.4107  0.2376  1.2117
 1877TIP3   OH2 5636   5.208   5.213   1.803  0.3656 -0.3134  0.5145
 1877TIP3    H1 5637   5.225   5.277   1.733  0.6220 -0.6789  0.2391
 1877TIP3    H2 5638   5.288   5.161   1.807 -0.7483 -2.2889 -1.0265
 1878TIP3   OH2 5639   5.117   3.579   5.059 -0.1534 -0.4014  0.0056
 1878TIP3    H1 5640   5.035   3.613   5.093 -0.3868 -2.0063  1.1986
 1878TIP3    H2 5641   5.181   3.597   5.128  0.7007  1.4373 -1.1897
 1879TIP3   OH2 5642   2.933   4.899   4.744 -0.4222 -0.0228 -0.1935
 1879TIP3    H1 5643   2.947   4.914   4.837  1.9753  0.3096 -0.5420
 1879TIP3    H2 5644   2.870   4.967   4.718 -0.3849  0.4845  0.9752
 1880TIP3   OH2 5645   2.314   4.379   1.280  0.2930  0.1488  0.2022
 1880TIP3    H1 5646   2.328   4.473   1.270  0.1833  0.3558  1.7695
 1880TIP3    H2 5647   2.354   4.358   1.365 -0.2075 -1.1001  0.1416
 1881TIP3   OH2 5648   4.388   0.639   0.477  0.0366 -0.2727 -0.1046
 1881TIP3    H1 5649   4.442   0.717   0.461 -1.1478  0.9615  1.5404
 1881TIP3    H2 5650   4.302   0.674   0.503 -1.3844 -2.1622 -1.9438
 1882TIP3   OH2 5651   0.589   4.963   0.189 -0.2808 -0.0877 -0.1320
 1882TIP3    H1 5652   0.683   4.978   0.196 -0.2165  0.3242 -1.4790
 1882TIP3    H2 5653   0.581   4.879   0.144 -0.5643 -0.3315  0.3705
 1883TIP3   OH2 5654   2.308   1.362   2.562  0.2473  0.7150  0.2238
 1883TIP3    H1 5655   2.342   1.273   2.570 -0.0325  0.4905 -0.8961
 1883TIP3    H2 5656   2.230   1.363   2.618  0.6827  0.4876  0.8404
 1884TIP3   OH2 5657   3.546   5.423   3.781  0.1538 -0.6118 -0.0683
 1884TIP3    H1 5658   3.467   5.383   3.745 -1.4441  0.7478  1.7579
 1884TIP3    H2 5659   3.589   5.463   3.705 -1.6652 -0.1599 -0.9280
 1885TIP3   OH2 5660   6.238   3.514   3.674 -0.0679  0.6535 -0.0029
 1885TIP3    H1 5661   6.193   3.597   3.687 -1.4272 -0.1607  0.7531
 1885TIP3    H2 5662   6.272   3.518   3.585  0.5246  2.2913  0.2638
 1886TIP3   OH2 5663   2.513   5.858   0.682  0.4442 -0.1681 -0.5441
 1886TIP3    H1 5664   2.604   5.858   0.713  0.8685 -1.2185 -1.6469
 1886TIP3    H2 5665   2.466   5.806   0.747  0.7115  0.0972 -0.1357
 1887TIP3   OH2 5666   0.415   1.705   4.557 -0.1338 -0.5229 -0.0813
 1887TIP3    H1 5667   0.407   1.622   4.603  0.1818  0.3036  1.5101
 1887TIP3    H2 5668   0.507   1.730   4.566 -0.8113  1.5231  2.2906
 1888TIP3   OH2 5669   1.998   5.403   4.835 -0.1556  0.3082  0.3038
 1888TIP3    H1 5670   1.939   5.441   4.900 -0.7019 -0.3040  0.1792
 1888TIP3    H2 5671   2.044   5.478   4.797 -2.0601  1.0007 -0.7870
 1889TIP3   OH2 5672   6.331   2.712   1.967  0.2333  0.0758  0.2498
 1889TIP3    H1 5673   6.256   2.771   1.968 -1.0534 -1.4798  0.4027
 1889TIP3    H2 5674   6.331   2.674   1.879  1.9518  1.3509 -0.3536
 1890TIP3   OH2 5675   3.829   3.325   0.154 -0.2231  0.0469 -0.0524
 1890TIP3    H1 5676   3.761   3.390   0.139 -0.8487 -0.5365  0.2091
 1890TIP3    H2 5677   3.849   3.331   0.247  2.6672  2.6915 -0.6802
 1891TIP3   OH2 5678   2.690   5.483   2.107 -0.3380 -0.0449  0.2095
 1891TIP3    H1 5679   2.711   5.402   2.154  1.5383  1.0432  1.3546
 1891TIP3    H2 5680   2.639   5.534   2.169  0.6856  0.6845  0.4771
 1892TIP3   OH2 5681   2.620   4.741   3.188  0.4795 -0.1533  0.0648
 1892TIP3    H1 5682   2.629   4.656   3.230  0.8268 -1.2824 -2.1243
 1892TIP3    H2 5683   2.525   4.753   3.177  0.3528  0.3936  1.5244
 1893TIP3   OH2 5684   1.676   2.228   4.673  0.5056  0.1037 -0.1533
 1893TIP3    H1 5685   1.701   2.318   4.693  1.0158 -0.1059  0.2012
 1893TIP3    H2 5686   1.598   2.235   4.619  0.5314  0.7572 -0.1077
 1894TIP3   OH2 5687   5.522   1.099   1.504 -0.0272  0.1647  0.0762
 1894TIP3    H1 5688   5.465   1.092   1.427 -1.0641  0.8506  0.7516
 1894TIP3    H2 5689   5.548   1.009   1.523 -2.1215 -0.3775  0.6371
 1895TIP3   OH2 5690   4.317   5.130   0.456  0.5372  0.1394  0.1723
 1895TIP3    H1 5691   4.378   5.059   0.474 -1.8071 -1.4966  2.3618
 1895TIP3    H2 5692   4.242   5.087   0.415  0.4337  1.9432 -1.6625
 1896TIP3   OH2 5693   4.356   4.190   3.597  0.2069  0.4802  0.4046
 1896TIP3    H1 5694   4.319   4.191   3.686  0.2223  0.2006  0.4133
 1896TIP3    H2 5695   4.410   4.111   3.594 -0.9250 -0.3099 -0.3162
 1897TIP3   OH2 5696   1.239   1.787   3.352 -0.4476 -0.0092 -0.0164
 1897TIP3    H1 5697   1.208   1.696   3.359 -1.3452  0.3414  0.7014
 1897TIP3    H2 5698   1.208   1.816   3.266  0.1748 -0.4922 -0.4154
 1898TIP3   OH2 5699   1.213   1.354   1.553 -0.1596  0.3449  0.4764
 1898TIP3    H1 5700   1.217   1.435   1.603  1.5399 -0.6847  2.1353
 1898TIP3    H2 5701   1.263   1.372   1.473  0.2764  0.9121  0.8720
 1899TIP3   OH2 5702   2.691   2.298   2.261 -0.0704  0.0077 -0.4515
 1899TIP3    H1 5703   2.636   2.259   2.329  2.3194 -1.4616  0.8125
 1899TIP3    H2 5704   2.740   2.367   2.307  2.7755 -2.0648 -0.0849
 1900TIP3   OH2 5705   5.516   0.969   0.755 -0.4566 -0.2744  0.0228
 1900TIP3    H1 5706   5.586   0.909   0.729 -0.2667 -0.0985  0.1293
 1900TIP3    H2 5707   5.435   0.921   0.736 -0.3010 -0.7093  0.4533
 1901TIP3   OH2 5708   4.742   4.860   3.925 -0.5744 -0.0305 -0.2073
 1901TIP3    H1 5709   4.834   4.857   3.949 -0.6302 -0.5096 -0.0354
 1901TIP3    H2 5710   4.719   4.769   3.905 -0.8683  0.1631 -0.7852
 1902TIP3   OH2 5711   6.319   2.748   4.177 -0.0662  0.0539  0.2754
 1902TIP3    H1 5712   6.378   2.810   4.134  0.0835 -0.4685 -0.2825
 1902TIP3    H2 5713   6.253   2.727   4.111  1.2413 -2.2329 -0.4040
 1903TIP3   OH2 5714   0.470   2.964   3.414 -0.0738  0.5140  0.2238
 1903TIP3    H1 5715   0.435   3.037   3.465  2.0083  1.0409  0.9830
 1903TIP3    H2 5716   0.494   3.004   3.330  0.0391  0.4705  0.2357
 1904TIP3   OH2 5717   3.428   2.887   5.155 -0.1674  0.4928  0.1822
 1904TIP3    H1 5718   3.405   2.977   5.180 -0.3649  0.4624  0.1123
 1904TIP3    H2 5719   3.517   2.894   5.121  0.7057  0.3066  2.2676
 1905TIP3   OH2 5720   2.700   2.207   4.766 -0.0407  0.2424 -0.1301
 1905TIP3    H1 5721   2.617   2.239   4.802 -0.9203  0.3651 -2.0870
 1905TIP3    H2 5722   2.766   2.229   4.831 -1.8649 -2.3685  2.8657
 1906TIP3   OH2 5723   2.032   3.626   2.381  0.2533 -0.3562 -0.5274
 1906TIP3    H1 5724   2.126   3.631   2.362  0.1719  1.3437 -0.6926
 1906TIP3    H2 5725   2.006   3.538   2.353  2.1113 -1.4923  1.0978
 1907TIP3   OH2 5726   1.767   5.962   2.234  0.0576 -0.3459  0.0816
 1907TIP3    H1 5727   1.755   6.042   2.286  0.4615 -0.6166  0.5932
 1907TIP3    H2 5728   1.801   5.898   2.296 -1.4165 -1.2851 -0.0303
 1908TIP3   OH2 5729   4.125   0.892   2.081 -0.0306  0.0495 -0.0482
 1908TIP3    H1 5730   4.050   0.951   2.076 -1.6157 -1.6709  1.7931
 1908TIP3    H2 5731   4.088   0.804   2.067  1.5167 -0.9045  1.4932
 1909TIP3   OH2 5732   1.581   4.498   2.413  0.6462  0.1061  0.3306
 1909TIP3    H1 5733   1.640   4.438   2.368  0.2898 -0.3287  0.4357
 1909TIP3    H2 5734   1.495   4.481   2.374  0.8084  1.6949 -0.8021
 1910TIP3   OH2 5735   2.040   4.499   3.770  0.5351  0.6481  0.6863
 1910TIP3    H1 5736   1.970   4.555   3.738 -0.2618  1.1016  3.0812
 1910TIP3    H2 5737   1.998   4.414   3.785  0.1039  1.2552  3.3280
 1911TIP3   OH2 5738   3.073   4.574   2.972 -0.0503  0.6512 -0.6450
 1911TIP3    H1 5739   3.024   4.492   2.973 -0.7945  1.0601  1.2664
 1911TIP3    H2 5740   3.121   4.573   2.889 -1.1158 -1.0595 -1.2845
 1912TIP3   OH2 5741   4.893   1.089   2.892  0.2335 -0.2146  0.0108
 1912TIP3    H1 5742   4.812   1.058   2.931 -0.9753 -0.2050 -2.3474
 1912TIP3    H2 5743   4.890   1.184   2.900  0.3532 -0.2495  0.5148
 1913TIP3   OH2 5744   2.945   1.345   0.494  0.0784  0.2461  0.1140
 1913TIP3    H1 5745   3.016   1.282   0.493 -0.4594 -0.3648 -0.5337
 1913TIP3    H2 5746   2.958   1.398   0.415 -0.4610 -0.1910 -0.2758
 1914TIP3   OH2 5747   1.594   1.754   1.442  0.1012  1.0257  0.1669
 1914TIP3    H1 5748   1.583   1.659   1.448  0.0160  1.0633  0.6032
 1914TIP3    H2 5749   1.663   1.774   1.505  0.2550  1.2306 -0.0648
 1915TIP3   OH2 5750   0.045   0.916   3.081 -0.1072  0.7068 -0.0678
 1915TIP3    H1 5751  -0.031   0.866   3.110 -0.6290 -0.2097 -2.8108
 1915TIP3    H2 5752   0.010   1.002   3.059 -0.0479  0.8091  0.2361
 1916TIP3   OH2 5753   5.631   2.112   0.126  0.1634  0.3148  0.2492
 1916TIP3    H1 5754   5.652   2.166   0.202 -1.3702  1.0158  0.2209
 1916TIP3    H2 5755   5.633   2.022   0.159 -3.0442  0.7057  1.8971
 1917TIP3   OH2 5756   4.136   5.234   1.128  0.7441  0.4754 -0.4642
 1917TIP3    H1 5757   4.220   5.253   1.086  1.4440  1.5283  1.2766
 1917TIP3    H2 5758   4.159   5.189   1.209 -0.3696  0.7875  0.0519
 1918TIP3   OH2 5759   0.472   2.971   1.764  0.0191  0.6459 -0.1561
 1918TIP3    H1 5760   0.525   2.898   1.732  2.0510  2.1460 -0.4108
 1918TIP3    H2 5761   0.385   2.934   1.776  0.2248 -1.0780 -3.1456
 1919TIP3   OH2 5762   3.968   3.648   0.654  0.3271 -0.5009 -0.2821
 1919TIP3    H1 5763   4.059   3.632   0.679  0.0749  0.3346  1.2618
 1919TIP3    H2 5764   3.919   3.577   0.696 -0.1138  0.9768  1.8339
 1920TIP3   OH2 5765   0.944   1.871   4.641  0.9829 -0.3443 -0.3524
 1920TIP3    H1 5766   0.988   1.890   4.724 -1.6782  0.3377  1.0241
 1920TIP3    H2 5767   0.946   1.776   4.633  0.0651 -0.5319  1.2757
 1921TIP3   OH2 5768   5.611   3.244   1.025  0.5795  0.0207 -0.0030
 1921TIP3    H1 5769   5.672   3.260   0.953 -0.4577  1.3881 -0.6398
 1921TIP3    H2 5770   5.650   3.288   1.100  1.0932 -0.3838 -0.0299
 1922TIP3   OH2 5771   4.232   5.919   0.322 -0.1866  0.2854  0.0704
 1922TIP3    H1 5772   4.215   6.005   0.360 -0.1219 -0.4899  1.9208
 1922TIP3    H2 5773   4.182   5.858   0.377 -0.5618 -0.8455 -1.4470
 1923TIP3   OH2 5774   4.117   0.154   0.947 -0.1153 -0.4250 -0.7138
 1923TIP3    H1 5775   4.168   0.201   0.881 -0.0480 -2.4058 -2.1600
 1923TIP3    H2 5776   4.041   0.121   0.899  0.3264 -2.5742 -0.0460
 1924TIP3   OH2 5777   5.945   0.882   3.605 -0.6433  0.3354 -0.1015
 1924TIP3    H1 5778   5.967   0.813   3.542 -1.5140  1.5597 -1.7991
 1924TIP3    H2 5779   5.946   0.963   3.555  0.8420  1.7052  1.9452
 1925TIP3   OH2 5780   3.772   1.311   3.946 -0.2026 -0.0040 -0.4288
 1925TIP3    H1 5781   3.697   1.369   3.963 -0.2395  0.9455 -3.3048
 1925TIP3    H2 5782   3.760   1.283   3.856  2.5571 -0.3947 -0.7515
 1926TIP3   OH2 5783   3.340   4.490   3.061  0.4978 -0.0758 -0.0359
 1926TIP3    H1 5784   3.258   4.513   3.017  1.4504 -1.1546 -2.5525
 1926TIP3    H2 5785   3.312   4.459   3.147 -1.7280 -0.1504 -0.7091
 1927TIP3   OH2 5786   5.337   1.476   0.768 -0.2024  0.0081 -0.7824
 1927TIP3    H1 5787   5.405   1.541   0.786  0.0404 -1.0386  2.7811
 1927TIP3    H2 5788   5.380   1.410   0.714  1.4115 -0.1839  0.6479
 1928TIP3   OH2 5789   3.881   2.012   3.090 -0.1452  0.2218  0.3094
 1928TIP3    H1 5790   3.955   2.056   3.048  0.6013 -0.8271  0.4914
 1928TIP3    H2 5791   3.859   1.941   3.030 -0.8535  0.3742  0.3809
 1929TIP3   OH2 5792   4.588   0.483   0.291 -0.0246  0.2024 -0.2995
 1929TIP3    H1 5793   4.614   0.555   0.349  0.3276 -0.3743  0.2722
 1929TIP3    H2 5794   4.645   0.493   0.214  0.5041  0.1318  0.0779
 1930TIP3   OH2 5795   2.750   3.253   4.373 -0.0321  0.4828  0.6240
 1930TIP3    H1 5796   2.820   3.294   4.322  2.3463 -0.8689  2.5496
 1930TIP3    H2 5797   2.760   3.159   4.356 -1.8391  0.2945  0.4709
 1931TIP3   OH2 5798   3.284   1.183   3.460  0.0313 -0.5701  0.3775
 1931TIP3    H1 5799   3.310   1.145   3.544  2.2701 -0.8996 -0.3969
 1931TIP3    H2 5800   3.327   1.268   3.458 -0.1379 -0.5001 -0.3853
 1932TIP3   OH2 5801   3.150   2.830   1.779  0.0772 -0.2777  0.1994
 1932TIP3    H1 5802   3.154   2.924   1.760 -1.7555  0.1211  1.5481
 1932TIP3    H2 5803   3.179   2.788   1.698  2.8965  1.4246  0.1824
 1933TIP3   OH2 5804   0.577   3.899   3.312  0.2945 -0.2221 -0.5958
 1933TIP3    H1 5805   0.552   3.818   3.357 -0.5120  1.2209  1.7305
 1933TIP3    H2 5806   0.612   3.954   3.381  1.8849  1.0499 -2.3286
 1934TIP3   OH2 5807   3.474   1.003   4.733  0.8209  0.4217  0.0290
 1934TIP3    H1 5808   3.518   0.923   4.704  1.2775  0.5303  0.4184
 1934TIP3    H2 5809   3.422   1.030   4.657 -0.1867 -0.8227  0.2356
 1935TIP3   OH2 5810   3.019   0.270   3.640  0.3402 -0.0335  1.0650
 1935TIP3    H1 5811   3.054   0.246   3.726 -0.5456 -0.4548  1.3279
 1935TIP3    H2 5812   2.952   0.203   3.622 -1.8467  1.8673  1.5833
 1936TIP3   OH2 5813   3.850   3.097   0.818 -0.4701  0.1236 -0.2068
 1936TIP3    H1 5814   3.874   3.185   0.847 -2.3975  1.3465 -2.0426
 1936TIP3    H2 5815   3.808   3.057   0.895 -1.2360  1.5141  0.1297
 1937TIP3   OH2 5816   1.305   4.507   0.864  0.1161  0.6270  0.4607
 1937TIP3    H1 5817   1.266   4.564   0.931 -0.0254  0.3125  0.6464
 1937TIP3    H2 5818   1.399   4.519   0.874  0.0727  2.1608 -0.6464
 1938TIP3   OH2 5819   5.857   1.562   1.030 -0.4426  0.2100  0.8371
 1938TIP3    H1 5820   5.902   1.642   1.057  1.6470  0.3896 -2.5764
 1938TIP3    H2 5821   5.922   1.493   1.042 -0.8248 -0.2952  0.0819
 1939TIP3   OH2 5822   5.052   5.846   3.954  0.3685 -0.0838 -0.2918
 1939TIP3    H1 5823   5.009   5.762   3.937  0.5455 -0.6881  1.9653
 1939TIP3    H2 5824   5.077   5.877   3.867 -0.4127 -1.9770 -1.2655
 1940TIP3   OH2 5825   4.057   4.178   0.178  0.2136 -0.4100 -0.5544
 1940TIP3    H1 5826   4.148   4.162   0.152 -0.1225  1.3042 -3.0719
 1940TIP3    H2 5827   4.006   4.117   0.125 -0.1364 -1.9970  1.4926
 1941TIP3   OH2 5828   1.216   0.873   5.108 -0.5693  0.2291 -0.0490
 1941TIP3    H1 5829   1.149   0.886   5.041  0.0674  0.6878 -0.5984
 1941TIP3    H2 5830   1.281   0.816   5.068  0.3090  1.2987 -0.1808
 1942TIP3   OH2 5831   2.554   0.316   0.322  0.1129 -0.4401 -0.5689
 1942TIP3    H1 5832   2.549   0.325   0.227  1.2718  0.0485 -0.5929
 1942TIP3    H2 5833   2.471   0.275   0.346 -0.0682 -0.8504 -1.8193
 1943TIP3   OH2 5834   3.161   3.452   4.740  0.1685  0.3038 -0.0554
 1943TIP3    H1 5835   3.201   3.470   4.825 -0.6639 -1.6205  0.8122
 1943TIP3    H2 5836   3.218   3.385   4.701 -0.3386  0.0090 -0.2909
 1944TIP3   OH2 5837   2.676   4.572   0.306 -0.0048  0.5070 -0.5182
 1944TIP3    H1 5838   2.582   4.562   0.321  0.2950 -1.7957  0.1434
 1944TIP3    H2 5839   2.712   4.596   0.392  0.2805 -1.0428 -0.1814
 1945TIP3   OH2 5840   5.405   0.033   3.726 -0.9807 -0.2127  0.3266
 1945TIP3    H1 5841   5.448   0.080   3.798 -2.1023  1.8607 -0.2865
 1945TIP3    H2 5842   5.362  -0.041   3.769  1.2298 -1.0700  1.2533
 1946TIP3   OH2 5843   3.510   1.626   3.756  0.3118  0.2970  0.0358
 1946TIP3    H1 5844   3.562   1.614   3.835  1.6631 -0.2258 -0.9023
 1946TIP3    H2 5845   3.570   1.606   3.684 -0.9860  0.3909 -1.1160
 1947TIP3   OH2 5846   4.493   3.004   4.029  0.0626 -0.3391  0.1765
 1947TIP3    H1 5847   4.498   3.099   4.015  4.1388 -0.5081 -0.7600
 1947TIP3    H2 5848   4.443   2.995   4.111  0.8145  2.7364  1.1273
 1948TIP3   OH2 5849   6.322  -0.007   1.623 -0.2695 -0.1647 -0.0284
 1948TIP3    H1 5850   6.283  -0.002   1.535 -0.9063 -2.4052  0.0579
 1948TIP3    H2 5851   6.348   0.083   1.643  0.4260  0.3125 -2.7364
 1949TIP3   OH2 5852   1.006   1.272   4.508  0.0068 -0.6021  0.6790
 1949TIP3    H1 5853   1.002   1.311   4.595  0.7244 -3.2257  2.0049
 1949TIP3    H2 5854   1.090   1.301   4.472 -0.1351  0.1996  0.9747
 1950TIP3   OH2 5855   4.444   2.394   1.837 -0.6580  1.0644  0.7710
 1950TIP3    H1 5856   4.469   2.301   1.834 -0.3906  1.1704 -0.8016
 1950TIP3    H2 5857   4.527   2.441   1.845 -0.7388  1.2028  0.8051
 1951TIP3   OH2 5858   5.310   4.228   5.160 -0.4221  0.1615  0.2820
 1951TIP3    H1 5859   5.216   4.211   5.171 -0.7512  3.0926  4.0077
 1951TIP3    H2 5860   5.323   4.232   5.065 -4.5953  1.8646 -0.4269
 1952TIP3   OH2 5861   3.513   3.169   1.633 -0.5855 -0.4862  0.2602
 1952TIP3    H1 5862   3.482   3.240   1.689  0.0171 -0.2151  0.2581
 1952TIP3    H2 5863   3.487   3.089   1.679 -1.8274 -0.2757 -0.0525
 1953TIP3   OH2 5864   3.003   4.508   0.609 -0.1747 -0.1080 -0.6874
 1953TIP3    H1 5865   2.927   4.453   0.588 -0.9120  0.0405  1.4183
 1953TIP3    H2 5866   3.077   4.462   0.570 -1.2016 -0.7652 -1.9515
 1954TIP3   OH2 5867   1.224   1.621   1.983  1.0548  0.0120  0.1490
 1954TIP3    H1 5868   1.195   1.581   2.065  1.0774  0.2958  0.2959
 1954TIP3    H2 5869   1.306   1.665   2.005  0.7836  0.5538  0.1076
 1955TIP3   OH2 5870   5.688   0.352   0.815 -0.2411 -0.2930 -0.4522
 1955TIP3    H1 5871   5.744   0.428   0.797 -0.3724  0.0701  0.5689
 1955TIP3    H2 5872   5.713   0.325   0.903 -2.8498  0.9926  0.8077
 1956TIP3   OH2 5873   2.219   0.714   3.198 -0.2362 -0.8117  0.2414
 1956TIP3    H1 5874   2.124   0.722   3.186 -0.0917 -1.2911 -1.4210
 1956TIP3    H2 5875   2.244   0.797   3.239 -1.2198 -0.2033 -0.3372
 1957TIP3   OH2 5876   5.599   2.520   0.190 -0.4634  0.4051 -0.1165
 1957TIP3    H1 5877   5.625   2.457   0.123 -0.9254 -0.9790  0.9541
 1957TIP3    H2 5878   5.681   2.556   0.223 -0.0618 -0.9581  0.4587
 1958TIP3   OH2 5879   1.224   1.737   5.064 -0.1849 -0.1304  0.1486
 1958TIP3    H1 5880   1.214   1.830   5.084 -0.2974 -0.0289 -0.3783
 1958TIP3    H2 5881   1.307   1.712   5.105  0.8201  0.6572 -1.3120
 1959TIP3   OH2 5882   5.012   2.377   2.241 -0.3123  0.1262  0.0448
 1959TIP3    H1 5883   4.920   2.380   2.265 -0.5292 -0.4849 -0.6836
 1959TIP3    H2 5884   5.027   2.287   2.212  0.7042 -0.0048  0.8926
 1960TIP3   OH2 5885   6.112   3.396   1.787  0.5771 -0.0145  0.2994
 1960TIP3    H1 5886   6.062   3.437   1.858  1.2647  2.1342 -0.3884
 1960TIP3    H2 5887   6.132   3.308   1.821 -1.2020  0.0553  1.7272
 1961TIP3   OH2 5888   0.756   0.474   2.286  0.0489 -0.1651  0.2817
 1961TIP3    H1 5889   0.747   0.524   2.205  0.8706 -1.4044 -0.6181
 1961TIP3    H2 5890   0.796   0.535   2.347 -0.5168  0.7771 -0.2584
 1962TIP3   OH2 5891   2.609   0.134   3.762  0.3744 -0.2323 -0.1608
 1962TIP3    H1 5892   2.526   0.095   3.738 -0.3218  1.7719 -1.2777
 1962TIP3    H2 5893   2.585   0.213   3.811  1.4641  1.4908 -2.2169
 1963TIP3   OH2 5894   4.855   1.958   3.340  0.1928  0.1112  0.3604
 1963TIP3    H1 5895   4.871   2.053   3.336  0.2949  0.1570  1.5124
 1963TIP3    H2 5896   4.760   1.950   3.341  0.1775  0.1709 -0.0823
 1964TIP3   OH2 5897   6.257   0.478   3.288 -0.1698 -0.1406  0.0935
 1964TIP3    H1 5898   6.180   0.425   3.269 -0.5232  0.4351 -0.1361
 1964TIP3    H2 5899   6.233   0.529   3.365 -0.5023  0.9550 -0.7094
 1965TIP3   OH2 5900   1.756   3.370   2.910  0.3669 -0.1553  0.5165
 1965TIP3    H1 5901   1.842   3.392   2.946  1.0865 -0.4510 -0.9168
 1965TIP3    H2 5902   1.701   3.445   2.930  0.7735 -0.2167  1.9917
 1966TIP3   OH2 5903   1.606   2.687   3.502  0.1178  0.2677  0.1662
 1966TIP3    H1 5904   1.664   2.635   3.559  0.7234  0.5020 -0.2359
 1966TIP3    H2 5905   1.542   2.623   3.470  0.7958 -0.2255 -0.2432
 1967TIP3   OH2 5906   0.041   1.481   5.148  0.2917 -0.4133  0.1554
 1967TIP3    H1 5907   0.008   1.571   5.158 -2.8865 -1.5247  0.8640
 1967TIP3    H2 5908   0.023   1.459   5.057  1.0656 -0.3549 -0.0153
 1968TIP3   OH2 5909   0.761   1.170   2.619 -0.1741 -0.5378  0.2213
 1968TIP3    H1 5910   0.760   1.176   2.714 -0.1427  0.2889  0.1707
 1968TIP3    H2 5911   0.850   1.195   2.594 -0.3856 -0.0731 -0.0719
 1969TIP3   OH2 5912   3.837   0.173   0.273  0.4569  0.5919  0.6736
 1969TIP3    H1 5913   3.929   0.190   0.294  0.8427  0.0364 -0.4594
 1969TIP3    H2 5914   3.798   0.259   0.263  1.0951  0.8319  0.1943
 1970TIP3   OH2 5915   6.055   5.145   0.468 -0.1610  0.4412 -0.1523
 1970TIP3    H1 5916   6.029   5.096   0.390 -1.6553  1.7454 -0.5276
 1970TIP3    H2 5917   6.084   5.230   0.433  1.6315  0.1534  0.5391
 1971TIP3   OH2 5918   3.318   2.603   5.000  0.0397  0.2296 -0.1091
 1971TIP3    H1 5919   3.373   2.574   5.073  0.9276 -1.8149 -1.5122
 1971TIP3    H2 5920   3.379   2.634   4.934 -0.8024  3.6193  0.4834
 1972TIP3   OH2 5921   1.062   0.763   1.501 -0.6208 -0.6133 -0.0247
 1972TIP3    H1 5922   1.120   0.839   1.505 -2.1911  0.7649 -1.7232
 1972TIP3    H2 5923   1.050   0.738   1.593  0.4948  0.7307  0.5288
 1973TIP3   OH2 5924   0.832   0.728   3.731  0.4586  0.4108 -0.7750
 1973TIP3    H1 5925   0.761   0.707   3.670 -0.5715  1.0351  0.1609
 1973TIP3    H2 5926   0.868   0.810   3.698 -0.9662  1.4562  0.1251
 1974TIP3   OH2 5927   1.656   5.698   4.287 -0.3383  0.0026 -0.6597
 1974TIP3    H1 5928   1.631   5.668   4.374 -2.2769  2.0817 -0.4188
 1974TIP3    H2 5929   1.575   5.731   4.248  0.8397  0.8924 -2.5249
 1975TIP3   OH2 5930   1.480   2.765   4.426 -0.0077  0.0577 -0.1187
 1975TIP3    H1 5931   1.533   2.796   4.352 -0.8377  0.2400 -0.6498
 1975TIP3    H2 5932   1.417   2.835   4.442 -0.8455 -0.6386 -0.2591
 1976TIP3   OH2 5933   1.916   1.944   0.224  0.4783  0.0537 -0.0677
 1976TIP3    H1 5934   1.994   1.960   0.172  0.4791 -2.1916 -0.8442
 1976TIP3    H2 5935   1.948   1.935   0.314  1.0065 -0.1110 -0.2695
 1977TIP3   OH2 5936   2.627   0.974   3.615 -0.1141 -0.1522  0.0126
 1977TIP3    H1 5937   2.685   0.940   3.683  0.7357  0.0214 -0.6108
 1977TIP3    H2 5938   2.650   1.066   3.607 -0.2343 -0.1659 -0.4933
 1978TIP3   OH2 5939   5.329   2.413   0.753 -0.1840  0.3924  0.1029
 1978TIP3    H1 5940   5.394   2.454   0.809  0.4567  0.6391 -0.7913
 1978TIP3    H2 5941   5.281   2.486   0.715 -1.8224  0.1953  1.6714
 1979TIP3   OH2 5942   6.083   1.684   0.713 -0.3017 -0.3078 -0.0581
 1979TIP3    H1 5943   6.139   1.743   0.662 -0.3207 -0.1019  0.1570
 1979TIP3    H2 5944   6.034   1.635   0.647 -0.2221 -0.1458 -0.2392
 1980TIP3   OH2 5945   0.608   3.998   3.059  0.4910  0.3103  0.1693
 1980TIP3    H1 5946   0.657   3.925   3.020  1.0427  0.6482  0.2303
 1980TIP3    H2 5947   0.595   3.973   3.150 -1.1205 -0.6543 -0.2793
 1981TIP3   OH2 5948   4.380   4.904   3.526  0.0853 -0.1883 -0.3694
 1981TIP3    H1 5949   4.403   4.827   3.577  1.2953 -1.0932 -2.1836
 1981TIP3    H2 5950   4.460   4.956   3.523 -0.2382  0.3048 -0.5801
 1982TIP3   OH2 5951   6.295   4.220   4.902  0.6151 -0.2800 -0.1292
 1982TIP3    H1 5952   6.254   4.266   4.828  0.5694 -0.0897  0.0121
 1982TIP3    H2 5953   6.239   4.144   4.917 -0.3384  0.5784  0.7897
 1983TIP3   OH2 5954   2.085   0.222   1.998  0.1312  0.5823 -0.4449
 1983TIP3    H1 5955   2.114   0.131   2.008 -1.2759  0.3401  2.5002
 1983TIP3    H2 5956   2.165   0.270   1.976  0.8506 -1.3415 -2.5122
 1984TIP3   OH2 5957   0.686   1.860   2.813 -0.3868 -0.3561 -0.7925
 1984TIP3    H1 5958   0.773   1.886   2.845 -0.7574 -0.0315 -0.0388
 1984TIP3    H2 5959   0.699   1.772   2.779 -0.1491 -1.0834  1.0502
 1985TIP3   OH2 5960   5.611   2.828   1.486 -0.6391  0.1824  0.6300
 1985TIP3    H1 5961   5.685   2.867   1.440 -0.2453 -2.3251 -1.0593
 1985TIP3    H2 5962   5.648   2.797   1.568 -0.5019  1.3961  1.0561
 1986TIP3   OH2 5963   2.801   4.333   0.560 -0.2546 -0.2147  0.6174
 1986TIP3    H1 5964   2.716   4.296   0.537  0.1901  0.3943 -2.4592
 1986TIP3    H2 5965   2.858   4.257   0.571 -0.4826 -0.5976 -0.6527
 1987TIP3   OH2 5966   5.751   1.868   0.492 -0.0814  0.5148  0.0151
 1987TIP3    H1 5967   5.834   1.886   0.447  1.2914 -1.1262  1.7054
 1987TIP3    H2 5968   5.739   1.943   0.550  0.6504  0.4104  0.3148
 1988TIP3   OH2 5969   3.756   5.698   4.496  0.4129 -0.1481 -0.1550
 1988TIP3    H1 5970   3.792   5.729   4.413 -2.6557  2.5085 -0.7312
 1988TIP3    H2 5971   3.793   5.757   4.562 -0.9006  1.0709 -0.4382
 1989TIP3   OH2 5972   4.993   5.260   3.279 -0.5603  0.2178  0.2870
 1989TIP3    H1 5973   5.045   5.256   3.359 -1.2842  0.5242  0.7837
 1989TIP3    H2 5974   4.915   5.311   3.303 -0.2441  1.3302 -0.9179
 1990TIP3   OH2 5975   5.729   1.311   2.988 -0.4434  0.0530  0.1432
 1990TIP3    H1 5976   5.738   1.233   3.042  2.1113 -0.3883 -0.7472
 1990TIP3    H2 5977   5.675   1.371   3.039 -1.5119 -1.8586  1.3263
 1991TIP3   OH2 5978   4.935   3.034   1.257  0.0525  0.0563  0.1345
 1991TIP3    H1 5979   4.901   3.045   1.346 -1.6971  0.4306 -0.5277
 1991TIP3    H2 5980   4.924   2.941   1.239  0.6355 -0.0651  0.3828
 1992TIP3   OH2 5981   4.014   2.579   1.438  0.4834 -0.5112 -0.0910
 1992TIP3    H1 5982   3.991   2.661   1.482  0.6508 -0.6066  0.1822
 1992TIP3    H2 5983   3.935   2.554   1.391 -0.0043 -0.8738  0.8851
 1993TIP3   OH2 5984   3.424   4.619   1.544 -0.4771 -0.3822 -0.3501
 1993TIP3    H1 5985   3.404   4.698   1.494  2.6861  0.4866 -0.5022
 1993TIP3    H2 5986   3.468   4.561   1.482  1.3557 -0.2885  0.7779
 1994TIP3   OH2 5987   1.901   0.152   0.109 -0.2478  0.2169  0.4498
 1994TIP3    H1 5988   1.952   0.081   0.070  3.5321  1.6656  2.3083
 1994TIP3    H2 5989   1.859   0.194   0.034  1.1372 -1.2070 -1.2376
 1995TIP3   OH2 5990   1.341   2.869   3.525 -0.5213 -0.4113  0.4583
 1995TIP3    H1 5991   1.390   2.950   3.534 -1.2429  0.0232  0.5808
 1995TIP3    H2 5992   1.404   2.800   3.545  0.6799 -0.0406 -1.7370
 1996TIP3   OH2 5993   4.601   3.589   4.317  0.4768  0.4535 -0.0464
 1996TIP3    H1 5994   4.551   3.627   4.389  1.8837  1.3350  0.5096
 1996TIP3    H2 5995   4.548   3.516   4.287 -0.2468  0.1959  1.7338
 1997TIP3   OH2 5996   4.295   4.740   3.109 -0.3266 -0.2584 -0.4396
 1997TIP3    H1 5997   4.384   4.751   3.142  0.8723 -0.6897 -3.2505
 1997TIP3    H2 5998   4.287   4.805   3.040 -1.6285 -1.2515 -1.2745
 1998TIP3   OH2 5999   5.303   1.036   0.235 -0.1175 -0.1169  0.7842
 1998TIP3    H1 6000   5.398   1.026   0.238 -0.1073  0.1784  1.8745
 1998TIP3    H2 6001   5.284   1.099   0.304 -0.9142  1.4296 -0.7617
 1999TIP3   OH2 6002   5.841   4.904   3.515  0.0827  0.3619  0.4251
 1999TIP3    H1 6003   5.830   4.929   3.606 -2.2778 -0.5121  0.4490
 1999TIP3    H2 6004   5.840   4.986   3.467 -2.5565  0.6990  0.9185
 2000TIP3   OH2 6005   1.383   4.662   4.047  0.4572  0.1764 -0.5209
 2000TIP3    H1 6006   1.333   4.722   4.102  1.2830  1.4671 -1.1309
 2000TIP3    H2 6007   1.345   4.672   3.960 -0.1552 -1.0735 -0.4202
 2001TIP3   OH2 6008   1.865   4.738   0.432  0.1521 -0.0426 -0.5548
 2001TIP3    H1 6009   1.854   4.831   0.452 -0.0995 -0.2686  0.4296
 2001TIP3    H2 6010   1.915   4.737   0.351  1.6450  0.9552  0.3033
 2002TIP3   OH2 6011   1.248   0.649   2.815  0.1741 -0.8479 -0.8574
 2002TIP3    H1 6012   1.289   0.706   2.750  0.8577 -0.5202 -0.1526
 2002TIP3    H2 6013   1.315   0.635   2.881 -0.7033 -0.6423  0.1128
 2003TIP3   OH2 6014   5.757   0.555   1.210 -0.2656 -0.0833  0.2665
 2003TIP3    H1 6015   5.788   0.620   1.273 -1.2923  0.4469  0.2460
 2003TIP3    H2 6016   5.678   0.518   1.250 -1.6040  1.0729 -1.1753
 2004TIP3   OH2 6017   1.966   3.420   3.270 -0.0951 -0.5694  0.0504
 2004TIP3    H1 6018   1.979   3.470   3.189 -2.2771  0.9398  0.5277
 2004TIP3    H2 6019   2.030   3.456   3.331  0.9038 -1.0389 -0.6996
 2005TIP3   OH2 6020   4.903   5.914   1.267  0.0549  0.0583  0.3722
 2005TIP3    H1 6021   4.971   5.877   1.323  0.0963  0.7328  0.7745
 2005TIP3    H2 6022   4.867   5.987   1.318  0.8911  1.4415 -0.9473
 2006TIP3   OH2 6023   3.028   3.901   4.879 -0.6114  0.2142 -0.0181
 2006TIP3    H1 6024   2.968   3.865   4.814 -0.3256  1.0808 -0.7934
 2006TIP3    H2 6025   2.972   3.949   4.940 -0.7828  0.4342 -0.3433
 2007TIP3   OH2 6026   4.583   4.710   0.601  0.0080 -0.0511  0.3278
 2007TIP3    H1 6027   4.579   4.722   0.695  0.1138 -2.7514  0.7741
 2007TIP3    H2 6028   4.518   4.641   0.583  1.6972 -1.3681 -1.1521
 2008TIP3   OH2 6029   0.355   3.005   0.014  0.3728  0.0499  0.1993
 2008TIP3    H1 6030   0.290   3.075   0.019 -0.4117 -0.5923 -0.6745
 2008TIP3    H2 6031   0.428   3.036   0.068 -1.1062  0.2778  2.2030
 2009TIP3   OH2 6032   3.809   4.938   2.900  0.3780 -0.0989  0.5539
 2009TIP3    H1 6033   3.762   4.938   2.983  1.0302 -1.9940  0.9839
 2009TIP3    H2 6034   3.892   4.981   2.919  0.3070 -0.0501  0.7532
 2010TIP3   OH2 6035   3.268   0.602   0.375 -0.1724 -0.4854 -0.0866
 2010TIP3    H1 6036   3.353   0.558   0.385 -0.0332  0.1718  1.9634
 2010TIP3    H2 6037   3.268   0.631   0.284  3.0693  1.9060  0.4672
 2011TIP3   OH2 6038   3.122   5.039   0.215 -0.1207  0.1121 -0.3837
 2011TIP3    H1 6039   3.078   4.998   0.141  0.2636  0.2175 -0.6715
 2011TIP3    H2 6040   3.172   5.111   0.177  0.9425 -0.4826 -0.1912
 2012TIP3   OH2 6041   4.011   0.588   0.768 -0.1366  0.1790  0.2027
 2012TIP3    H1 6042   3.982   0.497   0.775  2.2448 -0.7186 -0.7840
 2012TIP3    H2 6043   3.961   0.634   0.836 -0.2050 -2.1761  1.8819
 2013TIP3   OH2 6044   4.841   5.418   3.483  0.2364 -0.3421  0.2045
 2013TIP3    H1 6045   4.844   5.342   3.540  1.1733 -0.7451 -0.3709
 2013TIP3    H2 6046   4.747   5.439   3.477 -0.0690 -1.6598  0.0784
 2014TIP3   OH2 6047   3.583   0.079   4.810  0.0387  0.0576 -0.3006
 2014TIP3    H1 6048   3.622   0.117   4.889 -0.1642 -1.4446  0.5481
 2014TIP3    H2 6049   3.611   0.138   4.739 -3.3881  4.1686  1.3009
 2015TIP3   OH2 6050   6.000   5.048   0.704 -0.0909 -0.0262  0.1802
 2015TIP3    H1 6051   5.989   5.069   0.611 -1.2431 -1.2175  0.0191
 2015TIP3    H2 6052   6.081   5.092   0.729  0.1170  0.5096 -1.3322
 2016TIP3   OH2 6053   6.203   5.507   4.884  0.0491 -0.1445 -0.3009
 2016TIP3    H1 6054   6.141   5.543   4.948  1.8065 -0.3100  1.5797
 2016TIP3    H2 6055   6.225   5.420   4.918  1.1706 -0.1637 -1.0295
 2017TIP3   OH2 6056   1.761   0.886   1.866  0.1858  0.1335 -0.1621
 2017TIP3    H1 6057   1.788   0.856   1.953 -0.4805 -0.7120 -0.2375
 2017TIP3    H2 6058   1.746   0.806   1.816 -1.3730  0.5811 -0.4491
 2018TIP3   OH2 6059   2.987   3.553   2.521 -0.0445 -0.1758 -0.7063
 2018TIP3    H1 6060   2.941   3.561   2.437  0.2159  0.6917 -0.7751
 2018TIP3    H2 6061   3.008   3.643   2.546 -1.4650 -0.2650  1.0574
 2019TIP3   OH2 6062   3.629   4.696   1.016 -0.0506 -0.0760 -0.2902
 2019TIP3    H1 6063   3.579   4.778   1.020  0.3460  0.2222 -1.1376
 2019TIP3    H2 6064   3.618   4.666   0.925  1.6624  0.2439 -0.6526
 2020TIP3   OH2 6065   1.932   4.037   0.734  0.8163 -0.7765 -0.7709
 2020TIP3    H1 6066   1.986   4.094   0.678 -0.3653  1.8273  0.5527
 2020TIP3    H2 6067   1.991   4.008   0.803  1.0399  0.5077 -0.3868
 2021TIP3   OH2 6068   0.223   5.660   3.978  0.2625 -0.6182 -0.4411
 2021TIP3    H1 6069   0.174   5.671   3.897  0.0073  1.8921 -0.0116
 2021TIP3    H2 6070   0.170   5.702   4.046  1.6017 -0.4571  0.5728
 2022TIP3   OH2 6071   0.228   3.901   1.605 -0.1631  0.1852  0.5375
 2022TIP3    H1 6072   0.249   3.825   1.551 -1.0364 -0.7163  1.4400
 2022TIP3    H2 6073   0.203   3.969   1.542 -0.3155 -0.5751 -0.2334
 2023TIP3   OH2 6074   1.181   2.235   4.630 -0.1181 -0.2386 -0.5765
 2023TIP3    H1 6075   1.121   2.186   4.687 -0.3830  2.1011  1.3107
 2023TIP3    H2 6076   1.136   2.240   4.546 -3.1068  2.0944  0.9663
 2024TIP3   OH2 6077   3.583   5.000   1.259  0.7250 -0.0199 -0.5822
 2024TIP3    H1 6078   3.666   4.951   1.259  0.2076 -0.9194 -1.2979
 2024TIP3    H2 6079   3.558   5.004   1.167 -0.5318 -0.6385 -0.2926
 2025TIP3   OH2 6080   2.025   2.257   0.637 -0.1678  0.5624  0.0038
 2025TIP3    H1 6081   1.960   2.188   0.652 -0.2190  0.6855  0.3595
 2025TIP3    H2 6082   1.974   2.335   0.617 -0.1549  0.8018  0.8665
 2026TIP3   OH2 6083   1.512   5.184   0.633 -0.5396  0.1640  0.0097
 2026TIP3    H1 6084   1.480   5.117   0.573 -0.2017  1.4957 -1.7128
 2026TIP3    H2 6085   1.587   5.223   0.589 -1.7207  2.8208  0.1363
 2027TIP3   OH2 6086   5.856   2.520   3.418  0.0734  0.1918  0.5867
 2027TIP3    H1 6087   5.788   2.561   3.471 -0.9786 -1.1759  0.3848
 2027TIP3    H2 6088   5.821   2.523   3.328  0.4091 -0.2401  0.4369
 2028TIP3   OH2 6089   2.267   4.330   4.006  0.5385 -0.4275 -0.1345
 2028TIP3    H1 6090   2.343   4.283   3.972  0.8070 -0.5560  0.6332
 2028TIP3    H2 6091   2.239   4.278   4.081 -1.9895 -1.9541 -1.9535
 2029TIP3   OH2 6092   4.351   3.377   3.801  0.4771  0.0986  0.0088
 2029TIP3    H1 6093   4.403   3.348   3.876  0.6080 -1.0911 -0.5245
 2029TIP3    H2 6094   4.414   3.389   3.731  0.3813  1.4246  0.1191
 2030TIP3   OH2 6095   2.000   4.101   1.470  0.4673  0.1335  0.1966
 2030TIP3    H1 6096   1.976   4.191   1.450  1.4467  0.2702 -0.4292
 2030TIP3    H2 6097   2.036   4.105   1.559  1.5073  0.5757 -0.2182
 2031TIP3   OH2 6098   2.449   3.567   0.090 -0.0887  0.1735 -0.2983
 2031TIP3    H1 6099   2.394   3.638   0.055 -0.7069 -0.8317 -1.4063
 2031TIP3    H2 6100   2.387   3.496   0.109  0.5740 -0.2146  0.4573
 2032TIP3   OH2 6101   4.885   0.096   2.864 -0.2483  0.7924 -0.2729
 2032TIP3    H1 6102   4.811   0.132   2.815  1.6382  1.7626 -2.5496
 2032TIP3    H2 6103   4.954   0.161   2.857  1.6787 -1.1409 -0.3785
 2033TIP3   OH2 6104   2.299   4.265   1.532 -0.7225 -0.2188 -0.0173
 2033TIP3    H1 6105   2.298   4.302   1.620  0.2378 -0.2316  0.0093
 2033TIP3    H2 6106   2.215   4.291   1.494 -0.8974  0.2850  0.6965
 2034TIP3   OH2 6107   0.829   5.616   4.044  0.1429 -0.0714  0.0102
 2034TIP3    H1 6108   0.835   5.638   3.951 -1.3364 -2.6653 -0.7968
 2034TIP3    H2 6109   0.751   5.663   4.074  1.3241  1.7950  0.3533
 2035TIP3   OH2 6110   3.091   1.098   3.810 -0.7070 -0.9418 -0.2657
 2035TIP3    H1 6111   3.145   1.021   3.791  0.3686 -0.0337 -0.9875
 2035TIP3    H2 6112   3.133   1.138   3.886  0.8793  0.8419 -1.9745
 2036TIP3   OH2 6113   0.030   5.363   0.847  0.0601  0.1083  0.3171
 2036TIP3    H1 6114   0.069   5.349   0.934 -1.3950  0.0900  1.0071
 2036TIP3    H2 6115   0.087   5.427   0.805  1.5963 -0.9296  0.7262
 2037TIP3   OH2 6116   3.378   5.407   2.330 -0.3560 -0.0810  0.9998
 2037TIP3    H1 6117   3.389   5.408   2.235  1.1514  0.2868  1.1474
 2037TIP3    H2 6118   3.335   5.491   2.350  0.6757  0.5282  0.7538
 2038TIP3   OH2 6119   6.046   0.830   2.720  0.5618  0.1268  0.7612
 2038TIP3    H1 6120   6.076   0.919   2.702  0.1658  0.1034 -0.0500
 2038TIP3    H2 6121   6.039   0.789   2.634 -0.3678 -0.3326  1.0412
 2039TIP3   OH2 6122   4.048   3.353   3.224 -0.2770  0.3606 -0.5819
 2039TIP3    H1 6123   3.991   3.287   3.184 -0.1165 -1.0881  1.4326
 2039TIP3    H2 6124   3.989   3.404   3.280  0.0787  0.0686  0.0626
 2040TIP3   OH2 6125   5.886   0.789   0.140  0.2494 -0.0686  0.0123
 2040TIP3    H1 6126   5.974   0.755   0.122 -0.0587 -1.0593  0.3091
 2040TIP3    H2 6127   5.887   0.879   0.106  1.5261  0.1032  0.4545
 2041TIP3   OH2 6128   5.421   0.934   4.803 -0.4735  0.0564  0.1342
 2041TIP3    H1 6129   5.444   0.905   4.715  0.8640  3.3655 -0.7290
 2041TIP3    H2 6130   5.492   0.993   4.829 -2.5017  1.8734  1.9791
 2042TIP3   OH2 6131   0.438   3.377   0.591 -0.2126 -0.0281  0.5688
 2042TIP3    H1 6132   0.417   3.423   0.509 -4.2710 -2.1072  0.1504
 2042TIP3    H2 6133   0.525   3.341   0.577 -0.7155 -0.2762 -2.9373
 2043TIP3   OH2 6134   5.879   1.770   3.912  0.8515  0.1812  0.3616
 2043TIP3    H1 6135   5.855   1.854   3.951 -0.6121 -0.9451  2.0573
 2043TIP3    H2 6136   5.933   1.727   3.978 -0.1695 -1.0368  0.4487
 2044TIP3   OH2 6137   1.734   0.855   3.351  1.0153  0.0809 -0.0125
 2044TIP3    H1 6138   1.716   0.932   3.404 -0.0434 -0.2896  0.1868
 2044TIP3    H2 6139   1.807   0.881   3.294  1.7259  0.7025  1.1474
 2045TIP3   OH2 6140   3.059   0.377   0.364 -0.0259  0.2469  0.3958
 2045TIP3    H1 6141   3.082   0.367   0.272 -1.4583 -0.0452  0.0408
 2045TIP3    H2 6142   3.036   0.288   0.393  2.3141 -0.0358  1.6215
 2046TIP3   OH2 6143   3.758   2.145   3.417  0.0728 -0.0801 -0.6918
 2046TIP3    H1 6144   3.745   2.238   3.399  0.2856 -0.0091 -0.4946
 2046TIP3    H2 6145   3.845   2.126   3.382 -0.5321 -0.5407 -1.9867
 2047TIP3   OH2 6146   2.538   3.619   0.690 -0.1298 -0.2667  0.3767
 2047TIP3    H1 6147   2.460   3.630   0.636 -0.4663 -0.3593  0.8446
 2047TIP3    H2 6148   2.610   3.650   0.634 -0.7100  1.6263  0.6034
 2048TIP3   OH2 6149   0.710   2.421   3.812  0.3330 -0.3490 -0.3988
 2048TIP3    H1 6150   0.777   2.353   3.810 -0.3232 -0.9882 -1.9272
 2048TIP3    H2 6151   0.689   2.437   3.720  0.0822  1.5536 -0.0589
 2049TIP3   OH2 6152   4.830   5.459   2.330 -0.0810 -0.1177 -0.0992
 2049TIP3    H1 6153   4.870   5.493   2.250  1.1956 -0.1225  0.5124
 2049TIP3    H2 6154   4.842   5.364   2.325 -0.5115 -0.1712 -0.1628
 2050TIP3   OH2 6155   0.747   4.943   3.977 -0.3377  0.3867  0.0638
 2050TIP3    H1 6156   0.806   4.937   3.902 -1.4448 -1.2976 -0.7353
 2050TIP3    H2 6157   0.670   4.989   3.945 -0.7708 -0.2385  0.1874
 2051TIP3   OH2 6158   0.041   5.735   2.134  0.1857 -0.3969  0.1995
 2051TIP3    H1 6159   0.120   5.749   2.083  0.7797 -0.5178  1.0736
 2051TIP3    H2 6160   0.028   5.817   2.182 -2.1219  0.9484 -2.4122
 2052TIP3   OH2 6161   3.093   3.676   0.282  0.5590  0.6152  0.1304
 2052TIP3    H1 6162   3.086   3.608   0.214  1.3407  0.3864  0.2715
 2052TIP3    H2 6163   3.008   3.721   0.279  0.2814  0.0773 -0.4349
 2053TIP3   OH2 6164   0.542   3.592   4.302 -0.3679 -0.2390 -0.2671
 2053TIP3    H1 6165   0.531   3.509   4.256  0.2645 -0.9751  0.8472
 2053TIP3    H2 6166   0.618   3.633   4.260  0.6463 -1.2336  0.5535
 2054TIP3   OH2 6167   5.464   4.888   2.661  0.4687 -0.5386 -0.3676
 2054TIP3    H1 6168   5.518   4.889   2.581  0.3715  0.8898 -0.4511
 2054TIP3    H2 6169   5.488   4.807   2.705  0.8403 -1.1485 -1.6385
 2055TIP3   OH2 6170   1.021   4.971   1.020  0.3843 -0.2241  0.0529
 2055TIP3    H1 6171   1.058   4.892   1.059  1.2800 -0.0500 -0.4088
 2055TIP3    H2 6172   1.084   4.996   0.953  0.3839  1.1731  0.5462
 2056TIP3   OH2 6173   6.011   4.864   2.285 -0.0229  0.4146  0.2979
 2056TIP3    H1 6174   5.977   4.869   2.375 -0.3254 -1.3873  0.3292
 2056TIP3    H2 6175   6.102   4.837   2.296 -0.1844 -0.2415  0.0658
 2057TIP3   OH2 6176   3.648   3.197   2.976 -0.9538  0.2996  0.1604
 2057TIP3    H1 6177   3.594   3.189   2.898 -1.5425 -1.6905  0.7099
 2057TIP3    H2 6178   3.591   3.170   3.048  0.3790 -0.6509  0.9100
 2058TIP3   OH2 6179   6.330   5.551   4.663  0.2177 -0.4181 -0.0769
 2058TIP3    H1 6180   6.260   5.584   4.607  0.7402 -0.7089 -0.9256
 2058TIP3    H2 6181   6.290   5.544   4.749 -0.5818  0.1333 -0.3857
 2059TIP3   OH2 6182   4.667   4.198   4.429  0.2420  0.3344  0.1370
 2059TIP3    H1 6183   4.750   4.241   4.448  1.1197 -1.2369  0.0725
 2059TIP3    H2 6184   4.691   4.106   4.417 -1.4078 -0.0125 -0.6793
 2060TIP3   OH2 6185   2.734   1.870   0.849 -0.3203  0.1927  0.6100
 2060TIP3    H1 6186   2.701   1.802   0.790 -0.4834 -0.5015  1.4832
 2060TIP3    H2 6187   2.764   1.822   0.926 -0.4321  1.1104  1.2385
 2061TIP3   OH2 6188   5.243   3.783   4.023 -0.1453 -0.2481 -0.0462
 2061TIP3    H1 6189   5.213   3.872   4.042 -0.2021 -0.1018 -0.7947
 2061TIP3    H2 6190   5.309   3.765   4.090  0.3599  0.6112 -0.3015
 2062TIP3   OH2 6191   0.349   5.436   1.020 -0.1565  0.3987 -0.0367
 2062TIP3    H1 6192   0.294   5.367   1.059 -2.7768  1.0948 -2.1628
 2062TIP3    H2 6193   0.324   5.515   1.067  2.7042  0.1075  2.2617
 2063TIP3   OH2 6194   3.622   5.515   0.552 -0.0039  0.1298 -0.1266
 2063TIP3    H1 6195   3.665   5.555   0.628  0.6925  0.0124 -0.4437
 2063TIP3    H2 6196   3.688   5.456   0.516 -1.1547 -1.6810  0.5849
 2064TIP3   OH2 6197   5.189   2.255   2.420 -0.0175  0.7219 -0.9102
 2064TIP3    H1 6198   5.202   2.321   2.487  0.6394  0.5897 -0.9029
 2064TIP3    H2 6199   5.114   2.287   2.369 -1.3065  0.2229  0.6057
 2065TIP3   OH2 6200   1.090   3.693   0.193 -0.1687 -0.5460  0.2003
 2065TIP3    H1 6201   1.143   3.624   0.155 -0.8152  0.5044 -2.9237
 2065TIP3    H2 6202   1.148   3.769   0.199 -0.8616  0.2053 -1.8898
 2066TIP3   OH2 6203   0.798   2.233   0.319 -0.6368  0.0960  0.6508
 2066TIP3    H1 6204   0.715   2.281   0.320 -1.1202 -0.7121  0.6306
 2066TIP3    H2 6205   0.800   2.187   0.403 -0.1022  0.2892  0.7424
 2067TIP3   OH2 6206   2.054   4.330   3.096 -0.4128 -0.1105  0.7837
 2067TIP3    H1 6207   1.975   4.348   3.148 -1.1468 -0.4161 -0.1963
 2067TIP3    H2 6208   2.108   4.276   3.154 -0.8206  0.2684  1.5438
 2068TIP3   OH2 6209   0.828   2.093   2.040  0.6810 -0.0249  0.4496
 2068TIP3    H1 6210   0.837   2.018   2.099  0.4955  0.5571  1.2383
 2068TIP3    H2 6211   0.787   2.161   2.094 -0.2985  0.2482 -0.5935
 2069TIP3   OH2 6212   4.117   1.936   4.033  0.0381  0.2204 -0.2093
 2069TIP3    H1 6213   4.150   1.922   3.944  0.5703  0.3218 -0.0289
 2069TIP3    H2 6214   4.077   1.852   4.057 -0.3822  0.2867 -0.6554
 2070TIP3   OH2 6215   2.436   1.100   2.503 -0.7836 -0.4664  0.4864
 2070TIP3    H1 6216   2.387   1.072   2.425 -0.9474  0.4684  0.2471
 2070TIP3    H2 6217   2.453   1.019   2.550 -2.5419 -0.8393  0.5655
 2071TIP3   OH2 6218   4.701   2.676   0.516  0.1283  0.2632  0.0187
 2071TIP3    H1 6219   4.626   2.712   0.563  1.0476  0.6729  1.1980
 2071TIP3    H2 6220   4.752   2.752   0.489  0.5457 -0.0504 -0.0822
 2072TIP3   OH2 6221   4.397   5.716   3.613 -0.2724  0.1400  0.1410
 2072TIP3    H1 6222   4.317   5.682   3.654  1.4603 -2.7829  1.4250
 2072TIP3    H2 6223   4.392   5.686   3.522 -1.5254  1.7790 -0.3773
 2073TIP3   OH2 6224   1.056   0.591   4.757 -0.1080 -0.6066 -0.7737
 2073TIP3    H1 6225   1.001   0.536   4.702 -3.0331  1.8710 -0.6241
 2073TIP3    H2 6226   1.023   0.576   4.846  2.0242 -1.7703 -0.1251
 2074TIP3   OH2 6227   1.714   1.116   2.303  0.6903  0.1969  0.5468
 2074TIP3    H1 6228   1.622   1.118   2.277  0.3214 -1.2953  1.5996
 2074TIP3    H2 6229   1.712   1.082   2.393  2.2111  1.1006  0.9519
 2075TIP3   OH2 6230   1.588   1.751   3.123 -0.5482 -0.5470  0.0747
 2075TIP3    H1 6231   1.681   1.737   3.105 -0.5734 -0.2280 -0.3325
 2075TIP3    H2 6232   1.561   1.818   3.060 -1.4253 -1.7237 -0.8578
 2076TIP3   OH2 6233   1.280   4.092   2.039  0.5544 -0.3178 -0.5768
 2076TIP3    H1 6234   1.198   4.137   2.020 -0.0564 -0.4636  1.4208
 2076TIP3    H2 6235   1.345   4.162   2.047  0.6294 -0.1945 -2.0424
 2077TIP3   OH2 6236   6.172   4.738   2.928 -0.3145  0.5453  0.2319
 2077TIP3    H1 6237   6.212   4.821   2.956  0.5637  0.2374 -0.0980
 2077TIP3    H2 6238   6.205   4.673   2.989  3.0767 -0.4826 -2.4132
 2078TIP3   OH2 6239   2.967   4.285   4.242  0.9204 -0.1379 -0.0055
 2078TIP3    H1 6240   2.976   4.353   4.175  0.4292 -0.5519 -0.5032
 2078TIP3    H2 6241   3.044   4.296   4.298  0.9172  0.7341 -0.1632
 2079TIP3   OH2 6242   2.858   2.407   0.915 -0.2379  0.2797 -0.1211
 2079TIP3    H1 6243   2.830   2.328   0.870  0.8356 -0.5173  0.5684
 2079TIP3    H2 6244   2.827   2.479   0.859  0.5408 -0.6499 -1.8304
 2080TIP3   OH2 6245   3.900   1.685   4.667  0.0201  0.3191  0.6822
 2080TIP3    H1 6246   3.966   1.633   4.713  0.0297  0.5872  0.9775
 2080TIP3    H2 6247   3.871   1.749   4.732  0.4259  1.0565  0.1504
 2081TIP3   OH2 6248   5.972   1.564   4.667 -0.4344 -0.0345 -0.2741
 2081TIP3    H1 6249   6.066   1.544   4.672 -0.2264  1.1524  1.8619
 2081TIP3    H2 6250   5.952   1.562   4.573  1.6500 -0.6098 -0.7614
 2082TIP3   OH2 6251   1.479   1.224   4.563  0.0908 -0.4490  0.2318
 2082TIP3    H1 6252   1.433   1.305   4.583 -2.9360 -1.3278 -2.2528
 2082TIP3    H2 6253   1.540   1.246   4.493  0.9312  0.0511  1.1010
 2083TIP3   OH2 6254   4.630   1.059   2.921 -0.1718  0.1356 -0.0448
 2083TIP3    H1 6255   4.620   1.094   3.009 -0.9117 -0.1476 -0.0090
 2083TIP3    H2 6256   4.594   1.127   2.864 -1.1791 -0.3513 -0.0077
 2084TIP3   OH2 6257   0.582   3.147   1.590  0.2304  0.1598  0.1426
 2084TIP3    H1 6258   0.675   3.125   1.587 -0.1569 -1.6843  0.0122
 2084TIP3    H2 6259   0.544   3.082   1.649 -1.3628 -0.9111 -1.8986
 2085TIP3   OH2 6260   5.878   3.508   4.991  0.4969 -0.1976  0.4749
 2085TIP3    H1 6261   5.877   3.582   4.929 -1.1238 -1.5578 -1.2363
 2085TIP3    H2 6262   5.948   3.451   4.958 -1.2449 -1.5918 -1.0890
 2086TIP3   OH2 6263   6.085   2.853   1.971 -0.2816  0.1347  0.2166
 2086TIP3    H1 6264   6.033   2.775   1.950 -0.1227  0.4881 -1.5935
 2086TIP3    H2 6265   6.022   2.916   2.004 -0.3428 -0.8986  2.2484
 2087TIP3   OH2 6266   0.514   0.266   4.063  0.8089  0.3642  0.4310
 2087TIP3    H1 6267   0.584   0.329   4.050  2.0292 -0.9404  0.3712
 2087TIP3    H2 6268   0.537   0.221   4.144  1.4701 -1.7933 -0.8693
 2088TIP3   OH2 6269   0.515   4.218   1.740 -0.2232  0.2853  0.7824
 2088TIP3    H1 6270   0.525   4.135   1.785  0.1390 -0.5337 -0.7283
 2088TIP3    H2 6271   0.531   4.197   1.648  3.6034  2.6678  0.7016
 2089TIP3   OH2 6272   5.346   3.233   4.723 -0.6427 -0.7677 -0.1401
 2089TIP3    H1 6273   5.289   3.262   4.794 -1.2024  2.8868 -1.8155
 2089TIP3    H2 6274   5.287   3.208   4.652 -0.1355 -0.9573 -0.5048
 2090TIP3   OH2 6275   0.825   1.467   3.577 -0.3281  0.4346 -0.4766
 2090TIP3    H1 6276   0.781   1.467   3.662 -1.4439  1.2612 -1.0306
 2090TIP3    H2 6277   0.901   1.410   3.589  0.3313  1.6285  1.4902
 2091TIP3   OH2 6278   2.865   0.233   2.138  0.6539  0.6784  0.7796
 2091TIP3    H1 6279   2.884   0.166   2.204 -0.7747 -2.5128 -1.7560
 2091TIP3    H2 6280   2.930   0.218   2.069 -0.7167  0.6692 -0.5811
 2092TIP3   OH2 6281   2.429   5.194   0.610 -0.2048  0.2182 -0.3592
 2092TIP3    H1 6282   2.468   5.282   0.618  0.1596  0.1482 -1.2415
 2092TIP3    H2 6283   2.494   5.136   0.649  0.0323  0.2288 -0.7376
 2093TIP3   OH2 6284   2.599   4.216   0.426 -0.2644 -0.4822  0.1779
 2093TIP3    H1 6285   2.620   4.179   0.340  0.9847 -0.3950  0.4207
 2093TIP3    H2 6286   2.543   4.291   0.407  2.3324  1.3554 -0.8494
 2094TIP3   OH2 6287   1.704   1.100   0.348 -0.3921 -0.3426  0.4021
 2094TIP3    H1 6288   1.747   1.060   0.273 -1.1585 -1.6123  0.6020
 2094TIP3    H2 6289   1.669   1.026   0.398  0.9681  0.3845  2.5774
 2095TIP3   OH2 6290   2.845   0.956   0.961 -0.0487  0.5795 -0.4601
 2095TIP3    H1 6291   2.801   0.895   1.020 -0.8253  0.9507 -0.6540
 2095TIP3    H2 6292   2.825   1.042   0.997  1.7587  0.7365  0.3280
 2096TIP3   OH2 6293   4.481   1.461   1.096 -0.7449  0.1541 -0.4535
 2096TIP3    H1 6294   4.497   1.473   1.002  4.3399  1.8400  0.3090
 2096TIP3    H2 6295   4.425   1.535   1.121 -0.7731  0.6386 -1.8562
 2097TIP3   OH2 6296   1.629   2.110   0.177 -0.0945 -0.2219 -0.1786
 2097TIP3    H1 6297   1.698   2.171   0.202 -0.0778  0.1403 -1.0795
 2097TIP3    H2 6298   1.621   2.051   0.252  1.3051 -0.3738 -0.1147
 2098TIP3   OH2 6299   2.595   4.160   2.783 -0.2324  0.0684 -0.1869
 2098TIP3    H1 6300   2.690   4.175   2.781 -0.1110 -0.6017  0.4486
 2098TIP3    H2 6301   2.586   4.065   2.788 -0.9652  0.0476 -1.5269
 2099TIP3   OH2 6302   5.089   0.916   5.051  0.0172 -0.0401  0.2611
 2099TIP3    H1 6303   5.142   0.846   5.013 -1.6011 -1.8336  1.1731
 2099TIP3    H2 6304   5.004   0.876   5.067 -1.0831  2.2527  0.5275
 2100TIP3   OH2 6305   4.963   2.665   2.329 -0.4342  0.2246  0.8674
 2100TIP3    H1 6306   4.957   2.698   2.239  1.3725  0.0742  0.6491
 2100TIP3    H2 6307   4.919   2.580   2.326 -0.3872  0.2174  0.1126
 2101TIP3   OH2 6308   1.611   0.931   0.572 -0.3860 -0.1965  0.4619
 2101TIP3    H1 6309   1.658   0.977   0.642  0.0328 -0.3466  0.2757
 2101TIP3    H2 6310   1.522   0.968   0.575 -0.0931  0.5131  0.4166
 2102TIP3   OH2 6311   1.221   4.524   2.698 -0.3689  0.4458  0.4606
 2102TIP3    H1 6312   1.208   4.451   2.759  2.5406 -0.1378  0.5290
 2102TIP3    H2 6313   1.292   4.575   2.737  1.0432  0.4945 -1.9923
 2103TIP3   OH2 6314   1.998   3.333   4.255  0.2916  0.2910  0.1101
 2103TIP3    H1 6315   2.034   3.411   4.296  1.0179  0.6165 -1.1049
 2103TIP3    H2 6316   2.052   3.319   4.177 -0.9068 -0.4182 -0.6315
 2104TIP3   OH2 6317   0.968   3.688   1.042 -0.0993  0.5643 -0.5420
 2104TIP3    H1 6318   0.923   3.755   0.990 -1.4126  0.8303  0.8812
 2104TIP3    H2 6319   0.924   3.689   1.127  0.1269 -1.8063 -0.3220
 2105TIP3   OH2 6320   3.795   2.271   1.706 -0.3114  0.5961 -0.3572
 2105TIP3    H1 6321   3.776   2.184   1.742 -0.8175  1.4511  1.5662
 2105TIP3    H2 6322   3.844   2.316   1.775  0.4671  1.6551 -1.5505
 2106TIP3   OH2 6323   0.930   5.045   1.630  0.1609 -0.1244 -0.8903
 2106TIP3    H1 6324   0.878   4.991   1.689 -0.6886  1.1700 -0.4212
 2106TIP3    H2 6325   0.882   5.128   1.624  1.2872  0.4914 -1.7970
 2107TIP3   OH2 6326   0.448   1.498   4.206  0.0382  0.3118  0.1605
 2107TIP3    H1 6327   0.428   1.569   4.145 -0.1354 -1.0337 -1.3948
 2107TIP3    H2 6328   0.543   1.496   4.211  0.1059 -0.3462 -1.0521
 2108TIP3   OH2 6329   1.498   5.388   1.185  0.7019  0.0947 -0.7179
 2108TIP3    H1 6330   1.436   5.376   1.256 -0.2788  0.7461 -1.4373
 2108TIP3    H2 6331   1.583   5.397   1.228 -0.0187  1.6936  0.4851
 2109TIP3   OH2 6332   0.070   3.946   0.701  0.1301  0.1666 -0.1527
 2109TIP3    H1 6333   0.106   3.903   0.778  1.4022 -1.6044 -1.6598
 2109TIP3    H2 6334   0.073   4.039   0.722  0.3013 -0.2656  1.9617
 2110TIP3   OH2 6335   5.619   3.499   2.793 -0.3037  0.6221 -0.0263
 2110TIP3    H1 6336   5.695   3.490   2.851  0.3020 -1.2505 -1.0391
 2110TIP3    H2 6337   5.654   3.540   2.714  0.1243 -1.8011 -1.1917
 2111TIP3   OH2 6338   0.472   3.138   4.461 -0.4385 -0.0319 -0.5059
 2111TIP3    H1 6339   0.510   3.139   4.549  0.1459  0.5693 -0.7593
 2111TIP3    H2 6340   0.536   3.091   4.408 -0.2521  0.5869 -0.8389
 2112TIP3   OH2 6341   3.375   1.871   3.825 -0.1278  0.8709 -0.3773
 2112TIP3    H1 6342   3.344   1.919   3.749  1.1614  0.4458 -1.2152
 2112TIP3    H2 6343   3.465   1.847   3.803  0.3590  0.9324  1.3785
 2113TIP3   OH2 6344   5.294   4.431   3.898  0.2226 -0.3530  0.2721
 2113TIP3    H1 6345   5.277   4.366   3.830  0.2604 -1.4860  1.3299
 2113TIP3    H2 6346   5.207   4.458   3.927  0.2074 -0.8385  0.6822
 2114TIP3   OH2 6347   3.365   2.471   0.825  0.0186  0.2277 -0.0801
 2114TIP3    H1 6348   3.440   2.516   0.866  1.1063 -1.9953  0.4983
 2114TIP3    H2 6349   3.313   2.439   0.899 -0.6523  0.3716 -0.4809
 2115TIP3   OH2 6350   4.679   5.299   3.126  0.6911  0.2896 -0.8535
 2115TIP3    H1 6351   4.773   5.318   3.121  0.8910 -1.0041 -2.6671
 2115TIP3    H2 6352   4.643   5.330   3.043 -0.4217  0.3213 -0.3817
 2116TIP3   OH2 6353   5.495   4.164   3.771  0.8156  0.6012  0.2791
 2116TIP3    H1 6354   5.577   4.170   3.723  0.6357 -0.3803 -0.1950
 2116TIP3    H2 6355   5.439   4.230   3.731  0.4755 -0.5828 -1.3304
 2117TIP3   OH2 6356   0.050   4.887   3.504  0.3246 -0.0403 -0.0229
 2117TIP3    H1 6357   0.038   4.928   3.589  1.0140  0.9131 -0.3604
 2117TIP3    H2 6358  -0.014   4.931   3.447 -0.6237 -1.1656  0.1424
 2118TIP3   OH2 6359   4.103   1.181   3.790 -0.6003  0.0737  0.1565
 2118TIP3    H1 6360   4.072   1.237   3.862 -4.0146 -0.0043 -1.0725
 2118TIP3    H2 6361   4.145   1.107   3.834  0.1908  1.4875  1.9216
 2119TIP3   OH2 6362   3.254   4.781   2.381  0.3157 -0.1298 -0.6302
 2119TIP3    H1 6363   3.278   4.697   2.421 -1.0980  0.0974  0.8076
 2119TIP3    H2 6364   3.168   4.765   2.342 -0.4550  0.9034  0.5831
 2120TIP3   OH2 6365   5.204   1.659   1.186 -0.5982  0.4144 -0.2184
 2120TIP3    H1 6366   5.191   1.607   1.265  1.2168  2.0016  1.2423
 2120TIP3    H2 6367   5.298   1.653   1.169 -0.6240  1.8268 -0.9771
 2121TIP3   OH2 6368   4.690   2.086   2.440 -0.0436  0.1554  0.3199
 2121TIP3    H1 6369   4.746   2.033   2.497  0.7269  0.6944  0.0835
 2121TIP3    H2 6370   4.603   2.078   2.478  0.1475 -0.8823  0.5650
 2122TIP3   OH2 6371   3.294   1.474   1.123 -0.1609  0.1114  0.3021
 2122TIP3    H1 6372   3.245   1.476   1.205 -1.9366 -0.0855 -0.6911
 2122TIP3    H2 6373   3.384   1.458   1.149 -0.7163 -0.2099  2.1928
 2123TIP3   OH2 6374   1.341   0.977   3.215 -0.2291 -0.2421 -0.3813
 2123TIP3    H1 6375   1.282   1.052   3.206  0.4174  0.1854 -1.2411
 2123TIP3    H2 6376   1.311   0.931   3.293 -1.1192  0.4828 -0.2903
 2124TIP3   OH2 6377   4.836   1.534   1.758  0.6235 -0.2933 -0.1414
 2124TIP3    H1 6378   4.797   1.484   1.686  1.7402 -0.1433 -0.8697
 2124TIP3    H2 6379   4.801   1.493   1.837 -0.5162 -0.5510 -0.7522
 2125TIP3   OH2 6380   2.142   5.499   5.100 -0.0530 -0.0580 -0.0353
 2125TIP3    H1 6381   2.168   5.591   5.099 -0.1845 -0.0121  0.3297
 2125TIP3    H2 6382   2.156   5.469   5.011 -1.6366  0.7843 -0.6237
 2126TIP3   OH2 6383   3.438   4.909   4.008  0.4071 -0.1725  0.2070
 2126TIP3    H1 6384   3.533   4.920   4.010  0.3111  1.1763  3.3380
 2126TIP3    H2 6385   3.423   4.824   4.050  0.2162  0.2493  1.0155
 2127TIP3   OH2 6386   4.211   2.883   3.050 -0.4444  0.3130 -0.4761
 2127TIP3    H1 6387   4.284   2.921   3.001  1.9839 -0.3942  2.2606
 2127TIP3    H2 6388   4.178   2.955   3.104  1.6039 -0.3375  1.8551
 2128TIP3   OH2 6389   5.216   4.417   2.851  0.1366  0.5534 -0.0752
 2128TIP3    H1 6390   5.225   4.391   2.759 -0.2643  0.3118 -0.0478
 2128TIP3    H2 6391   5.178   4.341   2.894 -0.4990  0.9753  0.1201
 2129TIP3   OH2 6392   2.324   2.492   3.919 -0.2723 -0.4581 -0.4607
 2129TIP3    H1 6393   2.398   2.547   3.893 -0.1741 -1.2549 -2.0032
 2129TIP3    H2 6394   2.361   2.432   3.984  0.1131 -0.0151 -0.2618
 2130TIP3   OH2 6395   4.067   5.171   5.104  0.2259  0.5270  0.0629
 2130TIP3    H1 6396   4.147   5.133   5.139 -2.3739 -3.2944  2.5482
 2130TIP3    H2 6397   4.016   5.197   5.180 -1.7986  0.8060 -1.2911
 2131TIP3   OH2 6398   0.355   3.414   4.490 -0.3664 -0.4994  0.4574
 2131TIP3    H1 6399   0.270   3.397   4.532 -0.3752 -0.0829  0.6127
 2131TIP3    H2 6400   0.400   3.330   4.493 -1.7529 -1.4091 -1.9116
 2132TIP3   OH2 6401   0.317   1.419   0.984 -0.2229 -0.5762 -0.1062
 2132TIP3    H1 6402   0.241   1.378   0.943 -0.4500 -1.5206  1.1963
 2132TIP3    H2 6403   0.280   1.468   1.058  0.4075 -0.8584  0.4047
 2133TIP3   OH2 6404   5.827   4.068   1.819 -0.2989  0.0034  0.2926
 2133TIP3    H1 6405   5.772   4.076   1.898  1.2265 -3.0209  1.8386
 2133TIP3    H2 6406   5.776   4.012   1.761 -0.4425  0.3524  0.0765
 2134TIP3   OH2 6407   5.436   4.387   4.121 -0.4121  0.2520 -0.4506
 2134TIP3    H1 6408   5.371   4.322   4.148 -0.6972  1.2927  1.4965
 2134TIP3    H2 6409   5.402   4.422   4.039 -0.7825 -1.2760 -0.9919
 2135TIP3   OH2 6410   1.825   1.000   5.173  0.3920 -0.0621 -0.1067
 2135TIP3    H1 6411   1.850   0.965   5.087  2.1004 -0.9500  0.6966
 2135TIP3    H2 6412   1.732   1.020   5.164  0.6472  0.4416 -2.3492
 2136TIP3   OH2 6413   2.382   1.892   0.107 -0.7221 -0.2707  0.5184
 2136TIP3    H1 6414   2.410   1.801   0.119 -1.6652 -0.6778 -0.2212
 2136TIP3    H2 6415   2.454   1.944   0.141  0.4959 -1.2730 -0.4377
 2137TIP3   OH2 6416   5.429   0.556   1.045  0.1117  0.5777 -0.6732
 2137TIP3    H1 6417   5.453   0.550   0.953  0.0570  0.4797 -0.6813
 2137TIP3    H2 6418   5.334   0.554   1.045  0.1229 -0.9659 -0.5135
 2138TIP3   OH2 6419   1.739   4.051   0.232 -0.3209  0.3196  0.2013
 2138TIP3    H1 6420   1.700   3.968   0.204  2.5365 -1.4456  0.9924
 2138TIP3    H2 6421   1.729   4.050   0.327  0.7971  0.2520  0.3261
 2139TIP3   OH2 6422   2.075   2.674   0.289  0.4153  0.0634  0.5039
 2139TIP3    H1 6423   1.983   2.695   0.271 -0.3873 -1.2031  2.7018
 2139TIP3    H2 6424   2.117   2.758   0.305 -0.3704  0.6491 -0.4105
 2140TIP3   OH2 6425   1.428   4.657   2.084 -0.3977 -0.2899 -0.9458
 2140TIP3    H1 6426   1.447   4.564   2.099 -0.7018 -0.1666  0.3265
 2140TIP3    H2 6427   1.495   4.685   2.022  1.5102 -0.6809  0.8303
 2141TIP3   OH2 6428   5.732   5.220   2.560  0.4956  0.0124  0.4903
 2141TIP3    H1 6429   5.798   5.153   2.538 -1.6994 -1.4627 -2.2811
 2141TIP3    H2 6430   5.770   5.302   2.528  0.3008 -1.1045 -3.0437
 2142TIP3   OH2 6431   3.281   0.140   0.451  0.5551 -0.0367 -1.0436
 2142TIP3    H1 6432   3.282   0.165   0.543 -0.2340 -1.1284 -0.7157
 2142TIP3    H2 6433   3.249   0.218   0.405  0.3340  0.3056 -0.3126
 2143TIP3   OH2 6434   4.930   0.462   1.677 -0.3167  0.2473  0.0279
 2143TIP3    H1 6435   4.986   0.479   1.753  0.9787 -1.4529 -0.4600
 2143TIP3    H2 6436   4.925   0.546   1.632 -1.3850  1.3791  2.1125
 2144TIP3   OH2 6437   3.890   3.727   2.623  0.0162 -0.0128 -0.6076
 2144TIP3    H1 6438   3.825   3.670   2.583 -0.6438  0.0080  0.4044
 2144TIP3    H2 6439   3.924   3.779   2.551  0.0419 -1.1110 -1.4120
 2145TIP3   OH2 6440   1.675   1.138   3.412  0.8361  0.1236 -0.0710
 2145TIP3    H1 6441   1.612   1.114   3.480  0.3908  0.7651 -0.2540
 2145TIP3    H2 6442   1.632   1.207   3.363  2.7495  2.5608  1.4602
 2146TIP3   OH2 6443   2.232   1.609   0.260  0.3128  0.1507  0.0662
 2146TIP3    H1 6444   2.327   1.610   0.251  0.4186  0.3357  1.1392
 2146TIP3    H2 6445   2.216   1.574   0.347 -0.5335  1.8471  0.6431
 2147TIP3   OH2 6446   3.144   4.053   2.615 -0.0498  0.0736 -0.0899
 2147TIP3    H1 6447   3.177   4.016   2.697  0.1440  0.3781 -0.0297
 2147TIP3    H2 6448   3.169   4.145   2.618  0.3075  0.0059 -0.6701
 2148TIP3   OH2 6449   2.943   4.309   2.952 -0.1954 -0.7747 -0.1142
 2148TIP3    H1 6450   2.939   4.315   3.048 -1.8405 -0.7815 -0.1614
 2148TIP3    H2 6451   2.916   4.220   2.933 -0.2925 -0.6381 -0.6135
 2149TIP3   OH2 6452   6.317   3.684   2.019 -0.3823  0.2956  0.4778
 2149TIP3    H1 6453   6.333   3.765   2.067 -0.2060  0.8083 -0.4228
 2149TIP3    H2 6454   6.383   3.623   2.052 -0.5655  0.4954  1.2172
 2150TIP3   OH2 6455   3.566   1.933   1.718  0.7565 -0.0253  0.0092
 2150TIP3    H1 6456   3.659   1.913   1.712  0.2567 -2.5952 -0.3808
 2150TIP3    H2 6457   3.525   1.879   1.651 -0.9709  1.7549 -0.4885
 2151TIP3   OH2 6458   6.375   3.837   4.675 -0.5030 -0.1888  0.3020
 2151TIP3    H1 6459   6.304   3.797   4.624 -0.3635 -0.3806  0.2573
 2151TIP3    H2 6460   6.379   3.927   4.644  0.5782 -0.6921 -1.1045
 2152TIP3   OH2 6461   3.588   1.971   0.122 -0.3133  0.0914 -0.3086
 2152TIP3    H1 6462   3.681   1.950   0.119 -0.4828 -0.7219 -0.1765
 2152TIP3    H2 6463   3.568   2.004   0.034  0.5144  2.2216  0.2374
 2153TIP3   OH2 6464   1.963   4.316   0.574 -0.3068 -0.2976  0.1393
 2153TIP3    H1 6465   1.929   4.328   0.485  0.6803 -0.6394 -0.2921
 2153TIP3    H2 6466   1.953   4.403   0.615 -1.8569 -0.4234  0.1066
 2154TIP3   OH2 6467   5.642   4.961   1.077 -0.0250  0.0849 -0.5735
 2154TIP3    H1 6468   5.692   4.944   0.998 -0.6822  0.2704 -1.0382
 2154TIP3    H2 6469   5.551   4.958   1.049 -0.2546  0.6703  0.0772
 2155TIP3   OH2 6470   2.964   4.004   2.938  0.1205  0.3903  0.2379
 2155TIP3    H1 6471   3.039   4.010   2.996 -1.3034  1.1464  2.0865
 2155TIP3    H2 6472   2.921   3.922   2.963 -1.3204  1.4308  1.3710
 2156TIP3   OH2 6473   3.096   5.610   2.427 -0.0387 -0.6530  0.4896
 2156TIP3    H1 6474   3.167   5.663   2.390  0.3057 -1.8641 -0.6593
 2156TIP3    H2 6475   3.120   5.599   2.519  0.5294  0.1090  0.4460
 2157TIP3   OH2 6476   1.452   5.539   2.195  0.2841  0.4223 -0.3675
 2157TIP3    H1 6477   1.527   5.479   2.190  0.0500  0.1805 -1.2242
 2157TIP3    H2 6478   1.392   5.507   2.128 -1.6607 -0.8495  1.8156
 2158TIP3   OH2 6479   3.839   2.233   3.910  0.1461  0.6054 -0.0521
 2158TIP3    H1 6480   3.745   2.235   3.928  0.2565 -0.5707  0.7393
 2158TIP3    H2 6481   3.854   2.309   3.854 -0.9396  1.9670  1.4252
 2159TIP3   OH2 6482   3.876   5.892   2.172 -0.4531  0.1785 -0.3205
 2159TIP3    H1 6483   3.939   5.834   2.215  0.4000  0.1219 -1.5687
 2159TIP3    H2 6484   3.817   5.921   2.241  2.1098  1.8205  1.3282
 2160TIP3   OH2 6485   0.521   1.178   0.692 -0.1132 -0.4873 -0.3779
 2160TIP3    H1 6486   0.456   1.187   0.622  0.5589  1.3148 -0.8164
 2160TIP3    H2 6487   0.473   1.134   0.763 -1.4139 -0.4568 -1.1934
 2161TIP3   OH2 6488   1.892   0.989   3.767  0.4070 -0.0714 -0.4432
 2161TIP3    H1 6489   1.930   1.037   3.693  0.0743  0.6498 -0.1595
 2161TIP3    H2 6490   1.851   1.057   3.820 -1.2055 -0.8064 -0.6892
 2162TIP3   OH2 6491   1.395   4.878   0.950  0.1266 -0.3258 -0.1243
 2162TIP3    H1 6492   1.400   4.958   1.001 -1.3349 -0.1510 -0.2255
 2162TIP3    H2 6493   1.380   4.809   1.015  1.1129 -0.4983 -0.0639
 2163TIP3   OH2 6494   0.343   1.389   1.297 -0.3022 -0.1080  0.2651
 2163TIP3    H1 6495   0.427   1.411   1.256  0.6564  2.3905  3.1175
 2163TIP3    H2 6496   0.281   1.453   1.262 -0.2775 -0.0789  0.2742
 2164TIP3   OH2 6497   5.975   3.090   3.113 -0.1915 -0.6104  0.3173
 2164TIP3    H1 6498   6.048   3.073   3.172  0.4287 -2.1748 -0.8298
 2164TIP3    H2 6499   6.014   3.090   3.026 -1.6028 -1.8548 -0.3570
 2165TIP3   OH2 6500   5.521   1.455   3.962  0.2807 -0.7217 -0.4155
 2165TIP3    H1 6501   5.600   1.463   3.908  1.1014  0.1251  0.8448
 2165TIP3    H2 6502   5.547   1.490   4.047 -1.2833 -1.0299  0.2209
 2166TIP3   OH2 6503   2.513   3.773   2.991  0.3121 -0.0469  0.2620
 2166TIP3    H1 6504   2.499   3.697   3.047  0.1217  0.2936  0.6905
 2166TIP3    H2 6505   2.550   3.839   3.050 -1.7432  0.9907  0.4870
 2167TIP3   OH2 6506   1.979   2.320   4.229  0.3692  0.5164  0.2730
 2167TIP3    H1 6507   1.948   2.344   4.142 -1.2559  1.3518  1.0333
 2167TIP3    H2 6508   1.920   2.250   4.257  2.5728 -1.7207 -0.3193
 2168TIP3   OH2 6509   1.715   0.625   2.692 -0.0380  0.4631 -0.2493
 2168TIP3    H1 6510   1.729   0.697   2.753  2.7857  0.2219 -0.5232
 2168TIP3    H2 6511   1.759   0.550   2.732  0.0951 -0.2162 -1.6152
 2169TIP3   OH2 6512   2.336   0.349   4.179 -0.3478  0.3744 -0.2795
 2169TIP3    H1 6513   2.283   0.270   4.185 -0.4560  0.4824  0.2132
 2169TIP3    H2 6514   2.284   0.417   4.221 -0.0185  0.5875 -0.2058
 2170TIP3   OH2 6515   5.195   3.169   4.486 -0.4278  0.5104 -0.1517
 2170TIP3    H1 6516   5.182   3.074   4.494  0.7807  0.3528  0.1365
 2170TIP3    H2 6517   5.274   3.178   4.433  0.0995  1.3220  0.7390
 2171TIP3   OH2 6518   5.976   2.591   4.546  0.2215  0.1673 -0.5034
 2171TIP3    H1 6519   6.049   2.646   4.521  0.3896  0.1060 -0.1596
 2171TIP3    H2 6520   5.911   2.652   4.582  0.4318  0.1397 -0.0677
 2172TIP3   OH2 6521   2.501   2.239   2.434  0.0385  0.7716  0.5421
 2172TIP3    H1 6522   2.426   2.202   2.387  1.1652  1.3364 -1.8375
 2172TIP3    H2 6523   2.462   2.303   2.493 -1.4605 -0.0076  0.4600
 2173TIP3   OH2 6524   0.524   5.099   3.956 -0.1092  0.1412  0.0353
 2173TIP3    H1 6525   0.455   5.125   3.896 -0.3229 -0.0578  0.1899
 2173TIP3    H2 6526   0.558   5.181   3.993  0.3203  0.2893 -0.6762
 2174TIP3   OH2 6527   0.117   4.576   2.813 -0.1724 -0.5865 -0.3990
 2174TIP3    H1 6528   0.076   4.578   2.900 -0.0149 -1.4914 -0.2914
 2174TIP3    H2 6529   0.052   4.615   2.755 -0.6988 -0.8994 -0.0281
 2175TIP3   OH2 6530   0.596   4.413   3.775  0.1917 -0.2334 -0.2067
 2175TIP3    H1 6531   0.609   4.437   3.683  0.6816 -1.2514 -0.4158
 2175TIP3    H2 6532   0.516   4.459   3.801 -1.4274 -1.9028 -1.9052
 2176TIP3   OH2 6533   5.489   0.828   1.191  0.3514  0.0686 -0.0222
 2176TIP3    H1 6534   5.410   0.870   1.157  0.2316  0.8824  1.2095
 2176TIP3    H2 6535   5.488   0.741   1.152 -1.4238 -0.1100  0.3213
 2177TIP3   OH2 6536   0.948   5.631   3.142  0.0825 -0.1254 -0.8126
 2177TIP3    H1 6537   0.954   5.700   3.076  1.2447  0.7126  0.1152
 2177TIP3    H2 6538   0.909   5.674   3.218 -1.1302 -1.0490 -0.8872
 2178TIP3   OH2 6539   4.805   3.934   4.703  0.1943 -0.2844 -0.0566
 2178TIP3    H1 6540   4.731   3.961   4.648 -0.9703 -1.5609  0.7897
 2178TIP3    H2 6541   4.778   3.849   4.738  1.9099 -0.5785  0.6244
 2179TIP3   OH2 6542   4.309   5.405   2.878 -0.0609  0.0154  0.1836
 2179TIP3    H1 6543   4.291   5.323   2.924  1.0646 -0.2731  0.1357
 2179TIP3    H2 6544   4.370   5.380   2.808 -0.5790  0.7085 -0.5276
 2180TIP3   OH2 6545   0.882   4.948   0.663  0.3181  0.1991 -0.7417
 2180TIP3    H1 6546   0.806   4.930   0.607 -0.9118 -1.2896  1.2352
 2180TIP3    H2 6547   0.941   4.875   0.646  2.5742  2.5318 -4.0237
 2181TIP3   OH2 6548   2.255   0.988   4.325 -0.5209 -0.2661  0.1936
 2181TIP3    H1 6549   2.331   0.984   4.267 -0.1880  3.0595  0.2207
 2181TIP3    H2 6550   2.182   0.959   4.270  0.3928 -1.3603 -0.4987
 2182TIP3   OH2 6551   4.614   4.254   5.116  0.1196 -0.5155  0.0462
 2182TIP3    H1 6552   4.623   4.186   5.049 -0.4865  0.1327 -0.7072
 2182TIP3    H2 6553   4.639   4.335   5.072  1.6027 -0.3233  1.1501
 2183TIP3   OH2 6554   2.069   4.022   1.740 -0.4247 -0.2405 -0.1566
 2183TIP3    H1 6555   2.083   3.928   1.727 -0.9933 -0.2897 -0.4373
 2183TIP3    H2 6556   2.128   4.045   1.813  1.6792 -0.2806 -1.7481
 2184TIP3   OH2 6557   3.257   3.794   4.033 -0.5579  0.0336 -0.0481
 2184TIP3    H1 6558   3.314   3.858   4.075 -0.8584  1.3073 -1.4901
 2184TIP3    H2 6559   3.312   3.716   4.021  1.0538  1.3527 -1.7683
 2185TIP3   OH2 6560   1.998   2.193   1.427 -1.0149 -0.0061 -0.4699
 2185TIP3    H1 6561   2.016   2.120   1.486 -0.9784  0.4249  0.0559
 2185TIP3    H2 6562   1.941   2.156   1.360 -2.0568 -0.2006  0.5047
 2186TIP3   OH2 6563   4.422   0.046   4.560 -0.7620 -0.2401  0.4167
 2186TIP3    H1 6564   4.437  -0.001   4.643 -0.7383  1.0891  1.1935
 2186TIP3    H2 6565   4.327   0.046   4.550 -0.8516  0.7677  1.1628
 2187TIP3   OH2 6566   1.525   2.168   3.910 -0.2753 -0.5332 -0.0462
 2187TIP3    H1 6567   1.477   2.088   3.889 -1.6222  0.4261 -0.7977
 2187TIP3    H2 6568   1.580   2.185   3.833 -3.0630  1.4181 -1.7982
 2188TIP3   OH2 6569   1.108   0.759   3.061 -0.0816 -0.1587  0.0079
 2188TIP3    H1 6570   1.148   0.744   2.975 -0.9748 -2.4785 -0.0689
 2188TIP3    H2 6571   1.014   0.749   3.046 -0.2567 -0.5639  1.2359
 2189TIP3   OH2 6572   4.534   0.307   4.731 -0.5538 -0.0453 -0.1857
 2189TIP3    H1 6573   4.496   0.221   4.714 -0.4554  0.3143 -2.7368
 2189TIP3    H2 6574   4.486   0.341   4.806  0.1878 -2.7344  1.6226
 2190TIP3   OH2 6575   3.340   5.123   0.552 -0.0134  0.2136  0.1089
 2190TIP3    H1 6576   3.315   5.048   0.499  1.1556 -0.7504  0.8499
 2190TIP3    H2 6577   3.263   5.142   0.605  0.3045 -1.8793  1.4604
 2191TIP3   OH2 6578   3.066   5.377   2.166 -0.1515 -0.0244  0.1089
 2191TIP3    H1 6579   2.980   5.338   2.149  0.6630 -0.8858 -2.5590
 2191TIP3    H2 6580   3.117   5.306   2.206 -0.6419  0.4972  1.7228
 2192TIP3   OH2 6581   4.173   6.010   3.807 -0.1614  0.0098  0.5509
 2192TIP3    H1 6582   4.182   6.021   3.712 -0.8564 -0.1682  0.4583
 2192TIP3    H2 6583   4.222   5.931   3.827 -1.4653 -0.9652  0.0596
 2193TIP3   OH2 6584   4.431   3.906   4.419  0.4644  0.1758 -0.3537
 2193TIP3    H1 6585   4.370   3.968   4.380  0.6080 -1.2669 -3.1329
 2193TIP3    H2 6586   4.385   3.822   4.417  1.5282 -0.4465  0.0837
 2194TIP3   OH2 6587   5.929   4.395   3.176 -0.1918  0.1767 -0.5192
 2194TIP3    H1 6588   5.991   4.363   3.110 -0.5082 -0.9853 -0.2749
 2194TIP3    H2 6589   5.964   4.361   3.259 -0.1405  1.1008 -0.1562
 2195TIP3   OH2 6590   2.352   5.351   2.071  0.1077  0.8060 -0.1274
 2195TIP3    H1 6591   2.256   5.355   2.063 -0.0428  0.3909  1.2074
 2195TIP3    H2 6592   2.367   5.309   2.155  1.4882 -0.2811 -0.8808
 2196TIP3   OH2 6593   5.159   1.381   2.182 -0.0529 -0.0965 -0.3494
 2196TIP3    H1 6594   5.102   1.452   2.153 -0.5366  0.6902  2.2503
 2196TIP3    H2 6595   5.137   1.369   2.274  0.2590 -3.4330 -0.5795
 2197TIP3   OH2 6596   5.202   4.430   0.855 -0.3194  0.0331 -0.3568
 2197TIP3    H1 6597   5.280   4.403   0.902 -1.5636 -1.6358  0.8538
 2197TIP3    H2 6598   5.191   4.364   0.787  1.7161  2.6550 -3.5246
 2198TIP3   OH2 6599   5.272   3.932   1.437  0.2770 -0.1028 -0.0876
 2198TIP3    H1 6600   5.339   3.975   1.384  0.9049  1.2159  1.6925
 2198TIP3    H2 6601   5.204   3.999   1.449 -1.5872 -1.5001 -2.0934
 2199TIP3   OH2 6602   4.739   3.101   1.482 -0.6567  0.1840 -0.4608
 2199TIP3    H1 6603   4.662   3.051   1.511 -0.9519  1.2055  0.6069
 2199TIP3    H2 6604   4.723   3.190   1.515  0.9695  0.4183 -0.2447
 2200TIP3   OH2 6605   3.430   2.326   2.224  0.5704 -0.5398 -0.4429
 2200TIP3    H1 6606   3.364   2.296   2.287  0.7294  0.3523  0.1719
 2200TIP3    H2 6607   3.483   2.248   2.207  0.5181 -0.8069  0.5381
 2201TIP3   OH2 6608   1.461   1.249   2.237  0.7088  0.2595  0.8946
 2201TIP3    H1 6609   1.463   1.221   2.146 -1.2723 -1.7261  1.3585
 2201TIP3    H2 6610   1.476   1.344   2.234  2.0820  0.0376 -1.3216
 2202TIP3   OH2 6611   0.607   4.642   4.146 -0.2641  0.1349 -0.2032
 2202TIP3    H1 6612   0.535   4.587   4.117 -0.1255 -0.2054  0.0838
 2202TIP3    H2 6613   0.587   4.662   4.238  0.2096 -0.3156  0.0100
 2203TIP3   OH2 6614   0.112   2.832   2.682  0.0800  0.0065  0.0910
 2203TIP3    H1 6615   0.044   2.859   2.743 -0.6539  2.2523 -1.5938
 2203TIP3    H2 6616   0.192   2.872   2.717 -0.5183  2.1917 -0.8749
 2204TIP3   OH2 6617   1.363   2.938   4.793  0.4559  0.3911  0.0755
 2204TIP3    H1 6618   1.435   2.941   4.857  2.1578 -1.2116 -1.6182
 2204TIP3    H2 6619   1.296   2.884   4.835  1.5711 -0.7014  0.5183
 2205TIP3   OH2 6620   3.718   3.514   0.733 -0.0016  0.1490 -0.4721
 2205TIP3    H1 6621   3.687   3.432   0.771 -0.5068  0.8475  0.6937
 2205TIP3    H2 6622   3.647   3.544   0.678 -0.0138  0.0376 -0.5159
 2206TIP3   OH2 6623   4.577   0.808   3.048 -0.1315 -0.1061  0.1274
 2206TIP3    H1 6624   4.646   0.754   3.010 -0.9356 -0.3164 -1.0911
 2206TIP3    H2 6625   4.578   0.889   2.996 -0.1877  0.2731  0.7081
 2207TIP3   OH2 6626   0.314   0.697   0.106 -0.2547  0.1194  0.0965
 2207TIP3    H1 6627   0.261   0.772   0.132 -0.0068  0.0238  0.9043
 2207TIP3    H2 6628   0.291   0.628   0.168 -1.3627 -0.8850 -1.3589
 2208TIP3   OH2 6629   4.901   5.663   0.525  0.4664  0.0001  0.8585
 2208TIP3    H1 6630   4.906   5.724   0.452  2.1365  1.4148  2.0463
 2208TIP3    H2 6631   4.825   5.608   0.506 -0.3583  1.6332 -0.8990
 2209TIP3   OH2 6632   2.455   4.428   2.095 -0.3112  0.2875  0.2568
 2209TIP3    H1 6633   2.498   4.493   2.039  1.1405  1.0829  2.1643
 2209TIP3    H2 6634   2.512   4.422   2.172 -1.6497 -1.5429  1.1724
 2210TIP3   OH2 6635   0.105   6.008   1.295  0.6454  0.0394 -0.0144
 2210TIP3    H1 6636   0.061   5.937   1.248 -0.2317  0.2003  0.5401
 2210TIP3    H2 6637   0.195   5.977   1.307  0.6237 -0.4134 -0.9334
 2211TIP3   OH2 6638   4.092   3.352   2.623 -0.1257 -0.3620 -0.7743
 2211TIP3    H1 6639   4.187   3.359   2.613  0.0031  1.7348  1.3563
 2211TIP3    H2 6640   4.079   3.276   2.680  0.3029 -0.2841 -0.5750
 2212TIP3   OH2 6641   3.919   4.562   0.657 -0.3287 -0.2415  0.1233
 2212TIP3    H1 6642   4.013   4.546   0.652 -0.1805  0.8767 -2.7973
 2212TIP3    H2 6643   3.909   4.620   0.733  1.4019 -0.0059  0.2200
 2213TIP3   OH2 6644   6.153   1.520   3.550  0.0300  0.1971  0.6182
 2213TIP3    H1 6645   6.194   1.567   3.622  0.9826 -0.6786  0.6723
 2213TIP3    H2 6646   6.062   1.507   3.578  0.2103  0.4860  1.3470
 2214TIP3   OH2 6647   2.459   3.886   0.307 -0.3477 -0.1444  0.1064
 2214TIP3    H1 6648   2.431   3.847   0.224 -0.4763 -0.7198  0.4149
 2214TIP3    H2 6649   2.457   3.981   0.291  0.7930 -0.2694 -0.9207
 2215TIP3   OH2 6650   0.862   0.958   3.580 -0.1159 -0.0252  0.0894
 2215TIP3    H1 6651   0.842   0.960   3.487 -1.7764 -0.5667  0.3950
 2215TIP3    H2 6652   0.815   1.033   3.617  1.3218  0.7765  0.3887
 2216TIP3   OH2 6653   4.717   4.496   3.980 -0.0977  0.3469 -0.2618
 2216TIP3    H1 6654   4.662   4.495   4.058 -0.0302 -2.2147 -0.1552
 2216TIP3    H2 6655   4.655   4.500   3.907 -0.2970  0.1747 -0.1033
 2217TIP3   OH2 6656   3.702   0.427   3.439  0.1440 -0.2038 -0.3205
 2217TIP3    H1 6657   3.691   0.509   3.487 -0.2190  0.4723 -1.5036
 2217TIP3    H2 6658   3.721   0.455   3.349 -0.1460 -1.4256 -0.7777
 2218TIP3   OH2 6659   2.500   1.808   0.428  0.1761 -0.2374 -0.5772
 2218TIP3    H1 6660   2.538   1.767   0.349 -1.3107 -0.1860 -1.3589
 2218TIP3    H2 6661   2.522   1.901   0.419 -1.4276  0.0663 -1.8651
 2219TIP3   OH2 6662   3.205   3.138   3.450  0.1517  0.0703  0.0885
 2219TIP3    H1 6663   3.244   3.214   3.406  1.2151 -0.7942 -0.5202
 2219TIP3    H2 6664   3.117   3.131   3.413 -0.1203  1.2253  0.4533
 2220TIP3   OH2 6665   5.542   2.579   4.902  0.2068  0.0717 -0.0606
 2220TIP3    H1 6666   5.479   2.651   4.893 -0.4516 -0.4875  0.0245
 2220TIP3    H2 6667   5.560   2.552   4.812 -0.2553 -0.2636 -0.0540
 2221TIP3   OH2 6668   5.468   1.523   2.253 -0.1554  0.3080  0.0626
 2221TIP3    H1 6669   5.472   1.428   2.244  0.5720  0.4202 -0.8930
 2221TIP3    H2 6670   5.515   1.541   2.335 -1.5586 -0.2439  1.0336
 2222TIP3   OH2 6671   0.068   4.555   0.738 -0.3305  0.1919  0.1932
 2222TIP3    H1 6672   0.049   4.500   0.662 -1.5788 -0.9182  1.2417
 2222TIP3    H2 6673   0.019   4.636   0.722 -2.6933 -0.9862  0.8597
 2223TIP3   OH2 6674   3.554   0.331   0.553  0.1766  0.3834  0.3546
 2223TIP3    H1 6675   3.546   0.394   0.624 -0.4405  0.6986  0.0160
 2223TIP3    H2 6676   3.545   0.245   0.596 -3.0902  0.6121  0.3586
 2224TIP3   OH2 6677   4.339   0.660   1.153  0.1535  0.2169  0.2015
 2224TIP3    H1 6678   4.260   0.619   1.117  0.7332 -0.6445 -0.1479
 2224TIP3    H2 6679   4.353   0.737   1.098  0.6768 -0.7428 -1.0839
 2225TIP3   OH2 6680   2.249   2.951   1.987  0.2216  0.3654 -0.1433
 2225TIP3    H1 6681   2.187   2.990   2.048 -2.0121  1.6023 -2.9582
 2225TIP3    H2 6682   2.296   3.025   1.949  1.3761 -0.3443 -0.1687
 2226TIP3   OH2 6683   0.402   0.471   3.124 -0.3193  0.2932 -0.3360
 2226TIP3    H1 6684   0.309   0.491   3.114 -0.6836 -0.8030  0.6687
 2226TIP3    H2 6685   0.404   0.380   3.154  1.1172  0.0124 -1.1980
 2227TIP3   OH2 6686   4.326   3.937   1.160  0.0422 -0.5631 -0.1363
 2227TIP3    H1 6687   4.390   3.877   1.198  0.5640 -0.9512 -1.5728
 2227TIP3    H2 6688   4.273   3.966   1.234 -0.3019 -2.8748  0.6104
 2228TIP3   OH2 6689   5.988   3.687   4.347  0.3848 -0.4596 -0.5782
 2228TIP3    H1 6690   5.900   3.693   4.384  0.3791  2.1832 -0.8045
 2228TIP3    H2 6691   5.975   3.673   4.253  0.1067  1.0746 -0.7993
 2229TIP3   OH2 6692   4.866   2.217   3.723 -0.0716 -0.0641  0.4890
 2229TIP3    H1 6693   4.875   2.284   3.654 -0.8079  0.6478  1.0722
 2229TIP3    H2 6694   4.772   2.199   3.726  0.0980 -0.9593  0.5061
 2230TIP3   OH2 6695   5.181   4.385   2.047  0.1197  0.4570 -0.6916
 2230TIP3    H1 6696   5.153   4.356   2.134 -1.2715  0.0430 -1.2548
 2230TIP3    H2 6697   5.127   4.462   2.029 -0.6672 -0.3342 -1.7938
 2231TIP3   OH2 6698   3.235   4.726   1.776 -0.5479 -0.2949  0.2896
 2231TIP3    H1 6699   3.195   4.802   1.734 -1.0069 -1.1765 -0.8919
 2231TIP3    H2 6700   3.270   4.674   1.704  2.1305  0.0635  1.2103
 2232TIP3   OH2 6701   2.577   2.137   4.263 -0.1952  0.1005 -0.1498
 2232TIP3    H1 6702   2.562   2.061   4.320  2.4427 -0.6435 -0.3173
 2232TIP3    H2 6703   2.577   2.101   4.175  0.7013  0.3386 -0.2552
 2233TIP3   OH2 6704   1.929   5.263   2.595  0.2495  0.0390 -0.2684
 2233TIP3    H1 6705   1.873   5.215   2.656  1.7107 -0.5368  0.6895
 2233TIP3    H2 6706   1.997   5.200   2.570  1.2583  1.0971 -0.3038
 2234TIP3   OH2 6707   2.095   0.293   1.332  0.4994  0.1456 -0.8060
 2234TIP3    H1 6708   2.174   0.261   1.288  0.4998  0.1470 -0.8061
 2234TIP3    H2 6709   2.128   0.339   1.409  0.5804  1.4488 -1.5984
 2235TIP3   OH2 6710   0.488   4.974   4.997 -0.0524  0.0371 -0.2892
 2235TIP3    H1 6711   0.578   4.996   5.019 -0.2596  0.4430  0.1789
 2235TIP3    H2 6712   0.463   5.039   4.932  0.0935 -0.2698 -0.6525
 2236TIP3   OH2 6713   1.872   0.558   0.451  0.4621 -0.4002 -0.0497
 2236TIP3    H1 6714   1.807   0.614   0.408 -0.2453 -0.5189  0.8339
 2236TIP3    H2 6715   1.820   0.492   0.497  1.1023  0.4835  2.0521
 2237TIP3   OH2 6716   5.706   4.443   3.718  0.0872  0.0269 -0.2048
 2237TIP3    H1 6717   5.761   4.498   3.662 -1.2616 -0.6521 -2.3038
 2237TIP3    H2 6718   5.685   4.499   3.793  2.3793  0.7948 -0.0558
 2238TIP3   OH2 6719   5.066   3.548   3.105 -0.2754  0.2381  0.5434
 2238TIP3    H1 6720   5.122   3.471   3.109 -1.3855 -0.6857 -0.8459
 2238TIP3    H2 6721   5.095   3.603   3.178  1.5289 -0.7969  0.6557
 2239TIP3   OH2 6722   5.594   2.668   0.563  0.5408  0.0613 -0.0990
 2239TIP3    H1 6723   5.546   2.677   0.481 -0.6921  3.1606  0.8351
 2239TIP3    H2 6724   5.686   2.676   0.539  0.2316  0.2519 -1.2380
 2240TIP3   OH2 6725   3.070   3.843   2.153 -0.2560  0.1044  0.2303
 2240TIP3    H1 6726   3.012   3.897   2.207  0.4056  0.3769  0.6833
 2240TIP3    H2 6727   3.152   3.892   2.151 -0.1839 -0.0420 -0.8020
 2241TIP3   OH2 6728   0.477   2.670   3.903 -0.5592  0.1054  0.4053
 2241TIP3    H1 6729   0.474   2.655   3.997 -1.1765 -0.2398  0.3319
 2241TIP3    H2 6730   0.560   2.716   3.889 -1.9540  3.2928  1.5445
 2242TIP3   OH2 6731   3.001   4.945   1.459  0.1274  0.2033  0.1342
 2242TIP3    H1 6732   2.906   4.940   1.473 -0.0715  0.6406 -0.9602
 2242TIP3    H2 6733   3.037   4.969   1.545 -0.7055 -0.3747  0.6573
 2243TIP3   OH2 6734   0.243   4.010   2.336 -0.0589  0.0236  0.0004
 2243TIP3    H1 6735   0.221   3.999   2.428 -0.1043  0.2860  0.0215
 2243TIP3    H2 6736   0.310   4.077   2.335  2.6927 -2.5198  0.1771
 2244TIP3   OH2 6737   1.904   0.635   1.106  0.2248  0.1621  0.6902
 2244TIP3    H1 6738   1.987   0.658   1.148 -0.1818  3.2366  0.0390
 2244TIP3    H2 6739   1.876   0.555   1.150  3.5978 -1.1592  0.7771
 2245TIP3   OH2 6740   2.016   0.801   3.472  0.4011  0.2825  0.3061
 2245TIP3    H1 6741   2.016   0.893   3.449  2.7755  0.3810  0.4329
 2245TIP3    H2 6742   1.970   0.758   3.400  1.0141  1.3697 -0.7809
 2246TIP3   OH2 6743   3.222   5.719   1.070 -0.2430  0.3851 -0.3085
 2246TIP3    H1 6744   3.222   5.732   0.975 -0.3280  1.0338 -0.2245
 2246TIP3    H2 6745   3.308   5.749   1.099 -0.5390  1.0391 -0.0785
 2247TIP3   OH2 6746   2.716   2.414   1.180 -0.2100  0.2123 -0.7122
 2247TIP3    H1 6747   2.755   2.488   1.133  0.0405  1.3653  1.2018
 2247TIP3    H2 6748   2.791   2.359   1.204  0.0955  1.3668  1.1766
 2248TIP3   OH2 6749   5.440   3.060   1.797 -0.3531 -0.0711  0.6090
 2248TIP3    H1 6750   5.520   3.087   1.752 -0.3101 -1.1457  0.0113
 2248TIP3    H2 6751   5.391   3.011   1.732  1.0627 -4.3547  2.3729
 2249TIP3   OH2 6752   3.215   0.365   1.449  0.2412 -0.5408 -0.4513
 2249TIP3    H1 6753   3.181   0.307   1.381 -0.5825  0.4266 -0.8898
 2249TIP3    H2 6754   3.165   0.446   1.439  2.1966  0.7119 -0.6945
 2250TIP3   OH2 6755   4.704   4.008   3.895 -0.3332  0.2756 -0.2194
 2250TIP3    H1 6756   4.637   4.076   3.892  1.0768  1.6950 -0.4902
 2250TIP3    H2 6757   4.696   3.971   3.983  1.0196  3.0632  1.1991
 2251TIP3   OH2 6758   1.051   4.121   4.937  0.1403 -0.3326 -0.0864
 2251TIP3    H1 6759   1.001   4.126   5.018  0.4739 -1.3717  0.1890
 2251TIP3    H2 6760   1.075   4.029   4.928  3.6671  0.3620  0.7898
 2252TIP3   OH2 6761   0.989   2.732   0.678 -0.3657  0.2356 -0.0183
 2252TIP3    H1 6762   0.930   2.759   0.608 -0.5052 -2.1167 -0.8905
 2252TIP3    H2 6763   1.029   2.652   0.647  0.9142  0.0613  1.8900
 2253TIP3   OH2 6764   1.260   3.916   2.250 -0.0520 -0.2148  0.3677
 2253TIP3    H1 6765   1.296   3.962   2.175 -0.4270 -0.1492  0.2232
 2253TIP3    H2 6766   1.336   3.887   2.300  0.3101 -2.4753 -1.3299
 2254TIP3   OH2 6767   5.166   1.289   4.815 -0.3560 -0.1420 -0.0328
 2254TIP3    H1 6768   5.260   1.287   4.799 -0.0472 -0.5212  1.6715
 2254TIP3    H2 6769   5.157   1.276   4.909 -2.1846 -1.5391 -0.3497
 2255TIP3   OH2 6770   0.055   5.771   4.237  0.1713  0.7235 -0.3976
 2255TIP3    H1 6771   0.008   5.813   4.309  1.7606  0.7989  0.6396
 2255TIP3    H2 6772  -0.014   5.741   4.178 -1.1286  1.6688  0.5873
 2256TIP3   OH2 6773   3.142   4.498   1.583 -0.0909  0.4940 -0.5126
 2256TIP3    H1 6774   3.086   4.429   1.548 -0.0671 -0.5948  1.4178
 2256TIP3    H2 6775   3.221   4.452   1.612 -0.2891  1.2185  1.3093
 2257TIP3   OH2 6776   2.243   0.542   0.116  0.2734  0.3199 -0.2499
 2257TIP3    H1 6777   2.261   0.549   0.023 -0.8608 -0.5481 -0.5519
 2257TIP3    H2 6778   2.177   0.609   0.133  2.6213  2.5991  0.5949
 2258TIP3   OH2 6779   5.543   4.477   3.162  0.6743  0.1311 -0.2398
 2258TIP3    H1 6780   5.462   4.511   3.123  1.5369  1.1038 -1.2202
 2258TIP3    H2 6781   5.568   4.404   3.105  0.6882  0.0655 -0.1499
 2259TIP3   OH2 6782   4.323   3.377   2.311 -0.2461 -0.0870  0.1957
 2259TIP3    H1 6783   4.315   3.472   2.317  0.3521 -0.0060 -0.1944
 2259TIP3    H2 6784   4.270   3.354   2.234 -0.3588 -0.0689  0.2668
 2260TIP3   OH2 6785   1.402   4.926   2.153 -0.1518 -0.1847 -0.3203
 2260TIP3    H1 6786   1.402   4.837   2.118 -0.2008  0.1949 -1.3161
 2260TIP3    H2 6787   1.362   4.918   2.240  1.8051 -1.4892  0.5490
 2261TIP3   OH2 6788   5.027   3.978   2.061 -0.4425  0.0247 -0.0935
 2261TIP3    H1 6789   5.039   4.029   2.141 -1.1343  0.7819 -0.4573
 2261TIP3    H2 6790   4.992   4.040   1.997 -0.2129 -0.6416 -0.8938
 2262TIP3   OH2 6791   2.942   2.093   3.622  0.0395 -0.8664 -0.8025
 2262TIP3    H1 6792   3.019   2.127   3.668 -1.3353  0.2610  0.7953
 2262TIP3    H2 6793   2.974   2.016   3.575  1.9257 -1.0189  0.6085
 2263TIP3   OH2 6794   2.105   5.160   2.889  0.5205  0.2071 -0.2507
 2263TIP3    H1 6795   2.157   5.092   2.846 -0.4138 -0.3784 -0.4717
 2263TIP3    H2 6796   2.152   5.242   2.869  0.1151 -0.0248 -2.4443
 2264TIP3   OH2 6797   5.494   2.913   3.852  0.3618  0.1483  0.1740
 2264TIP3    H1 6798   5.505   3.007   3.862  2.5717 -0.0749  0.4053
 2264TIP3    H2 6799   5.581   2.876   3.871 -0.5687 -1.9848  0.6637
 2265TIP3   OH2 6800   4.286   2.892   0.300  0.4889 -0.5899  0.4231
 2265TIP3    H1 6801   4.339   2.817   0.326 -0.2620 -0.8045  1.4199
 2265TIP3    H2 6802   4.270   2.939   0.382  0.8290  0.5861 -0.1651
 2266TIP3   OH2 6803   3.625   1.534   0.236  0.1738  0.0901  0.2301
 2266TIP3    H1 6804   3.642   1.614   0.286 -0.9277 -0.3890  1.4341
 2266TIP3    H2 6805   3.659   1.553   0.149  1.0882  1.3963  0.8299
 2267TIP3   OH2 6806   4.432   4.990   4.357 -0.0240  0.3420 -0.3799
 2267TIP3    H1 6807   4.395   4.904   4.337 -2.4915  0.8387  1.5173
 2267TIP3    H2 6808   4.418   5.041   4.278  1.5728 -0.9467 -1.5739
 2268TIP3   OH2 6809   2.673   3.375   1.163 -0.1697  0.0497  0.6803
 2268TIP3    H1 6810   2.623   3.294   1.170  3.3400 -2.3383  0.9206
 2268TIP3    H2 6811   2.682   3.406   1.254  1.4790 -1.4585  1.1022
 2269TIP3   OH2 6812   5.854   0.553   0.665 -0.6707  0.0837  0.1873
 2269TIP3    H1 6813   5.824   0.528   0.578  0.4227  0.6551 -0.3799
 2269TIP3    H2 6814   5.931   0.498   0.680  0.1653  1.1765  0.0497
 2270TIP3   OH2 6815   3.715   4.113   0.161 -0.5863 -0.6017  1.0814
 2270TIP3    H1 6816   3.627   4.106   0.196 -1.8409  0.3014 -1.6435
 2270TIP3    H2 6817   3.718   4.199   0.120  1.5332 -0.6767  0.9709
 2271TIP3   OH2 6818   1.976   5.864   1.184  0.0958  0.1866 -0.1799
 2271TIP3    H1 6819   2.061   5.893   1.151  0.2585  1.3780  1.1798
 2271TIP3    H2 6820   1.914   5.928   1.148 -0.6401 -1.9440 -3.0413
 2272TIP3   OH2 6821   4.474   1.976   2.137  0.2708  0.7858 -0.0103
 2272TIP3    H1 6822   4.390   1.939   2.112  0.8833 -1.9518  1.5630
 2272TIP3    H2 6823   4.478   1.966   2.232  2.3864  0.6838 -0.0503
 2273TIP3   OH2 6824   0.939   2.713   2.086 -0.0473 -0.3248  0.6912
 2273TIP3    H1 6825   0.897   2.698   2.002  1.7361 -0.8187 -0.1584
 2273TIP3    H2 6826   0.950   2.625   2.123 -0.1629 -0.1634  1.1159
 2274TIP3   OH2 6827   2.239   0.058   1.765 -0.7975 -0.1783  0.2765
 2274TIP3    H1 6828   2.316   0.006   1.739 -0.2506  0.6082  0.2888
 2274TIP3    H2 6829   2.175   0.041   1.696 -0.8119 -1.2552  0.5352
 2275TIP3   OH2 6830   4.108   1.783   1.164 -0.0685  0.9024 -0.1031
 2275TIP3    H1 6831   4.052   1.821   1.232  0.5647 -1.9697  2.2159
 2275TIP3    H2 6832   4.083   1.691   1.161  3.4284 -0.1804 -0.0201
 2276TIP3   OH2 6833   3.772   5.974   2.901 -0.1436  0.1161 -0.3782
 2276TIP3    H1 6834   3.864   5.968   2.928  0.2436  3.6420 -0.5074
 2276TIP3    H2 6835   3.724   5.935   2.974  1.3562  0.5044  0.8746
 2277TIP3   OH2 6836   0.800   4.216   1.773  0.2737 -0.0326  0.1420
 2277TIP3    H1 6837   0.757   4.130   1.762 -1.5244  1.0045 -1.4719
 2277TIP3    H2 6838   0.804   4.252   1.685  1.7374  1.2382  0.7063
 2278TIP3   OH2 6839   6.317   2.272   1.567 -0.1924  0.4272  0.4299
 2278TIP3    H1 6840   6.251   2.214   1.529 -2.0112  1.4239  1.9013
 2278TIP3    H2 6841   6.308   2.259   1.662 -0.3045  2.6856  0.7748
 2279TIP3   OH2 6842   6.108   1.259   3.998  0.4889  0.2693  0.1466
 2279TIP3    H1 6843   6.166   1.328   3.966  1.9262 -0.6926  0.5909
 2279TIP3    H2 6844   6.093   1.203   3.921  0.9940 -0.0508  0.2808
 2280TIP3   OH2 6845   0.707   3.547   2.526 -0.3061  0.7031 -0.0511
 2280TIP3    H1 6846   0.796   3.519   2.505 -0.9509 -1.5010 -0.1111
 2280TIP3    H2 6847   0.692   3.624   2.471  1.1690  0.4436 -0.8574
 2281TIP3   OH2 6848   2.802   5.269   2.262 -0.2802  0.1466  0.3121
 2281TIP3    H1 6849   2.846   5.187   2.240 -0.5611 -0.7928  2.8855
 2281TIP3    H2 6850   2.770   5.256   2.351 -1.3624  2.6547  0.3810
 2282TIP3   OH2 6851   2.867   3.603   4.999  0.1572  0.1874 -0.1733
 2282TIP3    H1 6852   2.907   3.525   4.960 -0.2314  0.4458 -1.1202
 2282TIP3    H2 6853   2.791   3.570   5.046  0.1806 -0.0420 -0.2951
 2283TIP3   OH2 6854   5.072   4.521   2.466 -0.2447  0.0866  0.1171
 2283TIP3    H1 6855   5.136   4.451   2.478 -1.8363 -1.4866 -0.2815
 2283TIP3    H2 6856   5.104   4.569   2.389  1.3513  0.4350  0.9427
 2284TIP3   OH2 6857   5.446   2.328   1.177 -0.0266  0.0864  0.0134
 2284TIP3    H1 6858   5.400   2.246   1.162  0.9819 -0.5639  0.3932
 2284TIP3    H2 6859   5.401   2.367   1.252 -0.3920 -0.1976 -0.0528
 2285TIP3   OH2 6860   6.057   4.693   0.588  0.5441 -0.0834  0.1042
 2285TIP3    H1 6861   6.122   4.627   0.562  1.8428  0.9021  0.6924
 2285TIP3    H2 6862   6.009   4.713   0.507  1.7369 -0.0472 -0.6284
 2286TIP3   OH2 6863   2.228   4.578   4.754 -0.2159 -0.2060 -0.5128
 2286TIP3    H1 6864   2.232   4.607   4.663 -0.5296 -0.2078 -0.5304
 2286TIP3    H2 6865   2.197   4.488   4.750  1.9331 -0.9989 -0.5227
 2287TIP3   OH2 6866   5.255   0.540   3.603 -0.0285 -0.4162  0.2053
 2287TIP3    H1 6867   5.331   0.597   3.614 -0.1639  0.5568 -2.9259
 2287TIP3    H2 6868   5.287   0.452   3.623  1.2051  0.2619  1.3639
 2288TIP3   OH2 6869   3.158   4.590   4.355 -0.3277  0.1702  0.5274
 2288TIP3    H1 6870   3.242   4.621   4.388  0.1693  0.0409 -0.5561
 2288TIP3    H2 6871   3.103   4.581   4.432  1.8073 -3.5546  1.9130
 2289TIP3   OH2 6872   0.910   1.579   4.570 -0.0372  0.1939  0.2000
 2289TIP3    H1 6873   1.001   1.594   4.596 -0.0360  0.3266  0.1218
 2289TIP3    H2 6874   0.916   1.548   4.480 -0.0047 -0.8615  0.5528
 2290TIP3   OH2 6875   5.153   4.587   0.307  0.5103  0.0669 -0.3740
 2290TIP3    H1 6876   5.135   4.659   0.366 -0.4275 -0.5727  0.1510
 2290TIP3    H2 6877   5.080   4.588   0.245  1.6758  0.9631 -1.7836
 2291TIP3   OH2 6878   1.594   5.255   2.468  0.4279  0.6620 -0.2192
 2291TIP3    H1 6879   1.654   5.230   2.539  0.4351  2.0758  0.3093
 2291TIP3    H2 6880   1.508   5.260   2.509  0.3969  1.2833 -0.3492
 2292TIP3   OH2 6881   1.068   0.565   3.332  0.6163 -0.4737  0.0016
 2292TIP3    H1 6882   1.085   0.618   3.254  0.5984  0.1066  0.3859
 2292TIP3    H2 6883   1.125   0.603   3.399  0.3285 -0.7131  0.3817
 2293TIP3   OH2 6884   0.425   5.107   3.348 -0.3536 -0.2787  0.5299
 2293TIP3    H1 6885   0.418   5.038   3.282  1.0020 -1.4864  1.5765
 2293TIP3    H2 6886   0.510   5.149   3.330  0.5855 -1.3902  2.1573
 2294TIP3   OH2 6887   2.493   3.092   3.515 -0.9464  0.1085  0.3603
 2294TIP3    H1 6888   2.416   3.099   3.458  0.2853  2.5651 -1.2078
 2294TIP3    H2 6889   2.528   3.005   3.498 -1.3362  0.3113 -1.8005
 2295TIP3   OH2 6890   5.499   3.075   1.460  0.0052 -0.4345 -0.1393
 2295TIP3    H1 6891   5.544   2.991   1.470 -1.2512 -1.3721 -1.7578
 2295TIP3    H2 6892   5.486   3.084   1.365  1.1201  2.1784 -0.1394
 2296TIP3   OH2 6893   0.213   2.365   1.979 -0.5123 -0.0011 -0.6067
 2296TIP3    H1 6894   0.213   2.287   1.924 -1.4446  0.7700 -1.7549
 2296TIP3    H2 6895   0.207   2.438   1.917  1.1175  1.0347  0.3920
 2297TIP3   OH2 6896   4.898   1.136   1.737  0.1890  0.0139 -0.1132
 2297TIP3    H1 6897   4.979   1.109   1.694 -0.0267 -0.4734 -0.2236
 2297TIP3    H2 6898   4.926   1.171   1.821  0.5770  0.5505 -0.4630
 2298TIP3   OH2 6899   4.841   2.519   3.530 -0.2094  0.0134  0.3134
 2298TIP3    H1 6900   4.881   2.572   3.461  0.2200  0.3283  0.7957
 2298TIP3    H2 6901   4.758   2.489   3.492  1.4940 -2.6804 -1.6590
 2299TIP3   OH2 6902   0.026   4.389   4.602  0.5719 -0.2271 -0.3632
 2299TIP3    H1 6903   0.102   4.397   4.544  1.5342 -0.3320  0.8192
 2299TIP3    H2 6904   0.048   4.444   4.677 -0.9873  0.5287 -0.4320
 2300TIP3   OH2 6905   0.543   1.096   4.522  0.0141  0.1815 -0.5389
 2300TIP3    H1 6906   0.595   1.113   4.443  0.4798 -1.1661 -0.5395
 2300TIP3    H2 6907   0.454   1.084   4.490 -0.1273  1.4188 -0.6540
 2301TIP3   OH2 6908   6.176   1.936   1.250 -0.5270 -0.5920  0.1666
 2301TIP3    H1 6909   6.142   2.003   1.309 -1.0062  1.3659 -2.1304
 2301TIP3    H2 6910   6.138   1.854   1.281 -2.2592  0.6140  1.4140
 2302TIP3   OH2 6911   5.128   4.401   1.337  0.0291 -0.7502  0.2142
 2302TIP3    H1 6912   5.177   4.468   1.289 -0.8782 -1.1255 -1.2695
 2302TIP3    H2 6913   5.164   4.318   1.306  1.4001 -1.0309  2.3077
 2303TIP3   OH2 6914   3.318   3.406   3.470 -0.9645 -0.0192  0.4712
 2303TIP3    H1 6915   3.291   3.492   3.437 -0.4153 -0.2379 -0.5943
 2303TIP3    H2 6916   3.344   3.422   3.561  0.1131  1.1506 -0.0128
 2304TIP3   OH2 6917   1.519   2.345   4.118  0.0318  0.2581  0.3828
 2304TIP3    H1 6918   1.525   2.282   4.047 -0.3332 -0.8251  1.2879
 2304TIP3    H2 6919   1.459   2.306   4.181 -2.1085  2.5590 -0.0688
 2305TIP3   OH2 6920   1.647   2.469   0.772  0.7097 -0.1192  0.3460
 2305TIP3    H1 6921   1.670   2.383   0.737  0.1530  0.0687 -0.5263
 2305TIP3    H2 6922   1.601   2.450   0.854  0.9141 -0.6359  0.3416
 2306TIP3   OH2 6923   0.949   5.226   4.360 -0.0599 -0.6389  0.1153
 2306TIP3    H1 6924   0.969   5.163   4.429  1.3408  0.8787  1.1558
 2306TIP3    H2 6925   0.943   5.310   4.404  0.7153  0.3596 -1.5657
 2307TIP3   OH2 6926   4.363   2.442   4.870  0.2867  0.3517 -0.6405
 2307TIP3    H1 6927   4.320   2.483   4.945 -0.5011 -1.8701  0.2168
 2307TIP3    H2 6928   4.331   2.491   4.794 -0.0203  1.7364  0.3541
 2308TIP3   OH2 6929   1.593   5.026   1.469 -0.5391  0.1159 -0.4287
 2308TIP3    H1 6930   1.639   4.943   1.456  0.2460  0.3912  0.4649
 2308TIP3    H2 6931   1.554   5.019   1.556 -1.0188  0.4418 -0.6114
 2309TIP3   OH2 6932   5.042   3.714   3.841  0.0464 -0.4468  0.6923
 2309TIP3    H1 6933   5.123   3.749   3.879  0.3457 -0.5652  0.1749
 2309TIP3    H2 6934   4.975   3.729   3.908  0.5950 -0.8100  1.3359
 2310TIP3   OH2 6935   5.383   2.566   4.622 -0.5613 -0.3760  0.0195
 2310TIP3    H1 6936   5.464   2.516   4.629  0.3657  0.9969 -0.5557
 2310TIP3    H2 6937   5.315   2.504   4.649  0.6042 -1.7185  0.0158
 2311TIP3   OH2 6938   4.583   0.337   3.784  0.0582  0.5307  0.3491
 2311TIP3    H1 6939   4.595   0.420   3.830 -2.0648  0.4840  1.1190
 2311TIP3    H2 6940   4.627   0.272   3.839 -0.1272  0.8626  0.8951
 2312TIP3   OH2 6941   5.478   1.679   0.412  0.9674 -0.0834  0.2767
 2312TIP3    H1 6942   5.516   1.767   0.416  1.0678 -0.1671  1.9936
 2312TIP3    H2 6943   5.551   1.621   0.431  1.3792 -0.7548 -2.8528
 2313TIP3   OH2 6944   3.827   4.174   3.176 -0.2771 -0.3361  0.2998
 2313TIP3    H1 6945   3.845   4.256   3.131  2.3582 -0.1661  1.4895
 2313TIP3    H2 6946   3.734   4.159   3.161 -0.4686  1.9394 -1.4180
 2314TIP3   OH2 6947   3.550   2.552   4.261 -0.0883 -0.4842 -0.3888
 2314TIP3    H1 6948   3.481   2.611   4.293  1.4191  0.4234  1.4260
 2314TIP3    H2 6949   3.564   2.578   4.170 -0.6130  0.8611 -0.1136
 2315TIP3   OH2 6950   3.913   0.844   3.806 -0.0053 -0.7155  0.8807
 2315TIP3    H1 6951   3.917   0.905   3.879  0.5646  0.9681 -0.4808
 2315TIP3    H2 6952   3.999   0.801   3.805 -0.3186 -1.3793  1.6910
 2316TIP3   OH2 6953   0.397   2.062   2.058 -0.2808 -0.8432 -0.4151
 2316TIP3    H1 6954   0.344   2.080   2.135 -0.1456 -0.3028 -0.4449
 2316TIP3    H2 6955   0.341   2.084   1.984  0.4749  1.2211 -0.4336
 2317TIP3   OH2 6956   4.137   0.726   0.563 -0.4856 -0.1009 -0.5583
 2317TIP3    H1 6957   4.089   0.652   0.601 -0.1804 -0.4303 -0.8089
 2317TIP3    H2 6958   4.138   0.792   0.632  1.2064 -1.1759  0.5151
 2318TIP3   OH2 6959   5.904   2.968   2.139 -0.2289 -0.0017 -0.3286
 2318TIP3    H1 6960   5.818   2.926   2.147 -0.3103 -0.2158 -1.8977
 2318TIP3    H2 6961   5.959   2.924   2.203 -1.8948  1.9919  2.7515
 2319TIP3   OH2 6962   5.323   5.500   1.133 -0.5416 -0.2114 -0.0661
 2319TIP3    H1 6963   5.285   5.582   1.100  0.5829  0.1408 -0.5464
 2319TIP3    H2 6964   5.357   5.457   1.055 -0.5819 -0.8646  0.2667
 2320TIP3   OH2 6965   5.788   4.221   4.930 -0.3514 -0.1464  0.0375
 2320TIP3    H1 6966   5.848   4.184   4.865  1.2525  1.5036  0.4734
 2320TIP3    H2 6967   5.745   4.293   4.885 -1.0941 -0.5543  0.0921
 2321TIP3   OH2 6968   0.650   2.640   0.526  0.0994 -0.3198  0.1452
 2321TIP3    H1 6969   0.607   2.585   0.460 -2.1629  0.1431  1.1410
 2321TIP3    H2 6970   0.737   2.657   0.489 -0.3760 -1.6658 -1.7931
 2322TIP3   OH2 6971   5.890   4.099   2.846 -0.1393  0.0827 -0.3229
 2322TIP3    H1 6972   5.985   4.103   2.835 -0.1028  0.3087  0.0652
 2322TIP3    H2 6973   5.856   4.106   2.757  0.2504 -1.9604 -0.6957
 2323TIP3   OH2 6974   4.684   0.333   0.904  0.2521 -0.1235 -0.5584
 2323TIP3    H1 6975   4.659   0.377   0.985  0.8394  0.9644 -0.9451
 2323TIP3    H2 6976   4.602   0.301   0.868 -0.1948  0.6013 -0.2248
 2324TIP3   OH2 6977   2.323   3.519   1.623 -0.0382  0.8333 -0.2458
 2324TIP3    H1 6978   2.228   3.530   1.623  0.1207  2.6527  0.4136
 2324TIP3    H2 6979   2.352   3.572   1.698  1.3930 -0.8561  0.4547
 2325TIP3   OH2 6980   2.981   0.701   3.876  0.2967  0.1643 -0.3678
 2325TIP3    H1 6981   3.060   0.710   3.929  0.3076 -0.1683 -0.3294
 2325TIP3    H2 6982   3.012   0.687   3.787  0.3038 -1.5048 -0.1258
 2326TIP3   OH2 6983   2.636   4.196   3.372 -0.3253 -0.5493  0.2154
 2326TIP3    H1 6984   2.604   4.116   3.330  0.2451 -1.1031  0.8029
 2326TIP3    H2 6985   2.640   4.175   3.465 -0.2230  0.1847  0.3865
 2327TIP3   OH2 6986   2.173   5.154   0.749 -0.1580  0.2704  0.4056
 2327TIP3    H1 6987   2.208   5.070   0.778  0.8603  0.6759  0.4179
 2327TIP3    H2 6988   2.238   5.186   0.686  0.3530  1.8194  1.6530
 2328TIP3   OH2 6989   4.277   0.218   1.687 -0.2821 -0.1331 -0.6465
 2328TIP3    H1 6990   4.213   0.194   1.754 -2.1407 -0.1097 -2.3232
 2328TIP3    H2 6991   4.328   0.138   1.674  0.7552  0.1243  1.3848
 2329TIP3   OH2 6992   5.439   4.445   1.383 -0.1131 -0.1810  0.5375
 2329TIP3    H1 6993   5.404   4.493   1.308  0.4388  1.8967  1.5331
 2329TIP3    H2 6994   5.366   4.441   1.445  0.1804  0.4791  0.9393
 2330TIP3   OH2 6995   1.828   5.810   2.956  0.4190 -0.1406  0.0517
 2330TIP3    H1 6996   1.916   5.846   2.966  0.3739 -0.1449  0.4972
 2330TIP3    H2 6997   1.831   5.727   3.003  0.2732 -0.3034 -0.2249
 2331TIP3   OH2 6998   0.853   3.555   2.771 -0.3078  0.4883 -0.2805
 2331TIP3    H1 6999   0.854   3.649   2.751 -0.7879  0.6539  0.4289
 2331TIP3    H2 7000   0.789   3.518   2.710 -1.0567  0.8345  0.2704
 2332TIP3   OH2 7001   5.330   0.594   1.479 -0.6580 -1.0649 -0.1438
 2332TIP3    H1 7002   5.390   0.669   1.481  0.3177 -1.7118 -2.5012
 2332TIP3    H2 7003   5.258   0.620   1.537  0.7845  0.6845  0.9714
 2333TIP3   OH2 7004   4.400   3.548   5.028  0.6342 -0.2896 -0.0706
 2333TIP3    H1 7005   4.403   3.617   4.962 -0.5213  1.5668  1.6689
 2333TIP3    H2 7006   4.402   3.466   4.978 -2.1853  0.9688 -2.5553
 2334TIP3   OH2 7007   5.953   1.958   1.111 -0.5088 -0.1442 -0.1298
 2334TIP3    H1 7008   6.037   1.951   1.158 -1.9777  1.4479  3.0685
 2334TIP3    H2 7009   5.952   2.048   1.077 -1.1650  0.0947  0.4873
 2335TIP3   OH2 7010   1.939   4.057   4.251  0.3064  0.0438  0.2484
 2335TIP3    H1 7011   1.846   4.077   4.257  0.3300 -0.0455  0.9277
 2335TIP3    H2 7012   1.982   4.142   4.249  0.1741  0.0986 -0.7951
 2336TIP3   OH2 7013   1.327   2.335   0.305 -0.0163  0.0451 -0.3244
 2336TIP3    H1 7014   1.321   2.295   0.218 -1.2816  0.6272 -0.5289
 2336TIP3    H2 7015   1.256   2.294   0.355  1.4040 -1.1442  0.8354
 2337TIP3   OH2 7016   4.395   5.093   2.905 -0.1305 -0.6773 -0.1141
 2337TIP3    H1 7017   4.432   5.124   2.822 -1.6258  0.3476 -0.4371
 2337TIP3    H2 7018   4.451   5.020   2.930  1.5959  0.2840 -0.9840
 2338TIP3   OH2 7019   0.328   0.996   0.780  0.5525  0.1009 -0.0047
 2338TIP3    H1 7020   0.373   0.913   0.759 -0.2634  0.1546 -2.2460
 2338TIP3    H2 7021   0.237   0.980   0.757  0.4045  1.6735 -0.6205
 2339TIP3   OH2 7022   3.847   4.751   2.050  0.1485 -0.1210  0.4827
 2339TIP3    H1 7023   3.802   4.703   2.120 -1.8372 -1.4993 -1.5810
 2339TIP3    H2 7024   3.791   4.828   2.035  0.1420 -0.2327 -0.0765
 2340TIP3   OH2 7025   3.347   5.692   4.303  0.4406  0.1157  0.4460
 2340TIP3    H1 7026   3.300   5.746   4.239  2.0153 -0.6544 -1.4974
 2340TIP3    H2 7027   3.327   5.602   4.278  0.0659 -0.2218  1.8818
 2341TIP3   OH2 7028   4.437   2.644   0.358  0.0462 -0.3410  0.0695
 2341TIP3    H1 7029   4.377   2.578   0.393 -0.1299 -1.1911 -1.7364
 2341TIP3    H2 7030   4.504   2.654   0.426 -0.1025 -2.1195  0.5352
 2342TIP3   OH2 7031   3.132   1.106   1.630 -0.3475 -0.7997 -0.2973
 2342TIP3    H1 7032   3.202   1.139   1.574  0.6102 -1.5248  0.4419
 2342TIP3    H2 7033   3.051   1.127   1.583  0.4408 -1.8416 -2.1949
 2343TIP3   OH2 7034   2.369   0.654   4.219 -0.1894  0.0764  0.8715
 2343TIP3    H1 7035   2.355   0.748   4.215 -1.2583 -0.1106 -0.6294
 2343TIP3    H2 7036   2.288   0.619   4.256 -0.3061 -0.3487  0.2313
 2344TIP3   OH2 7037   0.270   3.898   1.309 -0.5920  0.4817  0.1866
 2344TIP3    H1 7038   0.200   3.835   1.296  0.1381 -0.5186  0.9047
 2344TIP3    H2 7039   0.265   3.956   1.233 -1.0008 -0.7234 -0.7443
 2345TIP3   OH2 7040   4.316   0.174   2.029  0.0197 -0.2432  0.1723
 2345TIP3    H1 7041   4.389   0.159   1.970  0.9350 -1.9219  1.6282
 2345TIP3    H2 7042   4.338   0.254   2.076  0.6019 -0.3675  0.1136
 2346TIP3   OH2 7043   6.287   0.777   5.030 -0.0079 -0.2972  0.1948
 2346TIP3    H1 7044   6.198   0.807   5.052 -0.4523  0.1214 -1.9055
 2346TIP3    H2 7045   6.304   0.705   5.089 -0.6299  1.3579  2.5433
 2347TIP3   OH2 7046   1.751   1.253   4.751  0.8233 -0.6532  0.4173
 2347TIP3    H1 7047   1.725   1.198   4.677 -1.8561 -1.9624  2.2088
 2347TIP3    H2 7048   1.838   1.222   4.774  0.3313 -2.5612 -0.0920
 2348TIP3   OH2 7049   0.104   0.357   3.795  0.1415 -0.1359  0.2472
 2348TIP3    H1 7050   0.178   0.417   3.784  0.8731 -1.0036  0.2778
 2348TIP3    H2 7051   0.145   0.273   3.816 -0.6667 -1.3816 -2.6343
 2349TIP3   OH2 7052   2.099   5.550   3.418  0.1304 -0.0129  0.1427
 2349TIP3    H1 7053   2.170   5.572   3.478 -0.4581  0.7386  0.5871
 2349TIP3    H2 7054   2.058   5.472   3.456  2.0852 -1.8583 -1.3175
 2350TIP3   OH2 7055   4.555   4.814   0.855  0.5365 -0.4995 -0.2975
 2350TIP3    H1 7056   4.489   4.883   0.855  1.6381  0.6253  1.4461
 2350TIP3    H2 7057   4.527   4.754   0.924  0.3239 -1.0844 -0.8775
 2351TIP3   OH2 7058   3.698   1.427   2.690 -0.1498  0.3187 -0.6412
 2351TIP3    H1 7059   3.633   1.479   2.643  0.3256  0.8468 -0.7161
 2351TIP3    H2 7060   3.648   1.382   2.758 -0.3732  1.8519  0.2521
 2352TIP3   OH2 7061   0.552   3.693   5.091 -0.2632 -0.3152 -0.3397
 2352TIP3    H1 7062   0.523   3.709   5.001  0.4574  0.0354 -0.5127
 2352TIP3    H2 7063   0.629   3.749   5.102 -0.6782  0.0940  0.6833
 2353TIP3   OH2 7064   2.085   1.867   0.418 -0.0615 -0.2415  0.4168
 2353TIP3    H1 7065   2.084   1.821   0.502  2.1217  0.0976  0.6726
 2353TIP3    H2 7066   2.129   1.807   0.358  2.3070  1.1775  0.6221
 2354TIP3   OH2 7067   3.769   2.160   2.394 -0.1492  0.2440  0.0945
 2354TIP3    H1 7068   3.850   2.109   2.396  0.4609  1.1926  0.1271
 2354TIP3    H2 7069   3.730   2.139   2.309 -0.7704 -1.5539  0.7754
 2355TIP3   OH2 7070   1.236   0.175   1.786  0.1996  0.1061  0.4281
 2355TIP3    H1 7071   1.205   0.205   1.871  0.8746  0.3592  0.5900
 2355TIP3    H2 7072   1.206   0.242   1.725 -0.8431 -0.4012  0.3636
 2356TIP3   OH2 7073   6.168   4.093   2.925 -0.3305 -0.4679 -0.0961
 2356TIP3    H1 7074   6.187   4.063   3.014 -0.5136 -0.9817 -0.2280
 2356TIP3    H2 7075   6.241   4.060   2.872 -1.3700 -2.1347 -0.5395
 2357TIP3   OH2 7076   6.031   2.827   2.338 -0.0042  0.0758  0.0996
 2357TIP3    H1 7077   6.101   2.769   2.368 -0.3109  0.3107  1.3419
 2357TIP3    H2 7078   5.956   2.804   2.392 -0.0001  1.9312  0.9777
 2358TIP3   OH2 7079   1.672   2.456   1.701 -0.3825 -0.6277  0.2048
 2358TIP3    H1 7080   1.617   2.412   1.637 -2.4424  1.8295  0.1382
 2358TIP3    H2 7081   1.615   2.473   1.775  0.8812  0.0961  1.0524
 2359TIP3   OH2 7082   2.208   0.342   1.611  0.3486 -0.1346 -0.0353
 2359TIP3    H1 7083   2.135   0.399   1.589  0.9340  0.8446  0.4758
 2359TIP3    H2 7084   2.171   0.276   1.670  0.0323  0.8219  0.8511
 2360TIP3   OH2 7085   0.653   4.255   3.159  0.2677  0.1094 -0.4059
 2360TIP3    H1 7086   0.747   4.269   3.155  0.3373 -0.0846  0.4147
 2360TIP3    H2 7087   0.639   4.170   3.117  0.7758 -1.0908  1.7010
 2361TIP3   OH2 7088   2.852   0.360   2.599  0.0147  0.1313 -0.1616
 2361TIP3    H1 7089   2.908   0.283   2.586  0.0688 -0.2748  2.1091
 2361TIP3    H2 7090   2.914   0.430   2.621 -0.1867  0.3111 -0.1680
 2362TIP3   OH2 7091   1.451   5.155   4.637 -0.2140 -0.5025 -0.3002
 2362TIP3    H1 7092   1.540   5.177   4.662 -0.5042  0.6731 -0.2630
 2362TIP3    H2 7093   1.459   5.069   4.595  0.4737 -1.9258  2.4806
 2363TIP3   OH2 7094   2.277   3.512   1.045 -0.3875  0.6827  0.2304
 2363TIP3    H1 7095   2.250   3.577   0.980  0.7696  0.5033 -0.4516
 2363TIP3    H2 7096   2.367   3.490   1.022 -0.2756 -0.1047  1.3213
 2364TIP3   OH2 7097   2.283   0.426   3.114  0.0620 -0.0685 -0.3226
 2364TIP3    H1 7098   2.352   0.366   3.088  1.0586  1.7087 -2.1284
 2364TIP3    H2 7099   2.327   0.510   3.125 -1.6912  0.9784 -0.7873
 2365TIP3   OH2 7100   0.333   3.105   4.043 -0.0905  0.0650  0.3835
 2365TIP3    H1 7101   0.359   3.184   3.994  0.5385  1.2164  2.4631
 2365TIP3    H2 7102   0.305   3.043   3.975 -0.0153  1.8463 -1.3611
 2366TIP3   OH2 7103   4.197   3.429   3.442  0.5304 -0.3891  0.2491
 2366TIP3    H1 7104   4.153   3.384   3.370  0.0728 -0.0820  0.3334
 2366TIP3    H2 7105   4.246   3.500   3.401 -1.5730  1.2685  0.4055
 2367TIP3   OH2 7106   3.385   1.912   1.249 -0.0949 -0.1265 -0.3108
 2367TIP3    H1 7107   3.339   1.992   1.224  1.5064  1.1711  0.6836
 2367TIP3    H2 7108   3.415   1.929   1.339  0.9043 -1.5494 -0.3498
 2368TIP3   OH2 7109   4.698   3.939   4.370 -0.4858  0.1046  0.3466
 2368TIP3    H1 7110   4.745   3.856   4.374 -1.6006 -0.6604 -1.1945
 2368TIP3    H2 7111   4.610   3.918   4.403 -0.2108  1.1711  1.8581
 2369TIP3   OH2 7112   5.106   1.322   5.092 -0.0108  0.1386  0.0962
 2369TIP3    H1 7113   5.120   1.416   5.106 -0.9455  0.1945  0.7750
 2369TIP3    H2 7114   5.119   1.283   5.179 -3.0362  0.1088  0.6588
 2370TIP3   OH2 7115   5.520   1.918   2.826 -0.0843 -0.4407  0.2447
 2370TIP3    H1 7116   5.596   1.968   2.855 -0.4257 -1.0761  2.4076
 2370TIP3    H2 7117   5.445   1.970   2.855 -0.4913 -0.3635 -0.8873
 2371TIP3   OH2 7118   5.366   1.974   4.902 -0.0697  0.0941 -0.6244
 2371TIP3    H1 7119   5.387   1.936   4.988  1.3450  1.6926 -0.2179
 2371TIP3    H2 7120   5.270   1.985   4.903 -0.1409 -0.5210  0.4669
 2372TIP3   OH2 7121   1.180   1.646   4.575  0.5507 -0.7817  0.0405
 2372TIP3    H1 7122   1.241   1.683   4.639  0.9554 -0.4730 -0.5207
 2372TIP3    H2 7123   1.159   1.718   4.516 -0.0960 -0.9733  0.0179
 2373TIP3   OH2 7124   1.704   5.548   4.899 -0.2086 -0.2744 -0.1550
 2373TIP3    H1 7125   1.740   5.635   4.883 -0.3928 -0.1959 -0.1462
 2373TIP3    H2 7126   1.716   5.533   4.993 -1.1614  0.1907  0.0513
 2374TIP3   OH2 7127   5.466   4.930   1.346  0.2732  0.7434 -0.6535
 2374TIP3    H1 7128   5.541   4.884   1.309 -0.2363 -1.0255  0.4063
 2374TIP3    H2 7129   5.393   4.869   1.334 -0.1398  0.5792  2.1220
 2375TIP3   OH2 7130   3.163   5.546   4.147 -0.3847 -0.2307 -0.2327
 2375TIP3    H1 7131   3.134   5.506   4.065 -0.0712 -1.1415  0.0886
 2375TIP3    H2 7132   3.205   5.475   4.195  2.3996  0.9675 -0.6621
 2376TIP3   OH2 7133   2.501   1.581   1.743  0.6798 -0.4743 -0.0682
 2376TIP3    H1 7134   2.504   1.516   1.814 -4.1071 -1.1052 -0.1042
 2376TIP3    H2 7135   2.502   1.529   1.663 -0.3741 -0.3449 -0.1829
 2377TIP3   OH2 7136   5.145   0.263   3.784 -0.2368  0.3553 -0.7713
 2377TIP3    H1 7137   5.122   0.184   3.833  0.7217  0.2447 -0.4809
 2377TIP3    H2 7138   5.091   0.332   3.823  0.2353  0.1940  0.1918
 2378TIP3   OH2 7139   1.824   4.469   0.207 -0.6213  0.7726  0.2703
 2378TIP3    H1 7140   1.899   4.528   0.205 -0.8172  1.0167  0.2214
 2378TIP3    H2 7141   1.863   4.382   0.219 -0.3325  0.9023  0.2746
 2379TIP3   OH2 7142   1.380   2.869   2.702 -0.5831  0.0819 -0.3559
 2379TIP3    H1 7143   1.362   2.889   2.793 -0.5239  0.0743 -0.3425
 2379TIP3    H2 7144   1.464   2.910   2.684  0.2211 -1.2919  0.0616
 2380TIP3   OH2 7145   1.141   1.529   3.382  0.2404  0.1509  0.6199
 2380TIP3    H1 7146   1.086   1.466   3.336 -0.4204  1.2368 -0.1304
 2380TIP3    H2 7147   1.196   1.476   3.439 -1.5002 -1.0035  1.3273
 2381TIP3   OH2 7148   6.249   4.554   1.760 -0.4841 -0.1749  0.4366
 2381TIP3    H1 7149   6.177   4.610   1.787 -0.1526 -0.0387  1.0402
 2381TIP3    H2 7150   6.315   4.563   1.829  0.5513  0.4952 -0.5863
 2382TIP3   OH2 7151   4.667   5.602   3.873  0.0694  0.0865 -0.0848
 2382TIP3    H1 7152   4.723   5.525   3.878  0.2525 -0.0211 -2.7066
 2382TIP3    H2 7153   4.728   5.675   3.866 -0.1004  0.2091 -0.3078
 2383TIP3   OH2 7154   0.519   2.565   0.092 -0.3915  0.1315  0.0103
 2383TIP3    H1 7155   0.463   2.564   0.014  0.0527  0.6777 -0.3263
 2383TIP3    H2 7156   0.539   2.658   0.106  0.3315 -0.0449  0.1973
 2384TIP3   OH2 7157   6.371   2.291   5.070  0.2421 -0.0521  0.0729
 2384TIP3    H1 7158   6.303   2.302   5.004 -0.0167  1.4678  0.5396
 2384TIP3    H2 7159   6.336   2.223   5.128 -0.0922 -0.5091 -0.6490
 2385TIP3   OH2 7160   6.255   0.714   0.755 -0.2446  0.3980  0.0583
 2385TIP3    H1 7161   6.282   0.634   0.710 -0.6306  0.7041 -0.7473
 2385TIP3    H2 7162   6.185   0.685   0.814 -0.7345  0.2040 -0.5972
 2386TIP3   OH2 7163   1.879   2.869   1.420  0.1278  0.0470  0.5517
 2386TIP3    H1 7164   1.965   2.911   1.429  0.2736 -0.1742  0.1896
 2386TIP3    H2 7165   1.859   2.837   1.508  0.0675  0.7716  0.8055
 2387TIP3   OH2 7166   3.910   3.048   1.774 -0.9612  0.4012  0.6005
 2387TIP3    H1 7167   3.870   3.039   1.860 -1.8535  0.8863  0.2511
 2387TIP3    H2 7168   3.846   3.011   1.713 -0.3315  0.0396  0.1457
 2388TIP3   OH2 7169   4.803   3.071   3.502  0.1093  0.0326 -0.3463
 2388TIP3    H1 7170   4.727   3.090   3.447 -1.1235  0.1592  1.3220
 2388TIP3    H2 7171   4.873   3.127   3.468 -0.8089  0.5987 -1.3408
 2389TIP3   OH2 7172   3.510   0.285   3.208  0.0530  0.1043  0.5807
 2389TIP3    H1 7173   3.448   0.332   3.264  0.5666  1.5475 -0.0156
 2389TIP3    H2 7174   3.586   0.342   3.204  0.1636 -0.1133 -1.3277
 2390TIP3   OH2 7175   5.102   3.188   4.867  0.4968 -0.4623 -0.6133
 2390TIP3    H1 7176   5.017   3.214   4.901 -0.5819 -0.2743 -3.2793
 2390TIP3    H2 7177   5.154   3.269   4.867  0.0017 -0.1439 -0.8937
 2391TIP3   OH2 7178   0.894   2.160   3.318  0.1820  0.2657 -0.5388
 2391TIP3    H1 7179   0.904   2.252   3.292 -1.7003  0.4601 -0.7270
 2391TIP3    H2 7180   0.963   2.146   3.382  0.4684  1.8488 -0.4518
 2392TIP3   OH2 7181   1.587   0.087   0.011 -0.4098  0.2121  0.5931
 2392TIP3    H1 7182   1.635   0.056   0.088 -0.6903 -1.8086  0.0121
 2392TIP3    H2 7183   1.504   0.119   0.045 -0.7249 -1.0994  1.1139
 2393TIP3   OH2 7184   0.360   3.125   4.792 -0.4494 -0.0483 -0.4571
 2393TIP3    H1 7185   0.288   3.109   4.731 -0.5734 -1.0779 -0.0627
 2393TIP3    H2 7186   0.412   3.193   4.750 -0.9790 -0.1632 -1.3295
 2394TIP3   OH2 7187   0.881   2.016   2.545 -0.1607  0.1542 -0.1812
 2394TIP3    H1 7188   0.962   2.038   2.591 -0.7084 -0.6765  1.2790
 2394TIP3    H2 7189   0.877   1.920   2.548 -1.7508  0.2140  0.8503
 2395TIP3   OH2 7190   1.337   1.424   1.323 -0.4895 -0.1730 -0.1313
 2395TIP3    H1 7191   1.360   1.504   1.277  0.6536  0.3273  1.2129
 2395TIP3    H2 7192   1.314   1.362   1.254 -0.2736  0.9609 -1.2614
 2396TIP3   OH2 7193   4.356   5.476   1.293 -0.1080  0.0528  0.2011
 2396TIP3    H1 7194   4.351   5.550   1.233  1.9688 -0.0805 -0.2178
 2396TIP3    H2 7195   4.388   5.404   1.239 -0.2473 -0.6476  1.0226
 2397TIP3   OH2 7196   5.722   2.253   0.362  0.7882  0.5481  0.4501
 2397TIP3    H1 7197   5.812   2.282   0.380 -0.2370  3.7009  1.0730
 2397TIP3    H2 7198   5.673   2.280   0.440 -0.8649 -0.4563 -0.2071
 2398TIP3   OH2 7199   3.301   3.316   4.074 -0.2345 -0.6198 -0.6277
 2398TIP3    H1 7200   3.260   3.369   4.006  1.2181  0.5075 -0.6690
 2398TIP3    H2 7201   3.392   3.308   4.046  0.1482 -1.0029  0.6746
 2399TIP3   OH2 7202   4.045   5.563   4.362  0.0852 -0.0191 -0.0302
 2399TIP3    H1 7203   3.993   5.641   4.342 -0.4668 -0.5536 -0.7343
 2399TIP3    H2 7204   4.136   5.591   4.347  0.5021  1.9956  4.5555
 2400TIP3   OH2 7205   2.846   0.270   3.922 -0.7462  0.1151 -0.4304
 2400TIP3    H1 7206   2.941   0.271   3.919 -0.7686  0.4059 -1.7835
 2400TIP3    H2 7207   2.824   0.276   4.015  0.5460  0.0108 -0.1062
 2401TIP3   OH2 7208   0.622   1.241   1.378  0.1356  0.0797 -0.5340
 2401TIP3    H1 7209   0.578   1.307   1.432  2.3822  1.5344 -0.3448
 2401TIP3    H2 7210   0.612   1.274   1.288 -1.4146 -1.0186 -0.8086
 2402TIP3   OH2 7211   1.975   3.994   2.839 -0.1359 -0.1885  0.2098
 2402TIP3    H1 7212   2.069   3.984   2.823 -0.0722  0.1788  0.3326
 2402TIP3    H2 7213   1.945   3.906   2.862 -0.2578 -0.7773 -1.9779
 2403TIP3   OH2 7214   5.265   3.905  -0.005 -0.2334 -0.1183  0.1302
 2403TIP3    H1 7215   5.319   3.944   0.064  0.1681 -0.8786  0.2601
 2403TIP3    H2 7216   5.316   3.830  -0.035 -0.5692 -0.0033 -0.7539
 2404TIP3   OH2 7217   2.502   0.160   3.080  0.3077  0.2699 -1.4324
 2404TIP3    H1 7218   2.422   0.133   3.126  1.0857  0.7582  0.2752
 2404TIP3    H2 7219   2.492   0.122   2.992 -0.3919 -2.3284 -0.3339
 2405TIP3   OH2 7220   1.432   2.310   4.586 -0.5360  0.2168  0.3867
 2405TIP3    H1 7221   1.432   2.389   4.531 -0.4437 -0.6288 -0.8569
 2405TIP3    H2 7222   1.340   2.292   4.602 -0.6133 -0.1067 -0.3662
 2406TIP3   OH2 7223   5.249   4.463   4.838  0.5060 -0.8911 -0.2798
 2406TIP3    H1 7224   5.256   4.518   4.760  0.4515 -0.0069  0.3308
 2406TIP3    H2 7225   5.326   4.486   4.891 -1.5809  1.7187  1.9277
 2407TIP3   OH2 7226   2.363   0.919   3.645  0.3681 -0.1283  0.8373
 2407TIP3    H1 7227   2.453   0.944   3.624  0.1892  1.8955  2.2031
 2407TIP3    H2 7228   2.369   0.827   3.670  2.4766  0.4506  2.8744
 2408TIP3   OH2 7229   5.619   2.303   4.996  0.0466  0.0190  0.5877
 2408TIP3    H1 7230   5.634   2.396   4.980 -0.5074  0.0754  0.3818
 2408TIP3    H2 7231   5.621   2.295   5.091  0.6038  0.1496  0.5944
 2409TIP3   OH2 7232   0.920   0.318   2.033 -0.6818 -0.9184  0.3176
 2409TIP3    H1 7233   0.853   0.379   2.001  0.3609  0.6187  0.9767
 2409TIP3    H2 7234   0.879   0.275   2.108 -1.4582 -1.0995 -0.1995
 2410TIP3   OH2 7235   0.744   1.853   0.904  0.2245 -0.0779 -0.2165
 2410TIP3    H1 7236   0.787   1.888   0.982 -2.2647  2.3633  0.2144
 2410TIP3    H2 7237   0.677   1.793   0.938  0.4717 -0.5891 -0.6160
 2411TIP3   OH2 7238   5.960   5.052   1.944  0.0535  0.2031 -0.3875
 2411TIP3    H1 7239   6.018   4.976   1.947 -0.5625 -0.2412  1.0199
 2411TIP3    H2 7240   5.923   5.051   1.856  0.1147 -1.0758 -0.4142
 2412TIP3   OH2 7241   0.657   1.601   0.300 -0.0813 -0.4120  0.2226
 2412TIP3    H1 7242   0.728   1.572   0.243 -0.3422  2.6580 -1.8857
 2412TIP3    H2 7243   0.687   1.684   0.337 -2.8180  1.6177 -1.6612
 2413TIP3   OH2 7244   2.474   5.688   2.599 -0.4343 -0.3123  0.1439
 2413TIP3    H1 7245   2.478   5.643   2.684  0.7563  0.7267  0.6730
 2413TIP3    H2 7246   2.415   5.761   2.615 -0.7302 -0.4953 -0.1167
 2414TIP3   OH2 7247   5.434   1.312   4.726  0.2423  0.2350 -0.0638
 2414TIP3    H1 7248   5.515   1.292   4.772  1.1123  0.7492 -1.3006
 2414TIP3    H2 7249   5.454   1.392   4.677 -1.1216  0.5498 -0.1358
 2415TIP3   OH2 7250   5.191   5.589   3.908 -0.4265  0.6385 -0.5144
 2415TIP3    H1 7251   5.192   5.570   3.814 -0.0832  1.4329 -0.6822
 2415TIP3    H2 7252   5.207   5.504   3.950  1.2241  0.5567 -1.2273
 2416TIP3   OH2 7253   3.324   1.300   1.509 -0.3464 -0.1411  0.2477
 2416TIP3    H1 7254   3.394   1.263   1.562  0.9377  1.8944  0.0906
 2416TIP3    H2 7255   3.266   1.343   1.572 -0.8576 -0.8532  0.2774
 2417TIP3   OH2 7256   1.821   4.711   4.041 -0.7012  0.0567  0.4988
 2417TIP3    H1 7257   1.833   4.771   4.114  0.0010  0.0396  0.4043
 2417TIP3    H2 7258   1.883   4.741   3.974 -1.8922  0.5584 -0.4200
 2418TIP3   OH2 7259   5.672   4.295   2.985  0.2132 -0.0326  0.7004
 2418TIP3    H1 7260   5.683   4.371   2.928  0.6326 -1.1674 -0.7955
 2418TIP3    H2 7261   5.760   4.258   2.993  0.0927 -0.1182  1.7958
 2419TIP3   OH2 7262   5.746   2.795   3.912 -0.4408 -0.1114 -0.2772
 2419TIP3    H1 7263   5.753   2.699   3.917 -0.6958 -0.0933  4.0160
 2419TIP3    H2 7264   5.837   2.825   3.906  0.1572 -0.7160  3.2307
 2420TIP3   OH2 7265   3.345   1.143   0.696  0.2372  0.0687 -0.5333
 2420TIP3    H1 7266   3.275   1.084   0.725  2.5530 -2.8463 -0.4013
 2420TIP3    H2 7267   3.337   1.219   0.754 -1.5952 -1.0225  0.7686
 2421TIP3   OH2 7268   1.321   0.908   3.508  0.1510 -0.2288  0.1872
 2421TIP3    H1 7269   1.274   0.825   3.511  0.3085 -0.3020  1.2223
 2421TIP3    H2 7270   1.261   0.970   3.550 -0.4311  0.4441 -1.5688
 2422TIP3   OH2 7271   6.287   2.290   2.100  0.9400  0.7016 -0.1564
 2422TIP3    H1 7272   6.335   2.260   2.177  0.1629  1.0530  0.4711
 2422TIP3    H2 7273   6.269   2.382   2.117 -0.3486  0.4723 -0.1783
 2423TIP3   OH2 7274   1.350   5.607   1.086  0.3631  0.2218 -0.6829
 2423TIP3    H1 7275   1.419   5.541   1.094 -0.7799 -0.9064  0.2122
 2423TIP3    H2 7276   1.276   5.560   1.049 -0.4425  1.0186 -0.1247
 2424TIP3   OH2 7277   4.419   2.492   2.734 -0.6479  0.1645 -0.1649
 2424TIP3    H1 7278   4.433   2.450   2.649 -0.1452  0.4063 -0.2034
 2424TIP3    H2 7279   4.500   2.541   2.751 -1.1641  1.0099 -0.0618
 2425TIP3   OH2 7280   0.973   2.174   1.802  0.1016 -0.3868 -0.4366
 2425TIP3    H1 7281   1.041   2.111   1.780  1.0336  0.5312 -0.3012
 2425TIP3    H2 7282   0.929   2.136   1.878  0.7452 -0.8096 -0.2669
 2426TIP3   OH2 7283   2.743   2.549   5.000  0.4930 -0.1736  0.3289
 2426TIP3    H1 7284   2.782   2.532   4.914  1.1165  0.0510  0.5635
 2426TIP3    H2 7285   2.795   2.496   5.061  0.4859  0.1974  0.6584
 2427TIP3   OH2 7286   1.909   0.810   2.950 -0.0633  0.2976  0.0620
 2427TIP3    H1 7287   1.971   0.794   2.879  1.3477  0.3075  1.2449
 2427TIP3    H2 7288   1.828   0.837   2.906  0.7983  0.4141 -1.5152
 2428TIP3   OH2 7289   6.226   4.469   0.420 -0.7354 -0.1674  0.3470
 2428TIP3    H1 7290   6.287   4.413   0.467  0.0219 -0.2792 -0.7389
 2428TIP3    H2 7291   6.276   4.548   0.400 -0.3224 -0.9462 -2.0703
 2429TIP3   OH2 7292   3.245   4.451   3.322 -0.1576 -0.1863  0.0129
 2429TIP3    H1 7293   3.287   4.532   3.351 -2.2911  0.7037  0.8645
 2429TIP3    H2 7294   3.153   4.462   3.347 -0.3939 -3.2040  0.8694
 2430TIP3   OH2 7295   5.562   1.838   4.344  0.2958  0.0267 -0.1234
 2430TIP3    H1 7296   5.469   1.851   4.327  0.3877  0.5032 -0.2815
 2430TIP3    H2 7297   5.582   1.899   4.415  0.5609  0.1785 -0.3261
 2431TIP3   OH2 7298   0.829   3.409   4.203  0.2090 -0.0175  0.0668
 2431TIP3    H1 7299   0.899   3.346   4.221  0.2166  0.3184  1.2813
 2431TIP3    H2 7300   0.763   3.358   4.157  0.7640 -0.6127 -0.0888
 2432TIP3   OH2 7301   4.605   3.743   2.035 -0.1866  0.1113  0.4831
 2432TIP3    H1 7302   4.562   3.658   2.033 -0.5143  0.2863 -0.2232
 2432TIP3    H2 7303   4.576   3.787   1.955  0.4141  0.6716  0.5610
 2433TIP3   OH2 7304   0.378   0.651   2.728 -0.2800  0.9399 -0.4649
 2433TIP3    H1 7305   0.432   0.645   2.807 -0.6909  0.9237 -0.1823
 2433TIP3    H2 7306   0.302   0.703   2.754 -0.1650  1.3892 -0.9976
 2434TIP3   OH2 7307   5.213   2.545   0.257 -0.8065  0.0829 -0.1854
 2434TIP3    H1 7308   5.274   2.474   0.240 -1.4787  0.0848 -3.2091
 2434TIP3    H2 7309   5.265   2.625   0.244 -0.7112  0.1372  0.4811
 2435TIP3   OH2 7310   3.406   4.545   2.498  0.0131 -0.1328  0.5523
 2435TIP3    H1 7311   3.408   4.453   2.523  2.5375 -0.0829  0.7414
 2435TIP3    H2 7312   3.498   4.571   2.490 -0.5774  1.6514 -2.1832
 2436TIP3   OH2 7313   2.282   0.947   1.054  0.0210  0.2055  0.9126
 2436TIP3    H1 7314   2.282   0.887   0.979  1.3086  0.8953  0.3326
 2436TIP3    H2 7315   2.189   0.962   1.073 -0.4254  1.8002 -2.0279
 2437TIP3   OH2 7316   1.573   1.021   5.039  0.1291  0.1796  0.2358
 2437TIP3    H1 7317   1.481   1.042   5.056  0.0114  1.1493 -1.4330
 2437TIP3    H2 7318   1.595   1.069   4.960  1.5869 -1.4226 -0.4036
 2438TIP3   OH2 7319   0.306   5.312   0.093  0.3504  0.1105 -0.0275
 2438TIP3    H1 7320   0.324   5.316   0.187  2.2299  1.1227 -0.3843
 2438TIP3    H2 7321   0.392   5.304   0.052 -0.4424 -0.4217 -1.6742
 2439TIP3   OH2 7322   5.600   0.267   0.573 -0.2536 -0.7843 -0.3415
 2439TIP3    H1 7323   5.537   0.329   0.537  1.7149  1.3303 -0.3867
 2439TIP3    H2 7324   5.636   0.310   0.650  0.1397 -2.5326  0.5103
 2440TIP3   OH2 7325   2.510   5.682   4.726 -0.1333 -0.1855  0.6837
 2440TIP3    H1 7326   2.446   5.738   4.770  0.2555 -0.3314  1.4631
 2440TIP3    H2 7327   2.577   5.665   4.793  0.7736  0.0480 -0.1329
 2441TIP3   OH2 7328   1.962   0.608   0.747  0.0662 -0.6084  0.9668
 2441TIP3    H1 7329   2.027   0.586   0.813  1.0323  1.1307  0.6543
 2441TIP3    H2 7330   1.917   0.525   0.728  1.4046 -1.6096  2.0149
 2442TIP3   OH2 7331   2.178   5.129   1.903 -0.0373 -0.6241 -0.2607
 2442TIP3    H1 7332   2.118   5.144   1.977  2.2129 -1.3070  1.8445
 2442TIP3    H2 7333   2.239   5.203   1.907  0.2316 -0.7736 -1.3390
 2443TIP3   OH2 7334   3.984   0.190   2.473  0.1078 -0.5007  0.2359
 2443TIP3    H1 7335   3.923   0.249   2.517 -0.6816 -1.4793  0.4765
 2443TIP3    H2 7336   3.964   0.200   2.379 -0.4190 -0.8020  0.3121
 2444TIP3   OH2 7337   5.401   0.460   1.743 -0.1482 -0.3639 -0.2678
 2444TIP3    H1 7338   5.369   0.445   1.655 -3.6945  1.1638  0.5972
 2444TIP3    H2 7339   5.476   0.519   1.732 -0.5808 -0.1167 -2.2401
 2445TIP3   OH2 7340   4.553   3.679   2.334 -0.0123 -0.4569  0.0377
 2445TIP3    H1 7341   4.460   3.684   2.312  0.5311  0.8495 -2.2507
 2445TIP3    H2 7342   4.568   3.587   2.356 -1.9507 -0.5518  1.1421
 2446TIP3   OH2 7343   3.136   1.228   2.388  0.0992 -0.0440  0.2251
 2446TIP3    H1 7344   3.049   1.189   2.383 -0.4794  0.5958  3.2858
 2446TIP3    H2 7345   3.186   1.170   2.446  0.4266  1.5902  1.6794
 2447TIP3   OH2 7346   4.023   3.110   0.351 -0.0839 -0.0660 -0.0087
 2447TIP3    H1 7347   3.971   3.073   0.422  1.0174  0.0221  0.8722
 2447TIP3    H2 7348   4.051   3.035   0.299 -1.3266 -0.0878 -0.6693
 2448TIP3   OH2 7349   1.583   0.357   0.694 -0.1041  0.1453 -0.1778
 2448TIP3    H1 7350   1.579   0.395   0.607  0.4211  0.6462  0.0124
 2448TIP3    H2 7351   1.668   0.314   0.698  0.9054  2.1141  0.8754
 2449TIP3   OH2 7352   1.521   4.130   3.895 -0.2194  0.1040  0.5679
 2449TIP3    H1 7353   1.555   4.154   3.809 -1.3039 -0.4255 -0.0389
 2449TIP3    H2 7354   1.547   4.202   3.952  2.2428 -0.4651  0.2725
 2450TIP3   OH2 7355   0.135   2.104   0.167 -0.3928  0.0691  0.2892
 2450TIP3    H1 7356   0.135   2.031   0.229 -0.7401  1.0098  1.4274
 2450TIP3    H2 7357   0.051   2.148   0.182  0.6233  1.8419  1.0147
 2451TIP3   OH2 7358   1.154   2.387   2.385  0.4408  0.1314 -0.4023
 2451TIP3    H1 7359   1.081   2.326   2.392 -0.0264  0.6258 -0.8720
 2451TIP3    H2 7360   1.158   2.429   2.471  1.5959 -1.4613  0.3623
 2452TIP3   OH2 7361   0.714   5.450   2.194  0.1298  0.4267 -0.4016
 2452TIP3    H1 7362   0.718   5.486   2.282  1.3047  2.9264 -1.3590
 2452TIP3    H2 7363   0.623   5.422   2.183 -0.3386  1.2096  1.1721
 2453TIP3   OH2 7364   5.592   4.701   1.385 -0.1086  0.2548 -0.4399
 2453TIP3    H1 7365   5.590   4.625   1.443  0.7481 -0.2647 -1.0597
 2453TIP3    H2 7366   5.679   4.740   1.400 -0.5289  1.1141 -0.1428
 2454TIP3   OH2 7367   5.970   5.360   2.640  0.3214  0.2115 -0.6247
 2454TIP3    H1 7368   6.025   5.360   2.562  0.7289  2.4501 -0.3937
 2454TIP3    H2 7369   5.993   5.441   2.686 -2.7467  0.9906 -0.2448
 2455TIP3   OH2 7370   1.714   1.680   0.122  0.1316 -0.2141  0.3077
 2455TIP3    H1 7371   1.775   1.749   0.097 -0.1516  0.4289  1.3495
 2455TIP3    H2 7372   1.755   1.599   0.090  1.4671  0.2153  0.8892
 2456TIP3   OH2 7373   2.480   1.428   4.799  0.9153 -0.0217 -0.3211
 2456TIP3    H1 7374   2.439   1.498   4.750 -0.2665  0.4128  1.1994
 2456TIP3    H2 7375   2.538   1.473   4.861 -0.3493 -0.2723  1.1221
 2457TIP3   OH2 7376   3.045   0.957   3.077 -0.5315 -0.1291 -0.2483
 2457TIP3    H1 7377   3.085   0.882   3.034 -0.9218  0.2610 -1.3542
 2457TIP3    H2 7378   3.113   1.025   3.075 -0.8405  0.1677 -1.0750
 2458TIP3   OH2 7379   2.109   5.810   5.151  0.2079  0.0898 -0.5236
 2458TIP3    H1 7380   2.060   5.818   5.233  1.3629 -0.1045  0.1935
 2458TIP3    H2 7381   2.201   5.809   5.177  0.5736 -0.6158 -1.7726
 2459TIP3   OH2 7382   4.408   5.296   0.801  0.5361 -0.6413  0.2360
 2459TIP3    H1 7383   4.318   5.329   0.806  0.1961 -1.3699 -0.8089
 2459TIP3    H2 7384   4.457   5.367   0.760  0.2705 -0.5566  0.0589
 2460TIP3   OH2 7385   0.332   2.395   1.468 -0.3134  0.1450  0.0791
 2460TIP3    H1 7386   0.273   2.380   1.394 -0.7171 -0.8802  0.5854
 2460TIP3    H2 7387   0.309   2.326   1.531 -0.4424  1.3951  1.4501
 2461TIP3   OH2 7388   1.195   6.010   4.545  0.1291  0.0001 -0.3957
 2461TIP3    H1 7389   1.139   5.975   4.475 -1.5234 -0.6121  1.1663
 2461TIP3    H2 7390   1.263   5.943   4.556 -0.6704 -0.8028 -0.1834
 2462TIP3   OH2 7391   1.022   5.350   4.800 -0.3699  0.0065 -0.4130
 2462TIP3    H1 7392   1.069   5.329   4.719 -0.2591  1.3676 -0.7153
 2462TIP3    H2 7393   0.941   5.300   4.794 -0.4662  0.2724 -1.4754
 2463TIP3   OH2 7394   0.404   3.105   3.660 -0.2026 -0.0053 -0.1729
 2463TIP3    H1 7395   0.384   3.190   3.701 -3.8636 -0.2104 -1.1842
 2463TIP3    H2 7396   0.366   3.041   3.719  0.4980 -0.7927 -0.5653
 2464TIP3   OH2 7397   0.948   4.209   3.003  0.7352  0.4527 -0.0138
 2464TIP3    H1 7398   0.967   4.184   2.913  0.4825  0.6818 -0.1345
 2464TIP3    H2 7399   0.944   4.126   3.051  0.0370  0.2612 -0.3799
 2465TIP3   OH2 7400   1.147   4.069   3.687  0.2855 -0.1754  0.2401
 2465TIP3    H1 7401   1.089   4.111   3.751  0.1143 -1.0281  0.6556
 2465TIP3    H2 7402   1.211   4.022   3.740 -0.1424 -1.2774 -0.2029
 2466TIP3   OH2 7403   1.736   3.321   2.541 -0.3136  0.3943 -0.6895
 2466TIP3    H1 7404   1.760   3.346   2.452 -2.4439  0.9264 -1.1769
 2466TIP3    H2 7405   1.653   3.366   2.557  0.0021  0.3021  1.5793
 2467TIP3   OH2 7406   1.466   2.635   3.997  0.2774  0.0728 -0.0908
 2467TIP3    H1 7407   1.461   2.620   3.903 -0.1836  0.5825 -0.1488
 2467TIP3    H2 7408   1.461   2.547   4.035  1.0254 -0.1833 -0.5544
 2468TIP3   OH2 7409   1.689   2.109   3.444 -0.0171  0.5031  0.5243
 2468TIP3    H1 7410   1.601   2.092   3.410 -0.0607  1.3027  0.1928
 2468TIP3    H2 7411   1.715   2.028   3.487 -0.4461 -0.1335 -0.3953
 2469TIP3   OH2 7412   1.226   4.586   3.429  0.2445  0.2963  0.5906
 2469TIP3    H1 7413   1.135   4.575   3.400  0.3203  0.9813  0.0872
 2469TIP3    H2 7414   1.239   4.515   3.493 -0.6345  0.1806  0.6561
 2470TIP3   OH2 7415   3.339   5.405   4.331 -1.0478  0.0550  0.1800
 2470TIP3    H1 7416   3.426   5.399   4.292 -1.2513  0.8635 -0.4217
 2470TIP3    H2 7417   3.349   5.366   4.418 -0.1119  0.0418  0.0780
 2471TIP3   OH2 7418   3.328   4.180   3.289 -0.1546 -0.1030 -0.2461
 2471TIP3    H1 7419   3.328   4.276   3.286 -0.5663 -0.0522  0.8368
 2471TIP3    H2 7420   3.361   4.159   3.377  0.3740 -0.9621 -0.6463
 2472TIP3   OH2 7421   2.023   1.395   1.083 -0.5401  0.0663  0.8693
 2472TIP3    H1 7422   2.047   1.486   1.100  0.9063 -0.2585  0.6741
 2472TIP3    H2 7423   2.001   1.360   1.169  2.5608 -0.4005  1.5524
 2473TIP3   OH2 7424   1.089   1.838   4.418 -0.2650 -0.0843  0.2694
 2473TIP3    H1 7425   1.133   1.902   4.361 -1.3290 -1.1033 -1.8189
 2473TIP3    H2 7426   1.027   1.890   4.469 -1.1209  0.6422 -1.4047
 2474TIP3   OH2 7427   2.168   1.222   1.675  0.4666  0.5191  0.0947
 2474TIP3    H1 7428   2.140   1.193   1.762  1.2946  2.7644  1.1933
 2474TIP3    H2 7429   2.091   1.211   1.620  0.0355 -1.3169  0.9835
 2475TIP3   OH2 7430   3.825   1.017   0.652  0.2198  0.1766  0.6848
 2475TIP3    H1 7431   3.732   1.005   0.635  0.4738 -1.1263  0.0669
 2475TIP3    H2 7432   3.861   1.048   0.569  0.1657  1.8538  1.2580
 2476TIP3   OH2 7433   1.582   0.084   2.459 -0.0959 -0.2644 -0.2635
 2476TIP3    H1 7434   1.664   0.064   2.414  0.7035 -2.9924  2.0622
 2476TIP3    H2 7435   1.514   0.058   2.396  0.8069  0.7451 -1.7138
 2477TIP3   OH2 7436   0.565   3.021   3.154  0.1530  0.0586  0.4428
 2477TIP3    H1 7437   0.506   3.068   3.096  0.3165  0.2587  0.4381
 2477TIP3    H2 7438   0.599   2.948   3.102 -0.6963 -0.5195  0.6890
 2478TIP3   OH2 7439   0.239   2.374   4.940 -0.0834 -0.1947 -0.1029
 2478TIP3    H1 7440   0.164   2.343   4.990 -0.1775  1.8877  1.1513
 2478TIP3    H2 7441   0.206   2.383   4.850 -0.3662 -2.4032 -0.2662
 2479TIP3   OH2 7442   1.358   2.493   1.014  0.1982  0.3880  0.3300
 2479TIP3    H1 7443   1.332   2.494   1.106  0.1434  0.8491  0.3143
 2479TIP3    H2 7444   1.433   2.434   1.011 -1.5383 -1.9529  0.1622
 2480TIP3   OH2 7445   0.712   2.272   1.536  0.0768 -0.2784  0.2852
 2480TIP3    H1 7446   0.764   2.243   1.611 -1.7657 -2.8066  0.7318
 2480TIP3    H2 7447   0.625   2.234   1.552 -0.5031 -0.5370 -2.9158
 2481TIP3   OH2 7448   2.561   0.214   4.289 -0.5805  0.0558  0.5971
 2481TIP3    H1 7449   2.570   0.245   4.379 -0.3035 -2.0086  1.3118
 2481TIP3    H2 7450   2.488   0.265   4.253 -1.7194 -0.1688  2.4798
 2482TIP3   OH2 7451   6.107   5.470   1.300 -0.5082 -0.0567  0.3145
 2482TIP3    H1 7452   6.128   5.416   1.376 -0.5593 -1.4059 -0.5904
 2482TIP3    H2 7453   6.182   5.529   1.290  0.4498 -1.2702  0.1903
 2483TIP3   OH2 7454   5.359   2.672   2.395  0.1884 -0.0584  0.1329
 2483TIP3    H1 7455   5.342   2.598   2.453  1.0987  0.6355  1.3249
 2483TIP3    H2 7456   5.291   2.666   2.328 -0.4597 -1.2850  0.8660
 2484TIP3   OH2 7457   2.719   0.897   4.196 -0.3293  0.1131  0.5624
 2484TIP3    H1 7458   2.747   0.895   4.104  0.0441  0.0997  0.6743
 2484TIP3    H2 7459   2.655   0.825   4.203 -0.2782  0.0448  0.3397
 2485TIP3   OH2 7460   1.752   4.326   0.922 -0.1446  0.3583  0.0592
 2485TIP3    H1 7461   1.844   4.300   0.920 -0.3711 -0.4609 -1.3386
 2485TIP3    H2 7462   1.703   4.245   0.907 -1.0572  0.8906  0.0426
 2486TIP3   OH2 7463   1.299   3.816   3.457 -0.6069  0.1198 -0.5846
 2486TIP3    H1 7464   1.222   3.784   3.411 -0.5829  1.2581 -1.4466
 2486TIP3    H2 7465   1.349   3.737   3.478 -1.5925 -0.5629 -0.7500
 2487TIP3   OH2 7466   2.948   3.823   3.286 -0.2416 -0.2548  0.1139
 2487TIP3    H1 7467   2.929   3.814   3.192  0.8962  0.9684 -0.2533
 2487TIP3    H2 7468   2.874   3.779   3.329 -1.5301  0.3988 -1.3297
 2488TIP3   OH2 7469   3.160   3.114   1.753  0.4746 -0.1158 -0.3398
 2488TIP3    H1 7470   3.224   3.184   1.765  0.1245 -0.0440  1.4188
 2488TIP3    H2 7471   3.132   3.122   1.662  2.6261  0.1021 -1.0291
 2489TIP3   OH2 7472   4.451   3.031   0.015  0.1488  0.0416 -0.1392
 2489TIP3    H1 7473   4.534   3.039  -0.032  0.0326  0.3017 -0.3008
 2489TIP3    H2 7474   4.468   3.066   0.102  0.9116 -2.2113  0.6886
 2490TIP3   OH2 7475   5.656   0.977   3.192  0.4178  0.8082 -0.2019
 2490TIP3    H1 7476   5.670   0.944   3.281 -0.0197 -1.3477 -0.8811
 2490TIP3    H2 7477   5.564   1.003   3.190  0.2502  0.2138 -0.2192
 2491TIP3   OH2 7478   2.966   4.966   0.542 -0.7100  0.0117  0.3521
 2491TIP3    H1 7479   2.995   4.975   0.633  3.0800  2.2601 -0.8909
 2491TIP3    H2 7480   2.900   5.034   0.531 -0.4677  0.3929  1.1579
 2492TIP3   OH2 7481   3.080   1.045   4.665  0.3282 -0.5176 -0.6481
 2492TIP3    H1 7482   2.997   1.036   4.713 -0.0657  0.0313 -1.2009
 2492TIP3    H2 7483   3.117   0.957   4.664  0.7631 -0.4094  1.3622
 2493TIP3   OH2 7484   5.558   1.690   1.414  0.0553 -0.9657  0.1807
 2493TIP3    H1 7485   5.551   1.750   1.487  1.4074 -0.2101 -0.2752
 2493TIP3    H2 7486   5.526   1.606   1.448 -1.0152 -0.2123  1.0771
 2494TIP3   OH2 7487   5.863   0.078   4.798 -0.2467 -0.1109  0.5142
 2494TIP3    H1 7488   5.906   0.129   4.868  1.6932  1.4743 -1.6528
 2494TIP3    H2 7489   5.772   0.106   4.800 -0.1151  0.2739  2.0835
 2495TIP3   OH2 7490   5.345   2.269   0.272 -0.5989  0.7718  0.1229
 2495TIP3    H1 7491   5.435   2.296   0.288  0.2272 -1.1456 -1.0143
 2495TIP3    H2 7492   5.333   2.191   0.326 -1.3310  0.5503 -0.3396
 2496TIP3   OH2 7493   3.640   4.359   0.495 -0.4082 -1.3728 -0.0465
 2496TIP3    H1 7494   3.595   4.349   0.579  0.0432 -0.7439  0.2820
 2496TIP3    H2 7495   3.682   4.275   0.479 -0.8125 -1.6171  0.1697
 2497TIP3   OH2 7496   3.316   3.517   1.570 -0.6346 -0.0170 -0.3902
 2497TIP3    H1 7497   3.346   3.440   1.620  0.7754 -0.5441 -1.9648
 2497TIP3    H2 7498   3.298   3.583   1.637 -0.0650 -1.1084  0.8921
 2498TIP3   OH2 7499   4.878   1.032   1.395  0.4075  0.1705 -0.4402
 2498TIP3    H1 7500   4.924   1.115   1.386  2.6583 -0.9656 -0.0834
 2498TIP3    H2 7501   4.798   1.054   1.443  1.1235  2.0552 -0.0121
 2499TIP3   OH2 7502   2.576   5.767   4.475  0.2890  0.4254 -0.7673
 2499TIP3    H1 7503   2.551   5.745   4.565  2.9781  0.5596  0.0834
 2499TIP3    H2 7504   2.585   5.862   4.475  3.3715  0.2510 -0.1773
 2500TIP3   OH2 7505   0.810   3.252   3.447  0.2674  0.1900  0.4505
 2500TIP3    H1 7506   0.798   3.205   3.364 -1.6099  0.8363  0.2867
 2500TIP3    H2 7507   0.780   3.191   3.514 -0.4725  0.4927  0.4065
 2501TIP3   OH2 7508   5.996   4.776   1.295 -0.0228  0.4682 -0.2192
 2501TIP3    H1 7509   5.998   4.742   1.206 -0.9816 -0.6894  0.1618
 2501TIP3    H2 7510   5.915   4.827   1.300 -0.2856  0.0237  0.1500
 2502TIP3   OH2 7511   0.429   3.803   3.655 -0.1389  0.2027 -0.3803
 2502TIP3    H1 7512   0.370   3.864   3.611 -0.8657 -0.7283 -0.7252
 2502TIP3    H2 7513   0.460   3.851   3.732 -1.3984  0.7038 -0.1571
 2503TIP3   OH2 7514   0.407   0.213   3.235  0.1612  0.0606  0.5621
 2503TIP3    H1 7515   0.385   0.121   3.252  0.8124 -0.2447 -0.2053
 2503TIP3    H2 7516   0.500   0.220   3.256  0.8638 -0.1876 -2.1425
 2504TIP3   OH2 7517   2.158   1.385   3.759 -0.3057 -0.1808  0.0519
 2504TIP3    H1 7518   2.200   1.470   3.750  1.1952 -0.7975  0.8601
 2504TIP3    H2 7519   2.202   1.329   3.695  0.8549 -1.0801  1.5621
 2505TIP3   OH2 7520   4.765   0.351   1.850  0.1391  0.8067  0.0446
 2505TIP3    H1 7521   4.829   0.280   1.861 -0.8616 -0.3860 -1.4107
 2505TIP3    H2 7522   4.782   0.385   1.762 -1.1354  0.5315 -0.3320
 2506TIP3   OH2 7523   3.733   5.960   2.388  0.4674 -0.1987  0.2616
 2506TIP3    H1 7524   3.647   5.990   2.359  0.5832  0.2483  0.3692
 2506TIP3    H2 7525   3.718   5.929   2.478  0.0842 -1.6992 -0.2915
 2507TIP3   OH2 7526   2.874   3.290   1.818  0.0367  0.3211  0.3631
 2507TIP3    H1 7527   2.846   3.206   1.782  0.0206  1.3031 -2.1409
 2507TIP3    H2 7528   2.802   3.350   1.797  1.0489  1.4381  0.0311
 2508TIP3   OH2 7529   2.969   2.805   0.050 -0.1297  0.4131 -0.3909
 2508TIP3    H1 7530   2.892   2.764   0.090 -0.1637  0.2236 -0.6453
 2508TIP3    H2 7531   3.003   2.739  -0.010  0.1826  0.5300 -0.3446
 2509TIP3   OH2 7532   3.360   4.283   2.031 -0.0140  0.1454 -0.1517
 2509TIP3    H1 7533   3.365   4.370   2.072 -1.5628 -0.0037  0.4279
 2509TIP3    H2 7534   3.450   4.252   2.029  0.5495  1.7181 -0.2568
 2510TIP3   OH2 7535   1.116   3.371   3.204 -0.4302 -0.5312 -0.3748
 2510TIP3    H1 7536   1.105   3.464   3.219  1.0587 -0.3497 -0.3026
 2510TIP3    H2 7537   1.036   3.345   3.158 -2.9685 -0.1561  3.3436
 2511TIP3   OH2 7538   2.448   5.156   1.574 -0.1260 -0.7465 -0.2322
 2511TIP3    H1 7539   2.454   5.252   1.571 -0.6862 -0.6732  0.5809
 2511TIP3    H2 7540   2.478   5.133   1.662  3.3715 -1.6237 -1.4696
 2512TIP3   OH2 7541   5.410   3.712   1.536 -0.0662 -0.0390 -0.1346
 2512TIP3    H1 7542   5.351   3.779   1.503 -1.1209 -1.2026 -0.6966
 2512TIP3    H2 7543   5.481   3.709   1.471 -1.3547 -1.2573 -1.5651
 2513TIP3   OH2 7544   2.859   1.748   1.091 -0.1793 -0.3247 -0.6076
 2513TIP3    H1 7545   2.796   1.777   1.157 -1.3763 -0.7956 -1.4988
 2513TIP3    H2 7546   2.882   1.659   1.118 -0.2702 -0.3322 -0.5532
 2514TIP3   OH2 7547   4.214   4.570   0.666 -0.2291  0.1272 -0.2527
 2514TIP3    H1 7548   4.225   4.652   0.617 -2.7155  0.6970  0.0050
 2514TIP3    H2 7549   4.301   4.552   0.702  0.7746  1.7426 -1.6804
 2515TIP3   OH2 7550   2.436   5.840   3.871 -0.1625  0.2723  0.0124
 2515TIP3    H1 7551   2.340   5.839   3.863 -0.2040 -0.8941  0.5021
 2515TIP3    H2 7552   2.466   5.775   3.808  0.2258 -0.2215  0.6938
 2516TIP3   OH2 7553   5.220   2.917   3.827  0.0167  0.6103  0.3139
 2516TIP3    H1 7554   5.312   2.895   3.841 -0.3971 -0.8135  0.9293
 2516TIP3    H2 7555   5.173   2.868   3.893 -1.1455  2.0398  0.6021
 2517TIP3   OH2 7556   2.683   5.579   4.923  0.0914  0.4171  0.2298
 2517TIP3    H1 7557   2.617   5.624   4.975 -1.5894 -0.8643 -0.7156
 2517TIP3    H2 7558   2.723   5.516   4.984 -0.1352  0.6123  0.5840
 2518TIP3   OH2 7559   1.873   3.440   0.931  0.7571  0.5468  0.4599
 2518TIP3    H1 7560   1.927   3.444   1.010 -0.7294  1.0874  1.5034
 2518TIP3    H2 7561   1.882   3.350   0.900  2.5599  0.7333  0.3475
 2519TIP3   OH2 7562   1.181   5.219   4.607 -0.1134  0.4247 -0.0553
 2519TIP3    H1 7563   1.273   5.209   4.631  0.1728  0.9460 -0.9216
 2519TIP3    H2 7564   1.181   5.281   4.535 -0.8617 -1.7248 -2.0368
 2520TIP3   OH2 7565   1.482   4.346   3.050  0.0576 -0.0965  0.2189
 2520TIP3    H1 7566   1.537   4.268   3.052  0.1449 -0.0373  0.1379
 2520TIP3    H2 7567   1.434   4.343   3.133 -0.4396 -0.5893 -0.0816
 2521TIP3   OH2 7568   3.142   5.689   1.786  0.5605 -0.2414 -0.1510
 2521TIP3    H1 7569   3.098   5.649   1.710  0.9905 -1.1024  0.0398
 2521TIP3    H2 7570   3.179   5.615   1.833  2.3630  0.4738 -0.3953
 2522TIP3   OH2 7571   0.957   5.551   4.990 -0.3598 -0.0435 -0.2258
 2522TIP3    H1 7572   0.945   5.642   4.962 -0.0440  0.0313 -0.1320
 2522TIP3    H2 7573   0.996   5.508   4.914 -3.1313 -0.8129 -1.3194
 2523TIP3   OH2 7574   4.069   2.970   1.375  0.4154 -0.0661 -0.3083
 2523TIP3    H1 7575   4.062   2.902   1.442  0.2065 -1.1577 -1.4258
 2523TIP3    H2 7576   4.077   2.923   1.293 -0.8834  1.2563 -1.2382
 2524TIP3   OH2 7577   1.109   2.590   1.062  0.1891  0.5584  0.1135
 2524TIP3    H1 7578   1.124   2.656   1.130 -0.6042  1.4261 -0.5248
 2524TIP3    H2 7579   1.196   2.570   1.028  0.4538  1.2460  0.3573
 2525TIP3   OH2 7580   4.989   1.128   0.481 -0.2398  0.2658  0.1804
 2525TIP3    H1 7581   4.976   1.222   0.468  0.9122  0.4074 -0.0321
 2525TIP3    H2 7582   5.069   1.122   0.534  0.2404 -0.6188 -0.6162
 2526TIP3   OH2 7583   1.013   0.140   3.516  0.7733  0.2784  0.4416
 2526TIP3    H1 7584   1.026   0.165   3.607  0.5045  0.7031  0.3660
 2526TIP3    H2 7585   0.924   0.168   3.496  0.9980  0.6237 -0.0955
 2527TIP3   OH2 7586   3.896   4.756   4.744 -0.0297  0.5907  0.0636
 2527TIP3    H1 7587   3.965   4.822   4.757  1.7039 -1.0739 -0.2572
 2527TIP3    H2 7588   3.834   4.798   4.685  1.7085  1.5170 -1.2120
 2528TIP3   OH2 7589   1.707   4.707   0.984 -0.2582 -0.0829  0.1668
 2528TIP3    H1 7590   1.704   4.803   0.986  0.5829  0.0277 -1.4733
 2528TIP3    H2 7591   1.797   4.687   0.959 -0.4992 -1.2911  0.2113
 2529TIP3   OH2 7592   0.672   0.118   0.233 -0.6740  0.3116  0.2165
 2529TIP3    H1 7593   0.694   0.125   0.326 -1.2870 -0.5371  0.4326
 2529TIP3    H2 7594   0.748   0.074   0.195 -1.2292 -1.0613  0.6600
 2530TIP3   OH2 7595   0.411   1.239   2.988 -0.0361  0.1765 -0.2279
 2530TIP3    H1 7596   0.344   1.302   3.015  1.1831  2.6959 -2.5413
 2530TIP3    H2 7597   0.365   1.177   2.932 -0.6234  1.5162 -1.2886
 2531TIP3   OH2 7598   4.142   5.058   0.235 -0.6092 -0.3384 -0.4642
 2531TIP3    H1 7599   4.192   4.986   0.197  0.0091 -0.3717  0.3667
 2531TIP3    H2 7600   4.072   5.015   0.285 -0.7281 -0.3322 -0.6239
 2532TIP3   OH2 7601   5.543   5.342   3.152 -0.2541 -0.0991 -0.0182
 2532TIP3    H1 7602   5.466   5.327   3.097 -0.1367  0.3972 -0.3260
 2532TIP3    H2 7603   5.564   5.434   3.139 -0.1412 -0.0119  0.7635
 2533TIP3   OH2 7604   2.267   2.685   1.883  0.4337  0.2758  0.2577
 2533TIP3    H1 7605   2.240   2.759   1.937 -0.0879 -0.3800  0.9309
 2533TIP3    H2 7606   2.350   2.712   1.845  0.4926  1.0141  0.8801
 2534TIP3   OH2 7607   4.875   3.730   1.227 -0.1889  0.4889  0.6740
 2534TIP3    H1 7608   4.806   3.785   1.265 -1.3370  1.4886 -2.5209
 2534TIP3    H2 7609   4.950   3.789   1.219 -0.3479  0.6439  0.2936
 2535TIP3   OH2 7610   4.082   2.797   3.700  0.6702  0.0827 -0.0062
 2535TIP3    H1 7611   4.128   2.820   3.781  1.0219  1.2703 -0.5337
 2535TIP3    H2 7612   4.006   2.855   3.698  1.2720  0.8570 -1.0842
 2536TIP3   OH2 7613   3.134   3.122   4.745 -0.0416 -0.1457 -0.6512
 2536TIP3    H1 7614   3.183   3.051   4.786  0.1040  0.6596  0.5941
 2536TIP3    H2 7615   3.055   3.080   4.711  0.1582 -0.9480 -0.1481
 2537TIP3   OH2 7616   4.093   3.912   1.802  0.5548  0.2374  0.4853
 2537TIP3    H1 7617   4.145   3.905   1.721  0.4107  2.4241  0.1448
 2537TIP3    H2 7618   4.144   3.864   1.867  0.8125 -1.3332 -0.8145
 2538TIP3   OH2 7619   1.063   3.993   3.415 -0.1825 -0.1306  0.0633
 2538TIP3    H1 7620   1.011   3.914   3.427 -0.4902  0.3164  2.0184
 2538TIP3    H2 7621   1.128   3.990   3.484 -0.2936  1.3933  0.2746
 2539TIP3   OH2 7622   0.634   5.477   3.384  0.2957 -0.9951 -0.1942
 2539TIP3    H1 7623   0.664   5.444   3.299  2.0961  0.3227 -0.1171
 2539TIP3    H2 7624   0.677   5.421   3.448  4.1732  1.7905 -0.0251
 2540TIP3   OH2 7625   2.612   5.224   3.933 -0.1718 -0.3589  0.4337
 2540TIP3    H1 7626   2.635   5.211   3.841 -0.1708 -0.6495  0.4751
 2540TIP3    H2 7627   2.591   5.317   3.939  1.6454  0.1020  0.5271
 2541TIP3   OH2 7628   3.180   4.304   4.806  0.3546  0.2343  0.1092
 2541TIP3    H1 7629   3.151   4.286   4.896  0.7121 -1.4107 -0.0800
 2541TIP3    H2 7630   3.099   4.307   4.755  0.2759 -0.8594  0.1565
 2542TIP3   OH2 7631   0.129   3.035   2.008 -0.1318  0.5466  0.1619
 2542TIP3    H1 7632   0.115   2.952   2.055 -0.4176  1.0133  0.9090
 2542TIP3    H2 7633   0.125   3.010   1.915  2.1646 -0.6995  0.3157
 2543TIP3   OH2 7634   4.020   3.769   4.362  0.0089  0.6728 -0.4044
 2543TIP3    H1 7635   4.005   3.855   4.400  0.2633  1.0254 -1.0779
 2543TIP3    H2 7636   3.966   3.709   4.414  0.8697  1.0178  0.9444
 2544TIP3   OH2 7637   2.096   5.055   4.020 -0.5730 -0.3004  0.2239
 2544TIP3    H1 7638   2.025   5.113   4.049 -1.1998 -0.0643 -1.6707
 2544TIP3    H2 7639   2.101   4.988   4.088 -2.9219 -0.5620  0.2100
 2545TIP3   OH2 7640   1.017   4.429   1.805 -0.6092  0.0695 -0.1292
 2545TIP3    H1 7641   1.006   4.516   1.844 -1.1739  0.1104 -0.3721
 2545TIP3    H2 7642   0.930   4.405   1.775 -0.3512 -0.3471 -0.5591
 2546TIP3   OH2 7643   3.615   2.657   1.420  0.3576  0.0706  0.8041
 2546TIP3    H1 7644   3.550   2.690   1.358  2.0889  1.3721 -0.4036
 2546TIP3    H2 7645   3.573   2.664   1.505 -0.9834  1.1169  0.0815
 2547TIP3   OH2 7646   4.094   5.096   4.058  0.3077 -0.4396 -0.3753
 2547TIP3    H1 7647   4.084   5.182   4.099 -3.5916  0.6251 -2.8930
 2547TIP3    H2 7648   4.179   5.100   4.014  0.3803  2.0620 -0.1673
 2548TIP3   OH2 7649   6.259   0.255   4.370  0.2217  0.2629 -0.9503
 2548TIP3    H1 7650   6.216   0.173   4.392 -0.5556  0.2919 -2.2939
 2548TIP3    H2 7651   6.314   0.234   4.295 -1.6109  1.3864 -2.6970
 2549TIP3   OH2 7652   4.551   4.613   2.491  0.0195  0.5453 -0.3188
 2549TIP3    H1 7653   4.638   4.642   2.464 -0.1618  0.9555 -0.4679
 2549TIP3    H2 7654   4.541   4.648   2.580 -0.3117  1.1910 -0.6042
 2550TIP3   OH2 7655   3.403   4.232   1.383  0.0514  0.0763  0.6432
 2550TIP3    H1 7656   3.459   4.194   1.316  0.0309  0.5542  0.3566
 2550TIP3    H2 7657   3.375   4.157   1.436 -1.1372 -0.5201 -0.7619
 2551TIP3   OH2 7658   5.274   3.842   3.066 -0.5590 -0.3022  0.2885
 2551TIP3    H1 7659   5.200   3.824   3.123 -0.4490  1.1329  0.9129
 2551TIP3    H2 7660   5.343   3.873   3.125  0.1890 -0.5935 -0.4126
 2552TIP3   OH2 7661   0.533   4.747   1.211 -0.5786 -0.3415  0.1991
 2552TIP3    H1 7662   0.560   4.836   1.231  0.5102 -0.4713 -0.6094
 2552TIP3    H2 7663   0.476   4.722   1.284  0.1194  0.5523  1.0690
 2553TIP3   OH2 7664   0.234   0.144   5.162 -0.0426  0.3013  0.3298
 2553TIP3    H1 7665   0.326   0.157   5.138  0.4205 -1.2942  1.0785
 2553TIP3    H2 7666   0.185   0.165   5.083  1.0440  0.2263 -0.3791
 2554TIP3   OH2 7667   3.378   2.944   3.333 -0.0019 -0.1220  0.5740
 2554TIP3    H1 7668   3.300   2.983   3.373  0.0491  0.0753  0.4812
 2554TIP3    H2 7669   3.350   2.855   3.308 -0.4277  0.2031 -0.1534
 2555TIP3   OH2 7670   5.110   0.020   3.934 -0.5246  0.6585  0.0938
 2555TIP3    H1 7671   5.073   0.056   4.015 -0.7131 -0.0516  0.3269
 2555TIP3    H2 7672   5.187  -0.029   3.962 -1.0131 -0.2235 -0.0522
 2556TIP3   OH2 7673   5.552   0.808   2.982  0.1247  0.4152  0.2037
 2556TIP3    H1 7674   5.533   0.889   3.030 -0.8542  0.9352 -1.0076
 2556TIP3    H2 7675   5.514   0.738   3.036  1.6190  0.6465  1.6305
 2557TIP3   OH2 7676   3.550   5.160   0.744  0.2533 -0.0124 -0.1487
 2557TIP3    H1 7677   3.595   5.076   0.753 -0.2122 -0.4364 -1.5131
 2557TIP3    H2 7678   3.483   5.144   0.678 -0.4610  1.1971  0.2511
 2558TIP3   OH2 7679   4.344   4.561   4.445 -0.2512  0.2207  0.5290
 2558TIP3    H1 7680   4.257   4.601   4.448 -0.2032  0.3271  0.5342
 2558TIP3    H2 7681   4.399   4.619   4.498 -0.3085 -0.1791  1.0255
 2559TIP3   OH2 7682   1.629   0.718   0.410 -0.3856  0.2122  0.2260
 2559TIP3    H1 7683   1.569   0.716   0.336 -2.1596  1.9046  1.5107
 2559TIP3    H2 7684   1.599   0.792   0.463  0.4796 -1.2191  2.8855
 2560TIP3   OH2 7685   0.839   2.602   1.861 -0.1818 -0.1163  0.1104
 2560TIP3    H1 7686   0.811   2.677   1.808 -0.5895  1.2144  2.0790
 2560TIP3    H2 7687   0.900   2.555   1.805  0.2775  1.8361 -1.1456
 2561TIP3   OH2 7688   6.017   5.105   2.970  0.0506 -0.0347  0.2903
 2561TIP3    H1 7689   6.051   5.188   3.003 -1.9462  0.4945  1.1528
 2561TIP3    H2 7690   6.003   5.052   3.049  2.0636 -1.5625 -0.2946
 2562TIP3   OH2 7691   1.085   4.099   1.411  0.3995  0.3608  0.3871
 2562TIP3    H1 7692   1.039   4.061   1.485 -0.3969  0.1600 -0.1921
 2562TIP3    H2 7693   1.087   4.029   1.345 -1.1634  1.2842 -0.7263
 2563TIP3   OH2 7694   1.769   0.702   0.114 -0.3836  0.6625 -0.2256
 2563TIP3    H1 7695   1.736   0.665   0.033 -3.6815  0.3996  1.0923
 2563TIP3    H2 7696   1.731   0.647   0.183  1.3685  1.5616  1.5705
 2564TIP3   OH2 7697   4.896   5.353   0.260  0.1315 -0.0231  0.0929
 2564TIP3    H1 7698   4.888   5.291   0.333  0.2620  1.3962  1.3510
 2564TIP3    H2 7699   4.811   5.349   0.216 -0.3900  0.0316  1.0824
 2565TIP3   OH2 7700   5.352   4.092   2.247  0.0110 -0.2584  0.0908
 2565TIP3    H1 7701   5.376   4.014   2.196 -0.9652 -0.0988 -0.6414
 2565TIP3    H2 7702   5.368   4.165   2.187  0.4328  0.0700  0.6001
 2566TIP3   OH2 7703   5.225   3.908   3.568 -0.7852 -0.1935  0.3829
 2566TIP3    H1 7704   5.251   3.817   3.585 -1.5927 -0.6109 -0.5471
 2566TIP3    H2 7705   5.304   3.958   3.587 -0.0590 -1.1788  0.0789
 2567TIP3   OH2 7706   0.760   4.333   1.525  0.2936  0.1002 -0.1128
 2567TIP3    H1 7707   0.838   4.343   1.470 -1.2858  1.6254 -2.2670
 2567TIP3    H2 7708   0.754   4.416   1.572 -0.5478  0.4160 -0.7504
 2568TIP3   OH2 7709   4.170   2.494   2.838  0.1529 -0.2775 -0.6126
 2568TIP3    H1 7710   4.263   2.480   2.820  0.2438  1.7638 -1.9874
 2568TIP3    H2 7711   4.169   2.535   2.925  0.4769 -0.8903 -0.3128
 2569TIP3   OH2 7712   1.074   4.828   1.241 -0.3162  0.1296 -0.3152
 2569TIP3    H1 7713   1.033   4.773   1.308  0.2585 -0.0263 -0.0906
 2569TIP3    H2 7714   1.062   4.917   1.274 -0.1831  0.0642 -0.0831
 2570TIP3   OH2 7715   5.383   5.412   4.794  0.3830  0.3143  0.2564
 2570TIP3    H1 7716   5.442   5.382   4.726  2.4617  1.1311  1.5946
 2570TIP3    H2 7717   5.315   5.345   4.798  1.3592 -0.8241 -1.1581
 2571TIP3   OH2 7718   0.268   1.034   2.580 -0.1250 -0.2709  0.3097
 2571TIP3    H1 7719   0.184   1.044   2.535  0.8723  0.5911 -1.5078
 2571TIP3    H2 7720   0.316   0.971   2.527  1.3501  1.3041 -0.3375
 2572TIP3   OH2 7721   5.460   3.583   4.893  0.1911 -0.0535 -0.5419
 2572TIP3    H1 7722   5.535   3.592   4.953 -1.1146  0.6368  1.0588
 2572TIP3    H2 7723   5.421   3.670   4.890  1.2533  0.4482 -3.9475
 2573TIP3   OH2 7724   1.796   5.014   0.297 -0.4080  0.6789  0.6229
 2573TIP3    H1 7725   1.727   5.074   0.327  0.2095  2.6958 -1.6725
 2573TIP3    H2 7726   1.761   4.975   0.217 -0.2538 -1.1084  1.3726
 2574TIP3   OH2 7727   4.795   5.247   5.148  0.0855  0.3847 -0.1354
 2574TIP3    H1 7728   4.752   5.308   5.207 -0.0402  1.8411 -1.6662
 2574TIP3    H2 7729   4.807   5.296   5.066 -0.5068 -1.7731 -1.6291
 2575TIP3   OH2 7730   6.056   1.573   2.860  0.3149 -0.0160 -0.7565
 2575TIP3    H1 7731   5.997   1.508   2.822  0.5594 -0.7531  0.0975
 2575TIP3    H2 7732   6.100   1.612   2.784  0.5110 -1.1750 -1.2569
 2576TIP3   OH2 7733   5.106   0.244   2.839 -0.4314 -0.0471 -0.1961
 2576TIP3    H1 7734   5.164   0.251   2.914  0.3528 -0.3607 -0.7620
 2576TIP3    H2 7735   5.158   0.274   2.765 -1.2001  0.2730 -0.6209
 2577TIP3   OH2 7736   0.924   4.965   2.501  0.0466 -0.8240  0.5754
 2577TIP3    H1 7737   0.868   5.020   2.556 -0.1087 -0.5134  0.1202
 2577TIP3    H2 7738   0.877   4.882   2.495 -0.5633 -0.4490 -0.0972
 2578TIP3   OH2 7739   4.594   1.587   0.252 -0.4450 -0.3903 -0.0198
 2578TIP3    H1 7740   4.658   1.599   0.322 -0.2545 -0.8295 -0.1205
 2578TIP3    H2 7741   4.617   1.654   0.187 -0.3982 -0.2218  0.1698
 2579TIP3   OH2 7742   0.774   5.239   1.482 -0.2727 -0.1250 -0.0280
 2579TIP3    H1 7743   0.833   5.304   1.444  0.8072 -0.9563  0.1728
 2579TIP3    H2 7744   0.777   5.166   1.421 -0.6079 -0.4165  0.3029
 2580TIP3   OH2 7745   3.196   4.243   4.407  0.3812  0.1518  0.4287
 2580TIP3    H1 7746   3.242   4.168   4.445  0.5373 -0.4850 -0.9918
 2580TIP3    H2 7747   3.263   4.292   4.360 -0.1667 -0.1403 -0.6737
 2581TIP3   OH2 7748   4.174   4.476   0.148  0.5738  0.1375  0.0986
 2581TIP3    H1 7749   4.170   4.418   0.224 -0.8316 -0.4656 -0.4072
 2581TIP3    H2 7750   4.121   4.433   0.082  2.1804  0.4008 -1.4396
 2582TIP3   OH2 7751   0.728   3.307   3.848  0.0077 -0.1180  0.0519
 2582TIP3    H1 7752   0.707   3.274   3.936 -1.3585 -2.0965 -0.9302
 2582TIP3    H2 7753   0.760   3.396   3.863  1.3668 -0.9389  2.6785
 2583TIP3   OH2 7754   2.503   2.618   1.433 -0.5003 -0.0444 -0.1478
 2583TIP3    H1 7755   2.424   2.640   1.483 -0.4876  0.1348 -0.2067
 2583TIP3    H2 7756   2.554   2.564   1.492 -0.1380  0.7882  0.3099
 2584TIP3   OH2 7757   0.874   2.666   0.908 -0.3881  0.1510  0.4503
 2584TIP3    H1 7758   0.945   2.624   0.957  0.2610  2.2793  1.4517
 2584TIP3    H2 7759   0.908   2.673   0.819 -0.2955 -0.9086  0.3887
 2585TIP3   OH2 7760   5.715   2.882   5.114  0.1098 -0.1549  0.2584
 2585TIP3    H1 7761   5.726   2.947   5.184  0.7787 -0.2991  0.2988
 2585TIP3    H2 7762   5.767   2.917   5.041  1.6550 -1.3039  0.7442
 2586TIP3   OH2 7763   5.685   1.799   5.004 -0.1137  0.3898  0.4805
 2586TIP3    H1 7764   5.772   1.777   5.039 -0.2039 -1.0556 -0.1313
 2586TIP3    H2 7765   5.644   1.714   4.989 -2.1661  1.0392  2.0214
 2587TIP3   OH2 7766   2.560   4.105   0.174 -0.5652 -0.5800  0.0087
 2587TIP3    H1 7767   2.623   4.086   0.105  1.1536  0.6608  1.1232
 2587TIP3    H2 7768   2.489   4.152   0.130  0.5741  0.3405 -0.9258
 2588TIP3   OH2 7769   4.103   1.236   3.276 -0.1655 -0.3602  0.1850
 2588TIP3    H1 7770   4.124   1.273   3.362 -1.2592 -0.6573  0.5889
 2588TIP3    H2 7771   4.165   1.278   3.216  1.5634 -1.1657  1.3041
 2589TIP3   OH2 7772   3.318   5.880   2.669  0.0051 -0.0526  0.6551
 2589TIP3    H1 7773   3.309   5.955   2.610  0.2529 -0.3304  0.2548
 2589TIP3    H2 7774   3.255   5.896   2.738 -0.5319  0.1177  0.1338
 2590TIP3   OH2 7775   0.385   0.831   2.173 -0.0125  0.7630 -0.4733
 2590TIP3    H1 7776   0.411   0.828   2.265  2.4770 -2.6672 -1.0934
 2590TIP3    H2 7777   0.297   0.793   2.172  0.6730 -0.9912  0.4118
 2591TIP3   OH2 7778   0.398   3.994   4.973  0.3970 -0.3880 -0.2642
 2591TIP3    H1 7779   0.386   4.087   4.953  1.3177  0.0939  1.2623
 2591TIP3    H2 7780   0.487   3.988   5.007  0.3074 -1.8191 -0.2029
 2592TIP3   OH2 7781   0.061   1.977   3.454  0.0769  0.4791  0.0078
 2592TIP3    H1 7782   0.125   2.034   3.496  0.2688 -0.6250  1.2690
 2592TIP3    H2 7783  -0.022   2.023   3.465  0.2396  0.5824  0.9161
 2593TIP3   OH2 7784   0.326   3.820   0.227  0.0295  0.2398 -0.4101
 2593TIP3    H1 7785   0.308   3.861   0.312  1.0830  0.6179 -0.3557
 2593TIP3    H2 7786   0.240   3.806   0.189 -0.4899 -0.3818  0.9289
 2594TIP3   OH2 7787   1.783   5.976   0.892  0.1277 -0.1738  0.1892
 2594TIP3    H1 7788   1.825   5.894   0.918  0.3710 -0.0004  0.3482
 2594TIP3    H2 7789   1.724   5.997   0.965 -0.3196 -0.4711 -0.0797
 2595TIP3   OH2 7790   5.659   5.318   1.243  0.4707  0.1278 -0.1965
 2595TIP3    H1 7791   5.744   5.287   1.213 -0.1753 -0.4882 -1.4504
 2595TIP3    H2 7792   5.607   5.327   1.164 -0.3294  1.4950  0.4577
 2596TIP3   OH2 7793   6.012   5.646   2.116 -0.4191 -0.2064  0.0587
 2596TIP3    H1 7794   6.018   5.676   2.207 -0.5721 -0.6288  0.2074
 2596TIP3    H2 7795   6.054   5.716   2.066 -1.1650  0.4691  0.3552
 2597TIP3   OH2 7796   3.726   3.556   1.742  0.3645  0.1963 -0.0725
 2597TIP3    H1 7797   3.644   3.542   1.789  0.8513  0.2633  0.8317
 2597TIP3    H2 7798   3.784   3.486   1.773  0.8326  0.4926 -0.2609
 2598TIP3   OH2 7799   2.281   0.331   4.531 -0.1356 -0.0500 -0.7376
 2598TIP3    H1 7800   2.370   0.298   4.520  0.6648  1.9526 -0.7196
 2598TIP3    H2 7801   2.226   0.268   4.486  1.2345 -1.5968 -0.3156
 2599TIP3   OH2 7802   6.085   1.963   2.106  0.0710  0.1372 -0.3434
 2599TIP3    H1 7803   6.046   2.044   2.072 -1.8989  0.1354  1.6535
 2599TIP3    H2 7804   6.173   1.961   2.068 -0.2758  2.5282 -1.4929
 2600TIP3   OH2 7805   1.874   4.286   3.777 -0.1146 -0.2474 -0.4955
 2600TIP3    H1 7806   1.828   4.276   3.861 -0.1047 -0.5761 -0.5292
 2600TIP3    H2 7807   1.805   4.274   3.711 -0.3307  1.0267 -0.5329
 2601TIP3   OH2 7808   2.750   1.863   2.183  0.5703 -0.3883 -0.2619
 2601TIP3    H1 7809   2.806   1.927   2.139  1.0984  0.3773  1.4422
 2601TIP3    H2 7810   2.802   1.832   2.257 -0.5188 -1.1462  0.2156
 2602TIP3   OH2 7811   4.918   5.198   2.290 -0.1312  0.5491  0.2759
 2602TIP3    H1 7812   4.897   5.165   2.378 -0.1886  0.7000  0.3193
 2602TIP3    H2 7813   4.999   5.248   2.302  2.2555 -2.8054 -0.4681
 2603TIP3   OH2 7814   4.475   1.896   4.143  0.2282  0.1888  0.3495
 2603TIP3    H1 7815   4.549   1.875   4.200 -0.1702 -4.5835 -0.4989
 2603TIP3    H2 7816   4.514   1.912   4.057  0.3760 -1.2401  0.1394
 2604TIP3   OH2 7817   1.862   5.617   1.842  0.3780 -0.5640  0.1159
 2604TIP3    H1 7818   1.956   5.599   1.840  0.7251  0.8594  1.3627
 2604TIP3    H2 7819   1.839   5.614   1.935 -0.6316 -0.0652 -0.1061
 2605TIP3   OH2 7820   3.780   0.366   1.302  0.0670  0.0364  0.0918
 2605TIP3    H1 7821   3.734   0.441   1.340 -0.6903 -0.7618  0.7956
 2605TIP3    H2 7822   3.844   0.342   1.369 -1.9901 -2.0478  1.4389
 2606TIP3   OH2 7823   3.896   2.368   2.126 -0.2264  0.3495  0.4015
 2606TIP3    H1 7824   3.889   2.436   2.193  0.7504 -0.8221  1.7465
 2606TIP3    H2 7825   3.978   2.323   2.145 -1.1600 -1.6492 -0.0145
 2607TIP3   OH2 7826   6.064   5.366   3.095 -0.3021 -0.2231  0.1905
 2607TIP3    H1 7827   5.976   5.384   3.063  0.3144  0.5205 -1.1374
 2607TIP3    H2 7828   6.051   5.337   3.185 -1.9846 -1.1328 -0.3067
 2608TIP3   OH2 7829   1.179   2.687   4.871 -0.3220 -0.2200 -0.1069
 2608TIP3    H1 7830   1.115   2.632   4.827 -0.4618  1.8371 -2.7659
 2608TIP3    H2 7831   1.264   2.655   4.841 -0.2873 -0.5383  0.3308
 2609TIP3   OH2 7832   0.966   5.824   4.925  0.2810 -0.2681 -0.4312
 2609TIP3    H1 7833   1.022   5.891   4.964 -1.2823  0.9795 -0.2303
 2609TIP3    H2 7834   0.915   5.871   4.859 -1.6871 -0.9633  0.5196
 2610TIP3   OH2 7835   2.232   4.118   0.210 -0.1821 -0.0081 -0.2733
 2610TIP3    H1 7836   2.263   4.177   0.142  1.0443 -1.9612 -1.5107
 2610TIP3    H2 7837   2.238   4.031   0.171 -1.9810 -0.9835  1.4379
 2611TIP3   OH2 7838   3.847   0.055   0.635  0.3009  0.0372 -0.4084
 2611TIP3    H1 7839   3.752   0.064   0.646  0.4069  1.0036 -0.1404
 2611TIP3    H2 7840   3.876   0.009   0.714  0.3630  2.0946  0.8335
 2612TIP3   OH2 7841   5.625   0.885   4.137 -0.0394 -0.4724 -0.1225
 2612TIP3    H1 7842   5.531   0.894   4.148 -0.1573 -1.8864  0.1121
 2612TIP3    H2 7843   5.636   0.811   4.077  0.9426 -0.9872  0.6637
 2613TIP3   OH2 7844   5.319   2.768   4.938  0.4413  0.5151 -0.7623
 2613TIP3    H1 7845   5.236   2.816   4.936  0.5156  0.6096 -1.6036
 2613TIP3    H2 7846   5.316   2.720   5.021 -0.7487 -0.0043 -1.0833
 2614TIP3   OH2 7847   5.415   0.720   3.214  0.2739 -0.8222  0.0633
 2614TIP3    H1 7848   5.339   0.675   3.180  0.4245 -2.0369  1.2745
 2614TIP3    H2 7849   5.387   0.756   3.298  1.0689 -1.4052  0.5885
 2615TIP3   OH2 7850   6.234   3.028   4.294 -0.1083  0.7126 -0.3853
 2615TIP3    H1 7851   6.310   3.051   4.347  1.2961 -0.9846 -1.5084
 2615TIP3    H2 7852   6.255   3.060   4.206 -0.0422 -0.8955 -1.0008
 2616TIP3   OH2 7853   4.389   1.791   0.302  0.1361 -0.0603 -0.2511
 2616TIP3    H1 7854   4.464   1.734   0.285  1.4028  1.2984  0.5215
 2616TIP3    H2 7855   4.411   1.836   0.384 -1.4309  0.5302 -0.1141
 2617TIP3   OH2 7856   5.430   3.313   2.124 -0.0326 -0.1032  0.0190
 2617TIP3    H1 7857   5.344   3.340   2.156  0.2770  0.5246  0.3574
 2617TIP3    H2 7858   5.415   3.230   2.080 -0.5857 -0.7220  1.3120
 2618TIP3   OH2 7859   1.820   4.831   4.747  0.1445 -0.0221 -0.5707
 2618TIP3    H1 7860   1.862   4.894   4.805 -0.1597  0.1476 -0.5310
 2618TIP3    H2 7861   1.877   4.825   4.671 -0.1935  0.8576 -0.9042
 2619TIP3   OH2 7862   4.567   1.658   1.988 -0.5285  0.4698  0.6717
 2619TIP3    H1 7863   4.553   1.695   1.901  1.7456 -0.1861 -0.0245
 2619TIP3    H2 7864   4.637   1.594   1.977 -2.5514 -2.2799  2.3309
 2620TIP3   OH2 7865   5.732   4.578   3.322 -0.3206 -0.0559 -0.1611
 2620TIP3    H1 7866   5.798   4.519   3.284 -0.6664  0.0632 -0.9578
 2620TIP3    H2 7867   5.653   4.561   3.271 -0.5444  0.7793 -0.0954
 2621TIP3   OH2 7868   5.404   4.230   2.030 -0.3128  0.2347 -0.0318
 2621TIP3    H1 7869   5.346   4.302   2.054 -0.2090  0.2190  0.2756
 2621TIP3    H2 7870   5.492   4.268   2.033 -0.3899  0.6207 -1.8262
 2622TIP3   OH2 7871   3.013   0.864   2.106  0.6496  0.0931 -0.0617
 2622TIP3    H1 7872   3.011   0.911   2.022 -0.2385 -1.2120 -0.8093
 2622TIP3    H2 7873   2.991   0.774   2.083 -2.1804  0.1689  1.8631
 2623TIP3   OH2 7874   4.363   5.582   0.464 -0.4678  0.3524 -0.2650
 2623TIP3    H1 7875   4.385   5.494   0.432 -1.0078  0.0733  0.1057
 2623TIP3    H2 7876   4.414   5.641   0.409  1.1741 -0.2631  0.5297
 2624TIP3   OH2 7877   0.500   5.752   2.860  0.6547 -0.5633 -0.0143
 2624TIP3    H1 7878   0.463   5.681   2.808  0.2952 -0.8063  0.5666
 2624TIP3    H2 7879   0.465   5.832   2.819 -0.0270 -0.7708  0.1523
 2625TIP3   OH2 7880   1.512   4.192   4.805 -0.3415 -1.1753 -0.5518
 2625TIP3    H1 7881   1.592   4.144   4.826 -0.2691 -1.6383 -1.7769
 2625TIP3    H2 7882   1.476   4.218   4.890  0.4679 -2.0085  0.0672
 2626TIP3   OH2 7883   1.483   5.863   1.077 -0.0888 -0.1742  0.5592
 2626TIP3    H1 7884   1.439   5.940   1.042  2.0908  1.2752  0.8643
 2626TIP3    H2 7885   1.461   5.793   1.015  1.5118  1.6954 -2.3804
 2627TIP3   OH2 7886   0.753   4.966   0.961 -0.1873 -0.3111  0.3489
 2627TIP3    H1 7887   0.840   4.983   0.998  0.4767 -2.6985  0.0261
 2627TIP3    H2 7888   0.768   4.956   0.867 -0.3706 -2.8589  0.5169
 2628TIP3   OH2 7889   4.776   0.715   4.734  0.0805 -0.4365 -0.3701
 2628TIP3    H1 7890   4.811   0.794   4.694  0.9851 -1.4205 -1.6133
 2628TIP3    H2 7891   4.694   0.699   4.688  1.0816 -1.5233 -1.8616
 2629TIP3   OH2 7892   5.203   1.506   1.410  0.1213 -0.0529  0.4908
 2629TIP3    H1 7893   5.129   1.469   1.459 -0.9342  0.6584 -0.5034
 2629TIP3    H2 7894   5.241   1.571   1.468  0.6089 -1.1046  1.3956
 2630TIP3   OH2 7895   5.216   4.817   1.299  0.4149 -0.5376 -0.6812
 2630TIP3    H1 7896   5.136   4.833   1.349  1.1472  1.3719 -0.0626
 2630TIP3    H2 7897   5.214   4.882   1.229  1.5260 -0.3416 -0.5388
 2631TIP3   OH2 7898   1.840   2.104   4.000  0.5310  0.0312 -0.6667
 2631TIP3    H1 7899   1.830   2.034   4.065  0.3466  1.4245  0.8610
 2631TIP3    H2 7900   1.753   2.141   3.990  0.5447 -0.1945 -1.7831
 2632TIP3   OH2 7901   2.877   1.578   0.128 -0.3403 -0.2202 -0.7648
 2632TIP3    H1 7902   2.965   1.615   0.123 -0.0252 -0.6688  0.8226
 2632TIP3    H2 7903   2.891   1.483   0.135 -0.8389 -0.2092  0.8828
 2633TIP3   OH2 7904   2.316   2.553   3.436 -0.0984  0.4351  0.4291
 2633TIP3    H1 7905   2.289   2.542   3.527  0.2102  1.1424  0.6119
 2633TIP3    H2 7906   2.235   2.553   3.386 -0.1965 -1.5854  0.5104
 2634TIP3   OH2 7907   2.080   0.780   4.773 -0.3568  0.4783 -0.2215
 2634TIP3    H1 7908   2.170   0.803   4.749  0.0946  1.2796  2.0053
 2634TIP3    H2 7909   2.074   0.686   4.757  1.3598  0.1414  0.8851
 2635TIP3   OH2 7910   5.452   4.138   2.975  0.0614  0.2859  0.2024
 2635TIP3    H1 7911   5.478   4.088   3.052  1.0863 -0.1842 -0.4322
 2635TIP3    H2 7912   5.513   4.212   2.973  0.9752 -0.4586 -0.9165
 2636TIP3   OH2 7913   0.146   2.314   3.545 -0.4415 -0.1797  0.5120
 2636TIP3    H1 7914   0.195   2.387   3.506 -1.9987  0.9748  0.6575
 2636TIP3    H2 7915   0.109   2.349   3.625 -0.6496 -1.3468  0.9480
 2637TIP3   OH2 7916   1.355   2.506   1.302 -0.0621 -0.6755  0.4437
 2637TIP3    H1 7917   1.278   2.500   1.359  0.1186 -0.5053  0.7047
 2637TIP3    H2 7918   1.406   2.578   1.338  0.1970 -0.7538  0.2355
 2638TIP3   OH2 7919   2.487   5.515   0.140 -0.2376 -0.3219 -0.0132
 2638TIP3    H1 7920   2.533   5.587   0.184 -1.6761  0.9866 -0.5303
 2638TIP3    H2 7921   2.554   5.473   0.087  0.6552  0.6637  0.2919
 2639TIP3   OH2 7922   3.249   2.077   1.471  0.0969 -0.0257 -0.1959
 2639TIP3    H1 7923   3.230   1.986   1.447  0.2408  0.3071 -1.6800
 2639TIP3    H2 7924   3.251   2.124   1.387 -0.7043  1.4927  0.5920
 2640TIP3   OH2 7925   2.217   1.952   4.969  0.3110 -0.4591 -0.1369
 2640TIP3    H1 7926   2.215   2.023   4.905  0.3164 -0.3478 -0.0111
 2640TIP3    H2 7927   2.281   1.890   4.933  1.0354  0.0572  0.2516
 2641TIP3   OH2 7928   3.092   2.327   0.034 -1.0055 -0.3140 -0.1934
 2641TIP3    H1 7929   3.182   2.335   0.066 -1.1374  2.7789 -0.3391
 2641TIP3    H2 7930   3.053   2.261   0.092  1.2856 -1.7225 -0.1021
 2642TIP3   OH2 7931   5.784   5.734   1.062  0.6545 -0.0172  0.1191
 2642TIP3    H1 7932   5.813   5.732   1.154  3.0908 -0.9779 -0.6037
 2642TIP3    H2 7933   5.807   5.647   1.028 -2.0035 -0.4173 -0.9593
 2643TIP3   OH2 7934   3.233   0.921   1.277 -0.2824 -0.4629 -0.0885
 2643TIP3    H1 7935   3.280   0.984   1.221  0.7754 -1.6915 -0.6350
 2643TIP3    H2 7936   3.255   0.948   1.366  0.3329 -0.1670 -0.3163
 2644TIP3   OH2 7937   2.033   4.266   2.212  0.0367  0.1364 -0.4417
 2644TIP3    H1 7938   2.119   4.235   2.183  0.1114 -1.5479  1.3824
 2644TIP3    H2 7939   2.033   4.252   2.307 -3.1809 -2.4977 -0.6556
 2645TIP3   OH2 7940   3.143   5.032   4.072 -0.2307 -0.0946  0.3046
 2645TIP3    H1 7941   3.233   5.030   4.041 -0.1985 -0.1653  0.4026
 2645TIP3    H2 7942   3.138   5.111   4.127 -0.5483  0.5776 -0.6648
 2646TIP3   OH2 7943   3.174   0.267   3.077  0.2650 -0.3237 -0.3252
 2646TIP3    H1 7944   3.146   0.221   3.157 -0.3339  1.4336  0.5208
 2646TIP3    H2 7945   3.113   0.339   3.068  1.4263  0.5704 -1.3640
 2647TIP3   OH2 7946   3.529   2.621   3.079  0.0661  0.5532 -0.1457
 2647TIP3    H1 7947   3.565   2.697   3.033 -1.6336  0.3692 -1.8809
 2647TIP3    H2 7948   3.483   2.571   3.012 -1.9762 -0.0882  1.6153
 2648TIP3   OH2 7949   0.840   0.519   1.863  0.5152  0.2105 -0.2874
 2648TIP3    H1 7950   0.849   0.604   1.820  1.5524  0.5214  0.4852
 2648TIP3    H2 7951   0.827   0.457   1.792  0.8756  0.8766 -0.9443
 2649TIP3   OH2 7952   5.307   5.461   0.522  0.0968 -0.2068 -0.4157
 2649TIP3    H1 7953   5.244   5.467   0.594  0.4261 -0.1487 -0.1259
 2649TIP3    H2 7954   5.268   5.512   0.451 -0.3356 -0.4515 -0.3553
 2650TIP3   OH2 7955   5.794   2.011   2.822  0.0627  0.3611 -0.6080
 2650TIP3    H1 7956   5.825   1.971   2.741  1.1533 -0.8188  0.3492
 2650TIP3    H2 7957   5.847   1.971   2.891 -1.0866  1.0464  0.7426
 2651TIP3   OH2 7958   2.492   4.908   4.820  0.0908 -0.6071  0.0889
 2651TIP3    H1 7959   2.548   4.843   4.779  1.5048  0.1555  0.7583
 2651TIP3    H2 7960   2.548   4.954   4.883 -1.0916  0.6376  0.3074
 2652TIP3   OH2 7961   1.222   3.609   4.433  0.0390  0.1848 -0.0411
 2652TIP3    H1 7962   1.312   3.583   4.415  0.3172  0.6842  0.5932
 2652TIP3    H2 7963   1.177   3.527   4.455  0.0313 -0.2385 -1.5433
 2653TIP3   OH2 7964   2.457   1.388   0.162  0.0771  0.3710 -0.2948
 2653TIP3    H1 7965   2.478   1.340   0.082  0.5021 -1.6481  0.9496
 2653TIP3    H2 7966   2.425   1.321   0.222 -1.6660  2.0635  0.7682
 2654TIP3   OH2 7967   0.342   3.656   4.068 -0.4462 -0.3410  0.4894
 2654TIP3    H1 7968   0.384   3.634   4.151  0.6852 -1.5767 -0.3597
 2654TIP3    H2 7969   0.400   3.618   4.002 -1.6069  0.1391 -0.8403
 2655TIP3   OH2 7970   4.098   5.290   0.548  0.2587  0.3623 -0.1126
 2655TIP3    H1 7971   4.171   5.234   0.573 -0.6099  0.0451  1.9598
 2655TIP3    H2 7972   4.021   5.249   0.589 -1.1266  0.6327 -2.2528
 2656TIP3   OH2 7973   3.208   2.447   2.453 -0.1328  0.4246  1.0980
 2656TIP3    H1 7974   3.173   2.536   2.447 -0.1661  0.3013 -0.9910
 2656TIP3    H2 7975   3.302   2.458   2.441 -0.2388  0.1071 -0.1241
 2657TIP3   OH2 7976   3.756   2.105   0.495  0.3000  0.0071  0.9558
 2657TIP3    H1 7977   3.697   2.048   0.545 -1.5478  0.6007 -0.4258
 2657TIP3    H2 7978   3.762   2.185   0.548 -0.6334  0.1563  0.8633
 2658TIP3   OH2 7979   2.589   2.354   4.440  0.4509  0.1382  0.0132
 2658TIP3    H1 7980   2.630   2.434   4.406 -2.4090  1.5010 -0.5589
 2658TIP3    H2 7981   2.584   2.296   4.364 -0.0070  0.5520 -0.2776
 2659TIP3   OH2 7982   2.872   3.880   3.719 -0.5438  0.1753 -0.1448
 2659TIP3    H1 7983   2.879   3.790   3.686  0.5174 -0.1663  0.9327
 2659TIP3    H2 7984   2.832   3.870   3.805  0.5380  0.6130  0.4291
 2660TIP3   OH2 7985   3.917   3.929   2.379  0.3084 -0.4371  0.8786
 2660TIP3    H1 7986   3.857   3.924   2.306 -0.2320  0.3516  1.2571
 2660TIP3    H2 7987   4.001   3.901   2.343 -0.5300 -2.8392  0.6639
 2661TIP3   OH2 7988   0.668   3.166   1.952  0.0181 -0.2798  0.1313
 2661TIP3    H1 7989   0.734   3.098   1.938  0.4331  0.1299  0.0910
 2661TIP3    H2 7990   0.585   3.123   1.933  0.3668 -0.4619 -1.0017
 2662TIP3   OH2 7991   1.211   4.313   1.116 -0.4656 -0.1332 -0.7892
 2662TIP3    H1 7992   1.188   4.314   1.023 -1.5827  2.1530 -0.5573
 2662TIP3    H2 7993   1.182   4.398   1.149  2.0650  0.0986  1.1515
 2663TIP3   OH2 7994   1.100   5.240   3.631 -0.4378 -0.4215 -0.3512
 2663TIP3    H1 7995   1.101   5.321   3.579  0.4875 -0.7915 -0.9199
 2663TIP3    H2 7996   1.108   5.270   3.722  2.3734  0.0666 -0.6662
 2664TIP3   OH2 7997   4.195   3.145   3.765 -0.0777 -0.0950  0.4612
 2664TIP3    H1 7998   4.287   3.122   3.778  0.0157 -0.0984 -0.2039
 2664TIP3    H2 7999   4.196   3.240   3.754 -0.3692  0.1700  2.3201
 2665TIP3   OH2 8000   4.726   5.123   2.128  0.5829 -0.1420  0.5927
 2665TIP3    H1 8001   4.795   5.153   2.188 -0.1826  0.1696  1.3276
 2665TIP3    H2 8002   4.651   5.179   2.147  0.6050  0.6361 -1.3514
 2666TIP3   OH2 8003   3.277   2.430   1.416 -0.3385  0.0033  0.1410
 2666TIP3    H1 8004   3.354   2.395   1.370 -0.3335  1.7262 -1.2811
 2666TIP3    H2 8005   3.219   2.461   1.345 -2.1610 -0.8462  1.1946
 2667TIP3   OH2 8006   4.407   4.183   2.856  0.3533 -0.6233 -0.1165
 2667TIP3    H1 8007   4.435   4.185   2.765 -1.8225 -1.1727 -0.8570
 2667TIP3    H2 8008   4.316   4.154   2.853 -0.3506  1.0281  2.0946
 2668TIP3   OH2 8009   3.232   2.931   4.971  0.3202 -0.8116  0.2398
 2668TIP3    H1 8010   3.292   2.888   5.032  1.5711  0.5024 -0.0143
 2668TIP3    H2 8011   3.259   2.900   4.885  0.7419 -0.1135  0.1142
 2669TIP3   OH2 8012   0.536   5.649   0.842  0.1303 -0.6419 -0.2032
 2669TIP3    H1 8013   0.522   5.598   0.762  0.3701 -0.5939 -0.2760
 2669TIP3    H2 8014   0.607   5.603   0.887  0.5560 -0.1994 -0.4162
 2670TIP3   OH2 8015   1.307   0.151   0.115 -0.2516  0.4063  0.1931
 2670TIP3    H1 8016   1.353   0.140   0.198  0.1998 -0.7811 -0.1887
 2670TIP3    H2 8017   1.227   0.198   0.137  0.0214  0.3978  1.2429
 2671TIP3   OH2 8018   3.546   3.532   3.752  0.1027  0.3525  0.0666
 2671TIP3    H1 8019   3.605   3.502   3.682  1.7835  1.7277  0.8228
 2671TIP3    H2 8020   3.502   3.609   3.715  0.0369  0.3208  0.0790
 2672TIP3   OH2 8021   1.911   1.146   2.905  0.2425 -0.2038 -0.2813
 2672TIP3    H1 8022   1.984   1.105   2.951  0.0134 -0.2788  0.0173
 2672TIP3    H2 8023   1.947   1.172   2.821  0.8231  0.4843  0.1737
 2673TIP3   OH2 8024   6.350   3.215   5.031 -0.1432 -0.5838 -0.2656
 2673TIP3    H1 8025   6.366   3.300   4.989 -0.5569 -1.0945 -1.5032
 2673TIP3    H2 8026   6.267   3.226   5.077  1.2985  0.6195  2.2224
 2674TIP3   OH2 8027   0.332   3.075   5.078  0.0568  0.5130 -0.2505
 2674TIP3    H1 8028   0.346   3.052   4.987 -0.7876 -0.9366 -0.0516
 2674TIP3    H2 8029   0.261   3.140   5.076 -0.3540  0.0583 -0.6012
 2675TIP3   OH2 8030   3.668   5.778   3.095  0.1581 -0.7190  0.0281
 2675TIP3    H1 8031   3.745   5.765   3.152 -0.1134  2.1168  1.2370
 2675TIP3    H2 8032   3.593   5.762   3.152 -0.1174  0.4972  0.0348
 2676TIP3   OH2 8033   5.028   1.510   3.886 -0.0114  0.0339  0.2691
 2676TIP3    H1 8034   5.063   1.554   3.964  1.2485  1.2416 -0.9147
 2676TIP3    H2 8035   5.102   1.462   3.850 -0.1055  0.8220 -1.0582
 2677TIP3   OH2 8036   4.644   1.567   3.070 -0.0352  0.5973 -0.1678
 2677TIP3    H1 8037   4.682   1.636   3.016 -0.8482  0.5977 -0.7567
 2677TIP3    H2 8038   4.550   1.584   3.069 -0.1074  0.3819  0.9614
 2678TIP3   OH2 8039   5.807   2.554   2.676  0.2444 -0.1016  0.3245
 2678TIP3    H1 8040   5.725   2.570   2.630  0.9627  0.5114 -0.7904
 2678TIP3    H2 8041   5.844   2.477   2.634  0.7429  0.2629  0.0735
 2679TIP3   OH2 8042   2.850   3.330   2.130  0.5680 -0.0960  0.4542
 2679TIP3    H1 8043   2.915   3.297   2.069  2.0802 -0.0232  1.9532
 2679TIP3    H2 8044   2.865   3.424   2.134  0.4592 -0.0931  0.9062
 2680TIP3   OH2 8045   0.205   2.584   2.796  0.3740 -0.0773  0.7069
 2680TIP3    H1 8046   0.206   2.679   2.806 -1.1412  0.2472 -1.5238
 2680TIP3    H2 8047   0.296   2.560   2.780  0.7927  0.9498  1.4867
 2681TIP3   OH2 8048   3.575   3.979   1.581  0.2436 -0.8457 -0.8817
 2681TIP3    H1 8049   3.645   3.914   1.578  0.6688 -0.3557 -2.4708
 2681TIP3    H2 8050   3.518   3.958   1.507 -0.2723 -0.1395 -0.6982
 2682TIP3   OH2 8051   1.783   4.963   1.042 -0.5335 -0.6966  0.4761
 2682TIP3    H1 8052   1.870   5.000   1.039 -0.4008 -0.9525  0.9895
 2682TIP3    H2 8053   1.734   5.019   1.102 -0.8478 -0.3048 -0.1366
 2683TIP3   OH2 8054   1.891   1.539   2.771 -0.3094 -0.5044 -0.5067
 2683TIP3    H1 8055   1.810   1.490   2.785 -1.5078  1.7184  0.8708
 2683TIP3    H2 8056   1.871   1.601   2.702 -1.2444  2.7767  2.4282
 2684TIP3   OH2 8057   1.419   2.340   2.311 -0.1951 -0.0964 -0.0516
 2684TIP3    H1 8058   1.470   2.313   2.387  1.4509 -0.3622 -1.2023
 2684TIP3    H2 8059   1.328   2.338   2.341  0.3133 -1.3686  1.5445
 2685TIP3   OH2 8060   3.915   3.513   1.122 -0.5731  0.8987  0.1656
 2685TIP3    H1 8061   3.823   3.505   1.145 -0.6043  0.3977 -0.1227
 2685TIP3    H2 8062   3.962   3.499   1.204 -0.7178  0.1339  0.1208
 2686TIP3   OH2 8063   4.067   5.056   2.575 -0.7113 -0.1404 -0.5115
 2686TIP3    H1 8064   4.004   4.995   2.612 -0.0042 -0.5223  0.0745
 2686TIP3    H2 8065   4.013   5.119   2.525 -1.4308 -1.3265 -1.2715
 2687TIP3   OH2 8066   0.375   5.844   0.020  0.9190 -0.1871  0.0391
 2687TIP3    H1 8067   0.441   5.776   0.032  1.9874  0.9243  0.5481
 2687TIP3    H2 8068   0.402   5.916   0.077 -0.6654  0.3483  0.1810
 2688TIP3   OH2 8069   2.497   1.765   3.545  0.0656 -0.2007  0.0327
 2688TIP3    H1 8070   2.526   1.678   3.574 -1.0311 -0.1948  1.2672
 2688TIP3    H2 8071   2.480   1.755   3.452  1.9258 -0.7448 -0.2904
 2689TIP3   OH2 8072   0.124   1.520   4.114  0.0700 -0.2982  0.0205
 2689TIP3    H1 8073   0.145   1.438   4.160 -1.0371  0.5131  2.1035
 2689TIP3    H2 8074   0.150   1.589   4.174 -1.7518  0.8249 -0.3932
 2690TIP3   OH2 8075   5.400   2.938   4.713 -0.0329 -0.1326  0.2683
 2690TIP3    H1 8076   5.394   2.856   4.762  1.1008 -1.8039 -2.2063
 2690TIP3    H2 8077   5.442   2.999   4.774  0.9937 -1.9895  1.5095
 2691TIP3   OH2 8078   5.310   4.873   0.279  0.3062 -0.2402 -0.4682
 2691TIP3    H1 8079   5.281   4.910   0.362  1.5714  1.2471 -0.6549
 2691TIP3    H2 8080   5.375   4.807   0.302 -1.1393 -1.6203 -0.1907
 2692TIP3   OH2 8081   5.928   5.377   0.636 -0.0106  0.1803  0.1373
 2692TIP3    H1 8082   6.017   5.407   0.650 -0.0720 -0.4480  2.1791
 2692TIP3    H2 8083   5.934   5.282   0.630 -0.6331  0.0129  1.5997
 2693TIP3   OH2 8084   4.984   2.085   1.409  0.5073 -0.9403 -0.2080
 2693TIP3    H1 8085   4.978   1.994   1.380  1.5393 -0.7071 -1.2369
 2693TIP3    H2 8086   5.068   2.115   1.375 -0.0479  0.5553 -0.3176
 2694TIP3   OH2 8087   4.818   5.638   1.238 -0.5479  0.3201 -0.3710
 2694TIP3    H1 8088   4.847   5.727   1.220 -0.9294  0.3277 -0.9609
 2694TIP3    H2 8089   4.760   5.647   1.313 -0.1125  0.4828 -0.0479
 2695TIP3   OH2 8090   1.272   4.899   1.590  0.0692  0.0951 -0.0928
 2695TIP3    H1 8091   1.311   4.877   1.674 -0.2105 -0.2502 -0.0496
 2695TIP3    H2 8092   1.296   4.826   1.532  0.4480  0.4404 -0.3715
 2696TIP3   OH2 8093   3.432  -0.004   1.344  0.7457 -0.1374  0.4923
 2696TIP3    H1 8094   3.349   0.008   1.299  0.3725 -1.5548  0.7543
 2696TIP3    H2 8095   3.448   0.079   1.388 -1.3654 -0.3474  1.7683
 2697TIP3   OH2 8096   1.459   2.179   5.083  0.0110 -0.3789 -0.0363
 2697TIP3    H1 8097   1.494   2.133   5.159  1.2204 -0.5606 -0.6842
 2697TIP3    H2 8098   1.479   2.271   5.099  0.6718 -0.4668 -0.3392
 2698TIP3   OH2 8099   3.856   1.045  -0.012  0.3390 -0.2281  0.0959
 2698TIP3    H1 8100   3.812   1.124   0.019  1.0093 -0.3361  1.3933
 2698TIP3    H2 8101   3.798   0.973   0.014  1.1072 -0.3509  1.5671
 2699TIP3   OH2 8102   4.352   1.879   4.486  0.7242  0.0977  0.0005
 2699TIP3    H1 8103   4.326   1.884   4.394  0.7201 -1.5250 -0.1241
 2699TIP3    H2 8104   4.270   1.875   4.534  0.7144 -0.9069 -0.0813
 2700TIP3   OH2 8105   0.169   5.146   0.461 -0.2099 -0.0501  0.0298
 2700TIP3    H1 8106   0.162   5.236   0.428  2.2864 -0.1731 -1.0623
 2700TIP3    H2 8107   0.228   5.103   0.399  0.2555 -1.8867  1.6751
 2701TIP3   OH2 8108   5.142   3.703   3.318  0.1011 -0.1749 -0.3190
 2701TIP3    H1 8109   5.125   3.649   3.396  1.2323  0.5192  0.4219
 2701TIP3    H2 8110   5.237   3.705   3.310  0.0070 -0.2387 -1.7499
 2702TIP3   OH2 8111   2.264   1.300   4.946  0.1823  0.2774 -0.1593
 2702TIP3    H1 8112   2.288   1.351   4.869  0.6836 -4.1315 -3.2944
 2702TIP3    H2 8113   2.347   1.265   4.978 -0.3502 -0.5030  0.3988
 2703TIP3   OH2 8114   1.126   3.311   4.160  0.0305 -0.3755  0.5361
 2703TIP3    H1 8115   1.189   3.240   4.146  1.5595  1.1880 -1.0571
 2703TIP3    H2 8116   1.136   3.367   4.083  0.4350  2.6818  2.6622
 2704TIP3   OH2 8117   4.993   5.160   1.347  0.2278  0.2543  0.4157
 2704TIP3    H1 8118   4.991   5.081   1.400  0.0256  0.1119  0.1950
 2704TIP3    H2 8119   4.934   5.220   1.392  0.5125  0.3450  0.6784
 2705TIP3   OH2 8120   3.112   4.999   3.003  0.2957  0.5571  0.0398
 2705TIP3    H1 8121   3.193   5.048   2.986  0.3363  0.8321  1.0043
 2705TIP3    H2 8122   3.141   4.919   3.047 -0.0185  1.0167  1.0904
 2706TIP3   OH2 8123   1.013   0.787   4.291  0.2300  0.8949  0.2545
 2706TIP3    H1 8124   1.030   0.814   4.381  1.0053 -0.1798  0.4482
 2706TIP3    H2 8125   1.082   0.724   4.271 -0.9005 -0.1590 -0.5024
 2707TIP3   OH2 8126   0.374   1.846   0.889  0.5542 -0.3592 -0.6352
 2707TIP3    H1 8127   0.279   1.856   0.879  0.5196 -0.8036 -0.7620
 2707TIP3    H2 8128   0.404   1.816   0.804  0.7653 -0.5418 -0.4974
 2708TIP3   OH2 8129   5.534   2.827   0.776  0.3243  0.2313  0.1035
 2708TIP3    H1 8130   5.570   2.748   0.736  1.1167  0.8455 -0.4307
 2708TIP3    H2 8131   5.604   2.860   0.832 -0.5754 -0.3127  1.6141
 2709TIP3   OH2 8132   3.943   2.612   4.684  0.7267  0.2660 -0.7401
 2709TIP3    H1 8133   3.885   2.594   4.759 -1.6023  1.3816 -2.1556
 2709TIP3    H2 8134   3.994   2.688   4.711  1.7795 -0.8657  0.6247
 2710TIP3   OH2 8135   5.422   1.641   2.889  0.2376 -0.2282 -0.3147
 2710TIP3    H1 8136   5.451   1.647   2.980  1.2302  1.2880 -0.7065
 2710TIP3    H2 8137   5.421   1.731   2.857  0.4273 -0.7663 -1.9637
 2711TIP3   OH2 8138   1.653   2.036   2.227  0.3654  0.0407 -0.0178
 2711TIP3    H1 8139   1.694   1.971   2.169 -0.6103 -0.0428 -0.6308
 2711TIP3    H2 8140   1.581   1.989   2.269 -1.2597  1.0495 -1.5323
 2712TIP3   OH2 8141   3.327   2.952   0.539 -0.2737  0.0840 -0.4308
 2712TIP3    H1 8142   3.235   2.979   0.540 -0.1729  0.4620 -1.0040
 2712TIP3    H2 8143   3.359   2.978   0.453  0.7491  1.2044  0.2659
 2713TIP3   OH2 8144   1.872   3.008   3.952  0.5415 -0.3085 -0.4087
 2713TIP3    H1 8145   1.807   2.972   3.891 -1.3759 -1.2000  2.0002
 2713TIP3    H2 8146   1.935   2.937   3.964 -1.4492 -1.8592  1.8200
 2714TIP3   OH2 8147   0.698   0.177   1.623 -0.2333  0.1412  0.3085
 2714TIP3    H1 8148   0.725   0.267   1.636  1.0313  0.1053 -1.6547
 2714TIP3    H2 8149   0.768   0.125   1.663  0.7487  0.0730 -1.3782
 2715TIP3   OH2 8150   1.738   2.910   4.433 -0.6130  0.3972 -0.1261
 2715TIP3    H1 8151   1.693   2.989   4.463  0.2383  2.0040 -2.7606
 2715TIP3    H2 8152   1.711   2.899   4.342  1.7649 -0.4529 -0.8093
 2716TIP3   OH2 8153   2.729   4.239   4.858 -0.0888 -0.0228 -0.4868
 2716TIP3    H1 8154   2.636   4.261   4.859 -0.4722 -1.5567  0.8534
 2716TIP3    H2 8155   2.741   4.179   4.931  1.8515 -0.3213 -0.9876
 2717TIP3   OH2 8156   3.384   3.658   3.420 -0.2863 -0.0647  0.0824
 2717TIP3    H1 8157   3.470   3.630   3.387 -1.0289 -2.1172 -0.2263
 2717TIP3    H2 8158   3.344   3.704   3.346  0.3568  0.5489  0.0952
 2718TIP3   OH2 8159   5.993   2.935   3.913 -0.1677  0.7431  0.0395
 2718TIP3    H1 8160   6.074   2.973   3.948  0.6621 -0.0878 -0.9068
 2718TIP3    H2 8161   5.950   3.008   3.867  0.1417  1.1343  0.3604
 2719TIP3   OH2 8162   2.843   4.180   0.962  0.1828 -0.1669 -0.7038
 2719TIP3    H1 8163   2.777   4.133   1.014  0.0907  2.0133  1.3166
 2719TIP3    H2 8164   2.876   4.115   0.900 -0.9149 -2.4641  0.9922
 2720TIP3   OH2 8165   0.422   1.903   2.878 -0.3851 -0.2235 -0.0411
 2720TIP3    H1 8166   0.517   1.898   2.867 -0.3188 -0.2961  0.5518
 2720TIP3    H2 8167   0.410   1.939   2.966 -0.9014  0.5427 -0.4182
 2721TIP3   OH2 8168   3.697   0.980   2.977 -0.0832 -0.1219  0.2170
 2721TIP3    H1 8169   3.636   1.053   2.986 -0.9939 -0.8834  0.4175
 2721TIP3    H2 8170   3.776   1.007   3.023 -0.2006  0.9549 -0.1986
 2722TIP3   OH2 8171   0.038   5.503   1.322  0.3730 -0.3366 -0.4767
 2722TIP3    H1 8172   0.019   5.418   1.361  0.6820 -1.0731 -1.8501
 2722TIP3    H2 8173   0.130   5.519   1.345  0.5211 -0.7149 -0.7807
 2723TIP3   OH2 8174   0.942   4.685   1.897  0.1567  0.2603 -0.4092
 2723TIP3    H1 8175   0.911   4.775   1.892 -0.5290 -0.0026 -1.0860
 2723TIP3    H2 8176   1.014   4.687   1.961 -0.7944  1.0145  0.6763
 2724TIP3   OH2 8177   4.356   2.539   0.089  0.1661  0.1137 -0.1661
 2724TIP3    H1 8178   4.304   2.606   0.044  0.3906 -0.1346 -0.8167
 2724TIP3    H2 8179   4.391   2.584   0.166 -0.3840  0.4984 -0.1322
 2725TIP3   OH2 8180   0.013   1.418   4.882 -0.6506  0.3032 -0.3250
 2725TIP3    H1 8181  -0.015   1.327   4.886  0.3247  0.0102  0.7376
 2725TIP3    H2 8182   0.108   1.413   4.869 -0.2917  1.0795  1.5596
 2726TIP3   OH2 8183   4.233   1.697   0.587  0.2575  0.1008  0.3357
 2726TIP3    H1 8184   4.269   1.777   0.626  0.6098  0.1786 -0.1541
 2726TIP3    H2 8185   4.308   1.651   0.551 -0.1640  0.4649 -1.0647
 2727TIP3   OH2 8186   2.069   5.196   4.651 -0.5739  0.4881  0.5830
 2727TIP3    H1 8187   2.077   5.260   4.721  0.2966  0.6483  0.3547
 2727TIP3    H2 8188   2.150   5.146   4.655 -1.2433 -0.6187  0.7680
 2728TIP3   OH2 8189   1.806   0.169   1.714 -0.2421 -0.8326  0.0612
 2728TIP3    H1 8190   1.774   0.236   1.653 -0.9735 -0.5509  0.7378
 2728TIP3    H2 8191   1.896   0.152   1.686 -0.3345 -0.1811 -0.6471
 2729TIP3   OH2 8192   4.398   5.946   0.616  0.4025  0.8299 -0.0770
 2729TIP3    H1 8193   4.381   5.955   0.710 -1.7568  0.7109 -0.3983
 2729TIP3    H2 8194   4.334   5.880   0.587 -1.7160  3.6215 -2.2573
 2730TIP3   OH2 8195   3.809   0.415   0.440 -0.4571  0.3844  0.0968
 2730TIP3    H1 8196   3.768   0.455   0.363 -0.8853 -0.0811  0.0721
 2730TIP3    H2 8197   3.760   0.449   0.514  0.3331  1.2929  0.2226
 2731TIP3   OH2 8198   4.074   2.200   0.749  0.4417 -0.2365 -0.0516
 2731TIP3    H1 8199   4.072   2.292   0.721  0.7712  0.0095  0.6965
 2731TIP3    H2 8200   4.145   2.197   0.813 -1.6416 -0.2785  2.4131
 2732TIP3   OH2 8201   1.234   0.069   4.820  0.4459  0.0749 -0.0692
 2732TIP3    H1 8202   1.314   0.061   4.767  0.8019 -0.8205  0.5794
 2732TIP3    H2 8203   1.266   0.089   4.908 -0.0980  0.5510  0.0300
 2733TIP3   OH2 8204   1.732   5.103   2.733 -0.0368 -0.3024 -0.2479
 2733TIP3    H1 8205   1.773   5.018   2.745 -1.7055 -1.1402 -0.1556
 2733TIP3    H2 8206   1.673   5.112   2.808 -0.2045  0.7399 -0.4829
 2734TIP3   OH2 8207   2.467   1.679   1.161  0.0647 -0.2769  0.5560
 2734TIP3    H1 8208   2.485   1.657   1.253  1.1152 -1.0375  0.1968
 2734TIP3    H2 8209   2.548   1.656   1.115 -0.7032 -0.6137 -0.6772
 2735TIP3   OH2 8210   1.409   5.420   3.995 -0.6045  0.0589 -0.1888
 2735TIP3    H1 8211   1.405   5.371   3.913 -0.6759  0.5564 -0.4823
 2735TIP3    H2 8212   1.402   5.352   4.063  2.9685 -0.7726 -0.4787
 2736TIP3   OH2 8213   5.807   0.590   0.958  0.1493 -0.2725 -0.6369
 2736TIP3    H1 8214   5.726   0.564   0.914 -1.2828  1.4185  0.8663
 2736TIP3    H2 8215   5.785   0.594   1.051  2.1553 -0.3822 -0.0985
 2737TIP3   OH2 8216   3.621   2.011   3.210 -0.5650  0.2194  0.5656
 2737TIP3    H1 8217   3.706   2.026   3.168 -0.9195  1.2465  0.1840
 2737TIP3    H2 8218   3.633   2.045   3.299 -0.8901  1.3969  0.1787
 2738TIP3   OH2 8219   0.128   5.696   3.209 -0.1060  0.5612 -0.5810
 2738TIP3    H1 8220   0.215   5.681   3.171  1.3118 -0.5170  2.7078
 2738TIP3    H2 8221   0.109   5.616   3.258 -3.1174  0.6875 -1.3798
 2739TIP3   OH2 8222   0.997   2.384   1.292 -0.1323 -0.0453 -0.0642
 2739TIP3    H1 8223   1.034   2.393   1.205  0.6118 -1.4327  0.0885
 2739TIP3    H2 8224   0.926   2.321   1.283  0.5904 -0.9618  0.4980
 2740TIP3   OH2 8225   2.432   1.042   0.189  0.1715  0.3201  0.2603
 2740TIP3    H1 8226   2.390   0.961   0.220  1.7656  0.0734  1.9362
 2740TIP3    H2 8227   2.394   1.111   0.244 -0.6255  0.6496 -0.6605
 2741TIP3   OH2 8228   4.374   1.419   3.330 -0.2153  0.1562  0.4956
 2741TIP3    H1 8229   4.383   1.331   3.366  1.2626  0.2381  0.3597
 2741TIP3    H2 8230   4.347   1.472   3.405  1.8109  0.1274  1.3098
 2742TIP3   OH2 8231   5.597   3.602   0.370 -0.1841  0.3696 -0.8790
 2742TIP3    H1 8232   5.622   3.610   0.278  1.2820  2.6001 -0.3569
 2742TIP3    H2 8233   5.511   3.644   0.376 -1.0605 -1.2325 -1.4529
 2743TIP3   OH2 8234   1.228   5.707   0.546 -0.0794 -0.0111  0.0003
 2743TIP3    H1 8235   1.259   5.636   0.603  0.4567 -2.0418 -2.6268
 2743TIP3    H2 8236   1.301   5.723   0.486 -0.8849  1.5186 -0.6406
 2744TIP3   OH2 8237   4.807   2.827   3.186  0.1188  0.1150 -0.8140
 2744TIP3    H1 8238   4.732   2.881   3.211  1.2811  1.0439  0.9435
 2744TIP3    H2 8239   4.791   2.804   3.095 -2.6452 -0.3606 -0.3020
 2745TIP3   OH2 8240   3.796   5.410   4.328 -0.7221  0.2970  0.4693
 2745TIP3    H1 8241   3.821   5.491   4.372 -3.3089  1.0969  0.5995
 2745TIP3    H2 8242   3.819   5.424   4.236 -0.2712  0.7599  0.6470
 2746TIP3   OH2 8243   5.020   0.614   1.916  0.2824  0.1227  1.0289
 2746TIP3    H1 8244   4.980   0.691   1.956 -1.9543 -0.9458  0.9787
 2746TIP3    H2 8245   5.023   0.549   1.986 -1.5491 -1.0114  0.1173
 2747TIP3   OH2 8246   2.954   5.554   0.383  0.2718  0.1400  0.2076
 2747TIP3    H1 8247   2.932   5.610   0.458 -2.2390  0.8363 -0.9354
 2747TIP3    H2 8248   2.988   5.615   0.317  1.6942 -0.3550  0.4506
 2748TIP3   OH2 8249   5.262   1.643   3.266 -0.0368 -0.8905 -0.4237
 2748TIP3    H1 8250   5.175   1.666   3.234  0.2682  0.4559 -0.3340
 2748TIP3    H2 8251   5.284   1.714   3.326  0.9976 -1.3839 -0.2118
 2749TIP3   OH2 8252   5.882   2.562   3.715  0.2145  0.2224 -0.3134
 2749TIP3    H1 8253   5.963   2.511   3.709  0.1746 -0.2235  1.9806
 2749TIP3    H2 8254   5.814   2.499   3.691  0.1531 -0.9948  2.6213
 2750TIP3   OH2 8255   3.840   3.453   0.424  0.5821 -0.0118 -0.6533
 2750TIP3    H1 8256   3.849   3.548   0.419  0.7295 -0.0168 -0.4780
 2750TIP3    H2 8257   3.921   3.423   0.465 -0.0118 -0.0962  0.4782
 2751TIP3   OH2 8258   0.193   2.131   3.057  0.2793 -0.8124  0.0694
 2751TIP3    H1 8259   0.172   2.049   3.102 -0.7856 -0.5814  0.0209
 2751TIP3    H2 8260   0.287   2.127   3.044  0.1883 -2.2348 -0.3387
 2752TIP3   OH2 8261   4.803   2.715   2.558  0.0116 -0.1380  0.1177
 2752TIP3    H1 8262   4.852   2.745   2.482  1.4063 -1.0180  0.6359
 2752TIP3    H2 8263   4.812   2.620   2.556 -1.0694 -0.2694  0.6574
 2753TIP3   OH2 8264   3.889   1.502   4.956  0.2275 -0.0947 -0.6030
 2753TIP3    H1 8265   3.892   1.498   5.052  2.1503  3.1360 -0.3624
 2753TIP3    H2 8266   3.806   1.545   4.937  0.0725 -0.2772 -0.3474
 2754TIP3   OH2 8267   5.044   0.628   3.738 -0.6360  0.4549 -0.0616
 2754TIP3    H1 8268   5.125   0.619   3.688  0.4914  1.6689  1.4140
 2754TIP3    H2 8269   5.033   0.544   3.782 -0.1936  0.2750 -0.2887
 2755TIP3   OH2 8270   5.754   0.795   0.426 -0.2065  0.1847 -0.5011
 2755TIP3    H1 8271   5.761   0.869   0.366 -0.7643 -0.4453 -1.3592
 2755TIP3    H2 8272   5.816   0.730   0.392  0.3510  0.2793  0.2998
 2756TIP3   OH2 8273   3.239   0.481   4.011  0.1281  0.0782  0.3478
 2756TIP3    H1 8274   3.276   0.449   4.093 -0.1903 -0.4153  0.3058
 2756TIP3    H2 8275   3.281   0.565   3.996  1.2824 -0.5022  0.2553
 2757TIP3   OH2 8276   0.794   3.575   3.884 -0.6813 -0.2968  0.2468
 2757TIP3    H1 8277   0.834   3.600   3.967  0.0581 -0.3356 -0.0951
 2757TIP3    H2 8278   0.858   3.599   3.818 -0.3002 -2.3126 -0.1753
 2758TIP3   OH2 8279   5.947   2.402   2.234  0.2139 -0.0442 -0.0514
 2758TIP3    H1 8280   5.865   2.393   2.283  0.1601 -0.2071 -0.1706
 2758TIP3    H2 8281   6.016   2.380   2.296  0.0939 -1.2346 -0.3230
 2759TIP3   OH2 8282   1.122   5.491   3.495  0.4215  0.3780 -0.5497
 2759TIP3    H1 8283   1.147   5.572   3.540  0.5160  0.8469 -1.4346
 2759TIP3    H2 8284   1.171   5.493   3.413  0.4993 -0.6276 -0.5404
 2760TIP3   OH2 8285   3.526   3.138   2.104 -0.9254 -0.0719 -0.2086
 2760TIP3    H1 8286   3.565   3.199   2.040 -1.9859 -0.4299 -1.2398
 2760TIP3    H2 8287   3.451   3.185   2.139 -0.6661 -0.0922  0.3929
 2761TIP3   OH2 8288   0.149   5.244   1.109  0.6277  0.2404 -0.2803
 2761TIP3    H1 8289   0.087   5.269   1.177  0.9152  0.3966 -0.0729
 2761TIP3    H2 8290   0.192   5.166   1.143  0.5261  0.1167 -0.4359
 2762TIP3   OH2 8291   1.893   4.900   1.857 -0.8251 -0.1957  0.4057
 2762TIP3    H1 8292   1.987   4.883   1.861 -0.7509 -0.2906 -1.2878
 2762TIP3    H2 8293   1.873   4.903   1.764 -2.3969  0.4539  0.7387
 2763TIP3   OH2 8294   6.090   1.700   1.358 -0.7839 -0.0547 -0.3182
 2763TIP3    H1 8295   6.007   1.652   1.350 -1.1075  0.3487  0.4382
 2763TIP3    H2 8296   6.149   1.639   1.403 -0.9491 -0.0384 -0.0746
 2764TIP3   OH2 8297   2.879   5.285   4.044  0.1672  0.2972  0.2505
 2764TIP3    H1 8298   2.794   5.254   4.011  0.3913 -0.8769  0.7310
 2764TIP3    H2 8299   2.868   5.380   4.052 -0.3861  0.4551 -1.7724
 2765TIP3   OH2 8300   1.601   5.844   2.443  0.6342  0.0543  0.0634
 2765TIP3    H1 8301   1.654   5.876   2.516  0.3370  0.8356 -0.0500
 2765TIP3    H2 8302   1.512   5.876   2.462 -0.3112 -3.0184  1.3732
 2766TIP3   OH2 8303   0.320   3.549   1.519 -0.2073 -0.4292 -0.4064
 2766TIP3    H1 8304   0.275   3.466   1.504 -2.6135  0.5580  0.8985
 2766TIP3    H2 8305   0.285   3.581   1.602  2.8559  0.5225  0.6710
 2767TIP3   OH2 8306   5.265   3.819   5.213  0.4551  0.1425 -0.2622
 2767TIP3    H1 8307   5.169   3.815   5.206  0.1593  0.5257  2.4355
 2767TIP3    H2 8308   5.294   3.855   5.129 -1.6127 -1.3002 -1.6964
 2768TIP3   OH2 8309   2.371   4.755   0.016  0.1581 -0.0784  0.3016
 2768TIP3    H1 8310   2.416   4.804   0.085 -0.2643  0.8936 -0.0980
 2768TIP3    H2 8311   2.278   4.769   0.033  0.0226  1.9287 -1.6288
 2769TIP3   OH2 8312   0.030   3.995   2.772  0.0214  0.1761  0.5785
 2769TIP3    H1 8313   0.090   3.922   2.789  0.8224  0.8992  0.9033
 2769TIP3    H2 8314  -0.013   3.971   2.690  1.4385  0.0685 -0.1678
 2770TIP3   OH2 8315   3.602   5.539   3.264  0.1440 -0.5993 -0.3853
 2770TIP3    H1 8316   3.665   5.532   3.336 -0.4895  0.8729  0.3635
 2770TIP3    H2 8317   3.619   5.462   3.210  2.3038 -0.4608 -0.0096
 2771TIP3   OH2 8318   5.138   0.827   0.106  0.5780  0.1735 -0.0109
 2771TIP3    H1 8319   5.218   0.874   0.127  1.2596 -1.1653  0.5453
 2771TIP3    H2 8320   5.076   0.852   0.174  0.3670  1.5372 -0.6775
 2772TIP3   OH2 8321   4.781   0.796   1.198  0.7930  0.1421  0.1924
 2772TIP3    H1 8322   4.838   0.874   1.195  0.5638  0.2832 -0.7263
 2772TIP3    H2 8323   4.805   0.753   1.281  1.1744  0.9947  0.5463
 2773TIP3   OH2 8324   5.904   1.689   1.915 -0.4218 -0.5779 -0.4318
 2773TIP3    H1 8325   5.813   1.678   1.887 -1.4598  0.5712  2.1644
 2773TIP3    H2 8326   5.936   1.763   1.864 -1.7011  0.4316  0.1599
 2774TIP3   OH2 8327   4.558   4.721   3.604 -0.7545  0.2032  0.3337
 2774TIP3    H1 8328   4.599   4.717   3.518 -0.8288 -0.1301  0.3144
 2774TIP3    H2 8329   4.622   4.683   3.663 -0.8096  0.1925  0.3866
 2775TIP3   OH2 8330   0.665   5.250   1.169  0.0729 -0.4304  0.3062
 2775TIP3    H1 8331   0.755   5.228   1.190 -0.0969 -0.8391  0.6184
 2775TIP3    H2 8332   0.615   5.172   1.193 -0.1398 -0.9261 -1.6449
 2776TIP3   OH2 8333   1.011   5.945   3.752 -0.1204  0.3730 -0.3412
 2776TIP3    H1 8334   0.916   5.957   3.758 -0.0205  2.4236 -1.7102
 2776TIP3    H2 8335   1.030   5.956   3.659  1.5426  0.8200  0.0238
 2777TIP3   OH2 8336   0.219   3.544   2.054 -0.3403 -0.0682 -0.7008
 2777TIP3    H1 8337   0.278   3.468   2.055 -1.0399 -0.6314  0.3394
 2777TIP3    H2 8338   0.224   3.579   2.143 -1.8819 -0.4050 -0.4458
 2778TIP3   OH2 8339   0.110   0.205   4.179  0.1822  0.6440 -0.5450
 2778TIP3    H1 8340   0.165   0.171   4.108  0.3371  1.9755 -1.0965
 2778TIP3    H2 8341   0.118   0.300   4.172 -1.4914  0.8479 -0.0673
 2779TIP3   OH2 8342   3.204   0.419   2.818 -0.0309 -0.1047  0.1082
 2779TIP3    H1 8343   3.135   0.405   2.883  1.9623 -0.5711  2.2775
 2779TIP3    H2 8344   3.157   0.436   2.737 -2.6782 -0.5831  1.4107
 2780TIP3   OH2 8345   3.369   0.416   4.266  0.2772  0.2784 -0.0692
 2780TIP3    H1 8346   3.343   0.331   4.230  1.4214  0.0136 -0.3328
 2780TIP3    H2 8347   3.363   0.404   4.361  2.1439 -0.7307 -0.0202
 2781TIP3   OH2 8348   4.626   5.708   4.809 -0.3401  0.0667  0.1809
 2781TIP3    H1 8349   4.604   5.784   4.755  0.8747  0.1419 -0.2250
 2781TIP3    H2 8350   4.645   5.745   4.895  0.2183  0.2279 -0.0072
 2782TIP3   OH2 8351   0.517   1.546   2.499 -0.2982 -0.5028  0.3077
 2782TIP3    H1 8352   0.605   1.560   2.464 -0.0720  3.0730  1.9232
 2782TIP3    H2 8353   0.531   1.497   2.580 -0.0388 -1.5653 -0.3557
 2783TIP3   OH2 8354   5.678   2.495   3.955  0.0700 -0.4104  0.6151
 2783TIP3    H1 8355   5.587   2.522   3.955  0.1503 -0.1324  0.9005
 2783TIP3    H2 8356   5.702   2.491   3.862 -0.2388 -0.5163  0.5394
 2784TIP3   OH2 8357   1.481   3.819   4.348 -0.2306  0.0056 -0.3849
 2784TIP3    H1 8358   1.453   3.729   4.333 -1.4158  0.3255 -0.1571
 2784TIP3    H2 8359   1.526   3.816   4.433 -4.0546  0.3483  1.8594
 2785TIP3   OH2 8360   2.937   4.282   4.696 -0.1450  0.2380 -0.1855
 2785TIP3    H1 8361   2.906   4.369   4.670  0.3509 -0.0502 -1.8056
 2785TIP3    H2 8362   2.872   4.252   4.760 -1.1319  1.1828 -0.7123
 2786TIP3   OH2 8363   4.925   3.460   4.715  0.4322  0.1056 -0.1528
 2786TIP3    H1 8364   4.891   3.394   4.775 -2.3021  0.3765 -1.2826
 2786TIP3    H2 8365   4.947   3.411   4.635 -0.9340  0.4321 -0.7455
 2787TIP3   OH2 8366   0.577   2.490   3.048  0.4845  0.5643 -0.0599
 2787TIP3    H1 8367   0.654   2.451   3.088  0.5272 -0.0407 -0.7190
 2787TIP3    H2 8368   0.504   2.462   3.102  0.7233  1.2277  0.6312
 2788TIP3   OH2 8369   4.680   0.628   4.392 -0.3758 -0.2454  0.0367
 2788TIP3    H1 8370   4.667   0.723   4.397  0.6631 -0.0988  0.2601
 2788TIP3    H2 8371   4.760   0.618   4.339  0.1401 -0.9314  0.9141
 2789TIP3   OH2 8372   2.224   2.809   3.484  0.5437 -0.2164  0.0440
 2789TIP3    H1 8373   2.171   2.881   3.450 -0.1633  0.5254  2.4904
 2789TIP3    H2 8374   2.191   2.732   3.437  0.7050  0.8852 -1.9809
 2790TIP3   OH2 8375   1.461   1.836   2.320 -0.4807  0.1469  0.2969
 2790TIP3    H1 8376   1.394   1.892   2.359 -0.1891  0.7058  0.0064
 2790TIP3    H2 8377   1.480   1.771   2.388 -2.4805 -1.0487 -0.2040
 2791TIP3   OH2 8378   5.863   0.534   3.783  0.0984  1.0665 -0.6130
 2791TIP3    H1 8379   5.924   0.471   3.822 -0.0183  0.6148 -1.1402
 2791TIP3    H2 8380   5.844   0.596   3.853  1.9604  1.8258 -0.7056
 2792TIP3   OH2 8381   3.003   3.093   2.445 -0.4486 -0.2925  0.2537
 2792TIP3    H1 8382   3.021   3.035   2.519  1.0309  0.9577  0.9333
 2792TIP3    H2 8383   3.036   3.046   2.368 -1.8589 -1.5336  0.3565
 2793TIP3   OH2 8384   1.941   3.229   4.488 -0.0708  0.1321  0.2007
 2793TIP3    H1 8385   2.021   3.258   4.532  0.5169 -1.7412  0.4810
 2793TIP3    H2 8386   1.951   3.258   4.398  0.5023  0.7013  0.4389
 2794TIP3   OH2 8387   1.735   2.962   3.355  0.0427 -0.0042  0.1031
 2794TIP3    H1 8388   1.673   2.890   3.357  2.1133 -1.9701 -1.3984
 2794TIP3    H2 8389   1.805   2.935   3.415  0.9752  0.6133 -0.6722
 2795TIP3   OH2 8390   0.592   3.796   2.049  0.2057  0.1956  0.3598
 2795TIP3    H1 8391   0.628   3.747   2.122  3.4018  1.1420 -0.4037
 2795TIP3    H2 8392   0.574   3.730   1.982  1.0449 -0.3133  0.6182
 2796TIP3   OH2 8393   5.134   2.903   2.485  0.4415  0.1263  0.5406
 2796TIP3    H1 8394   5.169   2.822   2.521 -1.5818 -1.2225 -0.3014
 2796TIP3    H2 8395   5.106   2.880   2.396  0.3596  1.9206  0.0509
 2797TIP3   OH2 8396   3.780   4.345   2.399 -0.3990 -0.0359 -0.4502
 2797TIP3    H1 8397   3.870   4.316   2.391  0.2626  2.0142 -1.0617
 2797TIP3    H2 8398   3.783   4.418   2.461 -1.7752 -0.4766  0.1794
 2798TIP3   OH2 8399   0.073   1.254   4.574  0.2754  0.5149  0.5974
 2798TIP3    H1 8400   0.053   1.178   4.519 -1.5414  1.2868  0.1036
 2798TIP3    H2 8401   0.045   1.228   4.662 -0.9109  0.7813  0.3196
 2799TIP3   OH2 8402   3.123   4.500   1.162  0.7410  0.4053  0.1465
 2799TIP3    H1 8403   3.100   4.421   1.211 -3.5987  1.3064 -0.0173
 2799TIP3    H2 8404   3.124   4.570   1.227  0.0868  0.8326 -0.2879
 2800TIP3   OH2 8405   4.185   2.303   2.472 -0.4535 -0.1198  0.1696
 2800TIP3    H1 8406   4.269   2.348   2.483 -0.3273 -0.3629  0.2026
 2800TIP3    H2 8407   4.151   2.336   2.389  0.7002 -1.6468 -0.9796
 2801TIP3   OH2 8408   0.316   2.898   3.847  0.2208 -0.2609 -0.2675
 2801TIP3    H1 8409   0.236   2.847   3.859  0.5285 -0.5084  0.8869
 2801TIP3    H2 8410   0.386   2.839   3.874  0.5962  0.7210  0.9928
 2802TIP3   OH2 8411   1.639   1.953   0.933 -0.1431  0.8049  0.0927
 2802TIP3    H1 8412   1.693   1.875   0.918  0.4205  0.9670  1.1623
 2802TIP3    H2 8413   1.590   1.933   1.013 -2.0035  0.5022 -1.0655
 2803TIP3   OH2 8414   3.427   1.048   3.081 -0.0895  0.0183  0.2619
 2803TIP3    H1 8415   3.424   1.034   2.986 -0.6526  1.1126  0.0939
 2803TIP3    H2 8416   3.419   0.961   3.119  2.7201 -0.7436 -0.6730
 2804TIP3   OH2 8417   3.376   2.944   1.022  0.0855  0.1961 -0.4551
 2804TIP3    H1 8418   3.311   2.873   1.019 -1.1267  1.3081 -2.4191
 2804TIP3    H2 8419   3.436   2.925   0.951  0.2416  0.6794 -0.4558
 2805TIP3   OH2 8420   5.843   4.478   2.410 -0.3575 -0.0090  0.8439
 2805TIP3    H1 8421   5.754   4.446   2.396 -0.2502  0.2142 -0.5339
 2805TIP3    H2 8422   5.899   4.412   2.369  0.0246  0.4891  0.5408
 2806TIP3   OH2 8423   2.120   5.284   1.467 -0.4769 -0.1774 -0.4044
 2806TIP3    H1 8424   2.173   5.271   1.388 -2.0990 -0.7868 -1.4472
 2806TIP3    H2 8425   2.034   5.249   1.444 -0.9642 -0.4988  1.6966
 2807TIP3   OH2 8426   1.739   2.943   1.769 -0.3130 -0.4123  0.0475
 2807TIP3    H1 8427   1.675   2.909   1.706 -0.7721  2.3765 -1.1602
 2807TIP3    H2 8428   1.697   3.021   1.805  2.7589  2.3054 -1.7208
 2808TIP3   OH2 8429   1.299   1.342   4.067  0.2781 -0.2966  0.0435
 2808TIP3    H1 8430   1.260   1.362   4.152  0.2032 -1.3259  0.2660
 2808TIP3    H2 8431   1.262   1.408   4.008 -0.2734 -0.0505  0.6473
 2809TIP3   OH2 8432   0.522   5.647   4.143 -0.3712  0.4339 -0.5285
 2809TIP3    H1 8433   0.436   5.646   4.184 -0.6352  2.7138 -0.8628
 2809TIP3    H2 8434   0.504   5.656   4.049  0.1640  2.1478 -0.5081
 2810TIP3   OH2 8435   1.998   3.760   0.145  0.3338 -0.7556  0.5066
 2810TIP3    H1 8436   1.957   3.825   0.088  1.5840 -0.3913 -0.0025
 2810TIP3    H2 8437   1.938   3.686   0.143 -1.5038  0.6093  1.6799
 2811TIP3   OH2 8438   0.411   5.086   0.601 -0.1694  0.3684  0.3993
 2811TIP3    H1 8439   0.371   5.126   0.524  1.5339  2.7343  0.6358
 2811TIP3    H2 8440   0.348   5.103   0.672 -1.2234 -0.8319 -0.2108
 2812TIP3   OH2 8441   4.756   4.522   1.558 -0.5156  0.6929  0.1590
 2812TIP3    H1 8442   4.717   4.492   1.640 -0.7451  1.5570  0.3834
 2812TIP3    H2 8443   4.838   4.565   1.585 -0.3805  0.6046 -0.1082
 2813TIP3   OH2 8444   4.906   4.722   4.441  0.5177  0.5017  0.1348
 2813TIP3    H1 8445   4.972   4.658   4.414  0.0050 -0.1061  0.2957
 2813TIP3    H2 8446   4.878   4.693   4.528  0.2403  0.9145  0.1861
 2814TIP3   OH2 8447   2.873   0.858   0.706  0.1131 -0.2647  0.1613
 2814TIP3    H1 8448   2.812   0.785   0.703  0.4861 -0.5327 -2.1285
 2814TIP3    H2 8449   2.877   0.881   0.799 -2.2128 -1.2563  0.5842
 2815TIP3   OH2 8450   0.640   1.267   2.397 -0.2108  1.1247 -0.1100
 2815TIP3    H1 8451   0.692   1.246   2.474  0.9639 -1.8808 -1.5660
 2815TIP3    H2 8452   0.552   1.236   2.418 -0.3423  1.9410  0.6184
 2816TIP3   OH2 8453   5.085   5.082   3.650 -0.2075 -0.0219  0.0354
 2816TIP3    H1 8454   5.053   4.992   3.645 -0.7212  0.2343 -2.7766
 2816TIP3    H2 8455   5.115   5.102   3.562  0.0673  2.5191  0.6245
 2817TIP3   OH2 8456   1.467   3.082   1.131 -0.3137  0.7287  0.3379
 2817TIP3    H1 8457   1.409   3.034   1.072 -0.0961  1.4831 -0.5210
 2817TIP3    H2 8458   1.468   3.171   1.096  1.6442  0.6592  0.1221
 2818TIP3   OH2 8459   4.861   3.664   0.941  0.1522  0.1298 -0.2886
 2818TIP3    H1 8460   4.899   3.667   1.028  0.1515 -0.5649 -0.2537
 2818TIP3    H2 8461   4.772   3.697   0.951  0.6332  1.4587 -0.3089
 2819TIP3   OH2 8462   0.305   1.269   0.195  0.0486 -0.7954  0.5054
 2819TIP3    H1 8463   0.393   1.263   0.233 -0.1767 -0.2447  1.1383
 2819TIP3    H2 8464   0.316   1.326   0.119  1.0182 -3.8946 -1.9357
 2820TIP3   OH2 8465   6.200   4.334   5.182 -0.5015 -0.1855  0.1367
 2820TIP3    H1 8466   6.158   4.398   5.123  0.8527  0.6609  0.0456
 2820TIP3    H2 8467   6.218   4.259   5.126  0.5324  0.5105 -0.5024
 2821TIP3   OH2 8468   1.927   2.265   2.067 -0.1177 -0.1154 -0.3622
 2821TIP3    H1 8469   1.905   2.234   2.155 -1.2659 -1.3562 -1.0623
 2821TIP3    H2 8470   1.897   2.356   2.066  2.3834  0.8540  1.3739
 2822TIP3   OH2 8471   1.372   2.154   1.297  0.6681 -0.3971  0.7899
 2822TIP3    H1 8472   1.449   2.141   1.353  2.1482  0.2254 -0.9674
 2822TIP3    H2 8473   1.360   2.249   1.295  1.2882 -0.3161 -0.6802
 2823TIP3   OH2 8474   5.211   0.327   2.592  0.2978  0.2651  0.6627
 2823TIP3    H1 8475   5.281   0.393   2.598  0.4680  0.1623 -0.0966
 2823TIP3    H2 8476   5.139   0.374   2.550 -0.0416  0.3223  1.2921
 2824TIP3   OH2 8477   5.832   1.580   1.368 -0.2867 -0.0388 -0.1407
 2824TIP3    H1 8478   5.822   1.485   1.363 -0.2039 -0.0003 -1.2730
 2824TIP3    H2 8479   5.742   1.613   1.374 -0.4250 -0.1055 -1.6483
 2825TIP3   OH2 8480   1.108   4.359   0.342 -0.0923  0.3760 -0.1252
 2825TIP3    H1 8481   1.115   4.273   0.384  1.1161 -0.4205 -1.8158
 2825TIP3    H2 8482   1.014   4.371   0.328 -0.1889 -1.6227 -1.6270
 2826TIP3   OH2 8483   3.311   1.619   1.614  0.1288  0.0140  0.2271
 2826TIP3    H1 8484   3.257   1.543   1.635  0.2926 -0.3474 -0.6237
 2826TIP3    H2 8485   3.396   1.599   1.654 -0.2465  0.4266  1.2649
 2827TIP3   OH2 8486   1.824   5.186   3.715  0.3541  0.0508 -0.1699
 2827TIP3    H1 8487   1.828   5.239   3.795  1.4102 -1.2187  0.6690
 2827TIP3    H2 8488   1.792   5.246   3.648  0.2022  1.3678  1.0294
 2828TIP3   OH2 8489   3.597   1.249   2.946  0.0146 -0.1881 -0.1364
 2828TIP3    H1 8490   3.675   1.298   2.971 -0.8605  0.7797  0.8097
 2828TIP3    H2 8491   3.524   1.300   2.980 -1.1885  0.0405 -2.7700
 2829TIP3   OH2 8492   1.183   5.190   0.422 -0.0631 -0.1862  0.0886
 2829TIP3    H1 8493   1.133   5.231   0.492  0.6386 -1.1784  1.2370
 2829TIP3    H2 8494   1.263   5.159   0.465  1.8769  1.8764 -1.7752
 2830TIP3   OH2 8495   2.264   3.350   3.094 -0.4184  0.5125 -0.6032
 2830TIP3    H1 8496   2.310   3.288   3.037  0.4092 -0.2545  0.8637
 2830TIP3    H2 8497   2.259   3.307   3.179 -3.2441  0.8787 -0.5053
 2831TIP3   OH2 8498   3.119   2.350   1.617 -0.6505 -0.0181 -0.7222
 2831TIP3    H1 8499   3.154   2.406   1.686 -0.2109  1.0045 -1.7378
 2831TIP3    H2 8500   3.190   2.344   1.553 -1.6758  0.6472 -1.9884
 2832TIP3   OH2 8501   3.731   3.662   5.056  0.1846  0.0218 -0.8420
 2832TIP3    H1 8502   3.664   3.668   4.988  0.1650 -1.4472 -0.9799
 2832TIP3    H2 8503   3.813   3.653   5.008  0.0874 -1.9122 -0.7312
 2833TIP3   OH2 8504   5.193   4.802   1.636  0.4451  0.3055  0.6369
 2833TIP3    H1 8505   5.158   4.862   1.701  1.8279  1.6929  0.1551
 2833TIP3    H2 8506   5.169   4.839   1.551 -1.3363 -1.4809  0.2857
 2834TIP3   OH2 8507   2.793   3.918   4.278 -0.9129  1.1481 -0.0744
 2834TIP3    H1 8508   2.873   3.964   4.304 -0.2496 -0.1591  0.2542
 2834TIP3    H2 8509   2.727   3.948   4.340 -0.8731  2.7516 -0.7576
 2835TIP3   OH2 8510   2.053   3.875   5.025  0.2166  0.2866 -0.4802
 2835TIP3    H1 8511   2.142   3.842   5.012  0.3972  1.4427 -2.5670
 2835TIP3    H2 8512   2.057   3.923   5.108  1.6475  0.6869 -0.7628
 2836TIP3   OH2 8513   3.527   5.791   0.210  0.4213  0.3641  0.0886
 2836TIP3    H1 8514   3.514   5.885   0.200  2.0313  0.6131 -0.0395
 2836TIP3    H2 8515   3.466   5.751   0.149 -0.8696  1.2723  0.7363
 2837TIP3   OH2 8516   0.463   4.143   2.834 -0.1580 -0.1402 -0.0314
 2837TIP3    H1 8517   0.538   4.120   2.889  0.5294 -0.5908 -1.1276
 2837TIP3    H2 8518   0.461   4.074   2.767  1.1380  2.1495 -2.6228
 2838TIP3   OH2 8519   6.011   0.803   1.258 -0.3076  0.1555  0.2714
 2838TIP3    H1 8520   6.078   0.862   1.290 -0.4947  0.8700 -0.6083
 2838TIP3    H2 8521   5.930   0.854   1.263 -0.2830  0.4701 -1.6993
 2839TIP3   OH2 8522   2.326   4.585   5.047 -0.0977  0.0222 -0.1369
 2839TIP3    H1 8523   2.291   4.532   4.976  0.6343 -1.1170  0.3110
 2839TIP3    H2 8524   2.283   4.669   5.038 -2.1950 -0.9925 -0.1750
 2840TIP3   OH2 8525   1.120   0.797   3.968 -0.3723 -0.4949  0.3664
 2840TIP3    H1 8526   1.202   0.764   4.006 -0.0383 -2.1556 -1.6285
 2840TIP3    H2 8527   1.146   0.870   3.913 -0.7052  1.0799  2.1744
 2841TIP3   OH2 8528   4.082   3.351   0.507  0.1570  0.0072  0.3580
 2841TIP3    H1 8529   4.093   3.290   0.581 -0.0745 -0.4835 -0.0086
 2841TIP3    H2 8530   4.078   3.294   0.430 -0.6656  0.4506  0.0658
 2842TIP3   OH2 8531   1.650   1.175   1.498 -0.2071  0.1940 -0.0071
 2842TIP3    H1 8532   1.634   1.088   1.463 -0.2781 -0.4109  1.4462
 2842TIP3    H2 8533   1.734   1.202   1.459  0.2171 -0.8704  0.1368
 2843TIP3   OH2 8534   5.304   4.459   0.119 -0.2317  0.2901  0.1134
 2843TIP3    H1 8535   5.284   4.492   0.031 -1.5674  0.2099  0.3766
 2843TIP3    H2 8536   5.258   4.518   0.178  1.2974  0.8263  0.8282
 2844TIP3   OH2 8537   0.986   1.509   3.044 -0.4235 -0.2460  0.0859
 2844TIP3    H1 8538   0.944   1.573   3.101  1.3042  0.6180  0.4577
 2844TIP3    H2 8539   0.946   1.522   2.958 -0.5209  0.9098  0.3019
 2845TIP3   OH2 8540   0.713   2.089   4.005 -0.3788 -0.0800  0.9638
 2845TIP3    H1 8541   0.620   2.114   4.009 -0.4103 -0.2895  1.6277
 2845TIP3    H2 8542   0.713   1.995   4.022 -0.3349 -0.7941 -2.3339
 2846TIP3   OH2 8543   6.141   3.920   0.206 -0.1307  0.0795  0.3567
 2846TIP3    H1 8544   6.111   3.968   0.129  0.2685 -1.2195 -0.6396
 2846TIP3    H2 8545   6.229   3.889   0.183  0.1280 -0.0718  1.4638
 2847TIP3   OH2 8546   0.087   1.808   4.212  0.1417  0.0607 -0.2525
 2847TIP3    H1 8547   0.093   1.785   4.119  0.6900  0.2968 -0.2816
 2847TIP3    H2 8548   0.082   1.904   4.213 -2.6179 -0.0096 -0.1581
 2848TIP3   OH2 8549   4.211   2.007   1.793  0.6752  0.4111 -0.1472
 2848TIP3    H1 8550   4.200   1.954   1.872 -1.2630  1.1061  0.1015
 2848TIP3    H2 8551   4.208   2.097   1.824  0.0904  0.6872 -0.9720
 2849TIP3   OH2 8552   3.807   0.403   4.836  0.4282 -0.2863  0.1336
 2849TIP3    H1 8553   3.723   0.448   4.847  1.0679  1.1081 -0.5417
 2849TIP3    H2 8554   3.873   0.467   4.861  1.4423 -0.2729 -2.3356
 2850TIP3   OH2 8555   4.003   2.718   0.346  0.0924 -0.0770 -0.3126
 2850TIP3    H1 8556   3.917   2.725   0.305 -0.2908  0.0057  0.4786
 2850TIP3    H2 8557   4.065   2.728   0.274 -0.5147  2.1239 -0.6173
 2851TIP3   OH2 8558   3.737   2.400   2.491  0.6005  0.2855  0.1414
 2851TIP3    H1 8559   3.764   2.381   2.581 -0.3938 -2.7178 -0.1077
 2851TIP3    H2 8560   3.754   2.319   2.443 -0.7955  1.1451 -1.9221
 2852TIP3   OH2 8561   2.807   3.787   4.637  0.4761  0.3067 -0.5043
 2852TIP3    H1 8562   2.744   3.850   4.602  0.1482 -0.6358 -1.6520
 2852TIP3    H2 8563   2.754   3.724   4.685  0.5612 -0.3246 -1.2254
 2853TIP3   OH2 8564   0.266   5.804   4.988  0.7169 -0.2137  0.3358
 2853TIP3    H1 8565   0.257   5.783   5.081 -1.3917 -1.8899 -0.1567
 2853TIP3    H2 8566   0.217   5.885   4.977  1.7480  0.4941  0.8129
 2854TIP3   OH2 8567   3.985   4.821   5.143 -0.3038  0.0154 -0.0485
 2854TIP3    H1 8568   4.065   4.772   5.164 -0.1759  0.1630 -0.1781
 2854TIP3    H2 8569   4.009   4.873   5.066 -0.1237  1.0127  0.6625
 2855TIP3   OH2 8570   4.795   2.239   4.125  0.2650  0.1654  0.0498
 2855TIP3    H1 8571   4.732   2.244   4.198 -1.0043  1.3133 -1.0650
 2855TIP3    H2 8572   4.831   2.151   4.131 -0.7788 -0.2156  1.2981
 2856TIP3   OH2 8573   1.727   5.439   1.612 -0.3424 -0.3009  0.1056
 2856TIP3    H1 8574   1.788   5.367   1.629 -0.2271 -0.7909 -2.1480
 2856TIP3    H2 8575   1.686   5.456   1.697  0.8088 -1.9191  1.0346
 2857TIP3   OH2 8576   6.200   4.132   1.025  0.1255 -0.1709 -0.0546
 2857TIP3    H1 8577   6.193   4.078   1.104 -1.4197  0.3676  0.2043
 2857TIP3    H2 8578   6.166   4.217   1.050 -2.0880 -0.4749 -1.7182
 2858TIP3   OH2 8579   3.615   0.935   1.767  0.1482 -0.3498  0.1161
 2858TIP3    H1 8580   3.644   0.856   1.721  0.2775  0.2764 -0.9104
 2858TIP3    H2 8581   3.559   0.903   1.838 -0.0949 -1.3470 -0.5109
 2859TIP3   OH2 8582   4.122   0.789   2.732  0.0239  0.1186  0.3670
 2859TIP3    H1 8583   4.087   0.854   2.670 -0.3106 -0.5515 -0.1614
 2859TIP3    H2 8584   4.171   0.841   2.795 -0.5634  0.9305  0.1819
 2860TIP3   OH2 8585   3.547   0.012   3.881  0.1791  0.1342 -0.2861
 2860TIP3    H1 8586   3.549   0.106   3.900 -0.4815 -0.2731  2.0119
 2860TIP3    H2 8587   3.636  -0.009   3.853  0.4021  1.3877 -0.5621
 2861TIP3   OH2 8588   0.102   1.591   0.112 -0.1613  0.0156 -0.4368
 2861TIP3    H1 8589   0.133   1.590   0.021 -0.6771 -0.0444 -0.6131
 2861TIP3    H2 8590   0.062   1.677   0.122 -1.6277 -0.6059 -0.7868
 2862TIP3   OH2 8591   3.632   2.981   1.313  0.2766 -0.2115 -0.1050
 2862TIP3    H1 8592   3.686   3.060   1.319 -0.1278  0.0534  0.0835
 2862TIP3    H2 8593   3.637   2.942   1.400 -0.0777 -0.0265 -0.0020
 2863TIP3   OH2 8594   5.374   5.416   4.115  0.3305 -0.0045 -0.9152
 2863TIP3    H1 8595   5.460   5.424   4.156  0.7055 -0.7121 -1.5513
 2863TIP3    H2 8596   5.318   5.474   4.166  0.3795 -2.0507  1.6345
 2864TIP3   OH2 8597   1.982   3.210   4.899  0.1443  0.1151  0.5500
 2864TIP3    H1 8598   2.058   3.211   4.841  0.5421  2.4700  1.0218
 2864TIP3    H2 8599   1.999   3.138   4.960  1.8537  0.3734  0.4286
 2865TIP3   OH2 8600   6.329   0.173   0.877  0.4425  0.1076  0.2836
 2865TIP3    H1 8601   6.251   0.151   0.825 -0.0456  0.9506  0.6293
 2865TIP3    H2 8602   6.381   0.093   0.878 -0.3005 -0.3920 -0.1766
 2866TIP3   OH2 8603   0.840   2.748   4.268  0.1072 -0.2831 -0.1336
 2866TIP3    H1 8604   0.857   2.677   4.206 -0.6178 -1.8211  1.3484
 2866TIP3    H2 8605   0.911   2.741   4.332 -0.8432 -0.7453  0.9046
 2867TIP3   OH2 8606   5.123   1.149   1.593  0.2212 -0.0113 -0.0192
 2867TIP3    H1 8607   5.140   1.082   1.527  0.9080  1.1167 -1.0284
 2867TIP3    H2 8608   5.165   1.116   1.672  0.8769 -0.5922 -0.6016
 2868TIP3   OH2 8609   2.020   3.500   1.166 -0.1143 -0.3040 -0.3328
 2868TIP3    H1 8610   2.016   3.594   1.181 -0.9362 -0.4027  0.1678
 2868TIP3    H2 8611   2.097   3.487   1.112  0.4211  0.5781  0.1999
 2869TIP3   OH2 8612   0.506   4.741   0.018 -0.2865  0.0175  0.2946
 2869TIP3    H1 8613   0.586   4.739  -0.034 -1.0673  0.0300 -0.9346
 2869TIP3    H2 8614   0.495   4.650   0.047 -1.1935 -0.5490 -1.7062
 2870TIP3   OH2 8615   4.376   3.399   4.188 -0.1785 -0.1821  0.1837
 2870TIP3    H1 8616   4.340   3.317   4.221 -1.1055 -1.2785 -3.2340
 2870TIP3    H2 8617   4.299   3.452   4.167  0.3533  0.2463 -0.7093
 2871TIP3   OH2 8618   2.607   1.195   1.500 -0.6786  0.2201  0.1728
 2871TIP3    H1 8619   2.527   1.170   1.454 -1.4625 -1.3689  2.2263
 2871TIP3    H2 8620   2.629   1.119   1.553  2.1820  0.6620 -0.2146
 2872TIP3   OH2 8621   4.832   5.751   2.279 -0.4367  0.1916  0.7940
 2872TIP3    H1 8622   4.774   5.718   2.348 -0.9104 -0.7846 -0.0484
 2872TIP3    H2 8623   4.914   5.704   2.292 -2.0704 -4.1161 -2.4000
 2873TIP3   OH2 8624   2.940   2.783   3.159 -0.7258 -0.2287  0.1958
 2873TIP3    H1 8625   2.951   2.773   3.254 -2.2872 -0.4470  0.3723
 2873TIP3    H2 8626   2.937   2.877   3.145 -1.1373 -0.1986  0.4560
 2874TIP3   OH2 8627   3.773   1.535   1.562 -0.4275 -0.0653  0.2162
 2874TIP3    H1 8628   3.692   1.566   1.521  0.6124  2.8752  0.1587
 2874TIP3    H2 8629   3.792   1.452   1.518 -2.8137 -0.3109 -0.5103
 2875TIP3   OH2 8630   0.098   1.536   0.674  0.2819  0.7616 -0.1229
 2875TIP3    H1 8631   0.169   1.471   0.670 -0.4616 -0.0566 -3.8030
 2875TIP3    H2 8632   0.021   1.485   0.701  0.5917  1.2049  1.7281
 2876TIP3   OH2 8633   2.499   1.932   4.411 -0.5561  0.2589 -0.0638
 2876TIP3    H1 8634   2.553   1.973   4.479 -0.3161  1.7566 -1.1122
 2876TIP3    H2 8635   2.420   1.904   4.457 -0.5038  1.4506  0.7957
 2877TIP3   OH2 8636   4.533   3.190   2.357  0.1923  0.1273 -0.3497
 2877TIP3    H1 8637   4.452   3.227   2.322 -0.4153 -0.8239 -0.0031
 2877TIP3    H2 8638   4.568   3.137   2.286  1.6852  2.2147 -1.2621
 2878TIP3   OH2 8639   5.598   2.013   5.163  0.5183  0.3553  0.3446
 2878TIP3    H1 8640   5.594   1.929   5.117 -1.4506  0.9958 -0.7896
 2878TIP3    H2 8641   5.632   2.074   5.098 -2.5653  1.3346 -0.5156
 2879TIP3   OH2 8642   4.220   2.891   3.924  0.0865  0.6839  0.1032
 2879TIP3    H1 8643   4.248   2.816   3.977 -1.0162 -1.3950 -2.0172
 2879TIP3    H2 8644   4.285   2.959   3.941  2.2544 -1.4130  0.7189
 2880TIP3   OH2 8645   3.142   4.174   0.758  0.3413 -0.1566 -0.2379
 2880TIP3    H1 8646   3.175   4.104   0.814  0.0811 -0.5914 -0.6245
 2880TIP3    H2 8647   3.134   4.249   0.817  0.5430 -0.4704  0.1978
 2881TIP3   OH2 8648   1.759   3.697   3.579  0.0951 -0.2602 -0.3564
 2881TIP3    H1 8649   1.680   3.695   3.634  0.3569  3.4897  0.4344
 2881TIP3    H2 8650   1.726   3.712   3.491 -0.1342 -0.5776 -0.3285
 2882TIP3   OH2 8651   0.640   0.659   3.563 -0.2778 -0.2982 -0.1335
 2882TIP3    H1 8652   0.548   0.631   3.556 -0.5262  0.8112 -1.5944
 2882TIP3    H2 8653   0.672   0.661   3.473  1.4710 -1.4933  0.4076
 2883TIP3   OH2 8654   2.583   2.442   1.632 -0.1813 -0.5174  0.1286
 2883TIP3    H1 8655   2.668   2.485   1.622 -0.1451 -0.6821 -0.2725
 2883TIP3    H2 8656   2.600   2.369   1.691  0.2127 -1.2637 -0.8797
 2884TIP3   OH2 8657   1.030   3.179   0.340  0.0683  0.1289  0.0220
 2884TIP3    H1 8658   1.026   3.207   0.248  1.3582  1.4564  0.3388
 2884TIP3    H2 8659   1.004   3.087   0.338  0.6344 -0.0294 -1.7577
 2885TIP3   OH2 8660   0.554   4.309   1.349  0.8804  0.3205 -0.4376
 2885TIP3    H1 8661   0.544   4.221   1.386 -0.3192  0.9551  0.8248
 2885TIP3    H2 8662   0.632   4.344   1.392  0.5434  0.3916  0.1171
 2886TIP3   OH2 8663   2.327   3.106   0.238 -0.5621 -1.1050 -0.2634
 2886TIP3    H1 8664   2.354   3.103   0.146  1.7907 -1.2264  0.3494
 2886TIP3    H2 8665   2.291   3.019   0.256  0.0924 -1.4901 -0.7700
 2887TIP3   OH2 8666   1.276   3.945   3.908  0.3306 -0.5842 -0.2096
 2887TIP3    H1 8667   1.261   3.941   4.003  2.0525 -1.8655  0.0636
 2887TIP3    H2 8668   1.346   4.009   3.898 -0.9244  0.7414 -0.8135
 2888TIP3   OH2 8669   3.058   4.494   4.106 -0.4516  0.1602  0.2746
 2888TIP3    H1 8670   3.109   4.552   4.049  0.7907 -0.5048  0.6911
 2888TIP3    H2 8671   3.078   4.524   4.195  0.7460 -1.3197  0.5308
 2889TIP3   OH2 8672   3.562   3.870   1.060 -0.0286 -0.2028 -0.2216
 2889TIP3    H1 8673   3.643   3.820   1.063  0.5509  0.5589 -1.9271
 2889TIP3    H2 8674   3.580   3.950   1.109 -0.2431 -0.6411  0.6055
 2890TIP3   OH2 8675   6.154   5.868   5.045 -0.1358 -0.0273  0.5961
 2890TIP3    H1 8676   6.195   5.908   5.121 -2.1180 -0.4294  1.9524
 2890TIP3    H2 8677   6.157   5.774   5.062  1.6963 -0.3578 -1.1002
 2891TIP3   OH2 8678   2.586   3.407   1.411  0.1721 -0.4664 -0.1124
 2891TIP3    H1 8679   2.535   3.479   1.373  0.2160 -0.4657 -0.1705
 2891TIP3    H2 8680   2.527   3.366   1.474 -0.1508 -0.9087 -0.6865
 2892TIP3   OH2 8681   2.919   2.238   4.927  0.1633  0.0679 -0.3021
 2892TIP3    H1 8682   2.926   2.215   5.020 -2.8409 -0.2869 -0.0754
 2892TIP3    H2 8683   2.978   2.176   4.883 -0.3931 -1.5861  1.1645
 2893TIP3   OH2 8684   6.029   2.253   2.007  0.0119  0.3195 -0.0983
 2893TIP3    H1 8685   6.123   2.267   2.019 -0.3363  1.6237  1.5362
 2893TIP3    H2 8686   5.990   2.277   2.091 -1.9103  1.1734 -1.1604
 2894TIP3   OH2 8687   3.058   0.035   1.682  0.4685 -0.4999 -0.1130
 2894TIP3    H1 8688   3.119   0.084   1.627 -1.1234  0.3244 -1.2334
 2894TIP3    H2 8689   3.049  -0.050   1.640 -0.8024  0.1544 -1.2655
 2895TIP3   OH2 8690   2.767   3.451   3.140 -0.6289 -0.0113 -0.2727
 2895TIP3    H1 8691   2.809   3.424   3.058  0.0204  1.9221 -0.6124
 2895TIP3    H2 8692   2.765   3.371   3.193  1.6152 -0.6506 -1.0477
 2896TIP3   OH2 8693   0.575   2.525   1.575 -0.5675 -0.4806  0.2477
 2896TIP3    H1 8694   0.504   2.479   1.531 -0.3830 -1.5381  1.0043
 2896TIP3    H2 8695   0.655   2.479   1.546 -0.2366  0.3310 -0.1526
 2897TIP3   OH2 8696   0.008   3.052   2.938 -1.2485  0.4585 -0.1395
 2897TIP3    H1 8697   0.072   3.015   3.000 -2.0071  0.7300  0.8290
 2897TIP3    H2 8698  -0.069   3.071   2.992 -1.6637  1.3984 -1.0396
 2898TIP3   OH2 8699   0.709   2.902   5.215 -0.2149 -0.4262 -0.1730
 2898TIP3    H1 8700   0.662   2.984   5.224 -1.1592 -1.0439  0.7842
 2898TIP3    H2 8701   0.728   2.895   5.121 -0.4610  0.6843 -0.3203
 2899TIP3   OH2 8702   4.537   1.127   1.512  0.1093  0.6421  0.2922
 2899TIP3    H1 8703   4.486   1.199   1.550 -0.4861  0.6589 -0.5245
 2899TIP3    H2 8704   4.510   1.050   1.562 -0.5129  0.6999  0.0506
 2900TIP3   OH2 8705   0.158   1.309   2.654  0.4009  0.4582  0.4587
 2900TIP3    H1 8706   0.241   1.308   2.607 -0.6961  0.2581 -1.6009
 2900TIP3    H2 8707   0.144   1.217   2.679  0.5900  0.4169  0.4156
 2901TIP3   OH2 8708   0.835   3.837   3.535  0.4027  0.7531 -0.2570
 2901TIP3    H1 8709   0.788   3.907   3.582 -1.5929  1.7495 -3.3749
 2901TIP3    H2 8710   0.769   3.769   3.522  1.0127  0.3243 -1.1800
 2902TIP3   OH2 8711   3.575   3.866   0.525  0.1706 -0.4746 -0.1656
 2902TIP3    H1 8712   3.495   3.918   0.511  0.7970  0.1576 -1.5672
 2902TIP3    H2 8713   3.594   3.878   0.618 -2.2643 -2.0038  0.6388
 2903TIP3   OH2 8714   1.338   5.255   2.587  0.8438  0.9040  0.1077
 2903TIP3    H1 8715   1.383   5.231   2.668  0.7554  2.0293  0.5002
 2903TIP3    H2 8716   1.276   5.183   2.573  0.0233  1.2380  1.7016
 2904TIP3   OH2 8717   3.416   3.477   2.532 -0.3694  0.2535  0.7459
 2904TIP3    H1 8718   3.335   3.426   2.531 -0.5823  0.6062 -0.0572
 2904TIP3    H2 8719   3.485   3.414   2.511 -0.5117  0.0874  0.7811
 2905TIP3   OH2 8720   6.014   2.847   0.878 -0.1974  0.2564 -0.1586
 2905TIP3    H1 8721   5.999   2.912   0.809 -3.5788  0.4758  0.5656
 2905TIP3    H2 8722   5.988   2.764   0.838  1.3587 -0.2299 -0.2064
 2906TIP3   OH2 8723   1.787   3.224   4.093  0.5868 -0.0917  0.4885
 2906TIP3    H1 8724   1.882   3.235   4.095  0.7163 -1.1212  0.9716
 2906TIP3    H2 8725   1.774   3.141   4.046  0.0147 -0.6379  1.5546
 2907TIP3   OH2 8726   5.815   0.119   4.303  0.6970  0.1220  0.2671
 2907TIP3    H1 8727   5.811   0.138   4.397  2.6903  2.6443 -0.0162
 2907TIP3    H2 8728   5.893   0.064   4.293  0.3417 -0.3530  0.1273
 2908TIP3   OH2 8729   5.765   0.738   1.493 -0.0128 -0.2026 -0.2038
 2908TIP3    H1 8730   5.762   0.790   1.412 -0.0095  0.5495  0.2633
 2908TIP3    H2 8731   5.849   0.761   1.533  1.2459 -2.6210 -1.2850
 2909TIP3   OH2 8732   5.079   2.918   4.914 -0.3510  0.3165 -0.1938
 2909TIP3    H1 8733   5.040   2.945   4.997  0.8262 -0.8469  0.7855
 2909TIP3    H2 8734   5.110   3.000   4.874 -2.5540  1.1095 -0.4072
 2910TIP3   OH2 8735   5.246   1.952   1.622  0.0688 -0.3216 -0.2998
 2910TIP3    H1 8736   5.186   1.885   1.587  0.2847 -1.1537  0.8458
 2910TIP3    H2 8737   5.193   2.001   1.684  0.2004 -0.1017 -0.3595
 2911TIP3   OH2 8738   3.948   2.571   3.983  0.1262 -0.1871  0.1673
 2911TIP3    H1 8739   4.032   2.528   4.000  1.4484  2.3333  0.3822
 2911TIP3    H2 8740   3.906   2.577   4.069  0.2186 -0.4362  0.2324
 2912TIP3   OH2 8741   4.371   0.423   1.878  0.3078 -0.3030 -0.0537
 2912TIP3    H1 8742   4.303   0.491   1.874 -0.5726 -1.0522  1.2629
 2912TIP3    H2 8743   4.343   0.359   1.813 -0.0248 -0.4124  0.1943
 2913TIP3   OH2 8744   1.167   4.137   2.527  0.6529 -0.4007 -0.0679
 2913TIP3    H1 8745   1.217   4.213   2.557  1.3696 -1.1568  0.7266
 2913TIP3    H2 8746   1.216   4.104   2.452 -0.6467  0.9532 -1.5929
 2914TIP3   OH2 8747   3.074   1.850   2.539  0.5217  0.0340  0.0895
 2914TIP3    H1 8748   3.162   1.863   2.503  0.6415 -1.3661 -0.1924
 2914TIP3    H2 8749   3.021   1.824   2.463  0.0899 -0.0627  0.4171
 2915TIP3   OH2 8750   2.997   3.510   1.187 -0.3626 -0.2733  0.0959
 2915TIP3    H1 8751   2.911   3.470   1.201 -1.1662  0.2178 -2.7946
 2915TIP3    H2 8752   3.029   3.471   1.106  0.7073  1.8741 -0.5984
 2916TIP3   OH2 8753   6.077   3.921   0.783 -0.0618  0.0043 -0.0374
 2916TIP3    H1 8754   6.079   4.014   0.762  0.1706 -0.2300 -1.0984
 2916TIP3    H2 8755   6.075   3.877   0.698  0.0289 -0.9626  0.4494
 2917TIP3   OH2 8756   3.716   3.376   2.116 -0.1445  0.7355 -0.0024
 2917TIP3    H1 8757   3.807   3.394   2.095  0.2783 -0.3503  0.8060
 2917TIP3    H2 8758   3.718   3.295   2.167 -1.7602 -0.5476 -1.8124
 2918TIP3   OH2 8759   5.351   1.768   5.121  0.1477 -0.2086  0.2796
 2918TIP3    H1 8760   5.283   1.721   5.168  0.8631 -0.8236  0.7116
 2918TIP3    H2 8761   5.433   1.731   5.152  0.6816  0.2903 -0.4777
 2919TIP3   OH2 8762   1.592   2.327   3.269 -0.5108 -0.2018 -0.3223
 2919TIP3    H1 8763   1.620   2.245   3.228 -0.1411  0.0538 -0.5890
 2919TIP3    H2 8764   1.672   2.363   3.308  0.0772  1.5882 -2.8835
 2920TIP3   OH2 8765   2.651   4.181   4.566 -0.3161  0.0715 -0.5281
 2920TIP3    H1 8766   2.670   4.212   4.654 -1.3571 -1.9094  0.4766
 2920TIP3    H2 8767   2.736   4.162   4.528  0.1561  1.1400 -0.0430
 2921TIP3   OH2 8768   2.582   1.598   3.000  0.3811  0.3160 -0.2565
 2921TIP3    H1 8769   2.637   1.644   2.936  2.7139 -0.4132  1.0887
 2921TIP3    H2 8770   2.595   1.648   3.081  0.4748 -0.9052  0.4960
 2922TIP3   OH2 8771   4.738   0.043   3.881 -0.2736  0.1768 -0.0497
 2922TIP3    H1 8772   4.653   0.006   3.855 -1.5753  2.9844 -0.1482
 2922TIP3    H2 8773   4.719   0.095   3.959  1.5387  0.3451  0.3284
 2923TIP3   OH2 8774   2.655   0.476   3.862 -0.3328  0.2488 -0.2560
 2923TIP3    H1 8775   2.727   0.416   3.846  0.1495  0.7512 -0.0019
 2923TIP3    H2 8776   2.578   0.420   3.873  0.0318 -0.2914 -0.4478
 2924TIP3   OH2 8777   5.373   2.516   3.938  0.3146  0.4218  0.4045
 2924TIP3    H1 8778   5.368   2.599   3.985 -1.2468 -0.2415  1.5115
 2924TIP3    H2 8779   5.363   2.450   4.007  1.7722 -0.7013 -0.4234
 2925TIP3   OH2 8780   0.234   0.542   4.462  0.1518  0.1042 -0.1111
 2925TIP3    H1 8781   0.303   0.598   4.499 -0.2770  1.6040 -1.4522
 2925TIP3    H2 8782   0.280   0.467   4.426  0.9614  0.5321  0.0112
 2926TIP3   OH2 8783   0.524   0.929   3.629 -0.1876  0.1374 -0.8321
 2926TIP3    H1 8784   0.515   0.976   3.546  1.6226 -2.6601 -2.8317
 2926TIP3    H2 8785   0.559   0.843   3.603  0.3696 -0.9103  2.8620
 2927TIP3   OH2 8786   4.847   4.253   0.238 -0.7853 -0.3164 -0.7631
 2927TIP3    H1 8787   4.824   4.176   0.289  1.3376 -0.0037  0.8021
 2927TIP3    H2 8788   4.933   4.233   0.201  0.0688  1.4602  0.1254
 2928TIP3   OH2 8789   6.213   2.696   3.275  0.7397 -0.8252 -0.0895
 2928TIP3    H1 8790   6.193   2.673   3.184  0.4669 -1.1839  0.0585
 2928TIP3    H2 8791   6.184   2.620   3.326  1.1913 -0.7600  0.2685
 2929TIP3   OH2 8792   0.249   2.431   0.217  0.1341 -0.0069  0.2370
 2929TIP3    H1 8793   0.289   2.387   0.142  0.4124  1.2311 -0.3672
 2929TIP3    H2 8794   0.155   2.420   0.204  0.2122 -1.3878  0.7086
 2930TIP3   OH2 8795   5.319   0.592   1.982 -0.4170  0.5285  0.1287
 2930TIP3    H1 8796   5.234   0.596   1.939  0.1121  0.4820 -0.9571
 2930TIP3    H2 8797   5.378   0.558   1.915 -0.0218 -1.9399  1.6239
 2931TIP3   OH2 8798   0.069   1.048   4.387 -0.2357 -0.1871 -0.1658
 2931TIP3    H1 8799   0.076   0.953   4.375  3.3075  0.0052 -0.6927
 2931TIP3    H2 8800  -0.006   1.073   4.334 -1.1733 -2.6441 -0.1538
 2932TIP3   OH2 8801   2.514   2.511   0.323  0.3948 -0.3312  0.6428
 2932TIP3    H1 8802   2.451   2.582   0.328  0.9239  0.1540  0.4784
 2932TIP3    H2 8803   2.473   2.439   0.371  0.5262  0.5719  2.1571
 2933TIP3   OH2 8804   1.179   4.560   4.987 -0.1140 -0.5109  0.1682
 2933TIP3    H1 8805   1.215   4.492   4.929  0.6241 -1.0451  1.2280
 2933TIP3    H2 8806   1.252   4.585   5.044 -0.3593  1.2471 -0.2373
 2934TIP3   OH2 8807   4.643   5.333   2.853 -0.1432 -0.4688  0.0262
 2934TIP3    H1 8808   4.733   5.345   2.823 -0.4286 -0.1862 -0.7495
 2934TIP3    H2 8809   4.589   5.361   2.779 -0.8649 -2.8730 -0.4544
 2935TIP3   OH2 8810   3.986   4.055   2.695  0.0004 -0.5213 -0.0170
 2935TIP3    H1 8811   3.953   4.035   2.782 -1.3796  1.3556 -0.0544
 2935TIP3    H2 8812   3.915   4.030   2.636 -0.3934  1.1584 -0.3091
 2936TIP3   OH2 8813   4.482   3.515   1.925 -0.3167  0.0210 -0.5359
 2936TIP3    H1 8814   4.509   3.432   1.963  0.3167  0.1991 -0.5819
 2936TIP3    H2 8815   4.451   3.493   1.838 -0.7626 -0.2498 -0.3099
 2937TIP3   OH2 8816   4.410   2.995   3.427  0.4330 -0.1556 -0.0905
 2937TIP3    H1 8817   4.430   3.017   3.518  0.3834 -0.1848 -0.0726
 2937TIP3    H2 8818   4.390   2.901   3.429  0.7315 -0.2203 -0.1816
 2938TIP3   OH2 8819   3.232   1.912   4.173 -0.1118 -0.1446  0.1905
 2938TIP3    H1 8820   3.237   2.006   4.191 -2.0743  0.5337 -2.1995
 2938TIP3    H2 8821   3.202   1.873   4.255  1.4134  1.1542  1.4345
 2939TIP3   OH2 8822   0.438   0.716   4.525 -0.2542 -0.1465 -0.4193
 2939TIP3    H1 8823   0.419   0.783   4.459  1.5681  1.1575  0.2859
 2939TIP3    H2 8824   0.508   0.663   4.485  0.8853  0.6753  0.4287
 2940TIP3   OH2 8825   1.805   1.476   0.764 -0.7209 -0.5907  0.5890
 2940TIP3    H1 8826   1.854   1.395   0.778 -0.5139 -0.8624 -1.3598
 2940TIP3    H2 8827   1.817   1.526   0.844  0.8912 -1.6076  1.0230
 2941TIP3   OH2 8828   6.046   5.970   3.901  0.8282 -0.9423 -0.1775
 2941TIP3    H1 8829   6.080   5.996   3.815  1.0548 -0.3331  0.0858
 2941TIP3    H2 8830   5.953   5.954   3.887  0.8712 -0.8745 -0.5434
 2942TIP3   OH2 8831   4.475   0.764   0.787 -0.0512 -0.1166  0.2834
 2942TIP3    H1 8832   4.433   0.824   0.725  0.4410 -0.7853 -0.7216
 2942TIP3    H2 8833   4.566   0.792   0.789 -0.4031  1.0902  2.1697
 2943TIP3   OH2 8834   2.019   4.676   0.965 -0.5429  0.1039  0.7971
 2943TIP3    H1 8835   2.112   4.658   0.948 -0.9949 -1.8624  0.0665
 2943TIP3    H2 8836   1.979   4.681   0.879 -1.3855 -0.8900  1.1028
 2944TIP3   OH2 8837   4.161   2.398   4.048 -0.0420 -1.3662  0.1946
 2944TIP3    H1 8838   4.219   2.324   4.063  0.5526 -1.0910 -0.6225
 2944TIP3    H2 8839   4.161   2.446   4.131  5.2855  1.6151 -1.0379
 2945TIP3   OH2 8840   5.608   5.243   4.751 -0.2423  0.1838 -0.6941
 2945TIP3    H1 8841   5.648   5.170   4.704  1.9195  0.9743 -0.2064
 2945TIP3    H2 8842   5.603   5.214   4.842 -1.3094 -0.1043 -0.8368
 2946TIP3   OH2 8843   0.776   3.518   3.237 -0.5239 -0.1468  0.2545
 2946TIP3    H1 8844   0.692   3.541   3.277 -0.3925 -0.5028  0.7431
 2946TIP3    H2 8845   0.840   3.525   3.308 -0.2349 -0.4620  0.0335
 2947TIP3   OH2 8846   5.136   1.022   2.301 -0.4577 -0.0536 -0.1160
 2947TIP3    H1 8847   5.131   1.074   2.380  1.9429 -0.9607  0.7438
 2947TIP3    H2 8848   5.140   0.931   2.332  0.1492 -0.4438 -1.2621
 2948TIP3   OH2 8849   4.240   3.511   3.147 -0.3774  0.4863 -0.4243
 2948TIP3    H1 8850   4.273   3.489   3.059 -1.3096  0.9539 -0.9105
 2948TIP3    H2 8851   4.182   3.438   3.170  0.1933  0.1592 -0.0102
 2949TIP3   OH2 8852   0.116   5.025   5.026  0.4510 -0.0719  0.3196
 2949TIP3    H1 8853   0.126   5.111   5.066  1.8782  0.0064 -0.1589
 2949TIP3    H2 8854   0.095   4.966   5.098  0.9748  0.4173  0.8750
 2950TIP3   OH2 8855   3.456   0.278   3.985 -0.7124  0.3772  0.3256
 2950TIP3    H1 8856   3.536   0.317   4.020  0.1238 -0.4555 -0.5838
 2950TIP3    H2 8857   3.453   0.307   3.894  0.7114 -2.6641 -0.8346
 2951TIP3   OH2 8858   0.198   2.748   4.942  0.1810  0.0756  0.6870
 2951TIP3    H1 8859   0.270   2.691   4.914 -0.7933 -0.9450  0.1339
 2951TIP3    H2 8860   0.178   2.800   4.864  0.9202  1.0350  1.1248
 2952TIP3   OH2 8861   5.326   0.039   1.240  0.2732 -0.1585 -0.1614
 2952TIP3    H1 8862   5.268   0.115   1.240 -1.1893 -1.2098 -1.5145
 2952TIP3    H2 8863   5.388   0.056   1.169  0.1983 -0.0482 -0.2006
 2953TIP3   OH2 8864   2.590   0.129   1.598 -0.0073  0.2686 -0.3751
 2953TIP3    H1 8865   2.550   0.215   1.609  0.7768  0.8209 -1.6059
 2953TIP3    H2 8866   2.666   0.130   1.657 -1.6852 -0.7714  1.9421
 2954TIP3   OH2 8867   2.804   2.346   3.319  0.7611  0.0284 -0.2713
 2954TIP3    H1 8868   2.824   2.411   3.251  0.2404 -1.1513 -1.6059
 2954TIP3    H2 8869   2.727   2.381   3.363  0.9050  0.6565 -0.5076
 2955TIP3   OH2 8870   1.888   1.650   1.515 -0.1134  0.0829  0.2440
 2955TIP3    H1 8871   1.921   1.691   1.595 -0.6676  0.0391  0.4994
 2955TIP3    H2 8872   1.885   1.557   1.535 -0.8484  0.1332  0.3953
 2956TIP3   OH2 8873   3.891   1.915   5.082  0.2978  0.7493 -0.3082
 2956TIP3    H1 8874   3.818   1.964   5.121  0.5678  1.1747 -0.3330
 2956TIP3    H2 8875   3.966   1.973   5.091  1.2824 -0.7786  2.2457
 2957TIP3   OH2 8876   0.945   4.718   0.532  0.6457 -0.0064 -0.0721
 2957TIP3    H1 8877   0.978   4.702   0.444  0.7701 -1.4914  0.2340
 2957TIP3    H2 8878   0.994   4.659   0.588  0.3039  0.6531  0.9540
 2958TIP3   OH2 8879   2.542   1.090   0.783 -0.0730  0.1677  0.3614
 2958TIP3    H1 8880   2.563   1.000   0.807  1.0969 -0.3359 -2.1639
 2958TIP3    H2 8881   2.614   1.142   0.820  0.0827 -0.1461  0.5076
 2959TIP3   OH2 8882   2.115   4.801   3.095 -0.4587  0.2268  0.2463
 2959TIP3    H1 8883   2.043   4.859   3.119 -0.1790  0.2761  0.9695
 2959TIP3    H2 8884   2.131   4.749   3.173 -0.3662 -0.4749 -0.2360
 2960TIP3   OH2 8885   2.943   2.155   0.183  0.2447  0.5868 -0.4529
 2960TIP3    H1 8886   2.847   2.162   0.184  0.2614  1.0276 -0.9965
 2960TIP3    H2 8887   2.968   2.144   0.274 -0.3720 -0.2180 -0.3676
 2961TIP3   OH2 8888   1.019   4.442   3.809 -0.0502  0.2431 -0.0269
 2961TIP3    H1 8889   0.956   4.458   3.739 -0.8787  1.1658  0.9053
 2961TIP3    H2 8890   0.996   4.504   3.878 -0.4689 -1.8721  1.8738
 2962TIP3   OH2 8891   6.236   2.932   0.716  0.1574  0.2840 -0.6992
 2962TIP3    H1 8892   6.250   2.880   0.795 -0.1130  0.1033 -0.7673
 2962TIP3    H2 8893   6.208   3.018   0.749 -1.9871 -0.3873 -0.5937
 2963TIP3   OH2 8894   3.977   0.862   3.470  0.5986  0.1148  0.1224
 2963TIP3    H1 8895   3.893   0.902   3.447  0.9702  0.9419  0.1822
 2963TIP3    H2 8896   3.985   0.788   3.410  0.4697  0.8464 -0.8229
 2964TIP3   OH2 8897   1.148   1.890   1.903 -0.0495 -0.0727  0.1855
 2964TIP3    H1 8898   1.106   1.829   1.964  1.0409 -1.8093 -0.7083
 2964TIP3    H2 8899   1.160   1.839   1.823  0.9383  1.3358 -0.6053
 2965TIP3   OH2 8900   5.697   0.290   1.688  0.6858  0.1142  0.3926
 2965TIP3    H1 8901   5.705   0.227   1.759  1.7451  0.1798  0.3530
 2965TIP3    H2 8902   5.744   0.367   1.719 -1.4854  1.3198  0.8810
 2966TIP3   OH2 8903   4.847   5.180   2.550  0.4079 -0.0255 -0.0200
 2966TIP3    H1 8904   4.859   5.088   2.576 -0.1471  0.7178  3.3243
 2966TIP3    H2 8905   4.903   5.229   2.610 -0.9181  1.9131 -0.2920
 2967TIP3   OH2 8906   6.107   0.721   4.751 -0.3860 -0.5315 -0.4115
 2967TIP3    H1 8907   6.084   0.661   4.680  0.6616 -0.6888 -0.6393
 2967TIP3    H2 8908   6.144   0.797   4.707  0.4022 -0.6900 -0.0399
 2968TIP3   OH2 8909   3.752   0.639   4.024  0.1154  1.1750  0.3576
 2968TIP3    H1 8910   3.810   0.580   3.975 -0.0490  0.3470  1.1590
 2968TIP3    H2 8911   3.812   0.689   4.080  0.2709  1.9049 -0.4356
 2969TIP3   OH2 8912   4.502   2.870   1.047  0.0188 -0.2881 -0.4516
 2969TIP3    H1 8913   4.499   2.907   0.959 -1.6760 -1.3819 -0.8985
 2969TIP3    H2 8914   4.577   2.913   1.088 -0.9990  2.5900 -1.3603
 2970TIP3   OH2 8915   3.792   0.979   1.346  0.0465 -0.1840 -0.1822
 2970TIP3    H1 8916   3.856   1.029   1.396  0.7060 -0.1328 -1.0686
 2970TIP3    H2 8917   3.714   1.034   1.344  0.3258  0.2187 -0.0189
 2971TIP3   OH2 8918   4.894   4.053   4.955 -0.3763 -0.1827 -0.0729
 2971TIP3    H1 8919   4.867   4.045   4.864 -0.6706  1.2275 -0.1331
 2971TIP3    H2 8920   4.814   4.035   5.005 -1.1033  2.3408 -0.2103
 2972TIP3   OH2 8921   2.375   4.266   3.429  0.6909 -0.1690 -0.6092
 2972TIP3    H1 8922   2.380   4.358   3.403 -0.5103  0.1634  0.2537
 2972TIP3    H2 8923   2.450   4.225   3.386  2.3034  1.5440  0.4187
 2973TIP3   OH2 8924   3.366   2.947   2.318 -0.2012  0.3273 -0.5877
 2973TIP3    H1 8925   3.378   3.037   2.289  0.2320  0.1364 -1.0109
 2973TIP3    H2 8926   3.275   2.926   2.295 -0.4033  0.7540 -0.1982
 2974TIP3   OH2 8927   5.980   4.401   4.194  0.8446  0.3233 -0.0773
 2974TIP3    H1 8928   6.017   4.374   4.278 -0.9565  0.2318  0.7266
 2974TIP3    H2 8929   5.965   4.319   4.147 -1.9867 -0.0039  1.2276
 2975TIP3   OH2 8930   2.243   5.636   0.131 -0.3305 -0.0559  0.5075
 2975TIP3    H1 8931   2.251   5.717   0.080  0.6872  0.1034  0.9008
 2975TIP3    H2 8932   2.317   5.582   0.103 -0.8967 -0.7867  0.3835
 2976TIP3   OH2 8933   2.488   2.189   1.068 -0.3612  0.0282  0.3835
 2976TIP3    H1 8934   2.407   2.240   1.070  0.1476  0.8592  0.7797
 2976TIP3    H2 8935   2.547   2.236   1.128  0.4666 -0.4595 -0.0267
 2977TIP3   OH2 8936   0.659   1.020   3.868  0.0159  0.1579 -0.4006
 2977TIP3    H1 8937   0.718   0.949   3.894  0.7532  0.6430 -0.6986
 2977TIP3    H2 8938   0.609   0.985   3.795  0.0048 -0.2325 -0.2056
 2978TIP3   OH2 8939   2.821   4.455   2.087 -0.6254  0.1865  0.0155
 2978TIP3    H1 8940   2.912   4.482   2.076 -0.7373  0.0485 -1.3306
 2978TIP3    H2 8941   2.819   4.412   2.173  0.2319  1.5819  0.7699
 2979TIP3   OH2 8942   4.697   0.020   2.607 -0.0605 -0.2112 -0.3283
 2979TIP3    H1 8943   4.603   0.037   2.619  0.2913  0.8520  1.3820
 2979TIP3    H2 8944   4.717   0.053   2.520 -0.8419  1.7777  0.1954
 2980TIP3   OH2 8945   5.700   2.280   4.120 -0.0134  0.4919 -0.5303
 2980TIP3    H1 8946   5.671   2.223   4.049 -5.1984  1.6904  0.2193
 2980TIP3    H2 8947   5.695   2.368   4.084 -0.4822  0.9791  0.6606
 2981TIP3   OH2 8948   5.009   3.227   2.856  0.0318  0.0413  0.0442
 2981TIP3    H1 8949   4.943   3.158   2.853 -0.2549  0.1608  2.1222
 2981TIP3    H2 8950   4.959   3.308   2.858  0.2112  0.1450  1.2921
 2982TIP3   OH2 8951   2.773   4.868   0.905 -0.1241  0.3390  0.2243
 2982TIP3    H1 8952   2.832   4.808   0.950 -0.5035 -0.8374 -0.8027
 2982TIP3    H2 8953   2.797   4.955   0.939  2.5233 -0.0285 -0.5213
 2983TIP3   OH2 8954   3.602   1.220   2.491 -0.2742  0.1471 -0.5908
 2983TIP3    H1 8955   3.613   1.140   2.542  1.1994 -0.6881 -2.0866
 2983TIP3    H2 8956   3.633   1.290   2.548 -0.9157 -0.4271  0.4904
 2984TIP3   OH2 8957   6.004   5.774   0.197 -0.1720 -0.1280  0.2052
 2984TIP3    H1 8958   6.089   5.783   0.153 -0.3583  1.7152  0.1194
 2984TIP3    H2 8959   5.989   5.680   0.201  1.6963 -0.4900 -0.1224
 2985TIP3   OH2 8960   0.807   0.360   3.637  0.4160  0.5846 -0.3708
 2985TIP3    H1 8961   0.808   0.382   3.544 -0.7197  2.4705  0.0072
 2985TIP3    H2 8962   0.719   0.383   3.667  0.8211  0.2294  1.2214
 2986TIP3   OH2 8963   3.126   4.931   0.857 -0.2083 -0.4337  0.2999
 2986TIP3    H1 8964   3.210   4.911   0.815 -0.7018 -0.8830 -0.4887
 2986TIP3    H2 8965   3.082   4.846   0.865 -0.4105 -0.2592  1.1050
 2987TIP3   OH2 8966   1.590   0.609   3.405 -0.0136  0.0275 -0.3761
 2987TIP3    H1 8967   1.655   0.663   3.360 -1.2108  0.8117 -1.2333
 2987TIP3    H2 8968   1.532   0.672   3.449  0.1021 -0.6756  0.8208
 2988TIP3   OH2 8969   0.995   3.467   1.351 -0.6614 -0.3705  0.2024
 2988TIP3    H1 8970   0.954   3.444   1.434  2.2700 -0.1117  1.8414
 2988TIP3    H2 8971   1.045   3.389   1.326 -0.8644 -0.1605 -0.9265
 2989TIP3   OH2 8972   1.484   0.526   1.735  0.6605  0.1240  0.5021
 2989TIP3    H1 8973   1.437   0.510   1.817  0.0933  1.2123  0.4012
 2989TIP3    H2 8974   1.426   0.493   1.667 -0.4880  2.4037  0.2974
 2990TIP3   OH2 8975   0.256   2.636   0.580 -0.3072 -0.2387  0.3216
 2990TIP3    H1 8976   0.278   2.725   0.608 -0.1043  0.5056 -1.9944
 2990TIP3    H2 8977   0.319   2.617   0.510 -0.6497 -2.0360  0.4663
 2991TIP3   OH2 8978   2.989   4.710   3.664  0.1139  0.4367  0.2431
 2991TIP3    H1 8979   3.031   4.625   3.651  1.0998  1.1595 -1.6620
 2991TIP3    H2 8980   3.061   4.770   3.685 -0.4183  1.0232  0.4192
 2992TIP3   OH2 8981   1.931   4.721   1.294  0.2664 -0.4897 -0.1111
 2992TIP3    H1 8982   1.962   4.779   1.225 -1.3834 -0.5374 -0.9595
 2992TIP3    H2 8983   1.948   4.633   1.260  0.3277 -0.5079 -0.0326
 2993TIP3   OH2 8984   6.071   0.405   2.766 -0.5065  0.5263 -0.1896
 2993TIP3    H1 8985   5.982   0.407   2.802 -1.0865 -2.8913 -1.0596
 2993TIP3    H2 8986   6.127   0.384   2.841 -0.9992 -1.1972 -0.2713
 2994TIP3   OH2 8987   4.478   1.451   0.800 -0.1296 -0.4293 -0.2006
 2994TIP3    H1 8988   4.419   1.488   0.735 -1.3568 -1.7024  0.1537
 2994TIP3    H2 8989   4.472   1.357   0.787  0.6639 -0.6422  0.8589
 2995TIP3   OH2 8990   4.880   2.106   4.780 -0.3737  0.6520 -0.2856
 2995TIP3    H1 8991   4.790   2.131   4.801 -0.4443 -0.8669  1.5620
 2995TIP3    H2 8992   4.872   2.020   4.737  0.1986  0.2298  0.4213
 2996TIP3   OH2 8993   3.497   3.193   0.005  0.1410 -0.1267  0.0886
 2996TIP3    H1 8994   3.490   3.098   0.008  1.8984 -0.2920  0.6187
 2996TIP3    H2 8995   3.570   3.213   0.064  1.1639  1.3757 -1.5763
 2997TIP3   OH2 8996   5.437   3.323   3.687 -0.0248  0.0920  0.0333
 2997TIP3    H1 8997   5.477   3.287   3.766 -1.4922 -3.9017 -0.8320
 2997TIP3    H2 8998   5.349   3.349   3.713 -0.4687 -1.1155 -0.2328
 2998TIP3   OH2 8999   0.759   3.356   0.684 -0.0255 -0.6531  0.0238
 2998TIP3    H1 9000   0.829   3.300   0.717  1.6910  0.2303 -1.9285
 2998TIP3    H2 9001   0.761   3.344   0.589 -0.6912  1.4287 -0.3088
 2999TIP3   OH2 9002   5.362   1.711   3.914  0.2055  0.1914  0.3606
 2999TIP3    H1 9003   5.399   1.624   3.923  0.5296  0.3229  0.3107
 2999TIP3    H2 9004   5.291   1.714   3.979  0.8376  0.2297  1.0656
 3000TIP3   OH2 9005   3.057   2.198   0.467 -0.0075  0.5316  0.0179
 3000TIP3    H1 9006   3.123   2.129   0.460  0.7564  1.1551  0.8706
 3000TIP3    H2 9007   3.099   2.275   0.428 -0.0513  1.0403  0.9506
 3001TIP3   OH2 9008   4.757   0.149   3.345 -0.0319  0.2519 -0.2138
 3001TIP3    H1 9009   4.797   0.103   3.418  0.3133  0.4140 -0.2999
 3001TIP3    H2 9010   4.830   0.174   3.289 -0.0651  2.0611  0.4785
 3002TIP3   OH2 9011   1.064   0.257   0.183 -0.3630 -0.5117 -0.4967
 3002TIP3    H1 9012   1.069   0.348   0.212  3.9941  0.2213 -2.7425
 3002TIP3    H2 9013   1.055   0.207   0.264 -0.5894  1.7989  1.0106
 3003TIP3   OH2 9014   3.759   4.414   1.508  0.4566 -0.2258 -0.3046
 3003TIP3    H1 9015   3.694   4.453   1.450  3.2739  2.2136 -2.1327
 3003TIP3    H2 9016   3.775   4.481   1.575  1.4963 -0.5364 -0.2290
 3004TIP3   OH2 9017   4.955   0.404   4.219  0.8551  0.0128 -0.3292
 3004TIP3    H1 9018   5.034   0.370   4.259  2.5610  2.2317 -1.5523
 3004TIP3    H2 9019   4.929   0.477   4.275 -0.8698 -1.1833  0.5097
 3005TIP3   OH2 9020   1.498   5.969   1.997  0.2826  0.1939 -0.1766
 3005TIP3    H1 9021   1.547   5.908   1.943  0.3579 -0.3167  0.4567
 3005TIP3    H2 9022   1.493   5.927   2.083  1.4540  1.6220  0.6583
 3006TIP3   OH2 9023   6.301   5.585   2.489  0.0653 -0.1061  0.1349
 3006TIP3    H1 9024   6.363   5.553   2.424 -0.0442  0.3175 -0.1813
 3006TIP3    H2 9025   6.290   5.512   2.550 -0.9068 -1.0358 -1.0919
 3007TIP3   OH2 9026   1.416   1.623   3.806  0.1930  0.3550  0.3965
 3007TIP3    H1 9027   1.449   1.586   3.724 -0.3943 -0.2721  0.4352
 3007TIP3    H2 9028   1.458   1.572   3.875 -0.0561  0.2375  0.4636
 3008TIP3   OH2 9029   1.446   1.158   4.248 -0.1719 -0.2471  0.3838
 3008TIP3    H1 9030   1.407   1.071   4.257 -0.5391 -0.2563 -0.9751
 3008TIP3    H2 9031   1.416   1.188   4.162  1.5913  0.3920 -0.0416
 3009TIP3   OH2 9032   2.047   3.012   4.321  0.0474 -0.1759 -0.5042
 3009TIP3    H1 9033   2.002   3.062   4.389 -0.9304 -0.2681 -1.0611
 3009TIP3    H2 9034   1.980   2.953   4.287  0.5094 -0.1053 -1.5748
 3010TIP3   OH2 9035   3.753   0.432   2.882  0.4242  0.4113  0.0169
 3010TIP3    H1 9036   3.776   0.507   2.827 -1.9668  1.9298  0.9207
 3010TIP3    H2 9037   3.658   0.423   2.873  0.2097 -0.5404  2.3231
 3011TIP3   OH2 9038   1.243   0.630   0.978 -0.5804  0.7420 -0.4741
 3011TIP3    H1 9039   1.159   0.598   1.012  0.0530  0.0111  0.4445
 3011TIP3    H2 9040   1.281   0.554   0.934  0.2544  0.6415  0.3950
 3012TIP3   OH2 9041   5.658   3.587   0.086  0.5043  0.1216 -0.2026
 3012TIP3    H1 9042   5.589   3.541   0.039 -0.7440 -0.3633  1.9781
 3012TIP3    H2 9043   5.738   3.538   0.066 -0.3965 -1.5299  0.0887
 3013TIP3   OH2 9044   3.321   3.910   0.198  0.2678 -0.2606  0.7247
 3013TIP3    H1 9045   3.356   3.822   0.207 -0.7584 -0.9875 -1.6018
 3013TIP3    H2 9046   3.298   3.917   0.105  0.6757  2.6023  0.7556
 3014TIP3   OH2 9047   4.353   1.987   0.755 -0.2578  0.1352  0.2169
 3014TIP3    H1 9048   4.400   2.023   0.679 -0.0632  1.5277  0.9479
 3014TIP3    H2 9049   4.327   2.065   0.805  1.6403 -0.7163  2.7777
 3015TIP3   OH2 9050   6.205   3.166   1.509  0.0800 -0.0836  0.0410
 3015TIP3    H1 9051   6.184   3.121   1.591 -0.1091 -1.5146 -0.7596
 3015TIP3    H2 9052   6.123   3.167   1.460  0.1356  0.9579 -0.0699
 3016TIP3   OH2 9053   0.920   4.196   2.393  0.4135  0.3569 -0.4200
 3016TIP3    H1 9054   1.007   4.171   2.425  0.0665 -0.4283 -0.0413
 3016TIP3    H2 9055   0.909   4.287   2.419 -0.3215 -0.5372  2.8734
 3017TIP3   OH2 9056   0.912   1.457   2.204  0.5010  0.0711 -0.1706
 3017TIP3    H1 9057   0.871   1.427   2.123 -0.7636  0.4007  0.3197
 3017TIP3    H2 9058   1.003   1.430   2.196  0.0218 -1.4689 -0.9348
 3018TIP3   OH2 9059   3.260   3.747   3.165  0.1798 -0.0626  0.0557
 3018TIP3    H1 9060   3.330   3.751   3.099 -1.1070 -1.0938 -1.4306
 3018TIP3    H2 9061   3.183   3.718   3.117 -1.5444  1.8798  1.4747
 3019TIP3   OH2 9062   0.233   1.480   3.876  0.0812 -0.0049  0.0531
 3019TIP3    H1 9063   0.191   1.489   3.961 -0.4633 -3.5720  0.2907
 3019TIP3    H2 9064   0.163   1.455   3.816  0.7385  0.8702 -1.1337
 3020TIP3   OH2 9065   0.237   3.402   3.537 -0.3271  0.2869 -0.2705
 3020TIP3    H1 9066   0.279   3.479   3.499  0.4711  0.6714  1.2653
 3020TIP3    H2 9067   0.207   3.432   3.624 -0.8524 -0.8800 -0.0293
 3021TIP3   OH2 9068   3.085   5.437   4.936 -0.1128  0.1962  0.2323
 3021TIP3    H1 9069   3.046   5.524   4.931  0.1354  0.2671 -0.5377
 3021TIP3    H2 9070   3.012   5.377   4.921 -0.2097  0.2775  0.3686
 3022TIP3   OH2 9071   4.475   0.398   3.139 -0.5948 -0.0025 -0.4196
 3022TIP3    H1 9072   4.454   0.342   3.214 -0.3493 -0.7962 -0.9329
 3022TIP3    H2 9073   4.480   0.338   3.065 -1.7591  0.8909 -1.2571
 3023TIP3   OH2 9074   1.187   2.435   1.527 -0.2749 -0.1158  0.4228
 3023TIP3    H1 9075   1.116   2.404   1.472  0.3312 -1.2179  0.2342
 3023TIP3    H2 9076   1.163   2.407   1.616 -0.1972 -0.2650  0.3966
 3024TIP3   OH2 9077   2.807   2.962   4.324 -0.0417 -0.2174 -0.8828
 3024TIP3    H1 9078   2.861   2.957   4.245 -1.4921 -1.4288 -1.8604
 3024TIP3    H2 9079   2.719   2.936   4.295 -0.6087 -0.7709  1.1517
 3025TIP3   OH2 9080   4.461   5.201   2.185 -0.5790  0.4231 -0.5255
 3025TIP3    H1 9081   4.399   5.264   2.222 -0.7159  0.3040 -0.5506
 3025TIP3    H2 9082   4.407   5.143   2.131 -0.5041  0.0581 -0.2082
 3026TIP3   OH2 9083   3.656   0.285   1.852 -1.3571 -0.4633  0.2468
 3026TIP3    H1 9084   3.716   0.333   1.795 -1.6999  0.8691  0.9610
 3026TIP3    H2 9085   3.714   0.231   1.907 -0.8948 -0.1583  0.0658
 3027TIP3   OH2 9086   0.392   1.585   2.885 -0.1180  0.3249 -0.0410
 3027TIP3    H1 9087   0.321   1.521   2.883  0.4727 -0.3571  0.2522
 3027TIP3    H2 9088   0.351   1.668   2.861 -0.8548 -0.2026 -0.6219
 3028TIP3   OH2 9089   3.036   1.993   2.889 -0.1160  0.2113 -0.2573
 3028TIP3    H1 9090   3.116   1.945   2.866 -1.2069 -1.1161 -1.4716
 3028TIP3    H2 9091   3.068   2.075   2.927  1.8383  0.0010 -1.2842
 3029TIP3   OH2 9092   4.561   1.018   0.186 -0.2325 -0.6919 -0.3713
 3029TIP3    H1 9093   4.585   0.955   0.118 -0.6119  0.6995 -1.8504
 3029TIP3    H2 9094   4.522   1.092   0.139 -1.0113  0.1044  1.4046
 3030TIP3   OH2 9095   4.625   0.074   3.093 -0.3118  0.1905  0.0556
 3030TIP3    H1 9096   4.533   0.084   3.115 -0.7340 -1.4205 -0.8305
 3030TIP3    H2 9097   4.671   0.092   3.175 -1.6005 -1.8879  1.3231
 3031TIP3   OH2 9098   0.992   5.662   1.914  0.5191  0.0685  0.2969
 3031TIP3    H1 9099   0.905   5.668   1.953 -0.4694 -3.3175 -1.0453
 3031TIP3    H2 9100   1.045   5.618   1.981  1.1013  1.6121  0.8892
 3032TIP3   OH2 9101   3.259   0.125   0.739 -0.1891 -0.6453  0.1253
 3032TIP3    H1 9102   3.174   0.167   0.749 -0.3472 -0.6804 -0.9508
 3032TIP3    H2 9103   3.245   0.035   0.767 -0.4102 -0.5437  0.3372
 3033TIP3   OH2 9104   2.265   1.437   2.244  0.2747 -0.5388 -0.2794
 3033TIP3    H1 9105   2.279   1.404   2.333  1.0544  1.3599  0.3626
 3033TIP3    H2 9106   2.331   1.506   2.234 -1.6974  1.3305 -1.2269
 3034TIP3   OH2 9107   5.900   3.429  -0.007  0.3434 -0.2986  0.6747
 3034TIP3    H1 9108   5.946   3.513  -0.015 -0.3606  0.2944  2.5283
 3034TIP3    H2 9109   5.967   3.369   0.025  1.0337 -0.6864 -1.3043
 3035TIP3   OH2 9110   0.130   5.573   3.708 -0.3333  0.4014 -0.5787
 3035TIP3    H1 9111   0.220   5.543   3.693  0.2137  1.5566  0.1696
 3035TIP3    H2 9112   0.077   5.494   3.706  0.5764 -0.2080 -1.8918
 3036TIP3   OH2 9113   4.032   4.307   1.731  0.1015 -0.5186  0.9119
 3036TIP3    H1 9114   3.956   4.249   1.745 -1.5968  0.7601 -2.0913
 3036TIP3    H2 9115   4.100   4.249   1.696 -0.8437 -1.1146 -0.0250
 3037TIP3   OH2 9116   1.665   4.466  -0.016  0.5971 -0.2369 -0.0686
 3037TIP3    H1 9117   1.695   4.463   0.075  0.0678 -0.9082  0.0899
 3037TIP3    H2 9118   1.680   4.377  -0.049  0.4084 -0.1050 -0.5097
 3038TIP3   OH2 9119   5.881   0.669   4.517 -0.0011  0.5930 -0.0614
 3038TIP3    H1 9120   5.793   0.705   4.529  0.1100  0.7108  0.4026
 3038TIP3    H2 9121   5.884   0.593   4.574 -0.0721  0.1153 -0.6818
 3039TIP3   OH2 9122   2.834   3.507   2.761 -0.1190 -0.9182 -0.0309
 3039TIP3    H1 9123   2.743   3.516   2.732  0.1034  1.0504 -0.2528
 3039TIP3    H2 9124   2.884   3.501   2.679  0.1395  0.4320  0.0089
 3040TIP3   OH2 9125   3.139   3.989   3.873  0.5468  0.1447 -0.0074
 3040TIP3    H1 9126   3.186   3.926   3.928  0.1474  0.1537  0.3505
 3040TIP3    H2 9127   3.046   3.967   3.885  0.4892 -0.6590 -1.6462
 3041TIP3   OH2 9128   0.065   2.963   3.391  0.4804  0.1279  0.1248
 3041TIP3    H1 9129   0.050   2.869   3.385  0.1598  0.2620 -1.8350
 3041TIP3    H2 9130   0.111   2.985   3.310 -1.1211  1.9360 -0.3662
 3042TIP3   OH2 9131   2.713   1.220   3.961 -0.0735 -0.6673 -0.2564
 3042TIP3    H1 9132   2.747   1.196   4.047 -2.1532 -0.6538  0.6351
 3042TIP3    H2 9133   2.750   1.156   3.901 -0.0133 -1.7959  0.9561
 3043TIP3   OH2 9134   0.238   5.718   0.834  0.5858  0.1194 -0.2056
 3043TIP3    H1 9135   0.198   5.786   0.780  2.5893  0.3449 -1.5001
 3043TIP3    H2 9136   0.330   5.741   0.837  1.4171 -2.7109 -0.9875
 3044TIP3   OH2 9137   1.721   5.784   2.038  0.3301 -0.0312  0.1372
 3044TIP3    H1 9138   1.801   5.827   2.009 -0.0263  0.3420 -0.3037
 3044TIP3    H2 9139   1.706   5.819   2.126  0.2663  0.4343 -0.0581
 3045TIP3   OH2 9140   4.880   4.358   0.544  0.1756 -0.6083  0.0749
 3045TIP3    H1 9141   4.817   4.312   0.599  1.6386 -1.1857  1.3305
 3045TIP3    H2 9142   4.845   4.347   0.455 -1.9440 -0.1238  0.7823
 3046TIP3   OH2 9143   0.817   5.070   0.405  0.0642  0.1008  0.1575
 3046TIP3    H1 9144   0.890   5.101   0.352  0.2895  0.5304  0.7066
 3046TIP3    H2 9145   0.859   5.023   0.478 -0.2679 -1.8918 -0.8682
 3047TIP3   OH2 9146   4.943   1.739   0.006 -0.0380 -0.1009  0.2342
 3047TIP3    H1 9147   5.035   1.748  -0.019 -0.3577  2.2772 -0.3099
 3047TIP3    H2 9148   4.931   1.802   0.077 -0.8388 -1.7837  1.6704
 3048TIP3   OH2 9149   0.471   3.266   2.317  0.1262 -0.0848  0.3122
 3048TIP3    H1 9150   0.534   3.304   2.256  0.9098 -0.5031  0.8327
 3048TIP3    H2 9151   0.390   3.315   2.302  0.5539  0.4195 -0.4246
 3049TIP3   OH2 9152   5.406   5.479   0.797  0.0158 -0.0607  0.4096
 3049TIP3    H1 9153   5.497   5.496   0.775  0.4392 -1.9344  0.5254
 3049TIP3    H2 9154   5.367   5.566   0.807  1.1622  0.8355 -2.0482
 3050TIP3   OH2 9155   2.719   2.688   1.103  0.1132  0.8881  0.2353
 3050TIP3    H1 9156   2.691   2.766   1.151  0.5729  0.4482  1.2644
 3050TIP3    H2 9157   2.642   2.662   1.052 -0.9626  0.4584  1.9774
 3051TIP3   OH2 9158   4.877   0.866   2.678 -0.6379  0.6120  0.4801
 3051TIP3    H1 9159   4.882   0.943   2.735  1.9012 -0.1930  1.5030
 3051TIP3    H2 9160   4.904   0.793   2.734 -0.8353 -0.6788 -1.0408
 3052TIP3   OH2 9161   3.982   3.619   1.448  0.6479 -0.4543 -0.5796
 3052TIP3    H1 9162   4.022   3.542   1.489 -0.1832 -0.5194  0.1309
 3052TIP3    H2 9163   4.056   3.667   1.411  1.3336 -0.7922  0.3226
 3053TIP3   OH2 9164   0.344   4.165   0.694 -0.7424  0.8126 -0.2264
 3053TIP3    H1 9165   0.359   4.222   0.769 -0.2055  0.1401  0.1872
 3053TIP3    H2 9166   0.343   4.077   0.730  1.4285  0.3073 -1.2286
 3054TIP3   OH2 9167   2.018   4.762   5.124 -0.2344 -0.3445 -0.1181
 3054TIP3    H1 9168   2.068   4.823   5.070 -1.7985  0.6081 -0.5944
 3054TIP3    H2 9169   2.041   4.675   5.092  0.1392  0.1334 -1.1878
 3055TIP3   OH2 9170   4.153   2.977   2.066 -0.4215  0.1627 -0.0708
 3055TIP3    H1 9171   4.183   2.904   2.011  1.4324  0.7495  0.1040
 3055TIP3    H2 9172   4.153   3.053   2.008 -0.9747  0.3084  0.1088
 3056TIP3   OH2 9173   5.106   5.451   4.285 -0.1753  0.1764  0.3995
 3056TIP3    H1 9174   5.068   5.377   4.237 -1.0862  0.0092  1.3240
 3056TIP3    H2 9175   5.061   5.528   4.251 -0.4033  0.1207  0.5714
 3057TIP3   OH2 9176   1.499   5.507   0.547 -0.7637  0.0882 -0.5095
 3057TIP3    H1 9177   1.488   5.468   0.634 -2.1264 -0.5802 -0.9470
 3057TIP3    H2 9178   1.563   5.577   0.559  0.3787 -1.1248  0.6715
 3058TIP3   OH2 9179   0.390   1.772   4.061  0.0948  0.0750  0.1359
 3058TIP3    H1 9180   0.442   1.824   4.122  0.3633  2.8979 -2.2868
 3058TIP3    H2 9181   0.306   1.817   4.056  0.2284  0.1978 -1.8444
 3059TIP3   OH2 9182   3.658   4.677   3.525  0.2643 -0.7549  0.4245
 3059TIP3    H1 9183   3.752   4.665   3.538  0.9363  2.3854 -0.7330
 3059TIP3    H2 9184   3.622   4.681   3.614  1.3496 -1.0917  0.8924
 3060TIP3   OH2 9185   6.202   4.975   0.240 -0.2235 -0.2212  0.3127
 3060TIP3    H1 9186   6.109   4.963   0.257 -0.0189 -1.5157  0.6304
 3060TIP3    H2 9187   6.210   5.066   0.213 -1.2017  0.7472  2.9583
 3061TIP3   OH2 9188   2.113   5.431   3.158  0.0434 -0.4354 -0.4052
 3061TIP3    H1 9189   2.088   5.339   3.159  1.7368 -0.9370  1.4355
 3061TIP3    H2 9190   2.113   5.458   3.250  1.1267  0.9406 -0.7720
 3062TIP3   OH2 9191   2.134   5.584   1.874  0.2758  0.2870 -0.0154
 3062TIP3    H1 9192   2.153   5.676   1.888 -1.7552  0.7512 -0.0012
 3062TIP3    H2 9193   2.167   5.566   1.786  1.9544  0.6014  0.4986
 3063TIP3   OH2 9194   3.462   5.424   0.165 -0.2121 -0.2793 -0.0158
 3063TIP3    H1 9195   3.533   5.455   0.110 -0.4131 -0.9492 -0.6688
 3063TIP3    H2 9196   3.504   5.373   0.233 -0.0527 -0.5421 -0.3102
 3064TIP3   OH2 9197   0.053   5.473   2.262 -0.1639 -0.2357 -0.0285
 3064TIP3    H1 9198   0.141   5.507   2.249 -0.9799  1.5475 -1.3256
 3064TIP3    H2 9199  -0.004   5.534   2.213 -2.0733 -1.5095  0.4920
 3065TIP3   OH2 9200   4.163   1.999   3.583  0.3221 -0.0987 -0.4196
 3065TIP3    H1 9201   4.108   2.058   3.634 -1.3279 -0.8289 -1.2672
 3065TIP3    H2 9202   4.229   2.056   3.543  1.9269  0.4511  2.7000
 3066TIP3   OH2 9203   3.810   5.572   3.443  0.3011  0.5598  0.3131
 3066TIP3    H1 9204   3.815   5.629   3.367  0.6767 -1.2565 -1.0941
 3066TIP3    H2 9205   3.879   5.507   3.429 -1.3964 -1.4569  0.7833
 3067TIP3   OH2 9206   0.870   5.025   3.690 -0.7433 -0.1428 -0.3433
 3067TIP3    H1 9207   0.948   5.079   3.680  0.9218 -1.9424  2.0227
 3067TIP3    H2 9208   0.858   4.984   3.604  1.2734 -0.2768 -0.5985
 3068TIP3   OH2 9209   4.999   1.781   5.127  0.0214  0.3448 -0.1481
 3068TIP3    H1 9210   5.037   1.856   5.171  1.8438  0.0426 -1.1125
 3068TIP3    H2 9211   5.002   1.803   5.034  0.1927 -0.7271 -0.4162
 3069TIP3   OH2 9212   2.559   0.580   4.425  0.2382 -0.5146 -0.0106
 3069TIP3    H1 9213   2.492   0.583   4.356  1.7585  1.2981 -1.4950
 3069TIP3    H2 9214   2.551   0.663   4.471  0.3107 -1.0426  0.9879
 3070TIP3   OH2 9215   3.135   1.231   4.063 -0.1133 -0.0330 -0.0470
 3070TIP3    H1 9216   3.063   1.293   4.053 -0.7493 -1.0307 -2.4666
 3070TIP3    H2 9217   3.214   1.285   4.066 -0.6562  0.9821 -2.0921
 3071TIP3   OH2 9218   6.258   1.202   0.929  0.2686 -0.2838 -0.2246
 3071TIP3    H1 9219   6.183   1.160   0.887 -0.1462  0.6023 -0.3780
 3071TIP3    H2 9220   6.243   1.296   0.918  0.2086 -0.0173  1.7977
 3072TIP3   OH2 9221   1.527   3.705   3.743 -0.1554  0.5382  0.1786
 3072TIP3    H1 9222   1.434   3.705   3.766  0.1438 -0.6885  1.5243
 3072TIP3    H2 9223   1.567   3.764   3.808  0.5481 -2.1638  2.4117
 3073TIP3   OH2 9224   6.145   1.978   2.936 -0.1692 -0.4411  0.3238
 3073TIP3    H1 9225   6.194   1.996   2.856 -1.2641  2.0205  0.1209
 3073TIP3    H2 9226   6.199   2.018   3.005 -1.3989  1.5858  0.1902
 3074TIP3   OH2 9227   3.142   2.804   0.341  0.3888  0.3473  0.0412
 3074TIP3    H1 9228   3.174   2.888   0.308 -0.1932 -0.5197 -3.0227
 3074TIP3    H2 9229   3.194   2.739   0.294  0.2559 -1.0455  1.7353
 3075TIP3   OH2 9230   2.206   2.700   1.217  1.1445 -0.4239  0.6332
 3075TIP3    H1 9231   2.286   2.689   1.166  0.3952  0.0993 -0.7052
 3075TIP3    H2 9232   2.204   2.623   1.274  1.2808 -1.8263 -1.1672
 3076TIP3   OH2 9233   2.224   0.583   1.854 -0.4871 -0.0402  0.3372
 3076TIP3    H1 9234   2.131   0.563   1.851 -0.1970 -1.5592  0.7399
 3076TIP3    H2 9235   2.239   0.641   1.780 -0.9965 -3.2401 -2.4999
 3077TIP3   OH2 9236   4.649   0.907   4.413 -0.1688 -0.0390 -0.1767
 3077TIP3    H1 9237   4.669   0.963   4.488  0.5730 -0.9788  0.3397
 3077TIP3    H2 9238   4.696   0.946   4.340  0.5460 -0.1080  0.2346
 3078TIP3   OH2 9239   6.046   2.331   0.195  0.2761  0.2669 -0.1621
 3078TIP3    H1 9240   6.055   2.323   0.100 -0.6428  0.4562 -0.2824
 3078TIP3    H2 9241   6.026   2.242   0.224 -0.8788  0.4434 -0.3462
 3079TIP3   OH2 9242   3.208   3.399   0.243  0.2153  0.2529 -0.3354
 3079TIP3    H1 9243   3.197   3.376   0.335 -1.8865  0.6293 -0.4498
 3079TIP3    H2 9244   3.244   3.488   0.245  0.4613  0.1470  0.1144
 3080TIP3   OH2 9245   0.054   5.957   2.328  0.1243 -0.5049 -0.5864
 3080TIP3    H1 9246   0.037   5.941   2.421 -1.3418 -0.0635 -0.7519
 3080TIP3    H2 9247   0.136   6.007   2.327  0.0343 -0.3050  0.4911
 3081TIP3   OH2 9248   0.477   0.614   1.121 -0.0067  0.2857 -0.0061
 3081TIP3    H1 9249   0.392   0.659   1.116 -1.5103 -2.3170  0.5389
 3081TIP3    H2 9250   0.488   0.594   1.214  1.5809  1.1440  0.0287
 3082TIP3   OH2 9251   3.708   1.394   1.913  0.5770  0.3696 -0.5278
 3082TIP3    H1 9252   3.695   1.349   1.997 -0.4970 -0.4151 -1.0973
 3082TIP3    H2 9253   3.706   1.487   1.936  0.0323  0.1742  0.2937
 3083TIP3   OH2 9254   2.389   5.040   0.379  0.4962 -0.6986  0.0332
 3083TIP3    H1 9255   2.356   5.111   0.324 -0.8130 -1.4843 -0.2222
 3083TIP3    H2 9256   2.411   5.082   0.462 -0.9782 -0.0865  0.1481
 3084TIP3   OH2 9257   0.057   3.362   0.261 -0.4817  0.2365 -0.2838
 3084TIP3    H1 9258   0.037   3.286   0.316 -1.8049 -1.4728 -2.9282
 3084TIP3    H2 9259   0.084   3.325   0.178 -0.7620  2.6891 -1.5510
 3085TIP3   OH2 9260   3.034   0.778   4.507 -0.0334 -0.6258  0.1292
 3085TIP3    H1 9261   3.078   0.745   4.428 -0.6426 -0.1888 -0.4026
 3085TIP3    H2 9262   3.003   0.699   4.551  2.4309 -1.0530  1.2402
 3086TIP3   OH2 9263   3.364   5.395   1.674  0.0637  0.2458 -0.2624
 3086TIP3    H1 9264   3.283   5.360   1.710  1.2524 -0.8486  1.4721
 3086TIP3    H2 9265   3.399   5.452   1.742  0.4264  1.3099 -1.2884
 3087TIP3   OH2 9266   3.246   0.408   0.648  0.5362  0.4430 -0.1012
 3087TIP3    H1 9267   3.261   0.325   0.694 -0.0060 -0.7702 -1.9786
 3087TIP3    H2 9268   3.331   0.452   0.648  0.9685 -0.3671  0.4708
 3088TIP3   OH2 9269   5.968   0.536   3.181  0.1435 -0.1094 -0.2567
 3088TIP3    H1 9270   5.942   0.445   3.165 -0.9823 -0.1959  1.7438
 3088TIP3    H2 9271   6.001   0.567   3.096  0.2787 -2.2761 -1.0501
 3089TIP3   OH2 9272   1.837   1.681   3.002 -0.2484  0.3059 -0.4541
 3089TIP3    H1 9273   1.913   1.700   3.057 -0.3802  0.8455 -0.4441
 3089TIP3    H2 9274   1.867   1.617   2.938 -0.8959 -2.8640  2.1793
 3090TIP3   OH2 9275   0.478   1.438   5.104 -0.1346  0.5448 -0.3585
 3090TIP3    H1 9276   0.454   1.525   5.072 -0.6802  0.9224  1.0157
 3090TIP3    H2 9277   0.559   1.417   5.057 -0.4961  1.3917 -1.3932
 3091TIP3   OH2 9278   0.428   4.461   5.193  0.4544  0.2524 -0.0484
 3091TIP3    H1 9279   0.510   4.465   5.241  0.0206  2.0421  0.6025
 3091TIP3    H2 9280   0.450   4.491   5.105  0.6675 -0.1860 -0.1486
 3092TIP3   OH2 9281   3.440   0.257   1.406 -0.3964  0.3202  0.0730
 3092TIP3    H1 9282   3.479   0.275   1.321  0.5387  1.7193  0.7689
 3092TIP3    H2 9283   3.353   0.298   1.402 -0.4496  0.1795 -0.2700
 3093TIP3   OH2 9284   5.164   5.211   0.349  0.2318  0.5090 -0.5308
 3093TIP3    H1 9285   5.196   5.301   0.349 -4.5425  2.5353  0.8494
 3093TIP3    H2 9286   5.102   5.207   0.277  0.2202 -1.6831 -0.4735
 3094TIP3   OH2 9287   4.317   5.111   3.923 -0.0418 -1.1034 -0.1836
 3094TIP3    H1 9288   4.412   5.114   3.933 -0.1681 -0.4215  0.9520
 3094TIP3    H2 9289   4.295   5.192   3.877 -0.0351 -1.5121 -0.9258
 3095TIP3   OH2 9290   2.645   3.594   2.077  0.4838 -0.1571  0.2854
 3095TIP3    H1 9291   2.615   3.673   2.121 -0.0532  0.0593 -0.4492
 3095TIP3    H2 9292   2.585   3.525   2.108  0.4989 -0.1337  0.3682
 3096TIP3   OH2 9293   3.425   0.442   5.035  0.0894  0.3227 -0.1737
 3096TIP3    H1 9294   3.376   0.360   5.037 -2.9339  1.9592 -1.1785
 3096TIP3    H2 9295   3.462   0.446   4.947 -0.7971  0.5396 -0.5529
 3097TIP3   OH2 9296   3.587   1.929   4.292  0.0148 -0.3285 -0.0944
 3097TIP3    H1 9297   3.587   1.962   4.202  1.8334 -0.7909 -0.2939
 3097TIP3    H2 9298   3.567   1.836   4.284 -2.3608  0.0816  0.2440
 3098TIP3   OH2 9299   5.691   5.308   3.909 -0.3327 -0.3642  0.0812
 3098TIP3    H1 9300   5.727   5.220   3.919 -1.8742 -0.8437  1.8063
 3098TIP3    H2 9301   5.721   5.355   3.986  1.0715  0.9080 -1.1642
 3099TIP3   OH2 9302   3.510   0.802   0.891  0.1029 -0.5896  0.3546
 3099TIP3    H1 9303   3.535   0.841   0.974 -0.1843  0.3981 -0.0135
 3099TIP3    H2 9304   3.429   0.847   0.867  0.6155 -0.2894 -0.8545
 3100TIP3   OH2 9305   0.190   4.662   3.426 -0.1898  0.2834  0.5446
 3100TIP3    H1 9306   0.160   4.753   3.432  1.0412  0.6851  0.9852
 3100TIP3    H2 9307   0.123   4.612   3.472  0.5743  1.3634  3.0492
 3101TIP3   OH2 9308   2.966   3.946   0.852  0.2649 -0.3856 -0.1408
 3101TIP3    H1 9309   3.050   3.903   0.841  0.3558 -0.0023 -1.0316
 3101TIP3    H2 9310   2.932   3.955   0.763  0.4637  1.7833 -0.0560
 3102TIP3   OH2 9311   6.327   4.978   2.693  0.1573  0.3848 -0.0919
 3102TIP3    H1 9312   6.316   4.887   2.666  0.8755  0.5693 -1.0548
 3102TIP3    H2 9313   6.306   4.978   2.786  0.4071 -0.8130 -0.0200
 3103TIP3   OH2 9314   2.579   4.955   2.170  0.2173  0.1783 -0.1157
 3103TIP3    H1 9315   2.669   4.923   2.176 -0.1180 -0.6666  0.5254
 3103TIP3    H2 9316   2.538   4.901   2.103 -0.6920 -1.6399  1.8130
 3104TIP3   OH2 9317   2.429   3.700   4.048 -0.2907 -0.1320 -0.0057
 3104TIP3    H1 9318   2.439   3.788   4.084 -0.4216 -0.1591  0.0968
 3104TIP3    H2 9319   2.407   3.645   4.124  1.7716 -0.6311  0.3043
 3105TIP3   OH2 9320   2.132   2.013   0.950  0.0722 -0.4840  0.4185
 3105TIP3    H1 9321   2.208   1.959   0.967  1.5485  1.5923  0.8327
 3105TIP3    H2 9322   2.166   2.103   0.947 -2.5812  0.7143  2.2142
 3106TIP3   OH2 9323   5.261   2.194  -0.005  0.2019 -0.2068  0.0806
 3106TIP3    H1 9324   5.330   2.238  -0.054 -0.3301  1.2704  0.5814
 3106TIP3    H2 9325   5.275   2.222   0.086 -2.0651  1.6551 -0.0385
 3107TIP3   OH2 9326   0.745   1.022   2.242 -0.5496 -0.0797 -0.2468
 3107TIP3    H1 9327   0.702   1.046   2.160 -0.2831 -0.1234 -0.3968
 3107TIP3    H2 9328   0.738   1.100   2.296  0.4621  0.4076 -0.7916
 3108TIP3   OH2 9329   5.922   2.070   4.044  0.2133 -0.3765 -0.6522
 3108TIP3    H1 9330   5.858   2.141   4.037  1.1909  0.5041 -1.1102
 3108TIP3    H2 9331   5.939   2.062   4.138  0.3131  0.2186 -0.6147
 3109TIP3   OH2 9332   4.232   4.197   1.559  0.2029 -0.1445  0.0914
 3109TIP3    H1 9333   4.325   4.214   1.572  0.0864 -0.5148  1.5771
 3109TIP3    H2 9334   4.222   4.104   1.578 -0.7616  0.2831  1.8505
 3110TIP3   OH2 9335   4.608   0.021   4.877  0.3978 -0.3679 -0.5643
 3110TIP3    H1 9336   4.522   0.058   4.856  0.8432  0.7168 -0.5442
 3110TIP3    H2 9337   4.589  -0.053   4.935 -0.5033  0.0417 -0.3197
 3111TIP3   OH2 9338   2.119   4.036   0.938  0.3589  0.1776  0.0773
 3111TIP3    H1 9339   2.149   4.118   0.977  1.9688 -0.0625 -0.5867
 3111TIP3    H2 9340   2.194   3.977   0.943  0.2992 -0.2119 -2.3673
 3112TIP3   OH2 9341   4.981   2.519   1.847  0.8481  0.2907 -0.2421
 3112TIP3    H1 9342   5.030   2.462   1.905  0.3725  0.5145  0.3985
 3112TIP3    H2 9343   5.013   2.499   1.759  2.1911  0.5543  0.1777
 3113TIP3   OH2 9344   0.248   2.295   2.787  0.3141 -0.0514  0.0634
 3113TIP3    H1 9345   0.343   2.285   2.800  0.8243  0.8712 -2.4360
 3113TIP3    H2 9346   0.219   2.344   2.864  1.7378 -0.8820  1.1787
 3114TIP3   OH2 9347   6.208   4.598   0.987 -0.1488  0.4643  0.0438
 3114TIP3    H1 9348   6.286   4.558   0.949 -0.2564 -2.5977  2.6846
 3114TIP3    H2 9349   6.238   4.683   1.019  2.0195 -0.4560  0.6153
 3115TIP3   OH2 9350   5.754   5.824   3.691  0.4300  0.1366  0.2125
 3115TIP3    H1 9351   5.787   5.735   3.708  0.1743  0.0994  0.5245
 3115TIP3    H2 9352   5.732   5.858   3.778 -2.8407 -0.8107 -0.1010
 3116TIP3   OH2 9353   4.717   3.688   2.942  0.2203 -0.1301  0.0961
 3116TIP3    H1 9354   4.775   3.747   2.894  0.0948  0.9046  1.1680
 3116TIP3    H2 9355   4.690   3.738   3.019 -1.3003 -0.9485  0.1405
 3117TIP3   OH2 9356   0.589   5.268   4.312  0.1306 -0.0793  0.0566
 3117TIP3    H1 9357   0.608   5.301   4.224  0.5402 -0.3830  0.0233
 3117TIP3    H2 9358   0.626   5.179   4.312  0.6857  0.1472  0.7322
 3118TIP3   OH2 9359   0.676   2.805   3.027  0.0538  0.2059  0.9233
 3118TIP3    H1 9360   0.714   2.744   2.964 -2.2321 -1.6109  1.1806
 3118TIP3    H2 9361   0.664   2.754   3.106 -0.2029  1.5518  1.7910
 3119TIP3   OH2 9362   3.680   5.052   0.112  0.0520 -0.2773  0.3504
 3119TIP3    H1 9363   3.774   5.047   0.094 -0.0210 -0.1420 -0.0728
 3119TIP3    H2 9364   3.674   5.054   0.207  0.4840 -0.2105  0.3774
 3120TIP3   OH2 9365   2.044   5.692   4.861 -0.0699  0.3681  0.1896
 3120TIP3    H1 9366   1.998   5.711   4.779 -0.4992 -0.8699  0.1073
 3120TIP3    H2 9367   1.997   5.743   4.927 -1.2018 -0.3708  0.0006
 3121TIP3   OH2 9368   5.589   3.028   0.401  1.2073  0.1023  0.2390
 3121TIP3    H1 9369   5.590   2.977   0.320  1.9843 -0.3904  0.5445
 3121TIP3    H2 9370   5.544   3.109   0.378 -0.6210 -0.9535 -0.1123
 3122TIP3   OH2 9371   0.571   4.431   4.579  0.4539  0.0919 -0.3114
 3122TIP3    H1 9372   0.579   4.458   4.487 -0.2643  0.5200 -0.2586
 3122TIP3    H2 9373   0.648   4.377   4.595 -0.7009 -2.1981 -1.9061
 3123TIP3   OH2 9374   0.267   1.052   2.856 -0.0575  0.2860 -0.0796
 3123TIP3    H1 9375   0.182   1.031   2.895  0.0204  0.5380  0.2280
 3123TIP3    H2 9376   0.257   1.028   2.764 -0.6598  0.8690 -0.1707
 3124TIP3   OH2 9377   5.637   3.390   2.309  0.1215  0.3080 -0.1872
 3124TIP3    H1 9378   5.708   3.361   2.252  0.9436  2.0100 -0.0896
 3124TIP3    H2 9379   5.561   3.394   2.250 -0.0502 -1.9519 -0.1890
 3125TIP3   OH2 9380   3.292   5.308   3.677  0.4448  0.6537  0.6886
 3125TIP3    H1 9381   3.233   5.383   3.679  0.3250  0.7472 -2.4490
 3125TIP3    H2 9382   3.302   5.287   3.584  0.6570 -3.0643  1.3793
 3126TIP3   OH2 9383   4.239   0.958   3.535  0.5224  0.0377  0.2802
 3126TIP3    H1 9384   4.146   0.938   3.527  0.8112 -0.9328 -1.1329
 3126TIP3    H2 9385   4.266   0.916   3.617 -0.1357 -0.2907  0.3338
 3127TIP3   OH2 9386   0.050   1.248   0.246  0.3822 -0.7348 -0.1896
 3127TIP3    H1 9387   0.144   1.245   0.224  0.2569  0.9680 -1.1653
 3127TIP3    H2 9388   0.040   1.329   0.296 -0.5781 -0.8538 -0.1794
 3128TIP3   OH2 9389   3.803   4.582   1.198  0.3742 -0.0005  0.3519
 3128TIP3    H1 9390   3.724   4.615   1.155 -0.0868  0.8270  1.7742
 3128TIP3    H2 9391   3.832   4.509   1.143 -1.3646 -0.3132 -0.2055
 3129TIP3   OH2 9392   2.219   4.680   2.869 -0.1077 -0.5142  0.3902
 3129TIP3    H1 9393   2.172   4.731   2.935 -0.5706  1.4109 -1.3337
 3129TIP3    H2 9394   2.219   4.735   2.791  1.0106 -2.4156 -1.0469
 3130TIP3   OH2 9395   2.576   5.671   3.720  0.1101 -0.1582 -0.0315
 3130TIP3    H1 9396   2.661   5.710   3.740  0.0679 -0.0894  0.0136
 3130TIP3    H2 9397   2.588   5.631   3.634  0.2846 -0.4343  0.1216
 3131TIP3   OH2 9398   2.030   2.451   1.137  0.5589 -0.1985  0.5780
 3131TIP3    H1 9399   2.031   2.510   1.062 -0.5145 -0.8473  0.0438
 3131TIP3    H2 9400   2.094   2.383   1.116  0.4273 -0.2532  0.3580
 3132TIP3   OH2 9401   2.436   1.544   4.043  0.2120 -0.3032  0.1911
 3132TIP3    H1 9402   2.427   1.611   4.111 -0.4510 -1.0510  0.8674
 3132TIP3    H2 9403   2.450   1.593   3.962  2.1073  0.5843  0.9965
 3133TIP3   OH2 9404   5.164   1.268   1.172 -0.8735 -0.9136  0.2448
 3133TIP3    H1 9405   5.231   1.251   1.239  0.2046 -0.1535 -0.6099
 3133TIP3    H2 9406   5.111   1.339   1.209  0.5824  0.4872 -0.2462
 3134TIP3   OH2 9407   2.006   5.781   0.233  0.2700  0.3950  0.2769
 3134TIP3    H1 9408   1.982   5.727   0.309 -1.3280 -0.7169 -0.9385
 3134TIP3    H2 9409   2.087   5.742   0.200  0.2044 -0.0079  0.5838
 3135TIP3   OH2 9410   4.101   0.080   0.449 -0.2091 -0.3302  0.0597
 3135TIP3    H1 9411   4.026   0.088   0.507  0.1655  0.9878  0.3850
 3135TIP3    H2 9412   4.150   0.005   0.484 -0.4431 -0.0930  0.9101
 3136TIP3   OH2 9413   3.437   5.810   1.190  0.3467  0.5801 -0.0431
 3136TIP3    H1 9414   3.517   5.827   1.240 -0.6093 -0.1785  1.8548
 3136TIP3    H2 9415   3.397   5.896   1.180  0.0156  0.6520  1.5531
 3137TIP3   OH2 9416   2.242   2.818   0.911 -0.5994 -0.7198 -0.3081
 3137TIP3    H1 9417   2.242   2.746   0.848  0.2481  0.0351 -1.2170
 3137TIP3    H2 9418   2.155   2.857   0.902 -0.6138 -0.8435 -0.7576
 3138TIP3   OH2 9419   0.802   1.848   2.203  0.4159  0.4437  0.6127
 3138TIP3    H1 9420   0.723   1.889   2.236  0.5324  0.0752  1.3726
 3138TIP3    H2 9421   0.793   1.755   2.227  0.4621  0.1347 -0.4769
 3139TIP3   OH2 9422   1.304   1.091   1.873  0.1488  0.1389  0.1574
 3139TIP3    H1 9423   1.395   1.107   1.847  0.2902 -0.6114  0.1817
 3139TIP3    H2 9424   1.266   1.179   1.883  0.8062  0.4519 -0.0707
 3140TIP3   OH2 9425   0.631   1.635   1.931  0.0155  0.1040  0.1891
 3140TIP3    H1 9426   0.695   1.701   1.904  0.4934 -0.4210  0.0171
 3140TIP3    H2 9427   0.561   1.642   1.866  0.0660  0.4416  0.1696
 3141TIP3   OH2 9428   6.066   4.191   0.488  0.3923 -0.1378 -0.0901
 3141TIP3    H1 9429   5.980   4.149   0.477  1.4494 -2.0792 -1.3087
 3141TIP3    H2 9430   6.065   4.222   0.579 -1.4412 -0.4243  0.0372
 3142TIP3   OH2 9431   3.588   5.713   4.143  0.2502 -0.1875  0.1800
 3142TIP3    H1 9432   3.520   5.714   4.210 -0.0721 -3.5255  0.0775
 3142TIP3    H2 9433   3.659   5.767   4.178 -1.5263  1.5022  1.2959
 3143TIP3   OH2 9434   1.325   1.769   4.775 -0.5347  0.3352 -0.0478
 3143TIP3    H1 9435   1.341   1.863   4.773 -1.6857  0.6752  2.6664
 3143TIP3    H2 9436   1.307   1.750   4.867  1.5064 -2.8898 -0.1557
 3144TIP3   OH2 9437   3.691   4.540   2.209 -0.0982 -0.4929  0.3219
 3144TIP3    H1 9438   3.763   4.520   2.149 -1.1105  0.3425 -1.2356
 3144TIP3    H2 9439   3.729   4.530   2.296  1.7383 -0.6260 -0.4533
 3145TIP3   OH2 9440   5.364   3.041   1.218  0.1042 -0.1157 -0.0493
 3145TIP3    H1 9441   5.279   3.083   1.204 -0.1071 -1.0322 -1.8594
 3145TIP3    H2 9442   5.397   3.024   1.129  1.3772 -1.3510  0.6287
 3146TIP3   OH2 9443   3.752   0.452   0.112 -0.3923  0.1757  0.4159
 3146TIP3    H1 9444   3.667   0.437   0.151  0.4188  0.5397  2.4172
 3146TIP3    H2 9445   3.742   0.533   0.062 -1.5687 -0.5663 -0.6215
 3147TIP3   OH2 9446   1.562   3.545   1.001  0.3377  0.4716 -0.2945
 3147TIP3    H1 9447   1.620   3.574   1.071 -0.4087  2.3749 -0.4178
 3147TIP3    H2 9448   1.607   3.470   0.962  0.6960 -0.7748  2.2825
 3148TIP3   OH2 9449   4.107   0.508   1.298  0.1080  0.0777  0.1814
 3148TIP3    H1 9450   4.079   0.433   1.246  1.4153 -0.0674 -0.3603
 3148TIP3    H2 9451   4.167   0.470   1.363 -2.6831  0.0040  2.9200
 3149TIP3   OH2 9452   1.587   5.522   3.446 -0.3561 -0.0403 -0.0125
 3149TIP3    H1 9453   1.581   5.562   3.533  1.5917  0.2525  0.0323
 3149TIP3    H2 9454   1.666   5.559   3.408 -0.5831 -0.9910 -1.4869
 3150TIP3   OH2 9455   0.138   1.854   0.278 -0.1032  0.6100 -0.6364
 3150TIP3    H1 9456   0.222   1.816   0.250  0.1835  1.1877 -0.5818
 3150TIP3    H2 9457   0.155   1.884   0.367 -0.8227 -0.6343 -0.0618
 3151TIP3   OH2 9458   3.473   2.062   4.954  0.0466 -0.4116  0.2750
 3151TIP3    H1 9459   3.379   2.050   4.963  0.1982 -0.9477  1.2592
 3151TIP3    H2 9460   3.483   2.139   4.898 -0.9723 -0.1013  0.5130
 3152TIP3   OH2 9461   4.087   2.150   4.796 -0.4053 -0.5909 -0.4710
 3152TIP3    H1 9462   4.047   2.101   4.724  0.4018 -0.7153 -0.8569
 3152TIP3    H2 9463   4.036   2.231   4.802 -1.9242 -1.5673  0.3560
 3153TIP3   OH2 9464   4.918   1.800   4.459  0.5127 -0.0209 -0.4838
 3153TIP3    H1 9465   4.991   1.738   4.452 -0.1167 -0.7286 -0.9639
 3153TIP3    H2 9466   4.958   1.879   4.495  1.4129 -0.5700 -0.2210
 3154TIP3   OH2 9467   5.695   3.803   2.606 -0.2544 -0.4832  0.4719
 3154TIP3    H1 9468   5.652   3.856   2.673  0.0442  0.0433  0.2577
 3154TIP3    H2 9469   5.787   3.800   2.632 -0.3107 -1.1129  0.6161
 3155TIP3   OH2 9470   1.048   3.249   0.836  0.4066 -0.6370 -0.1465
 3155TIP3    H1 9471   1.008   3.238   0.922  1.9559 -1.5150  0.5027
 3155TIP3    H2 9472   1.091   3.334   0.840  0.6138 -0.7475  0.0209
 3156TIP3   OH2 9473   0.297   5.320   4.364  0.2370 -0.0232  0.6378
 3156TIP3    H1 9474   0.382   5.295   4.400  0.0468 -0.0001  1.1043
 3156TIP3    H2 9475   0.319   5.370   4.285  0.6600  0.0609  0.8047
 3157TIP3   OH2 9476   2.500   0.586   2.912 -0.5626 -0.0905 -0.2185
 3157TIP3    H1 9477   2.591   0.610   2.925 -0.3654 -0.7090 -0.4166
 3157TIP3    H2 9478   2.450   0.664   2.937 -0.0715 -0.3165  1.5993
 3158TIP3   OH2 9479   3.840   0.395   1.681 -0.0943  0.8223 -0.5300
 3158TIP3    H1 9480   3.874   0.484   1.676  2.4555  0.0699  1.3608
 3158TIP3    H2 9481   3.903   0.343   1.631 -0.2035 -0.2223  0.3869
 3159TIP3   OH2 9482   2.301   3.769   5.000 -0.1769  0.4787  0.3793
 3159TIP3    H1 9483   2.372   3.801   4.945  0.6115 -0.5821  0.7462
 3159TIP3    H2 9484   2.344   3.738   5.080 -1.1311  0.5135  0.9213
 3160TIP3   OH2 9485   4.995   1.381   1.505  0.1648 -0.1645  0.7400
 3160TIP3    H1 9486   5.024   1.305   1.555  1.1499 -0.0494  0.3719
 3160TIP3    H2 9487   4.900   1.383   1.516 -0.0240 -2.0973 -0.1394
 3161TIP3   OH2 9488   2.814   4.607   1.105 -0.3351  0.0030  0.3643
 3161TIP3    H1 9489   2.752   4.547   1.146  0.2911 -0.2599  0.9387
 3161TIP3    H2 9490   2.891   4.606   1.162  1.1429 -1.4580 -1.5203
 3162TIP3   OH2 9491   6.066   3.567   1.999 -0.8031 -0.3319  0.1077
 3162TIP3    H1 9492   6.052   3.615   2.081 -1.4065  2.1850 -1.3676
 3162TIP3    H2 9493   6.145   3.606   1.962 -1.4427 -0.2670 -1.2560
 3163TIP3   OH2 9494   5.977   3.931   4.547 -0.4563  1.5046  0.1954
 3163TIP3    H1 9495   6.072   3.930   4.556 -0.3959 -0.2367 -0.3879
 3163TIP3    H2 9496   5.962   3.938   4.452 -0.8195 -1.7937 -0.0815
 3164TIP3   OH2 9497   0.121   4.069   0.038 -0.2155 -0.3655  0.2285
 3164TIP3    H1 9498   0.116   4.012  -0.038  0.6244 -1.9121  1.2707
 3164TIP3    H2 9499   0.034   4.108   0.044 -1.1794 -2.3160  0.0142
 3165TIP3   OH2 9500   6.063   1.958   0.041 -0.5944 -0.2577 -0.3415
 3165TIP3    H1 9501   6.110   1.894  -0.012 -0.5900 -2.8162  2.5007
 3165TIP3    H2 9502   5.976   1.963   0.001 -0.4545 -1.7805 -0.9019
 3166TIP3   OH2 9503   1.577   3.496   3.364 -0.0690  0.5151 -0.2455
 3166TIP3    H1 9504   1.516   3.517   3.435 -1.1933  1.6668 -1.4820
 3166TIP3    H2 9505   1.605   3.582   3.332  0.4856  0.0091 -1.1375
 3167TIP3   OH2 9506   5.995   0.962   4.162  0.3361  0.0264  0.0325
 3167TIP3    H1 9507   6.084   0.996   4.165  0.1813  0.3947  0.3995
 3167TIP3    H2 9508   5.959   0.998   4.081  0.5401 -0.1824 -0.1555
 3168TIP3   OH2 9509   2.893   3.292   2.903 -0.1084  0.0638 -0.4552
 3168TIP3    H1 9510   2.888   3.379   2.863  1.9059  0.3641 -0.1522
 3168TIP3    H2 9511   2.967   3.250   2.860 -0.5784 -1.2380 -0.0492
 3169TIP3   OH2 9512   1.079   5.371   3.875  0.1224 -0.5156  0.2909
 3169TIP3    H1 9513   1.059   5.454   3.831 -1.0026 -0.9066  0.0265
 3169TIP3    H2 9514   1.037   5.379   3.961  1.6040 -0.0876  0.9952
 3170TIP3   OH2 9515   2.875   1.081   3.401 -0.0072  0.2065 -0.5623
 3170TIP3    H1 9516   2.867   1.006   3.341 -2.2400 -1.0302  1.1218
 3170TIP3    H2 9517   2.949   1.060   3.457 -1.0577 -1.1954  0.3741
 3171TIP3   OH2 9518   3.244   5.198   3.409  0.2658 -0.1260  0.1748
 3171TIP3    H1 9519   3.282   5.265   3.353  0.8678  0.0798  0.8212
 3171TIP3    H2 9520   3.150   5.204   3.393  0.5089 -1.3159 -2.1985
 3172TIP3   OH2 9521   5.934   2.570   4.980  0.1407 -0.1933  0.5998
 3172TIP3    H1 9522   5.989   2.643   5.008 -0.6212  0.0914  1.4035
 3172TIP3    H2 9523   5.846   2.594   5.010 -0.1172 -1.4474  0.8819
 3173TIP3   OH2 9524   2.090   3.539   4.413 -0.5400 -0.6679  0.4486
 3173TIP3    H1 9525   2.069   3.626   4.447  0.1153 -1.2955  2.6153
 3173TIP3    H2 9526   2.108   3.487   4.491  1.2139 -2.2004 -0.8998
 3174TIP3   OH2 9527   1.779   4.669   4.957  0.7660  0.3720  0.3078
 3174TIP3    H1 9528   1.852   4.608   4.955  0.7696  0.3908 -0.4233
 3174TIP3    H2 9529   1.784   4.716   4.874  0.5276  1.0902  0.6806
 3175TIP3   OH2 9530   0.666   5.325   4.040 -1.0480 -0.2261  0.1313
 3175TIP3    H1 9531   0.757   5.330   4.070 -0.3222 -1.4439 -1.6903
 3175TIP3    H2 9532   0.653   5.404   3.988 -1.0914  0.0379  0.5428
 3176TIP3   OH2 9533   0.493   2.265   5.034 -0.1853  0.8183 -0.4800
 3176TIP3    H1 9534   0.517   2.172   5.040 -0.4889  0.7358 -0.5393
 3176TIP3    H2 9535   0.403   2.264   5.003 -0.7258  1.0912  0.9962
 3177TIP3   OH2 9536   2.592   0.773   1.550 -0.0856 -0.0930 -0.8350
 3177TIP3    H1 9537   2.562   0.769   1.641  1.8629 -0.9865 -0.1937
 3177TIP3    H2 9538   2.549   0.698   1.508  1.8103 -1.9345  0.3077
 3178TIP3   OH2 9539   1.928   0.589   3.297 -0.1804 -0.4592 -0.5393
 3178TIP3    H1 9540   1.850   0.603   3.244 -0.2337  1.8432  0.0108
 3178TIP3    H2 9541   1.902   0.523   3.362 -1.1377 -0.9034 -1.3562
 3179TIP3   OH2 9542   0.823   2.398   4.416 -0.2493  0.3402 -0.1344
 3179TIP3    H1 9543   0.732   2.384   4.387 -1.1923  1.3577  2.0989
 3179TIP3    H2 9544   0.816   2.466   4.483  2.3259  1.1776 -0.6182
 3180TIP3   OH2 9545   5.322   3.622   3.572  0.0790 -0.7357 -0.2488
 3180TIP3    H1 9546   5.274   3.574   3.640 -1.3144 -1.4498 -1.6765
 3180TIP3    H2 9547   5.361   3.554   3.518 -1.3937 -0.3285 -1.9274
 3181TIP3   OH2 9548   4.727   0.628   1.476 -0.6328 -0.3445  0.0635
 3181TIP3    H1 9549   4.695   0.631   1.566 -1.3454  0.6529 -0.2017
 3181TIP3    H2 9550   4.659   0.583   1.427 -0.8770  0.3053 -0.2070
 3182TIP3   OH2 9551   0.958   2.711   2.455  0.6236  0.0218  0.3018
 3182TIP3    H1 9552   0.963   2.652   2.379  1.1490  0.8090 -0.2936
 3182TIP3    H2 9553   1.046   2.710   2.492  0.4682 -0.0570  0.6733
 3183TIP3   OH2 9554   2.300   0.979   3.343  0.2570 -0.1777  0.3514
 3183TIP3    H1 9555   2.293   0.984   3.438  1.6181  2.6495  0.4183
 3183TIP3    H2 9556   2.393   0.964   3.327  0.2392  0.5091 -0.5036
 3184TIP3   OH2 9557   4.462   0.487   3.503  0.1705 -0.6223  0.3888
 3184TIP3    H1 9558   4.422   0.559   3.454  0.0107 -1.7491 -1.2284
 3184TIP3    H2 9559   4.531   0.529   3.554  0.3427  0.6432 -0.8110
 3185TIP3   OH2 9560   6.013   5.032   1.671 -0.2023 -0.4333 -0.0061
 3185TIP3    H1 9561   6.034   5.125   1.677 -0.4701 -0.4178  0.7689
 3185TIP3    H2 9562   6.063   5.001   1.595  2.2739 -0.2992  1.4826
 3186TIP3   OH2 9563   3.837   3.372   5.166  0.0345 -0.5535  0.0525
 3186TIP3    H1 9564   3.923   3.415   5.170  0.5227 -1.5529  0.7372
 3186TIP3    H2 9565   3.813   3.377   5.073 -0.4847  2.1668  0.2514
 3187TIP3   OH2 9566   0.262   1.903   1.147 -0.1601 -0.0913  0.1912
 3187TIP3    H1 9567   0.297   1.906   1.058  1.9966 -1.2973  0.9288
 3187TIP3    H2 9568   0.304   1.976   1.192 -1.4422  0.6736  0.1851
 3188TIP3   OH2 9569   5.176   3.221   3.851  0.0677  0.2633  0.0869
 3188TIP3    H1 9570   5.231   3.144   3.834  0.1150  0.1857  0.5749
 3188TIP3    H2 9571   5.088   3.185   3.862 -0.1277  0.4152 -0.9491
 3189TIP3   OH2 9572   1.478   4.512   2.824  0.6275 -0.6030  0.1733
 3189TIP3    H1 9573   1.523   4.457   2.888  0.4995 -1.6388 -0.6014
 3189TIP3    H2 9574   1.533   4.590   2.816  0.7195 -0.5160  1.4154
 3190TIP3   OH2 9575   0.944   2.479   2.222 -0.0108  0.1421  0.1600
 3190TIP3    H1 9576   1.025   2.430   2.235 -0.2753 -0.6258 -0.9545
 3190TIP3    H2 9577   0.876   2.412   2.221 -0.4698  0.6073 -0.6040
 3191TIP3   OH2 9578   1.628   4.950   3.007  0.4711  0.0779 -0.1752
 3191TIP3    H1 9579   1.621   5.029   3.061  0.4978  1.7314 -2.4275
 3191TIP3    H2 9580   1.720   4.949   2.978  0.2727 -0.3182 -0.8086
 3192TIP3   OH2 9581   6.064   5.946   0.807 -0.0761 -0.4278  0.0469
 3192TIP3    H1 9582   6.101   5.985   0.886 -1.3544  0.4230  0.2573
 3192TIP3    H2 9583   5.969   5.948   0.821 -0.2498 -2.4119 -0.5178
 3193TIP3   OH2 9584   2.608   3.580   5.096 -0.5427  0.7787  0.4258
 3193TIP3    H1 9585   2.565   3.635   5.162  0.6953 -0.1686  2.1345
 3193TIP3    H2 9586   2.592   3.491   5.125 -2.5296  0.1270 -2.3092
 3194TIP3   OH2 9587   1.419   4.216   4.246 -0.2957  0.1974 -0.7358
 3194TIP3    H1 9588   1.431   4.307   4.219 -1.7175  0.5505 -0.2466
 3194TIP3    H2 9589   1.501   4.193   4.290 -0.4279  1.6917  0.3472
 3195TIP3   OH2 9590   4.027   4.984   1.066 -0.4297 -0.7249 -0.3185
 3195TIP3    H1 9591   4.075   4.948   0.992  0.0855 -1.1845  0.2309
 3195TIP3    H2 9592   4.051   5.076   1.068 -2.1610 -0.1573 -2.0595
 3196TIP3   OH2 9593   1.715   3.211   4.834  0.1708  0.1352 -0.6816
 3196TIP3    H1 9594   1.687   3.280   4.775  0.6656  1.3384  0.4405
 3196TIP3    H2 9595   1.809   3.224   4.844 -0.0878  0.8324  1.3888
 3197TIP3   OH2 9596   6.091   1.719   2.386 -0.0209 -0.0573 -0.2934
 3197TIP3    H1 9597   6.165   1.758   2.340  1.4890 -2.5818 -0.2016
 3197TIP3    H2 9598   6.016   1.733   2.328  0.7088  1.6651 -0.8727
 3198TIP3   OH2 9599   3.566   4.688   4.298  0.7099  0.6109 -0.1049
 3198TIP3    H1 9600   3.627   4.616   4.309  1.1921  1.2645  1.8976
 3198TIP3    H2 9601   3.496   4.671   4.361  0.9911  2.0250  0.6269
 3199TIP3   OH2 9602   0.342   1.057   3.810 -0.0440 -1.1491  0.2198
 3199TIP3    H1 9603   0.391   1.139   3.821 -1.6321 -0.0179 -0.7599
 3199TIP3    H2 9604   0.371   1.023   3.726 -2.6652  0.8654 -1.6409
 3200TIP3   OH2 9605   0.350   3.842   2.996 -0.2400  0.1215  0.2885
 3200TIP3    H1 9606   0.426   3.785   2.995  0.1376  0.6258 -0.2888
 3200TIP3    H2 9607   0.375   3.913   3.056 -0.7787 -0.4053  1.1521
 3201TIP3   OH2 9608   4.015   4.603   2.357 -0.8784  0.1166  0.5631
 3201TIP3    H1 9609   3.972   4.685   2.380 -0.4666  0.8158 -1.0598
 3201TIP3    H2 9610   4.107   4.626   2.344 -0.3124 -1.0325  2.2284
 3202TIP3   OH2 9611   2.016   0.239   0.926  0.2064  0.0736  0.4576
 3202TIP3    H1 9612   2.083   0.216   0.861  0.2912  0.9825  0.2089
 3202TIP3    H2 9613   2.044   0.324   0.961 -0.9641  0.6204  0.1357
 3203TIP3   OH2 9614   1.564   2.989   4.972 -0.0714 -0.4165  0.1709
 3203TIP3    H1 9615   1.623   2.915   4.988 -0.1448 -0.5794 -0.2839
 3203TIP3    H2 9616   1.614   3.048   4.916  0.5078  0.5718  1.6720
 3204TIP3   OH2 9617   0.702   3.158   0.985  0.1493 -0.5869 -0.1734
 3204TIP3    H1 9618   0.714   3.076   0.938 -0.9378 -1.4323  0.9622
 3204TIP3    H2 9619   0.762   3.153   1.059 -0.7777 -0.9239  0.5784
 3205TIP3   OH2 9620   6.010   1.128   3.359 -0.0555 -0.1710 -0.4354
 3205TIP3    H1 9621   5.944   1.181   3.403  0.2457  0.9369 -1.2745
 3205TIP3    H2 9622   5.963   1.085   3.287  0.0920  0.4872 -0.9315
 3206TIP3   OH2 9623   2.260   5.825   1.971 -0.0626 -0.5912  0.9073
 3206TIP3    H1 9624   2.205   5.814   2.048 -0.8628 -2.4801  0.1105
 3206TIP3    H2 9625   2.331   5.883   2.001 -2.3085  1.7939  2.0152
 3207TIP3   OH2 9626   5.363   4.877   4.326  0.0583 -0.4835 -0.0188
 3207TIP3    H1 9627   5.300   4.877   4.398  0.1934 -2.5452  0.1495
 3207TIP3    H2 9628   5.314   4.844   4.250  0.2335  0.5351 -0.5965
 3208TIP3   OH2 9629   6.112   5.582   2.786 -0.0140 -0.1594  0.0066
 3208TIP3    H1 9630   6.113   5.662   2.734  1.6282 -0.4816 -0.5095
 3208TIP3    H2 9631   6.186   5.590   2.845  0.8824 -1.7558 -0.8343
 3209TIP3   OH2 9632   1.881   1.258   4.182 -0.4145  0.2404  0.1255
 3209TIP3    H1 9633   1.928   1.215   4.254 -0.0814  0.7227  0.1957
 3209TIP3    H2 9634   1.945   1.265   4.112 -0.4742  0.6113  0.1082
 3210TIP3   OH2 9635   1.153   4.792   4.317  0.0169  0.2247  0.3071
 3210TIP3    H1 9636   1.060   4.788   4.293  0.4902  1.4366 -2.0081
 3210TIP3    H2 9637   1.164   4.880   4.353  0.6262  0.8343 -1.3003
 3211TIP3   OH2 9638   4.644   3.747   3.193 -0.1866 -0.4587 -0.2581
 3211TIP3    H1 9639   4.575   3.760   3.258 -0.4141  1.6575 -0.8475
 3211TIP3    H2 9640   4.720   3.719   3.244 -0.0790  2.0373  1.1202
 3212TIP3   OH2 9641   5.605   0.572   4.377  0.4529  0.8510 -0.1845
 3212TIP3    H1 9642   5.651   0.570   4.294  1.0616  2.6127  0.0569
 3212TIP3    H2 9643   5.648   0.505   4.430 -0.4188 -0.7883 -1.4862
 3213TIP3   OH2 9644   6.164   2.744   4.401 -0.2897  0.1525  0.0980
 3213TIP3    H1 9645   6.144   2.835   4.420  1.4279  0.5861 -0.0156
 3213TIP3    H2 9646   6.210   2.745   4.318 -0.9700 -0.9239 -0.3206
 3214TIP3   OH2 9647   2.569   1.464   0.497 -0.3690  0.1883  0.1162
 3214TIP3    H1 9648   2.613   1.379   0.498  0.6136  0.6794 -0.1743
 3214TIP3    H2 9649   2.492   1.452   0.553 -0.2702 -0.8975  0.0423
 3215TIP3   OH2 9650   2.900   5.733   0.999  0.1710 -0.3247 -0.3239
 3215TIP3    H1 9651   2.936   5.808   1.048 -0.2425  0.5578 -1.3209
 3215TIP3    H2 9652   2.921   5.657   1.053  0.7341  0.4926  0.6567
 3216TIP3   OH2 9653   1.788   3.625   1.797  0.1302 -0.1285  0.7418
 3216TIP3    H1 9654   1.794   3.597   1.889  1.0301  0.1753  0.7848
 3216TIP3    H2 9655   1.704   3.670   1.792 -0.7216 -1.6126  0.9975
 3217TIP3   OH2 9656   3.017   4.596   5.080  0.2354 -0.4036  0.5597
 3217TIP3    H1 9657   3.039   4.549   5.160 -0.8708  1.0423  1.7604
 3217TIP3    H2 9658   2.938   4.552   5.048  0.9290 -1.2682 -0.0294
 3218TIP3   OH2 9659   1.071   1.525   2.598  0.1428  0.1326  0.0421
 3218TIP3    H1 9660   1.155   1.518   2.552  0.4067  0.1267  0.5184
 3218TIP3    H2 9661   1.091   1.576   2.677  0.3038 -2.1750  1.5992
 3219TIP3   OH2 9662   5.606   4.625   1.785 -0.1752 -0.3064  0.0441
 3219TIP3    H1 9663   5.533   4.686   1.770 -1.4181 -1.2570  1.8236
 3219TIP3    H2 9664   5.584   4.548   1.732 -0.7064 -0.7491  0.8851
 3220TIP3   OH2 9665   3.512   2.684   4.534  0.3275  1.0754  0.1032
 3220TIP3    H1 9666   3.603   2.677   4.505  0.4585  0.4437  0.6504
 3220TIP3    H2 9667   3.488   2.775   4.515  1.4941  1.6297  1.1890
 3221TIP3   OH2 9668   4.018   2.170   1.364 -0.1202 -0.1396  0.3085
 3221TIP3    H1 9669   4.039   2.203   1.276  2.4049  0.6972  1.1255
 3221TIP3    H2 9670   4.090   2.201   1.419 -1.1428 -1.4251  2.5116
 3222TIP3   OH2 9671   5.484   5.123   1.579  0.0894  0.0698  0.2299
 3222TIP3    H1 9672   5.457   5.068   1.505 -2.2505 -0.5959  1.4762
 3222TIP3    H2 9673   5.487   5.212   1.544 -1.5714 -0.1582 -0.5723
 3223TIP3   OH2 9674   1.869   0.633   3.647  0.5624  0.1509 -0.2154
 3223TIP3    H1 9675   1.875   0.546   3.607 -0.2496  0.2572 -0.5750
 3223TIP3    H2 9676   1.917   0.690   3.586 -1.3145  0.4531 -1.4992
 3224TIP3   OH2 9677   2.826   0.494   1.762 -0.5074  0.2178  0.2841
 3224TIP3    H1 9678   2.857   0.577   1.726 -1.7749  0.3196 -0.6372
 3224TIP3    H2 9679   2.803   0.514   1.853  0.0124  0.6469  0.3284
 3225TIP3   OH2 9680   0.106   5.171   2.938 -0.2044  0.3182  0.0986
 3225TIP3    H1 9681   0.139   5.226   3.009 -2.6084  2.0488 -0.0103
 3225TIP3    H2 9682   0.153   5.201   2.860 -1.5568  2.3928  0.0210
 3226TIP3   OH2 9683   4.313   5.770   4.835  0.8636  0.4149  0.6722
 3226TIP3    H1 9684   4.367   5.705   4.789 -0.9724 -2.5011  2.2712
 3226TIP3    H2 9685   4.266   5.816   4.765  2.7720  0.5907 -0.5580
 3227TIP3   OH2 9686   5.730   0.464   5.010  0.4596  0.1748 -0.1400
 3227TIP3    H1 9687   5.644   0.499   5.035  0.9985  0.0809  2.0832
 3227TIP3    H2 9688   5.790   0.537   5.022  0.8358 -0.0283 -0.7502
 3228TIP3   OH2 9689   3.566   3.940   5.155  0.7036 -0.5540  0.1368
 3228TIP3    H1 9690   3.565   3.853   5.116 -2.3656 -1.2690  1.5223
 3228TIP3    H2 9691   3.527   3.997   5.089 -1.2493 -1.1146  0.7323
 3229TIP3   OH2 9692   1.565   4.175   3.310  0.3185 -0.1881 -0.0307
 3229TIP3    H1 9693   1.571   4.106   3.376 -0.5111  0.9935  1.3585
 3229TIP3    H2 9694   1.494   4.232   3.341  0.4591  0.8713 -1.5216
 3230TIP3   OH2 9695   5.504   5.280   1.022 -0.0034 -0.3448 -0.3403
 3230TIP3    H1 9696   5.503   5.232   0.939  0.7379 -2.6704  0.9096
 3230TIP3    H2 9697   5.450   5.227   1.080  0.7233  0.4257  1.0768
 3231TIP3   OH2 9698   5.036   0.888   4.390 -0.4558  0.5349  0.6032
 3231TIP3    H1 9699   4.976   0.935   4.448 -0.9716  1.0116 -0.2837
 3231TIP3    H2 9700   5.070   0.956   4.332 -1.4151 -0.2003 -0.8814
 3232TIP3   OH2 9701   4.585   0.426   2.034  0.3343  0.1500 -0.3347
 3232TIP3    H1 9702   4.650   0.397   1.970  0.4981  1.3533 -0.7487
 3232TIP3    H2 9703   4.500   0.409   1.991  0.4435  0.9972 -0.9177
 3233TIP3   OH2 9704   2.401   3.252   0.452 -0.2431  0.2849 -0.1459
 3233TIP3    H1 9705   2.372   3.199   0.378 -0.6674  0.1264  0.1310
 3233TIP3    H2 9706   2.323   3.298   0.481 -0.0439  0.4743  0.0979
 3234TIP3   OH2 9707   2.705   3.158   3.043 -0.1565 -0.0602 -0.1719
 3234TIP3    H1 9708   2.779   3.187   2.989  1.1788  0.0201  1.6215
 3234TIP3    H2 9709   2.639   3.129   2.979  0.3662  2.2457 -1.9238
 3235TIP3   OH2 9710   0.504   0.012   3.032  0.4380  1.0918 -0.2506
 3235TIP3    H1 9711   0.428   0.070   3.030  0.1698  0.7339 -0.5084
 3235TIP3    H2 9712   0.478  -0.064   2.980  0.1451 -0.0342  1.4471
 3236TIP3   OH2 9713   1.334   1.532   3.125 -0.6590 -0.1401 -0.3394
 3236TIP3    H1 9714   1.422   1.569   3.132  0.7528 -3.2582  0.2675
 3236TIP3    H2 9715   1.283   1.579   3.191  1.3032 -0.0155  1.2107
 3237TIP3   OH2 9716   5.168   4.092   3.373  0.6328 -0.0888  0.3199
 3237TIP3    H1 9717   5.195   4.028   3.438  0.9099 -0.5400 -0.2304
 3237TIP3    H2 9718   5.247   4.143   3.354  0.8154 -0.6289 -0.4091
 3238TIP3   OH2 9719   2.119   3.503   3.713 -0.1460  0.3211  0.2810
 3238TIP3    H1 9720   2.087   3.593   3.712 -0.9296  0.0555  0.2202
 3238TIP3    H2 9721   2.039   3.450   3.714  0.3063 -0.3784 -0.2771
 3239TIP3   OH2 9722   3.757   6.022   0.747 -0.3919  0.7498  0.3197
 3239TIP3    H1 9723   3.671   5.992   0.777 -0.9405  1.7513 -0.2141
 3239TIP3    H2 9724   3.818   5.954   0.776 -1.5709 -0.8240 -0.7708
 3240TIP3   OH2 9725   5.791   0.743   3.941  0.1687 -0.2266 -0.2214
 3240TIP3    H1 9726   5.842   0.774   4.016 -1.0685 -1.4341  1.1808
 3240TIP3    H2 9727   5.789   0.817   3.881  0.2156  1.1915  1.4625
 3241TIP3   OH2 9728   3.577   5.612   0.907 -0.0411  0.5626  0.0103
 3241TIP3    H1 9729   3.602   5.704   0.919  0.3812  0.4378  0.0837
 3241TIP3    H2 9730   3.489   5.606   0.946  0.0062  0.8921  0.1727
 3242TIP3   OH2 9731   0.866   1.711   3.445  0.2753 -0.0360  0.2085
 3242TIP3    H1 9732   0.791   1.665   3.483  0.4825 -1.8513 -1.4084
 3242TIP3    H2 9733   0.934   1.643   3.438  1.5609  1.2127  0.2698
 3243TIP3   OH2 9734   1.794   5.915   0.144  0.0875 -0.5006  0.3362
 3243TIP3    H1 9735   1.860   5.862   0.190  0.2286  0.0217  0.7454
 3243TIP3    H2 9736   1.780   5.991   0.201 -1.4350 -0.9667  0.6340
 3244TIP3   OH2 9737   2.362   1.955   0.772 -0.1226  0.0502  0.1614
 3244TIP3    H1 9738   2.294   2.022   0.764 -0.4797 -0.3996 -0.5988
 3244TIP3    H2 9739   2.444   2.003   0.763 -0.3633  0.4634  0.1499
 3245TIP3   OH2 9740   3.279   0.113   4.169  0.0382  0.6934  0.0857
 3245TIP3    H1 9741   3.278   0.026   4.130 -0.9657  1.0463 -0.7307
 3245TIP3    H2 9742   3.338   0.164   4.113 -1.7133  1.3056 -1.2803
 3246TIP3   OH2 9743   4.845   2.000   0.970 -0.7550 -0.1077 -0.0890
 3246TIP3    H1 9744   4.865   1.939   0.899  0.5270  0.3208 -0.1134
 3246TIP3    H2 9745   4.795   1.948   1.033 -0.5267 -0.9209 -0.5698
 3247TIP3   OH2 9746   0.106   2.530   0.858 -0.4601 -0.1745 -0.0351
 3247TIP3    H1 9747   0.156   2.568   0.785  1.4469 -0.4068  1.0755
 3247TIP3    H2 9748   0.050   2.602   0.888 -0.4972  0.2397 -1.0494
 3248TIP3   OH2 9749   0.555   5.497   1.288 -0.0486  0.1129  0.3228
 3248TIP3    H1 9750   0.561   5.410   1.250  0.4384 -0.1010  0.8764
 3248TIP3    H2 9751   0.585   5.556   1.218 -2.8507  0.1307 -1.0085
 3249TIP3   OH2 9752   1.787   3.588   0.197 -0.4487  0.4741  0.9364
 3249TIP3    H1 9753   1.776   3.550   0.284 -3.3451 -0.1643  0.3908
 3249TIP3    H2 9754   1.765   3.517   0.137  2.4296  0.6091 -0.4563
 3250TIP3   OH2 9755   5.723   0.448   2.411  0.3473 -0.0277 -0.3598
 3250TIP3    H1 9756   5.788   0.492   2.355  0.5157  0.1093 -0.0620
 3250TIP3    H2 9757   5.776   0.399   2.475  0.2262  1.7971  1.2558
 3251TIP3   OH2 9758   4.576   2.200   3.734 -0.0387  0.1924  0.2699
 3251TIP3    H1 9759   4.561   2.203   3.639 -1.2897  0.7264  0.4651
 3251TIP3    H2 9760   4.523   2.271   3.769  2.0792  1.3876  1.2001
 3252TIP3   OH2 9761   6.306   1.730   0.530 -0.1430 -0.0692  0.2447
 3252TIP3    H1 9762   6.383   1.730   0.586  1.1673  0.2701 -1.4537
 3252TIP3    H2 9763   6.315   1.650   0.478 -0.1218  0.7147 -0.9966
 3253TIP3   OH2 9764   0.011   4.819   4.554 -0.1306  0.0803  0.0958
 3253TIP3    H1 9765   0.092   4.789   4.511  0.7444  0.8778  1.1235
 3253TIP3    H2 9766   0.037   4.832   4.646 -0.2980  4.2666 -0.2582
 3254TIP3   OH2 9767   3.630   4.913   2.145 -0.3711 -0.4449  0.0110
 3254TIP3    H1 9768   3.577   4.851   2.095 -0.9954 -0.1437  0.2902
 3254TIP3    H2 9769   3.589   4.917   2.231 -1.6388  1.8837 -0.6039
 3255TIP3   OH2 9770   1.437   0.832   4.719 -0.8522 -0.4734 -0.3380
 3255TIP3    H1 9771   1.447   0.765   4.651  0.3461 -0.2221 -0.4254
 3255TIP3    H2 9772   1.414   0.783   4.798 -0.7904 -0.9071 -0.5878
 3256TIP3   OH2 9773   5.088   4.595   4.206 -0.4477 -0.2469 -0.5618
 3256TIP3    H1 9774   5.062   4.549   4.126  0.5429  0.9958 -1.6393
 3256TIP3    H2 9775   5.155   4.657   4.178 -0.0745  0.2385  1.2439
 3257TIP3   OH2 9776   0.615   4.905   2.969 -0.5828 -0.3447 -0.1628
 3257TIP3    H1 9777   0.659   4.833   2.924 -2.3154 -0.2163 -2.2723
 3257TIP3    H2 9778   0.685   4.965   2.994  0.5963 -0.9201 -1.9002
 3258TIP3   OH2 9779   4.094   0.765   3.052  0.2910  0.5619  0.8030
 3258TIP3    H1 9780   4.142   0.682   3.050 -0.4055  0.1626 -1.0447
 3258TIP3    H2 9781   4.157   0.830   3.022 -0.2751  0.0175 -1.7464
 3259TIP3   OH2 9782   4.987   1.809   1.309 -0.4476  0.0825  0.1162
 3259TIP3    H1 9783   5.055   1.759   1.264 -1.7671  0.3738 -2.3430
 3259TIP3    H2 9784   4.917   1.819   1.245 -2.5085  0.5128  2.2759
 3260TIP3   OH2 9785   1.784   3.639   3.942 -0.1328  0.8301 -0.2827
 3260TIP3    H1 9786   1.754   3.730   3.934 -0.2358  0.8446  0.2744
 3260TIP3    H2 9787   1.747   3.595   3.865 -2.0387  0.7287  0.6396
 3261TIP3   OH2 9788   3.571   0.873   3.963 -0.4862  0.2699 -0.4105
 3261TIP3    H1 9789   3.628   0.802   3.995  0.3836  1.3312  0.4667
 3261TIP3    H2 9790   3.532   0.837   3.883  0.3096 -1.0200 -0.2648
 3262TIP3   OH2 9791   2.508   2.214   3.577  0.2750 -0.0125  0.2157
 3262TIP3    H1 9792   2.423   2.171   3.582 -0.2101  0.9123  0.1889
 3262TIP3    H2 9793   2.513   2.247   3.487 -0.5250  2.2396  0.9296
 3263TIP3   OH2 9794   1.913   0.929   4.921  0.5788 -0.2339 -0.0222
 3263TIP3    H1 9795   1.941   0.884   4.841 -1.0324  1.2078 -1.4646
 3263TIP3    H2 9796   1.927   1.022   4.902 -2.0907  0.3082  0.3937
 3264TIP3   OH2 9797   2.172   4.902   0.188 -0.3138 -0.3105 -0.8629
 3264TIP3    H1 9798   2.121   4.957   0.129 -0.0291  1.0610  0.1335
 3264TIP3    H2 9799   2.208   4.962   0.253  0.2618 -1.6345  0.0986
 3265TIP3   OH2 9800   3.517   5.303   0.399  0.0164 -0.3293  0.1465
 3265TIP3    H1 9801   3.513   5.376   0.461 -1.2871 -1.2309  1.1634
 3265TIP3    H2 9802   3.480   5.229   0.446  1.6758 -1.7856 -0.7190
 3266TIP3   OH2 9803   5.649   4.023   2.063  0.2135 -0.9010  0.1083
 3266TIP3    H1 9804   5.570   4.070   2.036  0.1771 -1.1852 -0.2837
 3266TIP3    H2 9805   5.626   3.931   2.052  0.0731 -1.0411  1.4315
 3267TIP3   OH2 9806   6.014   3.954   2.345 -0.8523  0.1474 -0.0981
 3267TIP3    H1 9807   6.004   4.007   2.424  0.8931  1.1485 -0.5014
 3267TIP3    H2 9808   5.988   4.011   2.273  1.1606  0.5886 -0.5458
 3268TIP3   OH2 9809   6.061   5.544   5.135 -0.3393  0.7674 -0.0731
 3268TIP3    H1 9810   6.116   5.494   5.194  1.0342  0.4506 -1.5638
 3268TIP3    H2 9811   5.978   5.497   5.134  0.7888 -1.3190 -1.1388
 3269TIP3   OH2 9812   1.438   3.586   2.504  0.2419 -0.0969 -0.0220
 3269TIP3    H1 9813   1.448   3.623   2.416 -0.1407  1.1595  0.4338
 3269TIP3    H2 9814   1.507   3.628   2.556  0.2561 -0.5717  0.3520
 3270TIP3   OH2 9815   4.331   0.392   2.203  0.1767  0.1702  0.3055
 3270TIP3    H1 9816   4.320   0.393   2.298  1.1091  0.7250  0.4200
 3270TIP3    H2 9817   4.343   0.484   2.179  0.0401  0.0250 -0.3389
 3271TIP3   OH2 9818   6.194   2.094   3.584 -0.0548  0.2178 -0.1483
 3271TIP3    H1 9819   6.108   2.082   3.544 -0.1946 -1.0576  0.4760
 3271TIP3    H2 9820   6.176   2.131   3.671  0.0446  0.2109 -0.1243
 3272TIP3   OH2 9821   5.618   0.111   3.344 -0.3605 -0.1087 -0.1875
 3272TIP3    H1 9822   5.593   0.201   3.365  0.7280  0.4728 -1.2436
 3272TIP3    H2 9823   5.631   0.111   3.249  4.3130 -0.0601  0.2128
 3273TIP3   OH2 9824   1.408   1.086   0.710  0.8633  0.4524 -0.2803
 3273TIP3    H1 9825   1.336   1.050   0.760  0.1817  0.5200 -1.1948
 3273TIP3    H2 9826   1.372   1.164   0.668  1.3716  0.3067 -1.0076
 3274TIP3   OH2 9827   3.563   2.028   2.891  0.0827 -0.0910 -0.0245
 3274TIP3    H1 9828   3.621   2.103   2.875  1.3570 -1.0963 -0.2401
 3274TIP3    H2 9829   3.486   2.066   2.935  0.8302  1.2952  0.1316
 3275TIP3   OH2 9830   4.778   1.526   2.431 -0.4570 -0.6431  0.2920
 3275TIP3    H1 9831   4.858   1.555   2.386 -0.3354  1.8178  1.8984
 3275TIP3    H2 9832   4.718   1.601   2.423 -2.8487 -2.5634 -1.2236
 3276TIP3   OH2 9833   5.650   1.701   1.831  0.0245 -0.5805  0.0826
 3276TIP3    H1 9834   5.585   1.657   1.886  0.2059 -1.8621 -0.6815
 3276TIP3    H2 9835   5.597   1.744   1.763 -0.0851 -0.7247  0.0750
 3277TIP3   OH2 9836   4.667   5.816   3.558  0.1573  0.1848 -1.4895
 3277TIP3    H1 9837   4.598   5.766   3.601 -0.0960  3.8569  3.1039
 3277TIP3    H2 9838   4.629   5.842   3.474 -2.8797 -0.4131 -0.4245
 3278TIP3   OH2 9839   2.786   0.910   2.233  0.6166 -0.6690  0.6442
 3278TIP3    H1 9840   2.862   0.896   2.177 -0.4419 -1.5620 -0.6297
 3278TIP3    H2 9841   2.750   0.822   2.247 -1.2834 -0.1114 -0.4092
 3279TIP3   OH2 9842   5.495   3.776   2.233  0.0316 -0.2836 -0.4748
 3279TIP3    H1 9843   5.584   3.748   2.212  0.2388 -0.3035  0.3554
 3279TIP3    H2 9844   5.481   3.743   2.322  1.1673  4.1184  1.5917
 3280TIP3   OH2 9845   0.264   1.953   0.533 -0.2918  0.1801  0.2358
 3280TIP3    H1 9846   0.325   2.019   0.565  0.4855  0.8894 -2.3990
 3280TIP3    H2 9847   0.308   1.870   0.551 -0.1721  0.4810  1.4301
 3281TIP3   OH2 9848   2.054   1.746   2.279  0.4894 -0.6101 -0.8364
 3281TIP3    H1 9849   2.082   1.698   2.357  0.8475  1.4947  0.4181
 3281TIP3    H2 9850   1.996   1.685   2.232  0.8758 -2.2061  0.6667
 3282TIP3   OH2 9851   4.313   0.992   3.225  0.2128 -0.7067  0.0007
 3282TIP3    H1 9852   4.377   1.056   3.255  0.2577 -0.8636  0.2426
 3282TIP3    H2 9853   4.231   1.018   3.266 -0.4933  1.0148 -2.2995
 3283TIP3   OH2 9854   4.104   2.955   2.532 -0.2484 -0.7808  0.3456
 3283TIP3    H1 9855   4.090   2.862   2.516 -1.2170 -0.7332  0.8233
 3283TIP3    H2 9856   4.151   2.986   2.455 -0.8998 -1.4452 -0.3422
 3284TIP3   OH2 9857   0.652   5.082   4.569 -0.1249  0.3858 -0.1768
 3284TIP3    H1 9858   0.666   5.050   4.480 -0.4797  0.4904 -0.2698
 3284TIP3    H2 9859   0.652   5.003   4.624 -2.0174  0.0936 -0.5223
 3285TIP3   OH2 9860   3.946   3.039   3.728 -0.1170  0.3574 -0.9062
 3285TIP3    H1 9861   4.036   3.070   3.723 -0.1412  0.6962  0.4046
 3285TIP3    H2 9862   3.907   3.088   3.801 -0.8049 -1.1388 -0.2249
 3286TIP3   OH2 9863   4.910   0.082   3.608 -0.2424  0.7505  0.6490
 3286TIP3    H1 9864   4.927  -0.012   3.601 -3.0619  0.2772 -1.1866
 3286TIP3    H2 9865   4.875   0.092   3.697 -1.0366 -0.1479  0.4526
 3287TIP3   OH2 9866   2.969   5.057   2.217 -0.6003 -0.2242  0.2636
 3287TIP3    H1 9867   3.002   5.046   2.128 -0.6159  0.2966  0.1899
 3287TIP3    H2 9868   3.044   5.090   2.267 -0.5051 -0.8229  0.5150
 3288TIP3   OH2 9869   3.451   3.900   1.351 -0.2227 -0.4072 -0.3274
 3288TIP3    H1 9870   3.361   3.932   1.340 -0.5275 -0.7668  1.0378
 3288TIP3    H2 9871   3.473   3.863   1.265 -0.8642  0.8997 -1.1066
 3289TIP3   OH2 9872   1.234   4.590   2.393 -0.0490  0.4694  0.2759
 3289TIP3    H1 9873   1.245   4.684   2.379  0.4248  0.2839 -0.6717
 3289TIP3    H2 9874   1.222   4.582   2.487  1.0605  1.3786  0.5297
 3290TIP3   OH2 9875   0.993   5.917   4.366  0.4703  0.3805 -0.0265
 3290TIP3    H1 9876   1.034   5.864   4.298 -0.2853 -0.8817  0.4832
 3290TIP3    H2 9877   0.904   5.934   4.333  0.1769 -0.0417  0.5368
 3291TIP3   OH2 9878   2.681   3.716   0.419 -0.5163  0.0251 -0.1095
 3291TIP3    H1 9879   2.604   3.757   0.379  0.4657  1.5048 -0.5831
 3291TIP3    H2 9880   2.754   3.773   0.393  0.6708 -1.0716  0.7204
 3292TIP3   OH2 9881   1.262   2.206   0.853 -0.0303 -0.6931  0.0228
 3292TIP3    H1 9882   1.250   2.156   0.772 -0.4011  0.3096 -0.5692
 3292TIP3    H2 9883   1.352   2.187   0.880  0.4821 -0.1781 -1.2437
 3293TIP3   OH2 9884   1.055   0.300   4.036  0.2012  0.5216  0.3956
 3293TIP3    H1 9885   1.071   0.281   3.944  1.7015 -1.9996  1.0628
 3293TIP3    H2 9886   1.012   0.221   4.069 -0.3318  1.3841  1.8536
 3294TIP3   OH2 9887   5.607   4.323   2.591 -0.1347  0.4159  0.3528
 3294TIP3    H1 9888   5.557   4.244   2.569 -1.6196  2.0259 -2.5955
 3294TIP3    H2 9889   5.698   4.295   2.585 -0.6107 -1.0140 -1.0343
 3295TIP3   OH2 9890   0.804   5.325   1.961 -0.0719 -0.1811 -0.2850
 3295TIP3    H1 9891   0.798   5.234   1.988  0.8599 -0.0383  0.4841
 3295TIP3    H2 9892   0.796   5.375   2.042  0.2200  0.3809 -0.5951
 3296TIP3   OH2 9893   5.286   4.385   2.582  0.2263 -0.2805 -0.2221
 3296TIP3    H1 9894   5.330   4.304   2.558 -0.5475 -0.9187  0.4595
 3296TIP3    H2 9895   5.351   4.453   2.566  1.0028 -1.0658 -0.4896
 3297TIP3   OH2 9896   6.347   3.501   3.130 -0.3523  0.6519  0.7316
 3297TIP3    H1 9897   6.318   3.570   3.190 -1.2013  1.7492 -0.8573
 3297TIP3    H2 9898   6.315   3.529   3.044  1.1440 -0.6584 -0.3148
 3298TIP3   OH2 9899   2.014   3.235   3.878 -0.3178 -0.3843  0.1169
 3298TIP3    H1 9900   1.954   3.278   3.817  0.4429  0.1070 -0.2909
 3298TIP3    H2 9901   1.966   3.156   3.906 -0.8628 -0.3796 -0.7524
 3299TIP3   OH2 9902   0.304   0.986   1.545  0.4527  0.0237 -0.4743
 3299TIP3    H1 9903   0.389   0.995   1.502 -0.2806 -0.9919 -2.2675
 3299TIP3    H2 9904   0.243   1.033   1.487 -0.2188  0.7946  0.8136
 3300TIP3   OH2 9905   5.781   3.162   4.242 -0.0078  0.1212  0.2458
 3300TIP3    H1 9906   5.784   3.239   4.298 -2.2353  0.2853  0.2323
 3300TIP3    H2 9907   5.787   3.196   4.153  0.2182  0.1735  0.2822
 3301TIP3   OH2 9908   4.296   2.472   3.360  0.0095 -0.3503 -0.1690
 3301TIP3    H1 9909   4.219   2.418   3.344 -1.9385  2.2491 -0.3181
 3301TIP3    H2 9910   4.362   2.440   3.298 -1.6995 -1.3101 -1.5666
 3302TIP3   OH2 9911   0.670   3.644   0.566 -0.5154 -0.0451 -0.1751
 3302TIP3    H1 9912   0.740   3.680   0.621  0.7220 -2.0317 -0.3792
 3302TIP3    H2 9913   0.694   3.671   0.477  0.4656 -1.3923 -0.3402
 3303TIP3   OH2 9914   4.744   1.012   0.538  0.2807 -0.1153 -0.1291
 3303TIP3    H1 9915   4.672   1.074   0.526 -1.0282 -1.4709  0.4853
 3303TIP3    H2 9916   4.823   1.067   0.538 -0.8355  1.5728  0.5862
 3304TIP3   OH2 9917   2.466   5.978   1.225 -0.0394  0.6044  0.0553
 3304TIP3    H1 9918   2.508   5.956   1.141  1.2267 -1.3680  1.1335
 3304TIP3    H2 9919   2.466   5.896   1.274 -1.0621  1.6362  1.8823
 3305TIP3   OH2 9920   4.300   0.591   4.545 -0.0691 -0.3312 -0.0657
 3305TIP3    H1 9921   4.316   0.685   4.553 -0.2108 -0.3134  0.0202
 3305TIP3    H2 9922   4.382   0.550   4.571  0.0776 -0.2251 -0.3512
 3306TIP3   OH2 9923   5.512   1.695   0.810 -0.5466  0.5232 -0.3532
 3306TIP3    H1 9924   5.514   1.747   0.730 -0.7899 -0.2095 -0.8532
 3306TIP3    H2 9925   5.450   1.740   0.867 -0.9524  0.6423 -0.8804
 3307TIP3   OH2 9926   3.481   1.073   1.396 -0.0784 -0.1215 -0.4136
 3307TIP3    H1 9927   3.465   1.125   1.475 -2.0766 -1.4424  0.1250
 3307TIP3    H2 9928   3.478   0.982   1.425 -0.7546 -0.6428 -1.9936
 3308TIP3   OH2 9929   0.075   3.764   3.020  0.8391  0.5588 -0.3412
 3308TIP3    H1 9930   0.166   3.737   3.015  0.6070 -0.0762 -1.5423
 3308TIP3    H2 9931   0.075   3.838   3.081  1.6564 -1.4786  2.3386
 3309TIP3   OH2 9932   4.844   3.731   5.043 -0.1830  0.1411 -0.0219
 3309TIP3    H1 9933   4.794   3.657   5.077  3.1868 -2.2904  0.1010
 3309TIP3    H2 9934   4.816   3.805   5.097 -2.3730 -1.3623  1.0760
 3310TIP3   OH2 9935   0.311   4.912   4.415  0.6807 -0.0762 -0.0300
 3310TIP3    H1 9936   0.299   4.985   4.475 -2.9166  0.7599 -1.5435
 3310TIP3    H2 9937   0.297   4.948   4.328 -0.9697 -2.4336 -0.8627
 3311TIP3   OH2 9938   1.737   2.529   4.690 -0.1435  0.0550 -0.2647
 3311TIP3    H1 9939   1.818   2.500   4.649  0.9855  1.3703  0.9366
 3311TIP3    H2 9940   1.698   2.589   4.627 -0.2239 -0.6265 -0.8720
 3312TIP3   OH2 9941   2.883   5.506   1.133  0.1081 -0.2267  0.3152
 3312TIP3    H1 9942   2.821   5.449   1.088 -1.2449  0.7205  0.9058
 3312TIP3    H2 9943   2.853   5.509   1.224  1.9706 -0.9946  1.0198
 3313TIP3   OH2 9944   6.296   2.833   1.599  0.3260 -0.3569 -0.3121
 3313TIP3    H1 9945   6.206   2.842   1.569  0.2732 -0.1333 -0.0844
 3313TIP3    H2 9946   6.314   2.739   1.594 -0.9481 -0.8617  2.5621
 3314TIP3   OH2 9947   4.192   4.036   2.077 -0.3853  0.5278  0.2921
 3314TIP3    H1 9948   4.163   4.127   2.089 -2.0948  0.0171  0.2448
 3314TIP3    H2 9949   4.112   3.988   2.056  0.4021 -1.1017  0.8926
 3315TIP3   OH2 9950   3.535   4.476   4.656 -0.0152  0.3475 -0.5622
 3315TIP3    H1 9951   3.530   4.484   4.560  0.2289  1.8287 -0.4781
 3315TIP3    H2 9952   3.445   4.470   4.685 -0.0504 -1.6679 -0.9702
 3316TIP3   OH2 9953   4.094   5.287   0.022  0.2807  0.4637 -0.4044
 3316TIP3    H1 9954   4.020   5.307   0.080  0.0127 -0.6954 -0.3125
 3316TIP3    H2 9955   4.168   5.275   0.081 -0.0323 -0.9070 -0.2353
 3317TIP3   OH2 9956   2.920   5.952   4.750 -0.0768  0.6557 -0.3036
 3317TIP3    H1 9957   2.842   5.932   4.801 -0.7886  1.6699 -0.9744
 3317TIP3    H2 9958   2.983   5.883   4.775 -1.6129 -0.9966 -0.7709
 3318TIP3   OH2 9959   3.624   2.643   1.021  0.5688 -0.1794 -0.2551
 3318TIP3    H1 9960   3.663   2.559   0.998  1.5240  0.1950 -0.0733
 3318TIP3    H2 9961   3.600   2.682   0.937  0.9993 -0.2298 -0.4046
 3319TIP3   OH2 9962   1.402   5.056   3.687  0.4162 -0.2465  0.4544
 3319TIP3    H1 9963   1.339   5.091   3.624  0.4348  0.4133  0.7875
 3319TIP3    H2 9964   1.445   4.984   3.642 -0.1517 -0.3077  0.0068
 3320TIP3   OH2 9965   1.055   1.909   4.888  0.2493  0.1443 -0.7457
 3320TIP3    H1 9966   1.003   1.851   4.944 -0.2750  0.4572 -0.8993
 3320TIP3    H2 9967   1.113   1.955   4.949 -0.4978  0.6697 -0.4104
 3321TIP3   OH2 9968  -0.003   2.543   1.764  0.2049  0.0723  0.3561
 3321TIP3    H1 9969  -0.041   2.455   1.767  1.2653 -0.3957  0.5353
 3321TIP3    H2 9970   0.092   2.528   1.760  0.3523  1.1068 -2.9205
 3322TIP3   OH2 9971   1.432   5.699   4.132  1.2322  0.4107 -0.2339
 3322TIP3    H1 9972   1.339   5.698   4.153  1.5158  2.5252  1.3645
 3322TIP3    H2 9973   1.442   5.628   4.068 -1.4161  0.0173 -0.3348
 3323TIP3   OH2 9974   4.454   3.351   4.868  0.6114 -0.4987 -0.0087
 3323TIP3    H1 9975   4.523   3.333   4.804  0.7212 -0.4072  0.0837
 3323TIP3    H2 9976   4.454   3.274   4.925  0.4694 -0.6103 -0.1555
 3324TIP3   OH2 9977   5.132   0.378   0.492 -0.0009 -0.5080  0.3084
 3324TIP3    H1 9978   5.134   0.442   0.421 -1.4005  0.1138  0.7887
 3324TIP3    H2 9979   5.067   0.413   0.554  0.7139 -1.3609  1.5774
 3325TIP3   OH2 9980   1.195   3.195   2.689  0.1303 -0.1897  0.4498
 3325TIP3    H1 9981   1.214   3.280   2.729  0.4230 -0.4833  0.9381
 3325TIP3    H2 9982   1.229   3.131   2.751  1.2364 -0.6394 -0.5725
 3326TIP3   OH2 9983   4.616   3.751   1.011 -0.2858  0.5525 -0.2112
 3326TIP3    H1 9984   4.616   3.770   1.105  0.9286 -1.8474  0.3675
 3326TIP3    H2 9985   4.550   3.683   1.001  0.0092  0.3734 -0.9882
 3327TIP3   OH2 9986   2.053   2.015   2.679  0.3702  0.4415  0.0816
 3327TIP3    H1 9987   2.010   2.019   2.765  0.2344 -0.0191  0.0425
 3327TIP3    H2 9988   2.023   2.093   2.633  0.8936  0.9956  0.6550
 3328TIP3   OH2 9989   6.110   4.689   4.533 -0.3305 -0.4386  0.0728
 3328TIP3    H1 9990   6.067   4.685   4.618 -2.0767 -0.6000 -0.7874
 3328TIP3    H2 9991   6.174   4.759   4.543  0.7641 -1.6113  2.0406
 3329TIP3   OH2 9992   1.706   3.981   2.747  0.6500  0.0521  0.1537
 3329TIP3    H1 9993   1.793   4.002   2.780  1.4893 -1.8323 -0.7157
 3329TIP3    H2 9994   1.650   4.051   2.781  2.3733  0.9757  1.2388
 3330TIP3   OH2 9995   1.985   1.188   4.878  0.3565 -0.4101 -0.1586
 3330TIP3    H1 9996   1.973   1.252   4.948 -2.8755  0.0180 -0.9245
 3330TIP3    H2 9997   2.072   1.206   4.844 -0.9774  5.2171 -1.7419
 3331TIP3   OH2 9998   5.104   5.926   3.663  0.8486 -0.4303 -0.0523
 3331TIP3    H1 9999   5.039   5.987   3.699  1.7480  0.5606 -0.0654
 3331TIP3    H210000   5.091   5.931   3.568  2.5338  1.6973 -0.2624
 3332TIP3   OH210001   1.011   0.670   5.143 -0.7706  0.2497 -0.2004
 3332TIP3    H110002   0.967   0.753   5.161 -0.6606 -0.1665  2.2732
 3332TIP3    H210003   1.101   0.695   5.121 -1.1323  0.8567 -1.0429
 3333TIP3   OH210004   3.489   1.158   1.648  0.2208  0.6458 -0.5549
 3333TIP3    H110005   3.525   1.075   1.677 -0.4205  0.3386 -0.6132
 3333TIP3    H210006   3.499   1.217   1.723  1.2431  0.7069 -0.7213
 3334TIP3   OH210007   4.791   2.406   1.131  0.8487  0.4006  0.3909
 3334TIP3    H110008   4.882   2.430   1.114  1.0684 -0.4698  0.2817
 3334TIP3    H210009   4.784   2.407   1.227  0.5796  1.8132  0.3852
 3335TIP3   OH210010   4.069   3.487   5.109  0.9901 -0.0168 -0.9018
 3335TIP3    H110011   4.118   3.557   5.151  4.0966 -2.3175 -0.3769
 3335TIP3    H210012   4.073   3.508   5.016 -0.9124  2.0438 -0.6240
 3336TIP3   OH210013   1.381   5.832   4.846  0.3440 -0.5327 -0.6001
 3336TIP3    H110014   1.346   5.799   4.763 -0.9667  0.6591 -0.5752
 3336TIP3    H210015   1.414   5.919   4.825  2.7071 -1.3396 -0.4419
 3337TIP3   OH210016   0.931   2.950   3.025 -0.4227 -0.0670 -0.1149
 3337TIP3    H110017   0.871   3.008   3.072 -0.1245  0.1186  0.0355
 3337TIP3    H210018   0.874   2.897   2.970 -0.6892  0.4363 -0.3310
 3338TIP3   OH210019   5.096   1.736   2.360 -0.3499 -0.1852 -0.6764
 3338TIP3    H110020   5.165   1.685   2.405  0.0601  0.7659 -0.2025
 3338TIP3    H210021   5.139   1.817   2.335 -1.7653  1.3049  1.4082
 3339TIP3   OH210022   0.640   0.579   3.296  0.2234 -0.1293 -0.2266
 3339TIP3    H110023   0.606   0.659   3.257  1.0376 -0.1806 -1.0631
 3339TIP3    H210024   0.562   0.528   3.317 -0.2626  0.3468 -0.8319
 3340TIP3   OH210025   1.593   0.934   3.941 -0.3482  0.1760  0.1467
 3340TIP3    H110026   1.669   0.875   3.942 -1.2790 -1.0738  0.0916
 3340TIP3    H210027   1.600   0.984   4.022 -0.7512 -1.6614  1.3837
 3341TIP3   OH210028   2.922   1.506   1.198 -0.0682 -0.2865 -0.4990
 3341TIP3    H110029   2.864   1.440   1.236  0.3794 -1.1744 -1.3281
 3341TIP3    H210030   3.010   1.476   1.221  0.2041 -0.7422 -2.0278
 3342TIP3   OH210031   1.606   4.586   3.901 -0.0763  0.0045  0.1956
 3342TIP3    H110032   1.529   4.640   3.920  0.7066  2.2361 -2.4086
 3342TIP3    H210033   1.677   4.628   3.950  0.0726 -0.1569  0.1175
 3343TIP3   OH210034   4.930   1.623   4.804  0.6625  0.1835  0.1710
 3343TIP3    H110035   4.879   1.704   4.799  0.0767 -0.1825  0.1426
 3343TIP3    H210036   5.016   1.646   4.769  1.1375  1.2904  1.9163
 3344TIP3   OH210037   6.361   1.508   0.352  0.2501  0.2608 -0.1012
 3344TIP3    H110038   6.272   1.474   0.357  0.0235  0.9954  1.2190
 3344TIP3    H210039   6.369   1.540   0.262 -1.0441  0.7434 -0.0685
 3345TIP3   OH210040   1.887   5.160   1.379 -0.3439  0.0944 -0.4746
 3345TIP3    H110041   1.901   5.097   1.309 -0.6019 -0.5320  0.0294
 3345TIP3    H210042   1.818   5.217   1.347  0.6338  0.8228 -1.3874
 3346TIP3   OH210043   1.168   4.540   4.271 -0.3520 -0.1867 -0.9621
 3346TIP3    H110044   1.260   4.516   4.263 -0.5852 -0.8862 -1.6571
 3346TIP3    H210045   1.169   4.634   4.289  0.4570  0.3267 -3.3789
 3347TIP3   OH210046   2.337   2.014   2.324  0.4975  0.2021  0.3784
 3347TIP3    H110047   2.253   2.023   2.280  1.2033  1.0171 -0.8649
 3347TIP3    H210048   2.397   1.982   2.256  1.5842  1.3667  0.7309
 3348TIP3   OH210049   6.310   5.794   3.643 -0.0547  0.2897  0.0452
 3348TIP3    H110050   6.359   5.713   3.651 -0.7021 -0.2577 -1.2635
 3348TIP3    H210051   6.309   5.813   3.549 -0.0625  1.7328  0.3036
 3349TIP3   OH210052   3.351   5.445   0.842  0.4980 -0.2346 -0.1578
 3349TIP3    H110053   3.435   5.425   0.801  0.6177  0.4448 -0.2558
 3349TIP3    H210054   3.288   5.439   0.771  0.2549 -2.0028  0.1574
 3350TIP3   OH210055   2.118   2.243   3.713 -0.0666 -0.2419 -0.2591
 3350TIP3    H110056   2.189   2.212   3.657  1.9272  1.0201  1.4132
 3350TIP3    H210057   2.095   2.329   3.678  0.3272  0.0165  0.1062
 3351TIP3   OH210058   4.158   3.528   0.830 -0.6529 -0.5207  0.6620
 3351TIP3    H110059   4.196   3.538   0.918  0.9431  0.2630 -0.0642
 3351TIP3    H210060   4.214   3.464   0.787 -0.6627  0.0064 -0.1639
 3352TIP3   OH210061   0.855   0.414   3.328 -0.4676 -0.0338  0.6316
 3352TIP3    H110062   0.777   0.467   3.311 -1.4520 -1.4490  0.5372
 3352TIP3    H210063   0.928   0.476   3.326 -1.6890  1.5224  1.8566
 3353TIP3   OH210064   1.989   2.900   0.092 -0.2645  0.5974  0.0440
 3353TIP3    H110065   1.976   2.928   0.002  1.2101 -2.1537 -1.1639
 3353TIP3    H210066   2.067   2.948   0.121  0.8611 -0.4261 -1.1532
 3354TIP3   OH210067   2.888   3.272   5.113  0.9529 -0.1767  0.3707
 3354TIP3    H110068   2.892   3.293   5.019  1.3921 -0.1954  0.3825
 3354TIP3    H210069   2.907   3.178   5.117  0.1977 -0.3376  0.4214
 3355TIP3   OH210070   1.947   2.039   1.853  0.5829 -0.1733  0.0430
 3355TIP3    H110071   1.886   2.098   1.808  1.4057  1.3899  0.8912
 3355TIP3    H210072   1.950   1.961   1.798 -0.5732  0.5608 -1.1116
 3356TIP3   OH210073   3.319   5.036   1.535  0.2590 -0.3125 -0.0811
 3356TIP3    H110074   3.238   5.013   1.579 -0.4631  2.1752  0.0167
 3356TIP3    H210075   3.333   4.964   1.473 -0.6737 -2.0045  1.5383
 3357TIP3   OH210076   2.552   0.609   1.003 -0.1021 -0.1069  0.8820
 3357TIP3    H110077   2.641   0.579   0.988  0.1234  0.6946  0.5933
 3357TIP3    H210078   2.524   0.562   1.082  1.1303  0.7924  1.9078
 3358TIP3   OH210079   1.052   1.788   1.154 -0.1897 -0.3522  0.3063
 3358TIP3    H110080   0.993   1.715   1.136 -0.5635  0.6279 -3.4010
 3358TIP3    H210081   1.140   1.751   1.143 -0.3507 -0.5067 -0.5546
 3359TIP3   OH210082   3.514   0.064   0.651  0.0084  0.0985 -0.1590
 3359TIP3    H110083   3.418   0.056   0.657 -0.2902  0.9665 -2.6160
 3359TIP3    H210084   3.534   0.042   0.561  2.1067  0.3155  0.2119
 3360TIP3   OH210085   1.212   5.382   1.662 -0.0498  0.0803 -0.1432
 3360TIP3    H110086   1.197   5.329   1.740  1.0999 -1.2295 -0.7623
 3360TIP3    H210087   1.229   5.470   1.695 -0.0632 -0.3450  1.0501
 3361TIP3   OH210088   4.662   3.711   2.648  0.5545 -0.1744  0.3173
 3361TIP3    H110089   4.648   3.693   2.555 -0.8839 -1.3335  0.7209
 3361TIP3    H210090   4.619   3.794   2.663 -0.7402 -0.8101  0.2761
 3362TIP3   OH210091   2.115   2.761   3.945  0.1191  0.3237 -0.3301
 3362TIP3    H110092   2.154   2.842   3.913 -0.5157  1.5780  1.8343
 3362TIP3    H210093   2.121   2.700   3.871  0.2555  2.4438 -2.1773
 3363TIP3   OH210094   2.973   1.323   3.742  0.0832 -0.1029 -0.0438
 3363TIP3    H110095   2.985   1.378   3.820  0.3097  1.2058 -0.9636
 3363TIP3    H210096   3.007   1.237   3.767  0.5498  0.4129  1.1598
 3364TIP3   OH210097   0.705   0.820   1.858  1.2559 -0.0319 -0.3198
 3364TIP3    H110098   0.733   0.871   1.782 -1.8185  1.0050 -0.9223
 3364TIP3    H210099   0.620   0.783   1.831 -0.4920  1.2768  2.8984
 3365TIP3   OH210100   0.144   5.292   5.147  0.2690 -0.0468 -0.1039
 3365TIP3    H110101   0.118   5.380   5.175 -1.3645 -0.5900  0.2115
 3365TIP3    H210102   0.192   5.257   5.222 -0.8801 -0.1531  0.6085
 3366TIP3   OH210103   5.843   0.859   0.950  0.7891  0.2610  0.5412
 3366TIP3    H110104   5.789   0.886   0.875  1.4473  1.8839  0.6002
 3366TIP3    H210105   5.841   0.764   0.948  0.0064  0.2729 -0.9742
 3367TIP3   OH210106   3.936   4.084   5.074 -0.1524  0.0724  0.0101
 3367TIP3    H110107   3.902   4.085   4.985  0.9805 -0.2507 -0.4337
 3367TIP3    H210108   4.007   4.148   5.074 -2.1267  2.4242  1.5124
 3368TIP3   OH210109   1.879   1.536   4.187 -0.0175 -0.2687 -0.2749
 3368TIP3    H110110   1.857   1.443   4.189  0.1212 -0.3245 -0.9888
 3368TIP3    H210111   1.974   1.539   4.173 -0.1851 -0.0411 -1.5545
 3369TIP3   OH210112   1.633   5.774   3.623  0.4391 -0.5266 -0.1044
 3369TIP3    H110113   1.611   5.711   3.692  1.5939 -0.5488  0.2577
 3369TIP3    H210114   1.548   5.801   3.588 -0.1459 -0.9542  0.9298
 3370TIP3   OH210115   0.959   5.163   3.403 -0.3138  0.1266  0.0897
 3370TIP3    H110116   1.018   5.130   3.336 -1.0930  1.9975 -1.6294
 3370TIP3    H210117   1.015   5.181   3.478  0.5288 -2.3084  0.1189
 3371TIP3   OH210118   0.724   5.679   1.168 -0.4828  0.9664  0.1375
 3371TIP3    H110119   0.794   5.622   1.199 -0.7554  1.0960  1.0447
 3371TIP3    H210120   0.768   5.743   1.112 -0.1421  0.0271 -0.7050
 3372TIP3   OH210121   0.196   2.669   4.649 -0.3465  0.6953 -0.3854
 3372TIP3    H110122   0.151   2.598   4.694  0.0373 -0.7877 -2.2341
 3372TIP3    H210123   0.147   2.681   4.567  1.3913  0.4256 -1.5035
 3373TIP3   OH210124   5.819   1.379   2.724 -0.0428  0.4069  0.5759
 3373TIP3    H110125   5.798   1.345   2.811 -2.4315 -0.4324 -0.2545
 3373TIP3    H210126   5.807   1.473   2.731  0.6345  0.4434  1.3631
 3374TIP3   OH210127   2.932   2.791   0.555 -0.8673  1.0020  0.3986
 3374TIP3    H110128   2.950   2.872   0.602  0.8879  1.3876 -0.8487
 3374TIP3    H210129   2.985   2.796   0.476  1.9444 -2.7802  1.7508
 3375TIP3   OH210130   5.070   0.542   4.527 -0.1701  0.7543 -0.0862
 3375TIP3    H110131   5.092   0.465   4.474  0.2784  0.4738  0.4971
 3375TIP3    H210132   5.115   0.615   4.484 -0.7380  0.7266 -0.7397
 3376TIP3   OH210133   5.585   1.087   1.826 -0.0907  0.1523  0.5924
 3376TIP3    H110134   5.532   1.021   1.782 -1.2278  0.1945  1.8534
 3376TIP3    H210135   5.659   1.102   1.766 -0.6475 -1.0770 -0.4460
 3377TIP3   OH210136   1.644   5.106   1.218 -0.3453  0.1805 -0.2082
 3377TIP3    H110137   1.634   5.085   1.311 -0.0178 -0.0224 -0.2146
 3377TIP3    H210138   1.555   5.115   1.185 -0.4818  2.5431  0.6241
 3378TIP3   OH210139   2.207   2.621   0.532 -0.3772  0.3237  0.4482
 3378TIP3    H110140   2.230   2.541   0.485  1.2097  1.2875 -0.5225
 3378TIP3    H210141   2.168   2.678   0.465  0.3372  1.0781  0.6476
 3379TIP3   OH210142   5.742   5.663   3.400  0.0959 -0.3903  0.0394
 3379TIP3    H110143   5.823   5.676   3.352 -0.0788 -0.9216 -0.4042
 3379TIP3    H210144   5.747   5.725   3.473  0.1247  0.7943 -0.9492
 3380TIP3   OH210145   2.739   0.267   0.520  0.1230 -0.0313  0.0258
 3380TIP3    H110146   2.670   0.290   0.458 -0.8736 -0.2227  1.0207
 3380TIP3    H210147   2.809   0.232   0.466  0.7702  3.0364 -1.3453
 3381TIP3   OH210148   6.082   4.340   3.432  0.1855  0.1882 -0.0818
 3381TIP3    H110149   6.131   4.420   3.450  1.7403 -1.0576  1.6374
 3381TIP3    H210150   6.150   4.274   3.414 -1.0588 -0.6829 -1.9550
 3382TIP3   OH210151   4.172   0.240   2.841 -0.2801 -0.3069  0.0539
 3382TIP3    H110152   4.171   0.321   2.790 -1.0825  1.2620  2.4068
 3382TIP3    H210153   4.125   0.262   2.922 -1.1987 -3.3482  0.4716
 3383TIP3   OH210154   4.125   2.903   4.439  0.8024 -0.0362  0.1185
 3383TIP3    H110155   4.039   2.874   4.408  0.5027  1.8719 -0.9691
 3383TIP3    H210156   4.181   2.826   4.430 -1.1827 -2.0107  2.8563
 3384TIP3   OH210157   5.236   3.335   3.128  0.2438  0.1388  0.2408
 3384TIP3    H110158   5.307   3.273   3.112 -0.3715 -0.2118 -1.3669
 3384TIP3    H210159   5.169   3.311   3.065 -0.6475  1.4737  0.6385
 3385TIP3   OH210160   4.519   5.514   4.993  0.3010 -0.5643  0.5597
 3385TIP3    H110161   4.583   5.574   4.955  0.6717 -0.8221  0.7732
 3385TIP3    H210162   4.470   5.480   4.918 -2.3423  2.6771  0.6221
 3386TIP3   OH210163   0.604   5.212   0.723 -0.2178 -0.5574  0.3417
 3386TIP3    H110164   0.567   5.297   0.700 -1.5392 -1.2319 -0.0797
 3386TIP3    H210165   0.559   5.149   0.667  1.9076 -1.3873 -0.5682
 3387TIP3   OH210166   4.830   3.547   3.252 -0.3359 -0.0281 -0.0168
 3387TIP3    H110167   4.912   3.562   3.206  0.1250 -0.4593  0.6370
 3387TIP3    H210168   4.798   3.463   3.220  0.8428 -1.1583  1.6158
 3388TIP3   OH210169   0.767   5.695   2.047  0.6870  0.2158  0.3471
 3388TIP3    H110170   0.771   5.757   2.120 -1.7750 -0.0311  0.7871
 3388TIP3    H210171   0.752   5.610   2.089  0.6495 -0.1478 -0.3939
 3389TIP3   OH210172   4.189   1.214   2.089  0.0103 -0.1025 -0.0174
 3389TIP3    H110173   4.201   1.231   2.182 -1.7303 -2.0942  0.6634
 3389TIP3    H210174   4.094   1.202   2.078  0.3388 -1.9641 -1.5866
 3390TIP3   OH210175   3.524   2.473   0.172 -0.6724 -0.1666  0.1377
 3390TIP3    H110176   3.612   2.486   0.138 -0.6039 -0.2809  0.2670
 3390TIP3    H210177   3.489   2.400   0.120 -1.1713  0.7235 -0.8013
 3391TIP3   OH210178   6.073   4.244   2.456  1.0770  0.3437  0.1429
 3391TIP3    H110179   6.093   4.301   2.381  1.1704 -0.9400 -0.8567
 3391TIP3    H210180   6.158   4.208   2.482  0.9864  0.4433  0.5870
 3392TIP3   OH210181   6.370   3.539   4.526 -0.2360 -0.2465 -0.3478
 3392TIP3    H110182   6.389   3.631   4.508  0.8208  0.0982  2.2315
 3392TIP3    H210183   6.275   3.537   4.538 -0.2639  0.5094 -0.3728
 3393TIP3   OH210184   4.372   3.772   0.807 -0.6179 -0.2574  0.3732
 3393TIP3    H110185   4.356   3.770   0.712  1.0000  0.3351  0.0604
 3393TIP3    H210186   4.326   3.851   0.837  1.0068  1.0323 -0.3879
 3394TIP3   OH210187   2.134   3.612   2.756  0.4591 -0.0083  0.2246
 3394TIP3    H110188   2.088   3.540   2.712  0.3661  0.5190 -0.5491
 3394TIP3    H210189   2.223   3.608   2.722  0.1058  1.1022 -0.9069
 3395TIP3   OH210190   5.461   5.119   4.402  0.5369 -0.9145  0.4226
 3395TIP3    H110191   5.378   5.103   4.446  1.4652 -0.4900  2.4259
 3395TIP3    H210192   5.482   5.035   4.360 -0.9023 -1.0049 -0.1867
 3396TIP3   OH210193   5.112   5.350   2.367 -0.3472  0.2943 -0.3605
 3396TIP3    H110194   5.151   5.329   2.452  1.3145  0.5480 -1.0435
 3396TIP3    H210195   5.086   5.442   2.376 -0.4298  0.2453 -0.0531
 3397TIP3   OH210196   0.297   4.458   1.599 -0.4259 -0.3140 -0.2871
 3397TIP3    H110197   0.285   4.434   1.507  0.0643 -0.1213 -0.4035
 3397TIP3    H210198   0.361   4.396   1.632  2.0822  1.7365 -1.0042
 3398TIP3   OH210199   3.662   2.932   4.272  0.0289  0.2826  0.6212
 3398TIP3    H110200   3.710   2.891   4.344 -0.9941 -1.9695  0.0998
 3398TIP3    H210201   3.573   2.941   4.305  0.3147  2.7067  0.9046
 3399TIP3   OH210202   4.050   1.338   0.312 -0.2737  0.1974 -0.7597
 3399TIP3    H110203   4.037   1.320   0.219  2.1147 -0.2260 -1.0868
 3399TIP3    H210204   3.974   1.390   0.338 -1.5498 -0.6505 -2.6503
 3400TIP3   OH210205   5.242   3.049   0.282 -0.1268 -0.5063 -0.2877
 3400TIP3    H110206   5.193   3.083   0.207 -2.5425 -1.3816  0.7849
 3400TIP3    H210207   5.203   3.094   0.357  0.8555 -1.1334  0.6104
 3401TIP3   OH210208   1.626   1.371   2.790 -0.2701 -0.1414 -0.0540
 3401TIP3    H110209   1.541   1.340   2.824 -0.2337 -0.0051  0.1668
 3401TIP3    H210210   1.615   1.466   2.782  0.2368  0.0389  1.0944
 3402TIP3   OH210211   0.478   4.378   0.895 -0.9047 -0.1129 -0.1202
 3402TIP3    H110212   0.553   4.364   0.953 -0.8487 -2.1467 -0.6281
 3402TIP3    H210213   0.517   4.407   0.813 -0.6141 -1.6175 -0.5286
 3403TIP3   OH210214   2.041   0.926   4.200  0.9780  0.0266  0.1597
 3403TIP3    H110215   1.948   0.947   4.189  1.3460  0.8391 -1.6474
 3403TIP3    H210216   2.066   0.884   4.118  2.1279 -0.5424  0.7778
 3404TIP3   OH210217   1.011   3.213   1.794 -0.0243  0.1159  0.4278
 3404TIP3    H110218   1.027   3.124   1.827  1.3396  0.2346  0.1236
 3404TIP3    H210219   1.014   3.268   1.872 -1.5088 -0.1504  0.7102
 3405TIP3   OH210220   2.296   0.753   5.018  0.1693  0.9537 -0.1298
 3405TIP3    H110221   2.316   0.692   4.947  0.6889  1.4680 -0.4312
 3405TIP3    H210222   2.303   0.839   4.978  1.2814  1.2845  0.7361
 3406TIP3   OH210223   4.275   4.697   2.361 -0.1908  0.2610 -0.8734
 3406TIP3    H110224   4.347   4.644   2.395 -0.4335  0.9058  0.7410
 3406TIP3    H210225   4.316   4.754   2.296  1.1721  1.8075  1.2099
 3407TIP3   OH210226   4.185   2.593   3.108 -0.3672 -0.0878  0.6813
 3407TIP3    H110227   4.166   2.545   3.189 -0.7579 -0.1916  0.5321
 3407TIP3    H210228   4.280   2.592   3.102 -0.3733 -1.8675  0.0831
 3408TIP3   OH210229   2.517   3.656   2.455 -0.3191 -0.3730 -0.3815
 3408TIP3    H110230   2.601   3.694   2.480  0.2351 -1.8403  0.0612
 3408TIP3    H210231   2.500   3.588   2.520 -1.8430 -0.1376 -0.4809
 3409TIP3   OH210232   2.770   4.072   1.640  0.0689 -0.2066  0.3293
 3409TIP3    H110233   2.797   4.121   1.718  0.6700 -1.4556  0.9456
 3409TIP3    H210234   2.705   4.127   1.598 -2.0590 -0.4487  2.9763
 3410TIP3   OH210235   5.274   3.897   2.580 -0.1338 -0.1203  0.2991
 3410TIP3    H110236   5.229   3.834   2.523  1.0371  1.5424 -2.7485
 3410TIP3    H210237   5.256   3.867   2.669 -1.9512 -3.0712 -0.9104
 3411TIP3   OH210238   6.034   1.080   4.635  0.3629 -0.6232 -0.2110
 3411TIP3    H110239   6.110   1.024   4.617  1.0649  0.3267 -0.3409
 3411TIP3    H210240   6.048   1.157   4.579 -1.3071 -0.9293 -1.1079
 3412TIP3   OH210241   6.273   0.445   3.991 -0.2700  0.3081  0.9276
 3412TIP3    H110242   6.213   0.372   3.996 -0.4108  0.3378 -0.1295
 3412TIP3    H210243   6.318   0.435   3.907 -0.2522  1.3932  0.7821
 3413TIP3   OH210244   4.096   2.535   0.757 -0.4021  0.6905  0.1781
 3413TIP3    H110245   4.077   2.509   0.847 -0.2003  0.8477  0.2655
 3413TIP3    H210246   4.163   2.603   0.765 -1.2974  1.6164 -0.0267
 3414TIP3   OH210247   6.102   1.763   0.988  0.3842 -0.1090 -0.1829
 3414TIP3    H110248   6.095   1.849   1.028  1.0863 -0.8360  1.5911
 3414TIP3    H210249   6.061   1.773   0.902  1.7422  2.3604 -0.6293
 3415TIP3   OH210250   0.631   0.721   2.101  0.3488 -0.3545 -0.1371
 3415TIP3    H110251   0.551   0.774   2.099  0.0235 -0.8659 -1.1589
 3415TIP3    H210252   0.693   0.769   2.045  1.3843  0.9439  1.9725
 3416TIP3   OH210253   1.825   2.254   3.693 -0.3843  0.4490 -0.1165
 3416TIP3    H110254   1.753   2.227   3.637 -0.9247  0.9676  0.3216
 3416TIP3    H210255   1.891   2.185   3.683 -0.6138  0.3674 -1.1203
 3417TIP3   OH210256   4.409   4.034   4.107  0.3888 -0.0760  0.0004
 3417TIP3    H110257   4.481   3.983   4.145 -0.0538 -0.1248  0.7949
 3417TIP3    H210258   4.419   4.121   4.145  2.3266  1.1020 -2.8385
 3418TIP3   OH210259   3.151   5.456   1.077  0.3195 -0.1009 -0.3924
 3418TIP3    H110260   3.055   5.453   1.081  0.3526 -1.3602 -0.1283
 3418TIP3    H210261   3.171   5.549   1.069 -0.8796  0.3264  0.9696
 3419TIP3   OH210262   4.502   4.960   4.636 -0.4739  0.0409  0.5275
 3419TIP3    H110263   4.431   4.992   4.579 -0.4277  0.0440  0.4716
 3419TIP3    H210264   4.547   5.040   4.664  2.1252 -0.0778 -2.7505
 3420TIP3   OH210265   3.326   3.337   1.789  0.3303 -0.0136  0.0541
 3420TIP3    H110266   3.243   3.382   1.803  0.1159  0.0263 -1.2067
 3420TIP3    H210267   3.389   3.385   1.843 -0.6304 -0.7047  1.8922
 3421TIP3   OH210268   5.456   1.024   3.800  0.0098 -0.8398 -0.3639
 3421TIP3    H110269   5.454   1.026   3.705 -1.2221 -0.1282 -0.3301
 3421TIP3    H210270   5.517   1.093   3.825 -0.5826 -0.2209 -0.6139
 3422TIP3   OH210271   6.200   1.854   1.600  0.0044 -0.0994  0.5659
 3422TIP3    H110272   6.136   1.785   1.621 -0.9651  1.4001  2.8579
 3422TIP3    H210273   6.283   1.807   1.589 -0.8816 -1.7650  0.6034
 3423TIP3   OH210274   2.324   2.572   4.846  0.1639  0.3652 -0.7717
 3423TIP3    H110275   2.297   2.635   4.913  0.4793 -1.9667  1.7369
 3423TIP3    H210276   2.315   2.619   4.763  0.8250  3.8350  0.9315
 3424TIP3   OH210277   0.002   0.422   0.751  0.2935 -0.3031 -0.4079
 3424TIP3    H110278   0.001   0.341   0.801 -1.2957  0.3654  0.7346
 3424TIP3    H210279   0.067   0.407   0.682 -0.5499 -2.8295 -0.7467
 3425TIP3   OH210280   2.134   0.527   4.744 -0.3508  0.2322  0.0535
 3425TIP3    H110281   2.226   0.535   4.768 -0.4435  1.9430 -0.0397
 3425TIP3    H210282   2.129   0.447   4.692  0.4963 -1.6209  2.6319
 3426TIP3   OH210283   3.876   4.850   2.375  0.2904 -0.2067 -0.3380
 3426TIP3    H110284   3.854   4.836   2.467  0.4716 -1.2846 -0.4445
 3426TIP3    H210285   3.794   4.837   2.328  0.0523  1.0099 -0.2816
 3427TIP3   OH210286   4.000   2.455   1.864  0.3367 -0.4299 -0.4010
 3427TIP3    H110287   4.074   2.499   1.906  0.5434  0.5902 -1.7671
 3427TIP3    H210288   3.936   2.443   1.935  1.1377  0.1562  0.4515
 3428TIP3   OH210289   0.767   2.057   0.554 -0.2098  0.0657 -0.3166
 3428TIP3    H110290   0.726   2.090   0.634  0.3134 -2.9724  1.3406
 3428TIP3    H210291   0.847   2.015   0.584  1.3644  1.0225 -2.8221
 3429TIP3   OH210292   4.645   0.880   3.421 -0.4746  0.4705 -0.2344
 3429TIP3    H110293   4.647   0.802   3.366  0.9665  1.1583 -1.2304
 3429TIP3    H210294   4.704   0.941   3.378 -0.8003  1.7624  1.0591
 3430TIP3   OH210295   3.482   4.789   0.551  0.1100  0.2965  0.3610
 3430TIP3    H110296   3.395   4.821   0.525  0.1363  0.4702  0.4860
 3430TIP3    H210297   3.515   4.743   0.474  0.4764  1.3941 -0.1461
 3431TIP3   OH210298   3.055   2.436   0.699 -0.4476  0.0311 -0.9956
 3431TIP3    H110299   3.009   2.358   0.668 -1.1772  0.8635 -2.1011
 3431TIP3    H210300   2.986   2.495   0.728  0.1093  0.2168  0.0142
 3432TIP3   OH210301   2.231   5.973   4.248  0.1194  0.0139 -0.0782
 3432TIP3    H110302   2.320   5.951   4.220  0.2198 -0.1119  0.3393
 3432TIP3    H210303   2.189   6.008   4.169 -0.7748 -3.7576 -1.4972
 3433TIP3   OH210304   5.274   0.931   2.828  0.1562 -0.5786  0.5326
 3433TIP3    H110305   5.345   0.884   2.871 -0.3414 -0.0097  2.0387
 3433TIP3    H210306   5.194   0.896   2.868 -0.4333 -1.1730 -1.0926
 3434TIP3   OH210307   3.611   3.777   3.943  0.3968  0.1262  0.1434
 3434TIP3    H110308   3.571   3.708   3.994  0.4126 -0.8888 -1.1618
 3434TIP3    H210309   3.636   3.735   3.861  0.9307  1.5472 -0.4602
 3435TIP3   OH210310   0.736   2.876   4.639 -0.4871  0.1289  0.4030
 3435TIP3    H110311   0.781   2.820   4.576 -1.1745 -0.9193  0.8108
 3435TIP3    H210312   0.649   2.836   4.648  0.2243 -0.9931  3.5392
 3436TIP3   OH210313   0.735   5.690   0.632  0.1348 -0.0832 -0.7450
 3436TIP3    H110314   0.695   5.709   0.717 -0.0018  1.6162 -1.1592
 3436TIP3    H210315   0.675   5.627   0.592  0.7827 -1.7933  0.8319
 3437TIP3   OH210316   2.982   2.385   3.534  0.2064 -0.1120  0.8315
 3437TIP3    H110317   2.907   2.355   3.482  2.5194 -1.3849 -2.0983
 3437TIP3    H210318   2.979   2.481   3.527 -0.3381 -0.2084 -0.5495
 3438TIP3   OH210319   2.316   3.029   0.609  0.4555  0.4064 -0.1048
 3438TIP3    H110320   2.351   2.989   0.689 -1.9336 -0.1438  0.7736
 3438TIP3    H210321   2.371   3.105   0.594  0.1437  1.3969  2.9718
 3439TIP3   OH210322   6.075   5.787   1.889  0.6767  0.5949  0.1729
 3439TIP3    H110323   6.155   5.735   1.877 -0.6743 -1.2495 -1.5985
 3439TIP3    H210324   6.072   5.843   1.812 -0.4279 -0.4026 -0.5401
 3440TIP3   OH210325   0.496   5.962   4.162 -0.3041  0.2617  0.2748
 3440TIP3    H110326   0.455   6.048   4.154  0.9352  0.7721 -1.1426
 3440TIP3    H210327   0.515   5.936   4.072 -2.6577 -2.5760  0.4659
 3441TIP3   OH210328   2.033   3.742   1.718 -0.2844 -0.0089  0.1971
 3441TIP3    H110329   1.997   3.690   1.646  0.7587 -0.0172 -0.3467
 3441TIP3    H210330   1.979   3.721   1.793 -0.5043 -1.1155 -0.2540
 3442TIP3   OH210331   3.456   4.773   1.980  0.2855 -0.2311 -0.3759
 3442TIP3    H110332   3.510   4.770   1.900  0.0590  3.6855 -0.8456
 3442TIP3    H210333   3.368   4.796   1.948  0.1635  1.2697  0.9624
 3443TIP3   OH210334   3.953   0.556   4.392  0.4892 -0.1690  0.2785
 3443TIP3    H110335   3.920   0.481   4.343 -0.0010 -0.0066  0.3611
 3443TIP3    H210336   4.034   0.524   4.433 -0.4121 -1.0537  1.4107
 3444TIP3   OH210337   1.304   0.231   4.301 -0.5698 -0.0321  1.0442
 3444TIP3    H110338   1.219   0.188   4.301 -0.7102  0.1775 -0.6205
 3444TIP3    H210339   1.304   0.284   4.221  1.0256  0.1738  1.1439
 3445TIP3   OH210340   2.418   5.233   4.739 -0.1002 -0.0856 -0.1282
 3445TIP3    H110341   2.371   5.281   4.672 -1.4473  0.4873  1.1887
 3445TIP3    H210342   2.390   5.142   4.727 -0.3387  0.0133 -0.3319
 3446TIP3   OH210343   2.156   1.446   2.778  0.5381 -0.3406  0.5897
 3446TIP3    H110344   2.208   1.470   2.854  1.2559 -0.4734  0.1516
 3446TIP3    H210345   2.071   1.489   2.792  1.1495  0.8584  0.7405
 3447TIP3   OH210346   2.057   0.658   1.408  0.1400  0.2477 -0.0635
 3447TIP3    H110347   2.116   0.677   1.336  0.1120 -1.0068 -0.4339
 3447TIP3    H210348   2.098   0.700   1.484  1.1163  0.0267 -0.4533
 3448TIP3   OH210349   0.865   1.521   1.094 -0.2496  0.0329  0.0443
 3448TIP3    H110350   0.830   1.509   1.006  0.2833  1.6711 -0.4238
 3448TIP3    H210351   0.948   1.474   1.094  1.2259  2.4553 -1.3521
 3449TIP3   OH210352   2.338   5.915   2.945 -0.5623 -0.0802 -0.4008
 3449TIP3    H110353   2.423   5.893   2.909 -1.1124 -2.1925 -0.5373
 3449TIP3    H210354   2.356   5.947   3.033  0.4000  0.0698 -0.6435
 3450TIP3   OH210355   3.713   5.789   1.242 -0.0406 -0.1626  0.7316
 3450TIP3    H110356   3.786   5.734   1.270 -0.1365  0.0795  1.4815
 3450TIP3    H210357   3.706   5.856   1.310 -0.1168  0.6023 -0.0108
 3451TIP3   OH210358   3.014   5.891   1.949  0.0992  0.0920  0.3934
 3451TIP3    H110359   3.062   5.822   1.903 -1.1104 -0.8170  0.4326
 3451TIP3    H210360   3.033   5.970   1.899  0.9839 -0.3720 -0.0542
 3452TIP3   OH210361   5.068   3.940   2.804  0.0418 -0.0220  0.1689
 3452TIP3    H110362   5.131   3.868   2.807 -0.0415 -0.0631  1.5635
 3452TIP3    H210363   4.992   3.906   2.850 -0.5739  0.4464 -0.4859
 3453TIP3   OH210364   5.387   5.271   2.952  0.2611  0.6027 -0.3289
 3453TIP3    H110365   5.434   5.249   2.872  1.5456 -1.0882  0.8064
 3453TIP3    H210366   5.322   5.201   2.961  1.9211 -0.8214  1.4293
 3454TIP3   OH210367   1.476   0.228   3.880  0.6522 -0.4253  0.1091
 3454TIP3    H110368   1.566   0.230   3.849 -0.0525 -1.1532 -2.2402
 3454TIP3    H210369   1.446   0.139   3.860 -0.5088 -0.2775  1.0797
 3455TIP3   OH210370   5.633   1.142   4.846  0.7299  0.2009  0.1429
 3455TIP3    H110371   5.726   1.135   4.868  0.4196 -1.9912  0.9445
 3455TIP3    H210372   5.592   1.177   4.925  0.3815 -2.5898  1.3091
 3456TIP3   OH210373   4.257   3.014   2.314 -0.1641 -0.1927 -0.1862
 3456TIP3    H110374   4.220   3.020   2.226 -0.6408 -2.0736 -0.1468
 3456TIP3    H210375   4.340   2.968   2.302 -1.2431 -2.4507  0.5573
 3457TIP3   OH210376   4.799   1.847   1.729 -0.1994  0.1326  0.0647
 3457TIP3    H110377   4.794   1.898   1.810  1.2875  0.4196  0.0200
 3457TIP3    H210378   4.766   1.761   1.752  0.0274  0.2652  0.9347
 3458TIP3   OH210379   1.099   1.277   2.984  0.4376  0.0040  0.4898
 3458TIP3    H110380   1.190   1.291   2.956 -0.2731  1.4572 -1.3620
 3458TIP3    H210381   1.060   1.365   2.982 -2.0011 -0.9637 -2.7254
 3459TIP3   OH210382   1.104   2.108   0.161  0.3231 -0.0490 -0.1887
 3459TIP3    H110383   1.195   2.085   0.142  0.5550  2.2434 -2.3128
 3459TIP3    H210384   1.065   2.127   0.076 -1.3100  1.8830  0.8807
 3460TIP3   OH210385   0.691   0.141   2.845 -0.3410 -0.4508  0.3057
 3460TIP3    H110386   0.635   0.141   2.923  0.6131  1.4983  1.0353
 3460TIP3    H210387   0.778   0.122   2.879  0.2763  1.5130 -0.0906
 3461TIP3   OH210388   5.538   2.308   0.566  0.2643  0.2695 -0.7683
 3461TIP3    H110389   5.454   2.292   0.609  0.2988 -1.2051 -1.1799
 3461TIP3    H210390   5.551   2.402   0.572 -1.0709  0.4305 -0.0545
 3462TIP3   OH210391   3.376   4.503   5.059  0.3362  0.1273  0.3756
 3462TIP3    H110392   3.431   4.573   5.023 -0.1137 -0.0626 -0.7094
 3462TIP3    H210393   3.436   4.429   5.068  0.4545  0.1735 -0.0006
 3463TIP3   OH210394   2.545   5.644   1.138 -0.0806 -0.4629 -0.3132
 3463TIP3    H110395   2.606   5.690   1.196  1.3352 -1.7394 -0.7289
 3463TIP3    H210396   2.460   5.655   1.180  0.5808  0.4730  0.8599
 3464TIP3   OH210397   1.840   4.843   4.280  0.3689 -0.0460  0.8275
 3464TIP3    H110398   1.797   4.927   4.269 -0.6451 -0.6263  0.1988
 3464TIP3    H210399   1.916   4.862   4.335 -0.6633  1.0202  1.9716
 3465TIP3   OH210400   5.704   2.552   1.371  0.1262 -0.0271 -0.3080
 3465TIP3    H110401   5.627   2.547   1.315 -0.3921 -0.5971  0.4323
 3465TIP3    H210402   5.714   2.646   1.389 -0.2334  0.0770 -0.6240
 3466TIP3   OH210403   2.810   1.688   5.078 -0.0980 -0.1836  0.0531
 3466TIP3    H110404   2.883   1.626   5.067 -0.1898 -0.2725 -0.0582
 3466TIP3    H210405   2.787   1.682   5.170  2.1177  2.1568  0.8781
 3467TIP3   OH210406   1.404   1.027   0.300  0.5561 -0.7566  0.1164
 3467TIP3    H110407   1.421   0.987   0.215  1.0690 -0.5884  0.1388
 3467TIP3    H210408   1.475   1.090   0.312  0.1029 -0.2830  0.3619
 3468TIP3   OH210409   5.614   2.653   2.863  0.3532 -0.1424  0.1980
 3468TIP3    H110410   5.696   2.634   2.818  2.2955 -2.4141  4.1779
 3468TIP3    H210411   5.600   2.747   2.849  2.0537 -0.2273 -2.8344
 3469TIP3   OH210412   4.110   2.457   3.721  0.4218  0.1124  0.1276
 3469TIP3    H110413   4.094   2.515   3.796 -0.2242  0.2383 -0.0954
 3469TIP3    H210414   4.070   2.504   3.647  1.2257  0.0787 -0.3283
 3470TIP3   OH210415   4.777   5.325   1.150 -0.0210  0.9667  0.0968
 3470TIP3    H110416   4.801   5.232   1.155 -1.9381  0.4991  1.8285
 3470TIP3    H210417   4.850   5.371   1.192  0.6333  0.2069 -0.1758
 3471TIP3   OH210418   5.499   4.522   4.959 -0.6826 -0.7593  0.1132
 3471TIP3    H110419   5.552   4.498   4.884 -2.0727 -1.9203 -0.5372
 3471TIP3    H210420   5.526   4.611   4.980 -0.4682 -0.2941 -1.9467
 3472TIP3   OH210421   1.391   4.837   4.556 -0.4129  0.5426  0.4078
 3472TIP3    H110422   1.323   4.855   4.621  0.6447 -1.3479  2.1485
 3472TIP3    H210423   1.345   4.836   4.472 -2.4570 -0.2579  1.4738
 3473TIP3   OH210424   0.122   5.894   3.811 -0.0760 -0.1098  0.2241
 3473TIP3    H110425   0.046   5.858   3.765 -0.3052 -1.5576  1.6620
 3473TIP3    H210426   0.198   5.864   3.759 -0.3972 -0.0768 -0.2730
 3474TIP3   OH210427   2.516   2.744   1.767  0.1820  0.1034 -0.2461
 3474TIP3    H110428   2.508   2.829   1.722  0.2005 -1.0023 -2.4962
 3474TIP3    H210429   2.610   2.737   1.786 -0.1460  1.6645  2.3533
 3475TIP3   OH210430   2.805   5.563   4.001  0.4368 -0.3969  0.1007
 3475TIP3    H110431   2.825   5.621   3.928 -0.8585 -1.5139 -1.2065
 3475TIP3    H210432   2.739   5.611   4.052 -1.5690 -1.1066 -1.6575
 3476TIP3   OH210433   0.920   1.156   4.253 -0.0622  0.0151 -0.4775
 3476TIP3    H110434   1.006   1.151   4.212 -0.2322 -1.0326 -0.7499
 3476TIP3    H210435   0.938   1.175   4.345  0.4174  0.5239 -0.6724
 3477TIP3   OH210436   4.173   3.142   4.576  0.3631 -0.0160  0.3254
 3477TIP3    H110437   4.153   3.058   4.535 -0.3966  0.2763  0.0692
 3477TIP3    H210438   4.216   3.119   4.658  0.1781 -0.6583  0.2478
 3478TIP3   OH210439   4.513   3.126   4.417  0.2383 -0.1606  0.8253
 3478TIP3    H110440   4.598   3.081   4.414  1.3889  1.9080 -0.0839
 3478TIP3    H210441   4.474   3.109   4.331 -0.1581 -0.8753  1.1391
 3479TIP3   OH210442   1.916   2.531   0.554  0.3546  0.6202 -0.2946
 3479TIP3    H110443   2.000   2.574   0.540  0.3460  0.4252 -0.9955
 3479TIP3    H210444   1.852   2.602   0.553  0.4014  0.6550 -0.8561
 3480TIP3   OH210445   5.589   2.892   4.219 -0.3098  0.5008  0.1498
 3480TIP3    H110446   5.673   2.939   4.221 -0.4220  0.6985  0.2144
 3480TIP3    H210447   5.582   2.854   4.307  0.4030 -0.7416 -0.3022
 3481TIP3   OH210448   3.185   4.019   3.110 -0.3701 -0.1484 -0.2579
 3481TIP3    H110449   3.243   4.085   3.145 -1.8833 -0.0832  2.3949
 3481TIP3    H210450   3.189   3.947   3.173 -2.9838 -0.1868 -0.0049
 3482TIP3   OH210451   6.109   0.469   2.394 -0.3227  0.0336  0.0787
 3482TIP3    H110452   6.046   0.500   2.329 -0.7428 -1.2696 -0.1711
 3482TIP3    H210453   6.056   0.422   2.459 -0.0105  1.9713  1.8466
 3483TIP3   OH210454   1.104   1.931   0.911  0.2098  0.5480 -0.5000
 3483TIP3    H110455   1.166   2.002   0.930 -1.2098  1.8827 -0.6100
 3483TIP3    H210456   1.079   1.897   0.997  0.2486  0.7773 -0.3960
 3484TIP3   OH210457   3.583   0.808   2.029 -0.3484 -0.3284  0.0038
 3484TIP3    H110458   3.529   0.834   2.104 -0.0428 -0.4140  0.2601
 3484TIP3    H210459   3.528   0.749   1.978 -0.3895 -0.6611  0.4276
 3485TIP3   OH210460   4.311   0.369   0.542 -0.2206  0.2729  0.6528
 3485TIP3    H110461   4.301   0.395   0.634  1.0500 -0.3283  0.9845
 3485TIP3    H210462   4.358   0.441   0.501  1.0287 -0.3242  0.9768
 3486TIP3   OH210463   4.829   0.575   1.023 -0.5417  0.1232  0.4214
 3486TIP3    H110464   4.875   0.646   1.068 -1.6154 -0.2041  2.1118
 3486TIP3    H210465   4.752   0.558   1.077 -2.0222 -0.1854 -1.6566
 3487TIP3   OH210466   2.546   4.371   2.361  0.0704 -0.5581  0.3247
 3487TIP3    H110467   2.621   4.431   2.367  0.2175 -0.7231  0.1660
 3487TIP3    H210468   2.520   4.356   2.452  0.4139 -0.7254  0.3995
 3488TIP3   OH210469   2.622   3.944   1.898 -0.0789  0.2054  0.4065
 3488TIP3    H110470   2.638   3.887   1.974  3.3990 -0.0356 -0.3383
 3488TIP3    H210471   2.699   4.000   1.894 -0.5881  0.8377 -2.4296
 3489TIP3   OH210472   4.931   3.407   0.993  0.1547 -0.2938 -0.2615
 3489TIP3    H110473   4.904   3.479   0.937 -0.9812 -1.0159 -0.6642
 3489TIP3    H210474   4.869   3.408   1.066  0.9603 -0.0364  0.4367
 3490TIP3   OH210475   1.121   3.199   1.363  0.0127 -0.4403 -0.3194
 3490TIP3    H110476   1.124   3.104   1.369  0.4076 -0.3832  0.4525
 3490TIP3    H210477   1.204   3.228   1.400 -1.0669  0.3116  1.6341
 3491TIP3   OH210478   5.151   5.944   3.047  0.3684  0.1725  0.6409
 3491TIP3    H110479   5.232   5.951   3.099  0.6364 -1.5118  0.4851
 3491TIP3    H210480   5.114   6.033   3.050  2.1279  0.9469  0.8589
 3492TIP3   OH210481   2.261   2.231   2.107 -0.3393  0.2435  0.2584
 3492TIP3    H110482   2.270   2.314   2.154 -1.3215 -0.1711  1.2203
 3492TIP3    H210483   2.351   2.209   2.080  0.1213  0.9615  1.1360
 3493TIP3   OH210484   4.286   1.405   5.057 -0.4563  0.1489 -0.1008
 3493TIP3    H110485   4.311   1.465   5.127  2.0103 -0.0505 -0.7106
 3493TIP3    H210486   4.217   1.351   5.096 -2.2634  2.8065  0.6881
 3494TIP3   OH210487   4.493   2.865   0.597  0.0320 -0.3177  0.6785
 3494TIP3    H110488   4.493   2.938   0.535 -0.0292 -1.3054 -0.5229
 3494TIP3    H210489   4.511   2.905   0.682  0.4776  1.0228 -0.0293
 3495TIP3   OH210490   5.934   4.666   4.787  0.2035  0.0089  0.0743
 3495TIP3    H110491   5.949   4.756   4.816 -0.1889  0.0388  0.1955
 3495TIP3    H210492   5.848   4.669   4.745  0.3929 -0.2137 -0.3272
 3496TIP3   OH210493   4.906   3.697   0.336 -0.4295 -0.0638 -0.0264
 3496TIP3    H110494   4.949   3.782   0.338 -0.8524  0.1515  0.2168
 3496TIP3    H210495   4.816   3.715   0.366 -0.5350 -0.5841 -0.0164
 3497TIP3   OH210496   3.266   1.580   2.364  0.2195  0.1057  0.1151
 3497TIP3    H110497   3.199   1.577   2.432 -0.4789  3.2131 -0.2994
 3497TIP3    H210498   3.218   1.600   2.284  1.2907 -1.1210 -0.8773
 3498TIP3   OH210499   4.811   2.889   0.920  0.0351 -0.1277 -0.2645
 3498TIP3    H110500   4.814   2.951   0.847  0.2472 -0.7704 -0.8186
 3498TIP3    H210501   4.774   2.939   0.993  2.4195  1.3624  0.0232
 3499TIP3   OH210502   5.793   3.376   1.180 -0.1348 -0.0740 -0.0518
 3499TIP3    H110503   5.837   3.432   1.117 -0.9047  0.7676  0.1306
 3499TIP3    H210504   5.781   3.431   1.258 -1.0936 -0.3995  0.0538
 3500TIP3   OH210505   5.591   0.122   4.804 -0.0761 -0.3504 -0.6253
 3500TIP3    H110506   5.571   0.029   4.811  1.8742 -0.6835  2.9086
 3500TIP3    H210507   5.530   0.164   4.865 -0.7298  0.6863 -1.9538
 3501TIP3   OH210508   4.666   4.919   2.751 -0.0307 -0.2341  0.3206
 3501TIP3    H110509   4.757   4.937   2.728  0.3332 -1.4978  0.6980
 3501TIP3    H210510   4.615   4.959   2.681  0.7561  1.2705  0.5707
 3502TIP3   OH210511   5.941   4.708   0.205  0.5113  0.0168 -0.4225
 3502TIP3    H110512   5.868   4.698   0.143  0.4178  0.4257 -0.3814
 3502TIP3    H210513   6.017   4.675   0.157  0.5845  1.0461 -1.0667
 3503TIP3   OH210514   3.110   0.702   1.841 -0.0551 -0.3071  0.0898
 3503TIP3    H110515   3.039   0.746   1.793  0.0968  0.0191  0.1585
 3503TIP3    H210516   3.067   0.659   1.914 -0.2720 -0.6859 -0.2539
 3504TIP3   OH210517   4.719   2.446   1.824  0.6963 -0.3766  0.2907
 3504TIP3    H110518   4.750   2.355   1.823  1.2356 -0.1974 -0.7653
 3504TIP3    H210519   4.799   2.498   1.837  0.4771 -0.0287  0.2475
 3505TIP3   OH210520   5.173   0.353   4.337 -0.2521 -0.5180  0.4296
 3505TIP3    H110521   5.239   0.397   4.390  0.7395  0.0666 -1.2139
 3505TIP3    H210522   5.222   0.290   4.285 -1.3660 -1.9821  1.0697
 3506TIP3   OH210523   3.793   3.794   1.550  0.0185  0.6927  0.4282
 3506TIP3    H110524   3.755   3.764   1.467 -1.3434  1.6297  0.6613
 3506TIP3    H210525   3.856   3.726   1.574 -2.3579 -1.6244  0.5915
 3507TIP3   OH210526   1.518   0.628   1.307  0.3013 -0.2272  0.2410
 3507TIP3    H110527   1.555   0.542   1.285 -0.8648 -0.6083 -0.3485
 3507TIP3    H210528   1.594   0.684   1.323  1.0971 -1.2080 -0.0011
 3508TIP3   OH210529   5.970   3.953   3.764 -0.0570 -0.2979  0.0255
 3508TIP3    H110530   6.011   4.011   3.700 -1.0190  1.0436  0.5655
 3508TIP3    H210531   5.933   4.012   3.830 -0.4474 -1.5681  0.9991
 3509TIP3   OH210532   3.829   1.528   1.155  0.2502 -0.3059  0.4047
 3509TIP3    H110533   3.836   1.623   1.142  1.0890 -0.5372 -1.1625
 3509TIP3    H210534   3.919   1.497   1.147 -0.0192 -1.2401  0.9179
 3510TIP3   OH210535   1.755   2.682   3.927 -0.6580  0.3996  0.6678
 3510TIP3    H110536   1.731   2.632   4.005 -0.3578 -0.0041  0.5040
 3510TIP3    H210537   1.744   2.620   3.855 -0.0177  0.4891  0.4912
 3511TIP3   OH210538   4.508   0.314   4.139  0.2050 -0.3157  0.7405
 3511TIP3    H110539   4.445   0.344   4.205 -1.1609  0.8439 -0.9830
 3511TIP3    H210540   4.457   0.255   4.083  0.9785 -0.2835 -0.0089
 3512TIP3   OH210541   5.738   2.159   1.399 -1.2289  0.4934  0.0336
 3512TIP3    H110542   5.820   2.199   1.429 -1.7463 -0.4776  3.1979
 3512TIP3    H210543   5.762   2.068   1.379 -1.5384  0.0623  1.4683
 3513TIP3   OH210544   0.315   5.849   1.300 -0.5090  0.1759  0.3352
 3513TIP3    H110545   0.352   5.798   1.372  1.2200  1.9690  0.7744
 3513TIP3    H210546   0.306   5.786   1.229 -0.0903 -1.1297  1.3995
 3514TIP3   OH210547   1.726   0.609   3.104  0.5274 -0.6742  0.1163
 3514TIP3    H110548   1.705   0.518   3.087 -0.2869 -0.2233 -1.5414
 3514TIP3    H210549   1.772   0.639   3.025  1.0084  0.2703  0.7326
 3515TIP3   OH210550   5.588   5.783   0.290 -0.2067 -0.7745 -0.2936
 3515TIP3    H110551   5.628   5.704   0.327  0.1141 -0.6099 -0.2906
 3515TIP3    H210552   5.644   5.855   0.318 -1.1486 -0.3960  0.7002
 3516TIP3   OH210553   1.875   4.067   1.986  0.0500  0.7377  0.3693
 3516TIP3    H110554   1.967   4.068   1.958 -0.2981  2.2025 -0.9074
 3516TIP3    H210555   1.879   4.071   2.082  1.3174  0.6276  0.3373
 3517TIP3   OH210556   5.757   1.571   0.299 -0.1416 -0.5937  0.8644
 3517TIP3    H110557   5.797   1.657   0.312  1.3624 -1.3901  1.9074
 3517TIP3    H210558   5.813   1.528   0.234 -0.8192 -0.8271  0.4267
 3518TIP3   OH210559   1.064   0.060   5.190 -0.4286  0.3673  0.2172
 3518TIP3    H110560   1.036   0.100   5.107  2.9183 -0.5076 -1.5313
 3518TIP3    H210561   1.034  -0.031   5.185  0.2423  0.1681 -0.3349
 3519TIP3   OH210562   0.173   0.630   3.689 -0.1008  0.3349 -0.3636
 3519TIP3    H110563   0.137   0.710   3.651 -0.1540  0.0252 -0.9816
 3519TIP3    H210564   0.221   0.659   3.766 -0.3150  0.9330 -0.4529
 3520TIP3   OH210565   5.420   4.788   2.332 -0.5491  0.0927 -0.4138
 3520TIP3    H110566   5.449   4.717   2.274  0.3175 -1.1588  1.4449
 3520TIP3    H210567   5.495   4.847   2.337 -0.5621  0.1106 -0.4315
 3521TIP3   OH210568   1.978   4.661   2.256  0.7213  0.0039 -0.2388
 3521TIP3    H110569   2.013   4.605   2.326 -1.2523 -1.6410 -0.4584
 3521TIP3    H210570   2.039   4.649   2.184  1.6627  0.0986  0.5135
 3522TIP3   OH210571   5.521   5.855   2.642 -0.2933  0.1892 -0.1020
 3522TIP3    H110572   5.514   5.935   2.590 -1.5064 -0.4274 -0.9327
 3522TIP3    H210573   5.450   5.862   2.706 -0.6590 -0.3894 -0.4328
 3523TIP3   OH210574   2.685   1.011   0.346 -0.6532  0.2059  0.4491
 3523TIP3    H110575   2.673   1.040   0.436 -0.6290 -1.7373  1.1404
 3523TIP3    H210576   2.598   1.016   0.307 -0.6093  1.3348  0.4650
 3524TIP3   OH210577   0.221   3.818   0.498  0.0571 -0.0477 -0.6106
 3524TIP3    H110578   0.279   3.761   0.549  1.0454  1.9472  0.6614
 3524TIP3    H210579   0.184   3.878   0.563 -1.5353  0.2974 -1.7778
 3525TIP3   OH210580   4.964   0.791   3.239  0.2994  0.0115 -0.1846
 3525TIP3    H110581   4.967   0.876   3.283  1.8022  0.6350 -1.4390
 3525TIP3    H210582   4.994   0.729   3.306 -1.4900  0.2986  0.9716
 3526TIP3   OH210583   2.318   4.033   2.632  0.7096  0.0417  0.0676
 3526TIP3    H110584   2.404   4.001   2.661  1.4608  2.9823  1.5237
 3526TIP3    H210585   2.255   3.990   2.689  1.2422 -1.6006 -0.5330
 3527TIP3   OH210586   4.551   1.233   4.436 -0.5558  0.7535  0.1014
 3527TIP3    H110587   4.457   1.250   4.435 -1.0203 -1.4189 -0.2089
 3527TIP3    H210588   4.565   1.185   4.518  0.0304 -0.0243 -0.4425
 3528TIP3   OH210589   3.231   4.044   3.608 -0.1191 -0.0811 -0.3807
 3528TIP3    H110590   3.189   4.032   3.693 -1.1466 -0.0548 -0.8713
 3528TIP3    H210591   3.195   3.974   3.554 -0.7340  0.8853 -1.2552
 3529TIP3   OH210592   5.353   0.568   2.866 -0.4061  0.1742  0.0596
 3529TIP3    H110593   5.318   0.553   2.954  1.7550 -1.3097  0.7500
 3529TIP3    H210594   5.405   0.489   2.847  0.3125  1.0658 -1.9691
 3530TIP3   OH210595   6.272   3.822   1.496 -0.2862  1.1154 -0.0934
 3530TIP3    H110596   6.246   3.764   1.568 -0.4509  0.2199 -0.8607
 3530TIP3    H210597   6.283   3.907   1.538 -0.7799  0.7040  0.9239
 3531TIP3   OH210598   3.064   5.869   0.740  0.1642  0.3723  1.1535
 3531TIP3    H110599   3.029   5.851   0.652  2.1932 -0.2684  0.4123
 3531TIP3    H210600   3.031   5.956   0.761  0.0123  0.7534 -0.4719
 3532TIP3   OH210601   4.759   3.666   3.816 -0.1651  0.4487  0.6683
 3532TIP3    H110602   4.824   3.672   3.747 -1.7655  1.7549 -0.8072
 3532TIP3    H210603   4.769   3.748   3.865 -0.1516  0.2742  0.9610
 3533TIP3   OH210604   6.244   0.113   3.124 -0.9804 -0.2292  0.1782
 3533TIP3    H110605   6.188   0.053   3.074 -0.1959 -1.2364  0.4663
 3533TIP3    H210606   6.319   0.059   3.151 -0.0592  0.9802  0.1315
 3534TIP3   OH210607   1.233   2.015   0.622  0.2735  0.6268  0.0698
 3534TIP3    H110608   1.277   2.002   0.538  0.7773  1.3316  0.2158
 3534TIP3    H210609   1.292   1.975   0.686  0.4886  1.1769  0.2187
 3535TIP3   OH210610   1.246   3.701   3.811  0.0550  0.2534  0.5919
 3535TIP3    H110611   1.231   3.791   3.838 -1.1861 -0.0047  0.8354
 3535TIP3    H210612   1.266   3.654   3.892  0.2362  0.2280  0.5320
 3536TIP3   OH210613   4.039   3.324   1.511  0.1689 -0.2557  0.6250
 3536TIP3    H110614   4.065   3.255   1.572  0.3841 -0.9183 -0.1997
 3536TIP3    H210615   3.955   3.294   1.476  0.0368  0.1333  0.6024
 3537TIP3   OH210616   2.015   2.489   5.056  0.5782  0.2526  0.0576
 3537TIP3    H110617   1.929   2.506   5.017  1.3501  1.3465 -1.2390
 3537TIP3    H210618   2.003   2.409   5.106 -0.5063 -1.2285 -2.3936
 3538TIP3   OH210619   1.065   0.344   4.458 -0.2495 -0.2251  0.0002
 3538TIP3    H110620   0.988   0.391   4.427 -0.5807 -0.6213  0.2083
 3538TIP3    H210621   1.138   0.404   4.444 -0.4803 -0.1451 -0.9304
 3539TIP3   OH210622   3.449   5.363   2.054  0.0815 -0.0524  0.2386
 3539TIP3    H110623   3.519   5.302   2.076 -0.3762 -0.4332  0.6822
 3539TIP3    H210624   3.491   5.431   2.002  0.4261 -1.3004 -1.1943
 3540TIP3   OH210625   1.312   1.488   2.488  0.1628  0.2305  0.0146
 3540TIP3    H110626   1.344   1.576   2.506 -0.1356  0.6849 -1.5568
 3540TIP3    H210627   1.390   1.432   2.496  0.7183  0.8882 -0.7207
 3541TIP3   OH210628   4.721   1.510   1.278  0.4350  0.1884  0.1645
 3541TIP3    H110629   4.678   1.559   1.348 -0.3035 -0.0579 -0.0963
 3541TIP3    H210630   4.648   1.481   1.222  0.8120 -1.4349  0.4563
 3542TIP3   OH210631   3.641   1.618   5.001 -0.2893  1.0137  0.3168
 3542TIP3    H110632   3.658   1.644   5.091  0.1367  2.8420 -0.2425
 3542TIP3    H210633   3.552   1.584   5.002 -0.4322  1.3733  1.3564
 3543TIP3   OH210634   3.832   0.112   3.382 -0.1161 -0.6110  0.0315
 3543TIP3    H110635   3.786   0.081   3.304  1.8115 -1.4048 -0.8602
 3543TIP3    H210636   3.911   0.152   3.348 -0.8641  2.2443  1.4148
 3544TIP3   OH210637   0.395   2.081   1.299 -0.0482  0.5762  0.3858
 3544TIP3    H110638   0.404   2.130   1.381 -0.6026  1.0484  0.1637
 3544TIP3    H210639   0.428   2.140   1.232 -0.6383  0.6209  0.1286
 3545TIP3   OH210640   4.039   0.660   0.309  0.2018 -0.9863  0.3133
 3545TIP3    H110641   4.079   0.687   0.392  0.4733  0.2017 -0.1852
 3545TIP3    H210642   3.953   0.701   0.310  1.0820  1.0275 -0.9982
 3546TIP3   OH210643   0.314   5.545   2.754 -0.5880  0.0349  0.6556
 3546TIP3    H110644   0.281   5.456   2.767 -1.2393  0.3070  0.9129
 3546TIP3    H210645   0.237   5.596   2.727 -0.9712  1.1949  3.5092
 3547TIP3   OH210646   2.100   4.384   3.399 -0.0822  0.1712  0.0881
 3547TIP3    H110647   2.141   4.336   3.471  1.4098 -1.7062 -1.9270
 3547TIP3    H210648   2.009   4.396   3.427  0.2729 -1.1472  1.9538
 3548TIP3   OH210649   3.936   0.436   3.961  0.0879  0.5967  0.1289
 3548TIP3    H110650   3.946   0.376   4.035 -1.5212  0.0450 -0.0739
 3548TIP3    H210651   4.026   0.457   3.935  0.7128  0.9639  2.3409
 3549TIP3   OH210652   3.278   4.888   2.626  0.1999  0.4247  0.2498
 3549TIP3    H110653   3.265   4.845   2.542 -0.2944 -4.0984  2.3779
 3549TIP3    H210654   3.190   4.900   2.661  0.4658  0.9677  0.7539
 3550TIP3   OH210655   2.285   4.191   4.603 -0.1503  0.3027 -0.3567
 3550TIP3    H110656   2.225   4.251   4.558  0.9348 -0.1674 -2.5655
 3550TIP3    H210657   2.230   4.146   4.667 -1.5624  1.7627 -0.4790
 3551TIP3   OH210658   1.838   5.547   3.088 -0.2174 -0.8492 -0.2786
 3551TIP3    H110659   1.915   5.492   3.095 -1.1713 -2.0795  1.4821
 3551TIP3    H210660   1.777   5.498   3.033 -0.9700 -1.5157  1.0804
 3552TIP3   OH210661   3.936   5.338   0.960  0.1651 -0.3036  0.4586
 3552TIP3    H110662   3.864   5.313   1.019  1.5526  0.0567  2.4131
 3552TIP3    H210663   4.015   5.315   1.008  1.3952  0.0140 -1.3171
 3553TIP3   OH210664   5.742   1.981   1.850 -0.4227 -0.1847  0.9241
 3553TIP3    H110665   5.671   2.025   1.804 -1.1505 -1.4373  0.8069
 3553TIP3    H210666   5.724   1.887   1.839  1.7088 -0.5725  0.1281
 3554TIP3   OH210667   2.433   5.546   0.767  0.0125  0.3863  0.3799
 3554TIP3    H110668   2.519   5.539   0.808 -0.3789  0.0285  1.1634
 3554TIP3    H210669   2.375   5.575   0.837 -0.1991  2.4071 -0.5619
 3555TIP3   OH210670   5.726   2.458   0.891 -0.1535  0.2314  0.3066
 3555TIP3    H110671   5.639   2.493   0.909  0.4208  0.9487  1.9068
 3555TIP3    H210672   5.719   2.365   0.912 -0.8327  0.0291 -0.7610
 3556TIP3   OH210673   1.630   1.684   1.826  0.3392 -0.2233  0.2190
 3556TIP3    H110674   1.565   1.709   1.891  1.0572  3.0316 -0.1649
 3556TIP3    H210675   1.698   1.638   1.875 -1.2683 -1.9602  0.9197
 3557TIP3   OH210676   2.983   1.411   2.250 -0.2731 -0.1661  0.2000
 3557TIP3    H110677   3.060   1.362   2.278 -0.7879 -1.2525 -0.2196
 3557TIP3    H210678   2.921   1.403   2.323  0.4232  1.7282  1.0531
 3558TIP3   OH210679   6.136   4.629   3.269  0.1076  0.5348 -0.4478
 3558TIP3    H110680   6.045   4.603   3.255 -0.3081  1.0170  1.0746
 3558TIP3    H210681   6.129   4.715   3.312  1.2409  0.1075  0.6410
 3559TIP3   OH210682   0.542   0.230   1.395 -0.9066  0.1079 -0.3973
 3559TIP3    H110683   0.517   0.320   1.415 -0.5551  0.2405 -0.5330
 3559TIP3    H210684   0.581   0.198   1.477 -0.8743  0.1378 -0.4007
 3560TIP3   OH210685   1.365   5.162   4.093 -0.3648  0.6348 -0.4644
 3560TIP3    H110686   1.437   5.181   4.153 -0.6200 -0.3360  0.1793
 3560TIP3    H210687   1.398   5.089   4.039 -0.4266  0.9872 -0.9868
 3561TIP3   OH210688   3.285   2.170   2.384 -0.0248 -0.2248  0.0627
 3561TIP3    H110689   3.283   2.075   2.369 -0.8077 -0.2341  0.1813
 3561TIP3    H210690   3.323   2.179   2.471 -0.1313 -0.4428  0.1342
 3562TIP3   OH210691   4.519   3.532   0.804  0.0742  0.3620  0.1459
 3562TIP3    H110692   4.470   3.613   0.791  1.1997  0.7521 -2.3333
 3562TIP3    H210693   4.453   3.463   0.808 -0.7996  1.1612 -0.2643
 3563TIP3   OH210694   4.849   0.107   5.042 -0.9050 -0.2672 -0.0442
 3563TIP3    H110695   4.816   0.058   4.967  0.0987 -0.3449 -0.4414
 3563TIP3    H210696   4.829   0.198   5.022 -1.8027 -0.3935  0.2031
 3564TIP3   OH210697   5.789   5.205   3.155  0.4846 -0.1278 -0.9422
 3564TIP3    H110698   5.736   5.127   3.175  0.4383 -0.0373 -0.7121
 3564TIP3    H210699   5.726   5.277   3.151  0.6280  0.0389 -0.3307
 3565TIP3   OH210700   4.791   1.493   2.012 -0.6763 -0.0558  0.2163
 3565TIP3    H110701   4.871   1.542   2.028 -1.5896  1.0261  1.7381
 3565TIP3    H210702   4.791   1.424   2.079 -0.5716 -0.6645 -0.3948
 3566TIP3   OH210703  -0.004   4.728   0.397  0.0963 -0.0742  0.2390
 3566TIP3    H110704  -0.032   4.802   0.451  2.3975  0.7350  0.4513
 3566TIP3    H210705   0.068   4.763   0.345  1.3283 -2.1794  0.4252
 3567TIP3   OH210706   2.545   4.602   4.750 -0.3369 -0.5574  0.5118
 3567TIP3    H110707   2.531   4.526   4.806  2.2898 -2.5096 -1.2309
 3567TIP3    H210708   2.465   4.611   4.699 -0.7344 -2.1277  0.8244
 3568TIP3   OH210709   3.781   3.218   4.177  0.1339  0.1208 -0.0108
 3568TIP3    H110710   3.747   3.130   4.191 -2.0383  0.5039 -2.2457
 3568TIP3    H210711   3.833   3.212   4.097  0.2281  0.8021 -0.0115
 3569TIP3   OH210712   2.525   5.168   1.852 -0.0620  0.1788  0.0027
 3569TIP3    H110713   2.486   5.228   1.915  0.9954 -0.4584  1.3269
 3569TIP3    H210714   2.508   5.081   1.888  2.9653 -0.1334  1.0073
 3570TIP3   OH210715   2.790   1.177   1.953 -0.3775 -0.1753  0.0949
 3570TIP3    H110716   2.783   1.164   2.048  0.4696 -0.7444  0.0915
 3570TIP3    H210717   2.763   1.268   1.940 -0.6476 -0.1345  0.8666
 3571TIP3   OH210718   5.968   0.119   2.026  0.0512  0.2108 -0.4413
 3571TIP3    H110719   6.004   0.095   1.941 -0.1680  0.0472 -0.4886
 3571TIP3    H210720   5.977   0.040   2.079 -0.6469  0.0256 -0.5875
 3572TIP3   OH210721   4.277   4.463   3.611  0.0101  0.1626 -0.4078
 3572TIP3    H110722   4.309   4.375   3.597 -2.7537 -0.8043 -1.3144
 3572TIP3    H210723   4.292   4.508   3.528 -0.4443 -0.1036 -0.6359
 3573TIP3   OH210724   2.502   3.298   0.784  0.3891 -0.1549 -0.2755
 3573TIP3    H110725   2.412   3.290   0.754  0.0964 -0.8276  0.7069
 3573TIP3    H210726   2.511   3.389   0.812  0.1762  0.0490 -0.8716
 3574TIP3   OH210727   4.454   0.208   0.761 -0.0918 -0.6715  0.6727
 3574TIP3    H110728   4.483   0.234   0.674  0.4473 -1.1563  0.7034
 3574TIP3    H210729   4.410   0.286   0.796  0.2313 -0.2767  0.2070
 3575TIP3   OH210730   0.570   5.666   5.104  0.4961  0.3306 -0.0324
 3575TIP3    H110731   0.636   5.646   5.171  0.5072 -0.2471 -0.2089
 3575TIP3    H210732   0.497   5.703   5.153  0.2577 -0.6642  0.3848
 3576TIP3   OH210733   3.375   4.818   0.801 -0.5313 -0.1970 -0.8100
 3576TIP3    H110734   3.432   4.809   0.725 -0.0529 -1.6265 -0.3196
 3576TIP3    H210735   3.342   4.729   0.816  0.6147 -0.3040  1.5776
 3577TIP3   OH210736   2.057   0.877   0.675  0.4498  0.3355 -0.2983
 3577TIP3    H110737   2.006   0.798   0.659 -1.2356  1.2124  0.4677
 3577TIP3    H210738   2.038   0.934   0.601  1.8347 -0.0087 -0.9651
 3578TIP3   OH210739   1.847   0.139   2.087  0.1804  0.2426 -0.2897
 3578TIP3    H110740   1.919   0.170   2.033  0.5348 -0.8890 -0.4988
 3578TIP3    H210741   1.889   0.113   2.169 -0.1669  0.6832  0.0350
 3579TIP3   OH210742   4.769   1.606   0.463 -0.2401 -0.2663  0.1235
 3579TIP3    H110743   4.851   1.557   0.457  0.3151  0.7164 -0.5159
 3579TIP3    H210744   4.794   1.690   0.502 -0.7600  0.4309 -1.0094
 3580TIP3   OH210745   0.715   2.454   3.537  0.2097  0.0950  0.2852
 3580TIP3    H110746   0.808   2.461   3.555  0.0960  1.0636  0.5316
 3580TIP3    H210747   0.692   2.537   3.495 -0.6353  0.0723  0.6782
 3581TIP3   OH210748   5.806   5.960   0.858 -0.8555  0.3278 -0.6769
 3581TIP3    H110749   5.826   6.030   0.921  2.0014 -1.1503  0.2241
 3581TIP3    H210750   5.781   5.886   0.912  0.4525 -0.6049 -1.2974
 3582TIP3   OH210751   0.889   3.148   0.573  0.0224  0.0167 -0.1253
 3582TIP3    H110752   0.812   3.098   0.545  1.6485 -2.5792 -0.2920
 3582TIP3    H210753   0.932   3.174   0.492  0.9838 -1.3417 -0.0747
 3583TIP3   OH210754   3.930   0.187   4.974 -0.0922  0.2490  0.4591
 3583TIP3    H110755   3.992   0.242   5.022  1.2729  0.4516 -1.4475
 3583TIP3    H210756   3.871   0.249   4.931 -0.4451  0.1122  0.7390
 3584TIP3   OH210757   5.233   3.607   4.371  0.8425 -0.1527 -0.0350
 3584TIP3    H110758   5.310   3.628   4.318  1.1885 -1.1039  0.0629
 3584TIP3    H210759   5.209   3.518   4.344  0.6618 -0.4170  0.9591
 3585TIP3   OH210760   3.521   1.606   4.268 -0.6363  0.1885 -0.4827
 3585TIP3    H110761   3.496   1.514   4.270  0.5668 -0.1467  0.6847
 3585TIP3    H210762   3.485   1.643   4.348  0.2625  0.3245 -0.1217
 3586TIP3   OH210763   4.108   1.031   0.147  0.2915 -0.1118  0.0794
 3586TIP3    H110764   4.167   1.010   0.075  0.1644  0.9435 -0.3512
 3586TIP3    H210765   4.021   1.008   0.114  0.1346  1.1431 -0.4489
 3587TIP3   OH210766   4.415   5.299   2.648  0.3895  0.7258  0.1752
 3587TIP3    H110767   4.467   5.225   2.615 -1.5347 -0.1731 -1.0169
 3587TIP3    H210768   4.433   5.370   2.586  1.4391  0.9689  0.7289
 3588TIP3   OH210769   3.574   3.771   4.529 -0.4152 -0.9575  0.1242
 3588TIP3    H110770   3.548   3.686   4.566  0.5476 -1.5654 -0.5518
 3588TIP3    H210771   3.526   3.777   4.447 -1.5194 -0.2190  0.8067
 3589TIP3   OH210772   5.281   0.137   4.711  0.5544 -0.1023 -0.0862
 3589TIP3    H110773   5.281   0.090   4.795  2.3487 -0.9040 -0.5037
 3589TIP3    H210774   5.234   0.079   4.651  0.4966 -0.1611  0.0146
 3590TIP3   OH210775   4.972   4.449   3.994 -0.0382 -0.2708 -0.1638
 3590TIP3    H110776   4.888   4.493   3.983  0.2593  0.4445  0.3780
 3590TIP3    H210777   4.956   4.359   3.966 -1.0921 -0.2486  0.3420
 3591TIP3   OH210778   5.087   0.630   2.840  0.0211 -0.1099 -0.4318
 3591TIP3    H110779   5.179   0.610   2.826 -0.1395 -0.3824 -1.1621
 3591TIP3    H210780   5.084   0.673   2.926  0.4233 -3.0679  1.1983
 3592TIP3   OH210781   1.026   0.729   1.773  0.3205 -0.3631  0.2209
 3592TIP3    H110782   1.028   0.824   1.786  1.0754 -0.1346 -1.3293
 3592TIP3    H210783   1.055   0.692   1.856  2.1315  0.8482  0.1592
 3593TIP3   OH210784   3.392   1.180   2.323 -0.4907 -0.0492 -0.2431
 3593TIP3    H110785   3.325   1.238   2.359 -0.6960 -0.2571 -0.2894
 3593TIP3    H210786   3.470   1.197   2.377 -0.5693  0.2164 -0.2130
 3594TIP3   OH210787   1.773   2.690   3.184  0.4733 -0.0348  0.7339
 3594TIP3    H110788   1.730   2.770   3.152 -2.0159 -2.0473 -1.4472
 3594TIP3    H210789   1.864   2.700   3.158 -0.0468  1.5469 -0.6749
 3595TIP3   OH210790   3.326   3.254   4.586 -0.4818  0.4364 -0.1671
 3595TIP3    H110791   3.367   3.184   4.534 -0.6164 -0.1523  0.4983
 3595TIP3    H210792   3.260   3.208   4.639 -0.3524  1.0199  0.5107
 3596TIP3   OH210793   0.481   4.740   0.913  0.2494  0.5729 -0.5578
 3596TIP3    H110794   0.468   4.825   0.955 -2.8324 -0.1785  0.2233
 3596TIP3    H210795   0.449   4.751   0.824 -1.8415 -0.1354  0.0499
 3597TIP3   OH210796   2.307   3.027   4.272 -0.0967 -0.1517 -0.1611
 3597TIP3    H110797   2.214   3.012   4.287  0.3328 -1.4961  1.6344
 3597TIP3    H210798   2.318   3.023   4.177 -1.8787  0.2642 -0.4166
 3598TIP3   OH210799   0.366   5.081   0.275  0.4454  0.1824  0.1109
 3598TIP3    H110800   0.402   5.016   0.215 -0.1825  0.4710 -0.5960
 3598TIP3    H210801   0.440   5.140   0.294  0.7758 -0.1998  0.0229
 3599TIP3   OH210802   3.674   0.152   1.537 -0.1923  0.1768 -0.2698
 3599TIP3    H110803   3.650   0.059   1.530  0.0108 -0.0662  1.6977
 3599TIP3    H210804   3.645   0.190   1.454 -1.1042 -1.4615 -0.7600
 3600TIP3   OH210805   3.871   2.875   4.770  0.2572 -0.0258 -0.3495
 3600TIP3    H110806   3.819   2.869   4.850  1.0855 -0.3717  0.1711
 3600TIP3    H210807   3.951   2.921   4.796  0.5471 -0.1628 -0.9672
 3601TIP3   OH210808   4.183   4.004   3.479  0.5111 -0.1725  0.3533
 3601TIP3    H110809   4.262   4.045   3.514  0.0610 -0.7455  2.1434
 3601TIP3    H210810   4.121   4.076   3.469  0.5442 -0.0370  1.0758
 3602TIP3   OH210811   4.539   4.097   3.311 -0.3515 -0.2055  0.2296
 3602TIP3    H110812   4.461   4.153   3.317 -0.2732  0.3153 -2.5103
 3602TIP3    H210813   4.513   4.015   3.354 -1.6936  0.6473  1.1295
 3603TIP3   OH210814   2.882   5.064   4.233  0.4573 -0.9538 -0.1876
 3603TIP3    H110815   2.962   5.012   4.237  0.9560 -0.2384 -0.5944
 3603TIP3    H210816   2.900   5.130   4.165 -0.4751 -0.7869 -0.2856
 3604TIP3   OH210817   5.743   3.939   5.004  0.0284  0.1458  0.3937
 3604TIP3    H110818   5.730   4.034   5.006  1.1038  0.3593 -1.1865
 3604TIP3    H210819   5.688   3.909   4.932 -1.5484 -0.6890  1.8783
 3605TIP3   OH210820   2.864   1.461   0.749 -0.6737  0.0559 -0.0176
 3605TIP3    H110821   2.895   1.441   0.661 -1.4911 -0.4782 -0.1926
 3605TIP3    H210822   2.943   1.484   0.797  0.0087 -1.3364 -0.4278
 3606TIP3   OH210823   5.881   0.278   3.088 -0.4371  0.2918 -0.9681
 3606TIP3    H110824   5.975   0.270   3.071 -0.3778  2.9017 -2.3167
 3606TIP3    H210825   5.855   0.191   3.120  1.9673 -1.1843 -2.6758
 3607TIP3   OH210826   0.745   1.285   0.475  0.0995 -0.2719  0.1116
 3607TIP3    H110827   0.664   1.337   0.469  0.8492  0.8267 -1.1861
 3607TIP3    H210828   0.739   1.241   0.560 -2.6328 -1.5681 -0.6418
 3608TIP3   OH210829   3.518   5.028   2.585  0.3653  0.4499  0.2206
 3608TIP3    H110830   3.428   5.002   2.604  1.0354 -1.2216  1.3540
 3608TIP3    H210831   3.515   5.124   2.581 -0.9226  0.6715  3.4399
 3609TIP3   OH210832   1.603   1.793   3.988 -0.9380  0.4882 -0.3251
 3609TIP3    H110833   1.678   1.825   4.039 -1.6267 -1.3356  2.0007
 3609TIP3    H210834   1.643   1.743   3.916  0.0840  0.7979  0.0070
 3610TIP3   OH210835   1.548   0.359   0.184 -0.6277 -0.4807  0.7932
 3610TIP3    H110836   1.622   0.353   0.124  0.0610 -0.0704  1.5738
 3610TIP3    H210837   1.477   0.396   0.132  0.5206  1.7260  0.6741
 3611TIP3   OH210838   3.577   1.865   2.524  0.0911 -0.0521  0.2083
 3611TIP3    H110839   3.633   1.941   2.540 -0.9055  0.6149  0.6572
 3611TIP3    H210840   3.563   1.827   2.611 -2.6119  1.6178  0.6379
 3612TIP3   OH210841   1.567   0.897   3.090 -0.4780 -0.0614  0.3032
 3612TIP3    H110842   1.619   0.845   3.151  1.0469  0.6046 -0.3758
 3612TIP3    H210843   1.477   0.886   3.120 -0.0028 -1.5168  1.3286
 3613TIP3   OH210844   4.573   1.380   5.048 -0.0966  0.7190  0.2127
 3613TIP3    H110845   4.487   1.342   5.064  0.9759 -2.0472 -0.0463
 3613TIP3    H210846   4.557   1.453   4.988 -2.5537  2.3608  2.6564
 3614TIP3   OH210847   2.274   5.390   4.595  0.4136 -1.1262 -0.2307
 3614TIP3    H110848   2.180   5.410   4.590  0.4512 -0.8332  0.1996
 3614TIP3    H210849   2.314   5.444   4.527  0.3494 -0.7505  0.0293
 3615TIP3   OH210850   0.389   0.496   4.759 -0.1072  0.1495 -0.5864
 3615TIP3    H110851   0.438   0.454   4.830  0.7870 -0.0540 -1.3084
 3615TIP3    H210852   0.442   0.572   4.736 -1.2955  1.2347  0.1444
 3616TIP3   OH210853   4.401   2.149   1.125 -0.2517 -0.3158  0.3248
 3616TIP3    H110854   4.489   2.165   1.091 -0.6631 -1.1497 -1.2460
 3616TIP3    H210855   4.403   2.058   1.154 -1.2395 -1.1748 -2.0660
 3617TIP3   OH210856   0.851   1.989   1.132 -0.0003 -0.8473  0.2172
 3617TIP3    H110857   0.941   1.960   1.145  0.0504 -0.0321  2.0405
 3617TIP3    H210858   0.845   2.072   1.180 -1.3828 -0.2399 -0.9260
 3618TIP3   OH210859   2.231   3.220   4.794  0.1001  0.3439 -0.6199
 3618TIP3    H110860   2.318   3.212   4.756  0.0698 -0.0600 -0.6147
 3618TIP3    H210861   2.235   3.167   4.874  0.4810  2.0024  0.5083
 3619TIP3   OH210862   1.921   2.620   0.892 -0.2600 -0.0170  0.3761
 3619TIP3    H110863   1.852   2.605   0.828 -1.2473  0.3281  1.3166
 3619TIP3    H210864   1.874   2.631   0.975  0.8683  1.1309  0.8977
 3620TIP3   OH210865   1.110   2.974   0.676 -0.0888 -0.2193 -0.2104
 3620TIP3    H110866   1.042   2.908   0.668 -0.8659  0.6791 -1.3563
 3620TIP3    H210867   1.063   3.057   0.678  0.7816  0.2891  2.4728
 3621TIP3   OH210868   5.165   3.616   0.412 -0.3262  0.3960  0.4205
 3621TIP3    H110869   5.135   3.571   0.491 -1.2030  1.7068  0.8689
 3621TIP3    H210870   5.084   3.641   0.367  0.1654  0.1078 -0.6303
 3622TIP3   OH210871   2.305   4.643   1.157  0.2298  0.2854  0.2868
 3622TIP3    H110872   2.229   4.645   1.098  0.9807  0.6210 -0.6974
 3622TIP3    H210873   2.379   4.625   1.100  0.8123 -0.7955  1.3466
 3623TIP3   OH210874   3.978   3.966   4.703  0.1940  0.2361 -0.0587
 3623TIP3    H110875   3.993   3.993   4.613  0.6264  0.3118  0.0340
 3623TIP3    H210876   3.908   4.023   4.734 -0.0562  0.1149 -0.3875
 3624TIP3   OH210877   3.306   3.975   2.203 -0.0919 -0.1163 -0.1963
 3624TIP3    H110878   3.387   3.948   2.248  1.1367  0.7389 -1.8019
 3624TIP3    H210879   3.299   4.069   2.221  0.1316  0.1277 -1.3469
 3625TIP3   OH210880   5.179   3.638   4.732 -0.2689 -0.1652 -0.4232
 3625TIP3    H110881   5.144   3.717   4.772 -0.2739 -0.5343  0.3228
 3625TIP3    H210882   5.106   3.576   4.734 -0.1646 -0.2947 -0.6872
 3626TIP3   OH210883   3.612   0.058   0.366 -0.2481  0.0666 -0.1947
 3626TIP3    H110884   3.554   0.076   0.292 -2.1775  0.0674  1.2237
 3626TIP3    H210885   3.690   0.110   0.350 -0.1797 -0.7114 -2.7004
 3627TIP3   OH210886   5.226   1.103   3.944 -0.1366  0.2786  0.6185
 3627TIP3    H110887   5.267   1.060   3.869 -1.3035  1.1465 -0.5655
 3627TIP3    H210888   5.297   1.115   4.006  0.9010 -0.3481 -0.3998
 3628TIP3   OH210889   6.219   1.654   3.850  0.2023  0.0359  0.4005
 3628TIP3    H110890   6.157   1.651   3.923  1.0471 -0.8288  1.0861
 3628TIP3    H210891   6.284   1.587   3.869  0.6953  0.1007 -0.9231
 3629TIP3   OH210892   0.000   2.327   1.001 -0.1640  0.4146 -0.3257
 3629TIP3    H110893   0.022   2.394   0.935  0.7610  0.3105 -0.1376
 3629TIP3    H210894   0.019   2.244   0.957 -0.6129  0.2992 -0.3044
 3630TIP3   OH210895   2.410   3.877   1.348 -0.0109 -0.2971 -0.4061
 3630TIP3    H110896   2.504   3.885   1.364  0.1720  1.4320 -1.9965
 3630TIP3    H210897   2.387   3.789   1.379  1.7529 -0.1221  1.6285
 3631TIP3   OH210898   2.747   2.065   5.185  1.1224 -0.1643 -0.0537
 3631TIP3    H110899   2.737   1.970   5.180 -2.0284 -0.0498  1.6234
 3631TIP3    H210900   2.657   2.099   5.181  2.0514  2.6531  0.7183
 3632TIP3   OH210901   5.969   5.695   4.833  0.6099 -0.4038  0.1396
 3632TIP3    H110902   5.956   5.600   4.840  1.6935 -0.5281  0.7174
 3632TIP3    H210903   5.953   5.727   4.921  1.8868 -0.2797  0.3407
 3633TIP3   OH210904   0.340   3.415   0.877  0.1093 -0.1049 -0.4134
 3633TIP3    H110905   0.255   3.436   0.916  0.6166  2.8159 -0.6521
 3633TIP3    H210906   0.319   3.392   0.786 -0.4942  0.0891 -0.3281
 3634TIP3   OH210907   0.778   5.774   2.321 -0.6685 -0.0207  0.2304
 3634TIP3    H110908   0.770   5.680   2.338  1.4157 -0.3551 -0.3407
 3634TIP3    H210909   0.713   5.815   2.378 -1.0074 -1.7451  1.1294
 3635TIP3   OH210910   1.254   2.039   3.848 -0.3741  0.1791  0.5292
 3635TIP3    H110911   1.193   1.985   3.797  1.0953 -0.4295 -0.6604
 3635TIP3    H210912   1.199   2.084   3.912 -2.2105  0.4044 -1.1179
 3636TIP3   OH210913   4.210   0.373   2.446  0.1942  0.3634  0.2893
 3636TIP3    H110914   4.195   0.430   2.522  1.5350  0.7639  0.2649
 3636TIP3    H210915   4.124   0.333   2.430 -0.0699  0.0844  2.1565
 3637TIP3   OH210916   6.308   4.627   3.859  0.0759 -0.4868 -0.9813
 3637TIP3    H110917   6.219   4.623   3.824 -0.5085 -0.1606  0.3894
 3637TIP3    H210918   6.311   4.710   3.906  1.0844 -0.5356 -0.9406
 3638TIP3   OH210919   5.131   5.654   2.311 -0.0106  0.2236 -0.2010
 3638TIP3    H110920   5.217   5.688   2.335  0.0461  2.4461 -3.0039
 3638TIP3    H210921   5.143   5.622   2.221 -1.5699 -1.8198  0.2428
 3639TIP3   OH210922   4.753   0.758   2.074  0.2760  0.0774  0.2991
 3639TIP3    H110923   4.772   0.843   2.033  1.0696  0.4936  1.4843
 3639TIP3    H210924   4.675   0.727   2.029  0.0257  1.3958 -0.2204
 3640TIP3   OH210925   0.206   4.212   3.523  0.4776  0.3893 -0.1680
 3640TIP3    H110926   0.261   4.277   3.478  0.0261  0.7841 -0.1472
 3640TIP3    H210927   0.176   4.256   3.602  0.4475  0.0329  0.0224
 3641TIP3   OH210928   0.675   2.057   4.637  0.0334 -0.0271 -0.0849
 3641TIP3    H110929   0.771   2.055   4.636  0.0589 -1.6883  1.2614
 3641TIP3    H210930   0.651   2.023   4.724 -1.7711  1.3855  0.0215
 3642TIP3   OH210931   3.934   0.959   2.620 -0.2363 -0.3787  0.0115
 3642TIP3    H110932   3.921   0.920   2.533 -0.9792  1.6537 -0.8536
 3642TIP3    H210933   3.845   0.975   2.652  0.0165 -1.4215  1.3521
 3643TIP3   OH210934   4.447   2.624   3.844  0.8395 -0.1243 -0.1985
 3643TIP3    H110935   4.441   2.664   3.757 -0.6425 -0.6122 -0.3439
 3643TIP3    H210936   4.420   2.533   3.831  0.7737 -0.2461  0.7341
 3644TIP3   OH210937   4.266   5.674   2.705  0.4066 -0.1075  0.4027
 3644TIP3    H110938   4.273   5.582   2.729  1.6994 -0.1053  0.1110
 3644TIP3    H210939   4.355   5.700   2.684 -0.2289  0.6309 -1.6293
 3645TIP3   OH210940   0.713   4.423   5.067  0.0640 -0.2866 -0.5047
 3645TIP3    H110941   0.800   4.436   5.030 -0.3097  1.8819 -0.7458
 3645TIP3    H210942   0.653   4.441   4.994 -0.6395  2.4437  0.6117
 3646TIP3   OH210943   0.800   3.817   5.041  0.1256 -0.0962 -0.5833
 3646TIP3    H110944   0.835   3.815   5.130 -1.8520  1.1654  0.2747
 3646TIP3    H210945   0.850   3.750   4.994  1.5110 -0.4797  1.3426
 3647TIP3   OH210946   3.739   4.683   5.037  0.3579  0.2121  0.0669
 3647TIP3    H110947   3.778   4.753   4.985 -0.6249  0.5772 -0.2000
 3647TIP3    H210948   3.769   4.700   5.127  0.9315  0.3882 -0.1530
 3648TIP3   OH210949   3.543   4.135   3.151  0.3550  0.3657 -0.4031
 3648TIP3    H110950   3.466   4.152   3.206  0.5135 -3.1435  1.1919
 3648TIP3    H210951   3.513   4.152   3.062 -0.9596  2.9980  0.4210
 3649TIP3   OH210952   3.551   1.049   0.562  0.3026 -0.1726 -0.2444
 3649TIP3    H110953   3.518   0.986   0.497  0.2589 -0.9925  0.5514
 3649TIP3    H210954   3.477   1.063   0.621  0.6839 -0.3116  0.2756
 3650TIP3   OH210955   5.053   0.890   2.996 -0.0885  0.0577 -0.3547
 3650TIP3    H110956   4.983   0.947   2.964 -2.4843 -1.9007  1.0873
 3650TIP3    H210957   5.023   0.860   3.081  3.0078 -0.1497  0.7992
 3651TIP3   OH210958   2.568   4.226   1.468 -0.6642 -0.8676 -0.2451
 3651TIP3    H110959   2.480   4.216   1.505 -0.9331 -1.4763 -1.0435
 3651TIP3    H210960   2.560   4.196   1.378 -0.2176  1.3645 -1.1004
 3652TIP3   OH210961   6.340   0.745   1.134 -0.1852 -0.3035 -1.1170
 3652TIP3    H110962   6.392   0.701   1.068 -0.5332 -1.2549 -0.7731
 3652TIP3    H210963   6.278   0.679   1.164 -0.4247  0.2869 -0.2685
 3653TIP3   OH210964   5.603   4.704   3.777  0.1517 -0.3938 -0.4105
 3653TIP3    H110965   5.669   4.686   3.843  0.8628  0.1205 -0.9633
 3653TIP3    H210966   5.547   4.772   3.817  2.5093  2.3866 -1.4883
 3654TIP3   OH210967   1.567   2.040   1.475  0.5807  0.3686  0.0902
 3654TIP3    H110968   1.562   1.966   1.534 -0.2516  0.0275 -0.3964
 3654TIP3    H210969   1.631   2.013   1.408 -0.1904 -0.1760 -0.4405
 3655TIP3   OH210970   1.135   2.726   4.408 -0.4410  0.0795 -0.5278
 3655TIP3    H110971   1.173   2.726   4.320  0.0783 -1.3504 -0.3271
 3655TIP3    H210972   1.186   2.792   4.456  2.2082 -2.1101 -0.1347
 3656TIP3   OH210973   0.286   5.337   3.441  0.9016  0.0624 -0.4891
 3656TIP3    H110974   0.323   5.252   3.419  1.4925  0.5915 -1.6220
 3656TIP3    H210975   0.224   5.356   3.371  0.4212  0.3531  0.0082
 3657TIP3   OH210976   0.084   1.712   1.554  0.1657 -0.1556 -0.2501
 3657TIP3    H110977   0.109   1.627   1.518  0.8859 -0.4059  0.8065
 3657TIP3    H210978   0.112   1.775   1.488 -0.2271 -0.7180 -0.9699
 3658TIP3   OH210979   5.861   3.057   0.162 -0.2529  0.0945 -0.1400
 3658TIP3    H110980   5.768   3.040   0.176 -0.7666  2.7837  0.3081
 3658TIP3    H210981   5.904   3.023   0.240 -1.0283 -0.0157  0.2468
 3659TIP3   OH210982   4.385   3.066   2.926 -0.1004 -0.3417  0.0365
 3659TIP3    H110983   4.372   3.103   3.013  0.8623 -1.9810  0.9317
 3659TIP3    H210984   4.313   3.102   2.873  0.0485  1.7070  1.1418
 3660TIP3   OH210985   3.556   1.054   4.177  0.0304 -0.3331 -0.0261
 3660TIP3    H110986   3.646   1.024   4.172  0.4742  0.8601  0.6089
 3660TIP3    H210987   3.509   0.998   4.115  1.0184 -1.5783  0.3113
 3661TIP3   OH210988   5.716   3.803   2.933  0.8971  0.6553  0.4350
 3661TIP3    H110989   5.699   3.887   2.891  0.4034 -0.6910 -2.3033
 3661TIP3    H210990   5.799   3.774   2.896 -0.1543 -1.1374 -0.7304
 3662TIP3   OH210991   3.909   3.442   4.269  0.0524 -0.1554  0.2462
 3662TIP3    H110992   3.871   3.355   4.267  2.5836 -1.3564  0.7257
 3662TIP3    H210993   3.852   3.492   4.329 -0.4320 -1.9817  1.3735
 3663TIP3   OH210994   5.733   3.306   3.539  0.6372 -0.2287  0.4100
 3663TIP3    H110995   5.822   3.313   3.506  0.1135 -1.6463 -1.5203
 3663TIP3    H210996   5.711   3.214   3.529 -1.5896  0.3480 -0.8083
 3664TIP3   OH210997   3.069   3.445   1.839  0.0736 -0.2140 -0.3586
 3664TIP3    H110998   3.012   3.369   1.834 -0.5443  0.1939  0.3103
 3664TIP3    H210999   3.024   3.513   1.789  1.0624 -0.5284 -1.7482
 3665TIP3   OH211000   5.542   0.142   4.246 -0.2127  0.5213 -0.0951
 3665TIP3    H111001   5.552   0.112   4.336 -0.8830  0.0395 -0.1787
 3665TIP3    H211002   5.632   0.161   4.217 -0.0506  1.3400  0.8809
 3666TIP3   OH211003   0.979   0.959   0.255 -0.1482 -0.1466  0.2842
 3666TIP3    H111004   0.900   1.001   0.222 -1.0987 -1.1398  1.1988
 3666TIP3    H211005   1.023   1.027   0.306 -0.7802  0.2188  0.3489
 3667TIP3   OH211006   3.178   3.780   0.865  0.4488  0.5359  0.2308
 3667TIP3    H111007   3.248   3.733   0.910 -0.1688 -1.1333 -0.4972
 3667TIP3    H211008   3.141   3.717   0.804 -1.4038  1.5242  0.2613
 3668TIP3   OH211009   2.646   1.255   2.362 -0.4770 -0.7897 -0.0238
 3668TIP3    H111010   2.567   1.211   2.395 -1.5063  1.6725  1.0198
 3668TIP3    H211011   2.616   1.307   2.288  0.2837 -0.2667  0.0237
 3669TIP3   OH211012   5.388   3.909   2.020 -0.2149  0.7406  0.0980
 3669TIP3    H111013   5.413   3.864   2.100  0.1166  0.1910 -0.3072
 3669TIP3    H211014   5.352   3.840   1.964  2.4821  0.4853 -1.4725
 3670TIP3   OH211015   2.187   2.515   3.677 -0.1477  0.1324  0.1148
 3670TIP3    H111016   2.205   2.476   3.762 -0.4649 -0.9682 -0.3022
 3670TIP3    H211017   2.129   2.589   3.696 -0.8820 -0.6001  0.7952
 3671TIP3   OH211018   0.505   4.984   2.736 -0.3831  0.0388 -0.2778
 3671TIP3    H111019   0.418   4.955   2.711 -0.8007  0.7655  0.2944
 3671TIP3    H211020   0.522   4.941   2.820 -0.1344 -0.2162 -0.4600
 3672TIP3   OH211021   2.026   2.971   1.723  0.2071 -0.2249 -0.7740
 3672TIP3    H111022   2.097   3.015   1.770  0.7981 -2.1260  0.2522
 3672TIP3    H211023   1.947   3.018   1.749  0.5665 -0.9002  1.8370
 3673TIP3   OH211024   2.998   2.296   2.409  0.2588 -0.1407  0.0627
 3673TIP3    H111025   2.986   2.223   2.470 -0.3265  2.5167  3.4571
 3673TIP3    H211026   3.089   2.323   2.421  0.8699 -0.9766 -2.1420
 3674TIP3   OH211027   1.929   1.760   4.865 -0.2282 -0.0885  0.0805
 3674TIP3    H111028   1.886   1.836   4.827  0.1479 -0.2043 -0.5832
 3674TIP3    H211029   1.897   1.758   4.955 -1.2205  0.1186 -0.2501
 3675TIP3   OH211030   1.607   3.421   4.001 -0.1076 -0.3209  0.1861
 3675TIP3    H111031   1.671   3.491   4.014  0.5888 -1.1695  1.4520
 3675TIP3    H211032   1.655   3.340   4.019 -1.7008 -0.9432  1.8865
 3676TIP3   OH211033   6.133   5.849   2.962 -0.0765  0.1407 -0.2061
 3676TIP3    H111034   6.057   5.906   2.975  0.3873  0.8111 -0.3785
 3676TIP3    H211035   6.111   5.769   3.010 -0.4305  0.7386  0.6588
 3677TIP3   OH211036   4.497   5.360   3.548  0.0970  0.1535  0.4428
 3677TIP3    H111037   4.494   5.411   3.467  2.6170  0.5894  0.5712
 3677TIP3    H211038   4.407   5.329   3.559 -0.3055 -0.1296 -2.6395
 3678TIP3   OH211039   2.503   5.950   2.068 -0.1079 -0.0957  0.7026
 3678TIP3    H111040   2.483   6.020   2.007 -0.0359 -1.3106 -0.7657
 3678TIP3    H211041   2.597   5.934   2.058  0.2589  0.7752  2.3553
 3679TIP3   OH211042   3.514   5.216   1.012 -0.2769 -0.1248 -0.2849
 3679TIP3    H111043   3.514   5.240   0.919  0.1945  2.1871  0.2607
 3679TIP3    H211044   3.607   5.219   1.037 -0.6459  3.2900  1.1465
 3680TIP3   OH211045   0.082   3.195   3.614  0.3951  0.3523  0.0682
 3680TIP3    H111046   0.136   3.249   3.557 -0.4788  0.1467 -0.9789
 3680TIP3    H211047   0.079   3.110   3.571 -0.2616  0.1871  0.4365
 3681TIP3   OH211048   0.932   0.125   2.618  0.1427  0.6846  0.1155
 3681TIP3    H111049   0.913   0.031   2.616 -1.8935  1.0178  0.7592
 3681TIP3    H211050   0.929   0.152   2.526  2.1833 -0.0744 -0.2287
 3682TIP3   OH211051   5.030   3.171   0.400 -0.5206  0.1731  0.4775
 3682TIP3    H111052   5.031   3.156   0.305 -0.1751 -1.3599  0.7065
 3682TIP3    H211053   4.941   3.200   0.418 -0.7000  0.1152 -0.2577
 3683TIP3   OH211054   2.859   0.192   5.025 -0.4999 -0.5471  0.4853
 3683TIP3    H111055   2.931   0.253   5.011  1.1475 -2.2509  1.1969
 3683TIP3    H211056   2.781   0.242   5.003  0.9098  1.2280 -0.7804
 3684TIP3   OH211057   2.172   4.155   0.606 -0.2902 -0.1181  0.2500
 3684TIP3    H111058   2.126   4.237   0.586 -0.8683  0.0752  2.2302
 3684TIP3    H211059   2.228   4.177   0.680  0.6609 -1.1636 -0.1449
 3685TIP3   OH211060   0.766   3.261   5.026  0.0795  0.2220 -0.2683
 3685TIP3    H111061   0.742   3.210   4.949  0.5392  0.7434 -0.7675
 3685TIP3    H211062   0.686   3.266   5.078 -1.0270  2.1327 -2.0189
 3686TIP3   OH211063   1.540   3.543   2.950  0.1919 -0.1888 -0.0295
 3686TIP3    H111064   1.477   3.560   2.880  0.7854 -0.0423 -0.5374
 3686TIP3    H211065   1.487   3.510   3.023 -0.5394  0.4787 -0.2476
 3687TIP3   OH211066   0.866   0.094   2.243  0.2699  0.0125 -0.0966
 3687TIP3    H111067   0.912   0.144   2.311 -1.0356  0.2242  0.6686
 3687TIP3    H211068   0.931   0.031   2.212  0.6768 -0.6382  1.9232
 3688TIP3   OH211069   0.513   0.950   2.840 -0.1606 -0.7098  0.3389
 3688TIP3    H111070   0.460   1.026   2.864 -1.6069 -1.5534 -0.0765
 3688TIP3    H211071   0.483   0.881   2.899  0.3846 -1.2470 -0.0056
 3689TIP3   OH211072   3.262   4.583   0.855 -0.3698 -0.0117  0.1715
 3689TIP3    H111073   3.248   4.493   0.826  0.7613  0.3061 -1.5177
 3689TIP3    H211074   3.178   4.609   0.892 -0.8222 -1.6353  0.3634
 3690TIP3   OH211075   0.663   1.400   3.789 -0.2128 -0.4342  0.4589
 3690TIP3    H111076   0.582   1.369   3.829 -1.0786  0.8561 -0.2441
 3690TIP3    H211077   0.731   1.376   3.851 -1.4730  1.3035  2.6569
 3691TIP3   OH211078   1.188   5.816   2.778  0.2040 -0.4488  0.0157
 3691TIP3    H111079   1.210   5.724   2.789  0.9288 -0.4188 -0.9580
 3691TIP3    H211080   1.105   5.816   2.731  0.9020 -0.6438 -1.2663
 3692TIP3   OH211081   1.158   2.697   2.785  0.0063 -0.3484 -0.3105
 3692TIP3    H111082   1.185   2.760   2.717 -1.7585  0.8586  0.0184
 3692TIP3    H211083   1.167   2.612   2.743  1.5045  0.1668 -1.1329
 3693TIP3   OH211084   3.071   2.614   4.888 -0.2615  0.3275  0.2397
 3693TIP3    H111085   3.162   2.643   4.896 -0.2849  0.1480  1.2924
 3693TIP3    H211086   3.028   2.684   4.838  0.8024 -0.4006 -1.7996
 3694TIP3   OH211087   2.138   1.503   2.008  0.0966 -0.6314  0.3241
 3694TIP3    H111088   2.120   1.424   1.957  0.2236 -0.5929  0.2185
 3694TIP3    H211089   2.151   1.471   2.097 -2.6038 -0.4484  0.8470
 3695TIP3   OH211090   5.166   4.164   2.952  0.3354 -0.3143  0.0081
 3695TIP3    H111091   5.261   4.160   2.956  0.5705  1.1557 -2.2201
 3695TIP3    H211092   5.141   4.093   2.893  0.7344  2.7204 -4.3096
 3696TIP3   OH211093   4.165   0.090   5.116 -0.3884  0.8083 -0.0591
 3696TIP3    H111094   4.183  -0.003   5.127 -0.7878  0.5553 -1.3715
 3696TIP3    H211095   4.243   0.134   5.152  0.0786 -0.0514  0.0006
 3697TIP3   OH211096   4.406   1.931   4.886  0.4077  0.0050  0.3338
 3697TIP3    H111097   4.346   1.998   4.853 -1.9214 -0.9492  2.3445
 3697TIP3    H211098   4.449   1.972   4.961  0.0675 -0.2753  0.6831
 3698TIP3   OH211099   4.456   0.723   1.899  0.3439 -0.4488 -0.3770
 3698TIP3    H111100   4.363   0.722   1.875  0.1976 -1.2147  0.1532
 3698TIP3    H211101   4.458   0.681   1.985  1.0957  0.2806 -0.0254
 3699TIP3   OH211102   5.846   0.473   1.820  0.5397 -0.2181 -0.3061
 3699TIP3    H111103   5.936   0.505   1.822  0.3660  0.3726 -1.5490
 3699TIP3    H211104   5.817   0.478   1.911  1.3732  0.6920 -0.0764
 3700TIP3   OH211105   5.074   1.252   1.924  0.0392 -0.2166 -0.3402
 3700TIP3    H111106   5.014   1.239   1.998 -0.3297 -2.0285 -0.9081
 3700TIP3    H211107   5.162   1.248   1.963 -0.1511 -1.2689  0.0121
 3701TIP3   OH211108   2.725   1.870   1.296 -0.0163 -0.5841  0.2313
 3701TIP3    H111109   2.641   1.895   1.332  0.6613  2.3947 -0.0176
 3701TIP3    H211110   2.784   1.943   1.317  1.5436 -0.7866 -2.7993
 3702TIP3   OH211111   0.189   3.527   5.139  0.2543 -0.1364 -0.2336
 3702TIP3    H111112   0.103   3.569   5.136  0.3974  0.1307 -0.7234
 3702TIP3    H211113   0.197   3.482   5.055  1.5724  1.8342 -1.2464
 3703TIP3   OH211114   0.052   5.191   2.262 -0.2653  0.5141  0.7181
 3703TIP3    H111115   0.032   5.179   2.169 -0.6278  1.7986  0.6089
 3703TIP3    H211116   0.042   5.285   2.277 -0.8201  0.2556  2.1989
 3704TIP3   OH211117   2.557   5.579   2.339 -0.1042 -0.0050 -0.2949
 3704TIP3    H111118   2.520   5.627   2.265  2.9299  1.5635 -0.9544
 3704TIP3    H211119   2.544   5.637   2.414  1.5474  0.9155 -0.6724
 3705TIP3   OH211120   2.995   5.629   1.539 -0.1295 -0.6751 -0.7474
 3705TIP3    H111121   3.043   5.705   1.506  2.8544 -1.4477  1.3537
 3705TIP3    H211122   3.049   5.554   1.514 -0.2447 -1.6271  1.5997
 3706TIP3   OH211123   1.820   1.421   0.286  0.4218 -0.4721 -0.0821
 3706TIP3    H111124   1.773   1.434   0.204  1.8518  0.0281 -0.8526
 3706TIP3    H211125   1.801   1.499   0.338 -0.6313 -0.8734  0.1584
 3707TIP3   OH211126   4.786   5.335   4.099 -0.2750 -0.4813 -0.5445
 3707TIP3    H111127   4.809   5.316   4.009 -0.4273 -0.6069 -0.5573
 3707TIP3    H211128   4.857   5.296   4.151 -0.1496 -0.3437 -0.6137
 3708TIP3   OH211129   4.742   4.708   1.353 -0.0909  0.3107  0.4148
 3708TIP3    H111130   4.770   4.649   1.283  1.0720  0.8965  0.3551
 3708TIP3    H211131   4.735   4.653   1.430  1.1762  0.1075  0.4063
 3709TIP3   OH211132   2.452   3.964   3.427 -0.1666  0.7653 -0.2281
 3709TIP3    H111133   2.451   3.892   3.365  1.1761  0.4332  0.0988
 3709TIP3    H211134   2.374   3.951   3.481 -0.6198  0.2975 -0.9870
 3710TIP3   OH211135   5.420   1.847   3.697 -0.1533 -0.0503  0.8015
 3710TIP3    H111136   5.502   1.892   3.680 -1.1015  1.2344 -0.6710
 3710TIP3    H211137   5.434   1.800   3.780  1.6416  1.0826  1.1773
 3711TIP3   OH211138   4.199   3.921   1.555  0.5276 -0.2618  0.1397
 3711TIP3    H111139   4.287   3.884   1.564  1.7382  1.6889 -2.4710
 3711TIP3    H211140   4.180   3.918   1.462 -2.1615 -0.4424  0.5948
 3712TIP3   OH211141   2.838   4.154   1.320 -0.3854 -0.3567  0.0381
 3712TIP3    H111142   2.842   4.058   1.327  1.1855 -0.4117 -0.9258
 3712TIP3    H211143   2.769   4.170   1.256  0.7226 -1.0031 -1.3930
 3713TIP3   OH211144   3.685   2.899   4.004  0.0257  0.1222 -0.0784
 3713TIP3    H111145   3.775   2.880   3.980  0.1485  0.8427 -0.2278
 3713TIP3    H211146   3.687   2.917   4.098  0.3770  1.9258 -0.3875
 3714TIP3   OH211147   2.673   5.584   0.895  0.0290  0.1234 -0.1155
 3714TIP3    H111148   2.620   5.587   0.974 -0.4822 -1.9534 -0.3348
 3714TIP3    H211149   2.754   5.629   0.919 -0.9647  1.4907  0.8626
 3715TIP3   OH211150   0.148   0.301   0.232  0.1419  0.0690  0.9518
 3715TIP3    H111151   0.116   0.219   0.270 -1.0792  0.5334  0.9776
 3715TIP3    H211152   0.116   0.300   0.141  0.4610  0.3384  0.8330
 3716TIP3   OH211153   4.604   1.958   2.741 -0.3438  0.6832 -0.1386
 3716TIP3    H111154   4.648   1.873   2.733  2.2331  1.9792 -0.6003
 3716TIP3    H211155   4.520   1.945   2.698  0.0414 -1.5817 -0.3585
 3717TIP3   OH211156   4.019   2.409   0.993  0.1410 -0.0303  0.4440
 3717TIP3    H111157   4.078   2.367   1.055  0.7690  0.0605 -0.0758
 3717TIP3    H211158   3.953   2.342   0.973  1.0150 -0.7215 -0.2223
 3718TIP3   OH211159   1.927   5.070   4.834 -0.0681 -0.5935  0.3554
 3718TIP3    H111160   1.987   5.079   4.760 -0.3443 -0.7943  0.1037
 3718TIP3    H211161   1.948   5.145   4.890 -1.4975  1.0423 -1.1305
 3719TIP3   OH211162   3.948   4.405   2.747 -0.7915  0.3120  0.2933
 3719TIP3    H111163   3.981   4.495   2.744 -1.3099  0.5323  1.0018
 3719TIP3    H211164   3.991   4.361   2.673  0.1415  0.9062  0.4736
 3720TIP3   OH211165   1.731   4.664   3.180 -0.0056 -0.1908  0.4516
 3720TIP3    H111166   1.645   4.690   3.214 -0.2367  2.2248 -1.7158
 3720TIP3    H211167   1.720   4.662   3.085  1.7089 -2.4642  0.2187
 3721TIP3   OH211168   4.005   1.814   1.847  0.0969  0.2926 -0.0237
 3721TIP3    H111169   3.957   1.833   1.928 -0.4886  1.2943 -0.5715
 3721TIP3    H211170   4.092   1.850   1.861  1.0490 -2.3606  1.3321
 3722TIP3   OH211171   0.977   4.737   5.089 -0.5514  0.0093  0.0919
 3722TIP3    H111172   1.013   4.800   5.152 -0.4563  0.6455 -0.5828
 3722TIP3    H211173   1.053   4.690   5.056 -0.6227 -0.4599  0.5995
 3723TIP3   OH211174   1.936   5.004   0.533  0.6674  0.0974 -0.7543
 3723TIP3    H111175   1.925   5.079   0.591  1.6835  0.1726 -0.6524
 3723TIP3    H211176   1.894   5.032   0.451  2.2771  1.3587 -1.2005
 3724TIP3   OH211177   1.659   2.103   3.139 -0.4262  0.4160 -0.1112
 3724TIP3    H111178   1.602   2.050   3.083  0.7940  0.8059 -1.7980
 3724TIP3    H211179   1.747   2.070   3.122  0.0464  0.9602  1.1419
 3725TIP3   OH211180   4.321   4.247   1.265  0.3913 -0.1177  0.5862
 3725TIP3    H111181   4.260   4.208   1.327  0.3562  1.2075  1.4433
 3725TIP3    H211182   4.360   4.320   1.314  1.9419 -0.3434 -0.2618
 3726TIP3   OH211183   4.463   3.453   0.385  0.0979  0.5771  0.0109
 3726TIP3    H111184   4.460   3.400   0.305  0.3856 -1.8242  1.4971
 3726TIP3    H211185   4.375   3.491   0.392 -0.8669 -1.5437  0.0188
 3727TIP3   OH211186   0.305   2.964   4.271  0.2326 -0.2341 -0.4454
 3727TIP3    H111187   0.352   2.882   4.253  2.5850  1.1049 -0.8078
 3727TIP3    H211188   0.342   3.027   4.209 -0.6749  1.4095  0.6196
 3728TIP3   OH211189   2.611   5.027   0.727  0.4535  0.0990  1.1258
 3728TIP3    H111190   2.685   5.048   0.671  0.2587  0.4401  0.9979
 3728TIP3    H211191   2.647   4.967   0.793  0.4592 -1.1424  0.0387
 3729TIP3   OH211192   3.562   4.748   0.036 -0.2330  0.5241  0.4836
 3729TIP3    H111193   3.594   4.797   0.111  1.5602 -0.1061  0.1880
 3729TIP3    H211194   3.641   4.710  -0.003 -1.4882 -2.4270  0.5831
 3730TIP3   OH211195   0.932   4.172   1.114  0.2171  0.0681 -0.1280
 3730TIP3    H111196   0.979   4.254   1.127  0.8548  0.0931 -2.1817
 3730TIP3    H211197   1.000   4.107   1.096 -0.3753 -0.5178 -0.3335
 3731TIP3   OH211198   1.436   3.453   0.530  0.1470 -0.4879  0.6735
 3731TIP3    H111199   1.355   3.438   0.579 -1.4012 -0.6261 -1.7362
 3731TIP3    H211200   1.463   3.542   0.554 -2.1289  0.5346 -0.2053
 3732TIP3   OH211201   5.020   4.234   2.507 -0.0454  0.2503  0.0348
 3732TIP3    H111202   4.953   4.245   2.574  0.3261 -2.3149  0.9694
 3732TIP3    H211203   5.103   4.249   2.553  0.1530 -0.3286 -0.1149
 3733TIP3   OH211204   0.022   0.853   2.595 -0.1016  0.2649 -0.1610
 3733TIP3    H111205   0.033   0.810   2.680 -1.2594 -1.0130 -0.6144
 3733TIP3    H211206   0.046   0.786   2.531 -0.3950  0.8126 -0.8556
 3734TIP3   OH211207   5.563   0.041   2.408 -0.2558  0.5829 -0.2499
 3734TIP3    H111208   5.572   0.131   2.375 -1.4461  0.4522 -0.9849
 3734TIP3    H211209   5.469   0.026   2.412 -0.1130 -0.0338  1.6058
 3735TIP3   OH211210   0.392   5.793   0.550 -0.1293  0.1128  0.5392
 3735TIP3    H111211   0.399   5.698   0.563 -0.6170 -0.0377 -0.2509
 3735TIP3    H211212   0.361   5.803   0.460  1.4599  1.0709  0.0577
 3736TIP3   OH211213   1.758   5.262   0.494  0.1923 -0.5379 -0.2757
 3736TIP3    H111214   1.814   5.328   0.452  0.6010 -0.5444  0.2506
 3736TIP3    H211215   1.806   5.237   0.573  0.0287 -1.4546 -0.4563
 3737TIP3   OH211216   3.640   0.174   5.089 -0.7187  0.0736  0.0838
 3737TIP3    H111217   3.561   0.150   5.137 -1.6571  2.3400 -0.1710
 3737TIP3    H211218   3.669   0.256   5.129  1.2327 -0.4341 -0.1771
 3738TIP3   OH211219   4.160   0.685   3.875 -0.0136 -0.0927 -0.1112
 3738TIP3    H111220   4.156   0.701   3.969 -0.4214  2.2218 -0.4419
 3738TIP3    H211221   4.248   0.715   3.849  0.3337 -1.3014 -0.4037
 3739TIP3   OH211222   0.234   3.738   4.406 -0.0729  0.3692  0.5984
 3739TIP3    H111223   0.183   3.786   4.340  0.5289 -0.6178 -0.6364
 3739TIP3    H211224   0.236   3.796   4.482 -3.6291  0.2010  1.0072
 3740TIP3   OH211225   1.639   0.377   0.949  0.4403  0.3123 -0.0675
 3740TIP3    H111226   1.671   0.299   0.993 -0.5609  0.8136  1.6281
 3740TIP3    H211227   1.637   0.353   0.856  1.4444 -1.1888  0.2703
 3741TIP3   OH211228   5.215   2.252   0.586  0.3092  0.3973 -0.1363
 3741TIP3    H111229   5.239   2.295   0.668  0.8203  0.1037 -0.1306
 3741TIP3    H211230   5.154   2.313   0.544 -0.9310  0.0162  1.0308
 3742TIP3   OH211231   3.664   2.858   3.421  0.4600 -0.0050  0.0414
 3742TIP3    H111232   3.640   2.839   3.512 -0.2557 -0.7782 -0.2934
 3742TIP3    H211233   3.584   2.891   3.382  0.6107 -0.2144 -0.4489
 3743TIP3   OH211234   0.018   0.380   1.056  0.7862  0.0679 -0.4217
 3743TIP3    H111235   0.083   0.435   1.011  2.5271 -0.7763  0.9213
 3743TIP3    H211236  -0.002   0.310   0.994 -0.8222  1.7120 -1.8250
 3744TIP3   OH211237   5.285   4.480   4.390  0.0209  0.1224  0.4283
 3744TIP3    H111238   5.223   4.487   4.317 -1.7007  0.2214  1.8460
 3744TIP3    H211239   5.248   4.536   4.459  1.0297 -0.8062  1.7696
 3745TIP3   OH211240   4.052   4.610   4.523 -0.8934 -1.2240 -0.1503
 3745TIP3    H111241   4.008   4.676   4.469  1.3390 -0.0674 -0.6873
 3745TIP3    H211242   4.026   4.632   4.612 -1.3266 -0.5059 -0.4360
 3746TIP3   OH211243   4.980   3.367   4.442  0.4107 -0.0205  0.0674
 3746TIP3    H111244   4.944   3.281   4.421  0.9009 -0.3236  0.4535
 3746TIP3    H211245   5.074   3.352   4.451  0.3613  0.2939  1.3810
 3747TIP3   OH211246   4.957   0.052   0.489 -0.0866  0.0633 -0.3241
 3747TIP3    H111247   4.914   0.104   0.558  2.0423  0.3234  0.9048
 3747TIP3    H211248   4.961   0.111   0.414 -0.1438  0.7211  0.1731
 3748TIP3   OH211249   5.729   1.614   4.771 -0.3947  0.2854  0.5068
 3748TIP3    H111250   5.817   1.590   4.742 -1.4036 -0.4563 -2.3885
 3748TIP3    H211251   5.725   1.586   4.862  2.2700  0.1403  0.6549
 3749TIP3   OH211252   5.609   1.604   0.027  0.3502 -0.4142  0.1867
 3749TIP3    H111253   5.578   1.536   0.087  0.5460  1.4503  2.5414
 3749TIP3    H211254   5.704   1.596   0.029  0.6075  1.6573  2.8810
 3750TIP3   OH211255   4.719   4.288  -0.010  0.0847 -0.6567 -0.1207
 3750TIP3    H111256   4.675   4.232   0.054 -0.5276 -0.8913 -0.7381
 3750TIP3    H211257   4.801   4.313   0.033 -0.7370 -0.0186  1.1344
 3751TIP3   OH211258   3.620   4.761   3.801 -0.8669  0.5917 -0.1737
 3751TIP3    H111259   3.610   4.847   3.759 -1.3197  0.6248 -0.0068
 3751TIP3    H211260   3.675   4.779   3.878 -1.3246  0.8201  0.1084
 3752TIP3   OH211261   2.480   0.496   1.927 -0.6177  0.6348 -0.3902
 3752TIP3    H111262   2.398   0.544   1.912 -0.5516  0.9952  0.3500
 3752TIP3    H211263   2.453   0.413   1.966 -0.6811  0.4059 -0.9176
 3753TIP3   OH211264   2.878   0.022   4.267  0.1084 -0.0586 -0.1498
 3753TIP3    H111265   2.803   0.000   4.211 -1.2286  2.4021  0.5245
 3753TIP3    H211266   2.906   0.108   4.235  2.0713 -0.5301  0.2347
 3754TIP3   OH211267   5.363   5.650   2.921 -0.4588 -0.5865 -0.1520
 3754TIP3    H111268   5.448   5.636   2.880  0.2560  1.6511  0.3766
 3754TIP3    H211269   5.359   5.745   2.934 -2.7915 -0.6988  0.3927
 3755TIP3   OH211270   6.149   4.355   3.005 -0.2987 -0.4279  0.2777
 3755TIP3    H111271   6.104   4.399   2.933 -0.0199 -0.2502  0.2117
 3755TIP3    H211272   6.157   4.264   2.976  0.5847 -0.1839 -0.3020
 3756TIP3   OH211273   5.902   2.378   1.494 -0.2912 -0.3007  0.6061
 3756TIP3    H111274   5.848   2.437   1.442 -0.4972 -0.9714  0.0455
 3756TIP3    H211275   5.991   2.394   1.465 -0.3829 -0.5083  0.2013
 3757TIP3   OH211276   2.823   4.687   0.109 -0.3290 -0.2665  0.2153
 3757TIP3    H111277   2.803   4.596   0.085  0.2641 -0.5476  0.7661
 3757TIP3    H211278   2.797   4.694   0.201 -1.6267  0.5145 -0.1817
 3758TIP3   OH211279   3.881   4.820   3.304  0.1055 -0.1466 -0.2342
 3758TIP3    H111280   3.822   4.776   3.366  0.5278 -1.2274 -0.5762
 3758TIP3    H211281   3.954   4.850   3.358 -0.2818  0.3491  0.0338
 3759TIP3   OH211282   5.255   2.752   1.924  0.5473  0.4788  0.1981
 3759TIP3    H111283   5.173   2.797   1.901 -0.0290 -0.6532 -0.0587
 3759TIP3    H211284   5.228   2.685   1.987  1.1866 -0.2500 -0.2865
 3760TIP3   OH211285   4.353   4.854   4.869 -0.1380 -0.3127  0.0397
 3760TIP3    H111286   4.401   4.854   4.786  2.6691  2.7762  1.4243
 3760TIP3    H211287   4.386   4.777   4.916 -0.4000 -1.0573 -0.9550
 3761TIP3   OH211288   2.173   2.145   4.093 -0.0071 -0.0889  0.4412
 3761TIP3    H111289   2.229   2.223   4.087 -0.3997  0.2920  1.4388
 3761TIP3    H211290   2.085   2.177   4.069  0.4408 -1.0777 -3.0112
 3762TIP3   OH211291   1.574   3.103  -0.000  0.4420  0.2389  0.7665
 3762TIP3    H111292   1.480   3.086   0.006  0.5021  0.0994  1.3904
 3762TIP3    H211293   1.614   3.034   0.052  0.9796 -0.4674 -0.5187
 3763TIP3   OH211294   2.634   4.421   1.186 -0.3786  0.1878 -0.1611
 3763TIP3    H111295   2.630   4.328   1.205  1.0189 -0.0896 -1.0553
 3763TIP3    H211296   2.583   4.432   1.106 -3.5666  0.8373  1.7897
 3764TIP3   OH211297   0.295   5.381   0.365 -0.2608 -0.1626  0.0655
 3764TIP3    H111298   0.368   5.396   0.424 -2.1936 -0.0378  2.6312
 3764TIP3    H211299   0.255   5.467   0.353 -1.6406 -0.6253  1.1071
 3765TIP3   OH211300   4.306   5.434   2.275 -0.0735  0.1490  0.0267
 3765TIP3    H111301   4.319   5.495   2.202 -0.2803 -0.5720 -0.6227
 3765TIP3    H211302   4.221   5.393   2.257 -0.6021  0.6970  1.2148
 3766TIP3   OH211303   6.318   4.242   3.885  0.1627  0.3137 -0.0653
 3766TIP3    H111304   6.362   4.315   3.841  2.3127 -0.6880  0.3010
 3766TIP3    H211305   6.346   4.249   3.976 -1.8685  0.6073  0.6064
 3767TIP3   OH211306   1.347   5.348   1.984 -0.2427 -0.3547  0.4055
 3767TIP3    H111307   1.332   5.256   2.007 -2.1162  0.2133  1.6883
 3767TIP3    H211308   1.264   5.375   1.943 -0.1085  1.0382  1.0182
 3768TIP3   OH211309   3.015   3.731   5.188 -0.1505 -0.1835 -0.0338
 3768TIP3    H111310   3.066   3.654   5.213  3.0876  1.7274 -0.2230
 3768TIP3    H211311   2.982   3.711   5.101  0.5187 -1.3811 -0.0277
 3769TIP3   OH211312   2.142   3.500   3.441  0.4264 -0.5368 -0.4426
 3769TIP3    H111313   2.203   3.559   3.397  0.2901 -0.2527 -0.2576
 3769TIP3    H211314   2.152   3.519   3.534 -0.0003 -0.4280 -0.4142
 3770TIP3   OH211315   0.464   3.984   0.040  0.2706 -0.2868 -0.1453
 3770TIP3    H111316   0.399   3.959  -0.026  0.1483 -0.1271 -0.0861
 3770TIP3    H211317   0.435   3.940   0.120  1.2163 -1.6714 -0.5208
 3771TIP3   OH211318   3.694   5.198   2.095  0.0084  0.1387 -0.1939
 3771TIP3    H111319   3.778   5.241   2.115  0.5675  0.1006 -2.2929
 3771TIP3    H211320   3.715   5.104   2.097 -0.5206  0.0238  1.4002
 3772TIP3   OH211321   4.446   2.251   0.377  0.2703 -0.2470 -0.1277
 3772TIP3    H111322   4.445   2.324   0.438  0.3845  0.2927 -0.7564
 3772TIP3    H211323   4.534   2.213   0.386  1.3283  1.5647 -1.9297
 3773TIP3   OH211324   1.529   1.138   0.957 -0.3375  0.7437 -0.6449
 3773TIP3    H111325   1.549   1.089   0.877 -1.1538 -0.7592  0.0336
 3773TIP3    H211326   1.460   1.199   0.932 -0.4009  0.4662 -1.1436
 3774TIP3   OH211327   0.992   3.200   4.388  0.3636 -0.3348  0.2982
 3774TIP3    H111328   1.066   3.249   4.353  1.5855 -1.8431  0.7000
 3774TIP3    H211329   0.961   3.146   4.316 -0.6672  0.5956  0.0037
 3775TIP3   OH211330   5.582   2.913   2.728 -0.2353 -0.1009 -0.3692
 3775TIP3    H111331   5.644   2.971   2.684  1.2521 -2.0853 -1.0290
 3775TIP3    H211332   5.497   2.955   2.715  0.8058  2.2399 -0.2372
 3776TIP3   OH211333   0.790   4.484   0.312  0.1217 -0.0504  0.0567
 3776TIP3    H111334   0.739   4.562   0.334 -0.1915  0.4336 -2.1491
 3776TIP3    H211335   0.729   4.411   0.322  0.9250 -0.4040  4.0733
 3777TIP3   OH211336   4.960   3.349   0.737  0.3604  0.0291 -0.3034
 3777TIP3    H111337   4.942   3.335   0.830  0.2098 -0.2775 -0.3785
 3777TIP3    H211338   4.897   3.416   0.710  1.0178  0.8067  0.0341
 3778TIP3   OH211339   1.113   1.053   3.646  0.5654 -0.7602  0.2384
 3778TIP3    H111340   1.030   1.014   3.616  0.5892 -1.4473  1.0447
 3778TIP3    H211341   1.097   1.076   3.737  1.1570 -0.5773  0.3001
 3779TIP3   OH211342   5.481   2.647   4.149 -0.5329 -0.1940 -0.0502
 3779TIP3    H111343   5.516   2.733   4.127 -0.2496 -0.0503  0.9065
 3779TIP3    H211344   5.459   2.653   4.242  0.6373 -1.5326  0.3532
 3780TIP3   OH211345   0.063   1.033   1.751 -0.6782 -0.5569 -0.1835
 3780TIP3    H111346   0.082   1.001   1.663 -1.7014  0.7095 -0.8981
 3780TIP3    H211347  -0.026   1.066   1.746 -0.3918  0.4965  1.0493
 3781TIP3   OH211348   3.793   4.990   5.025 -0.0652 -0.8692  0.2715
 3781TIP3    H111349   3.813   4.963   5.115 -1.2334  1.9855  1.5239
 3781TIP3    H211350   3.871   4.966   4.975  1.9544  0.2020  2.6868
 3782TIP3   OH211351   6.072   3.712   5.091 -0.1815 -0.4900 -0.1265
 3782TIP3    H111352   6.049   3.658   5.016  0.2640  1.1566 -1.5153
 3782TIP3    H211353   5.988   3.737   5.130 -0.3799 -2.7366  1.0142
 3783TIP3   OH211354   3.493   2.523   2.389 -0.3265  0.4924 -0.1219
 3783TIP3    H111355   3.583   2.496   2.406 -0.8137 -0.2831  1.4620
 3783TIP3    H211356   3.463   2.466   2.318 -0.3549 -1.0461  1.0815
 3784TIP3   OH211357   5.466   0.955   5.097 -0.0338  0.1723  0.5765
 3784TIP3    H111358   5.521   1.013   5.045 -0.0133 -0.6608 -0.3553
 3784TIP3    H211359   5.451   1.003   5.179 -0.5697  1.7740 -0.4148
 3785TIP3   OH211360   0.871   4.790   4.287  0.4952  0.2088  0.2956
 3785TIP3    H111361   0.846   4.756   4.373 -0.0158  3.4879  1.5600
 3785TIP3    H211362   0.879   4.884   4.299  0.9401  0.7517 -3.1599
 3786TIP3   OH211363   0.891   3.361   3.052 -0.2341 -0.4741  0.0960
 3786TIP3    H111364   0.885   3.438   3.107  1.4736 -1.0729  1.2002
 3786TIP3    H211365   0.910   3.395   2.964 -0.4852  0.3990  0.3796
 3787TIP3   OH211366   0.604   4.425   3.482  0.2725  0.4516 -0.4027
 3787TIP3    H111367   0.668   4.486   3.517  0.0591  1.3783 -1.5636
 3787TIP3    H211368   0.642   4.395   3.399 -0.7105  0.8989 -1.0318
 3788TIP3   OH211369   3.904   5.264   1.402  0.4471  0.0582  0.0536
 3788TIP3    H111370   3.990   5.292   1.369  0.3223  0.5986  0.1779
 3788TIP3    H211371   3.884   5.327   1.471 -0.2176  0.1655 -0.2285
 3789TIP3   OH211372   0.545   4.262   0.046  0.5069  0.4899  0.2750
 3789TIP3    H111373   0.489   4.294  -0.026  1.0679  0.9045  0.0164
 3789TIP3    H211374   0.545   4.167   0.037  1.4238  0.5848 -0.9322
 3790TIP3   OH211375   2.923   4.118   4.487 -0.2298 -0.0953  0.2178
 3790TIP3    H111376   2.968   4.177   4.427 -1.3353  1.9112  1.2648
 3790TIP3    H211377   2.967   4.130   4.571 -0.8891 -0.2539  0.5961
 3791TIP3   OH211378   5.790   2.298   2.432  0.7837  0.6066  0.2290
 3791TIP3    H111379   5.804   2.271   2.523  0.7349 -0.5772 -0.1072
 3791TIP3    H211380   5.700   2.332   2.431  0.1849 -0.9083  0.2851
 3792TIP3   OH211381   4.753   2.691   4.144 -0.0981  0.3844 -0.6096
 3792TIP3    H111382   4.709   2.662   4.223  0.7120 -0.7942 -0.5584
 3792TIP3    H211383   4.741   2.620   4.082 -0.7407  1.3034 -1.5713
 3793TIP3   OH211384   3.198   2.665   1.533 -0.3606  0.1465 -0.4235
 3793TIP3    H111385   3.256   2.678   1.458 -0.1257  0.4270 -0.1922
 3793TIP3    H211386   3.205   2.571   1.552 -0.6813  0.0035 -0.9573
 3794TIP3   OH211387   1.535   2.668   1.420 -0.3451 -0.2971  0.1645
 3794TIP3    H111388   1.530   2.756   1.382 -3.9435  0.1132  1.1430
 3794TIP3    H211389   1.566   2.682   1.509 -1.4562  0.1550  0.5111
 3795TIP3   OH211390   0.649   2.998   4.262 -0.1587  0.2219 -0.5672
 3795TIP3    H111391   0.645   2.911   4.223  0.6670 -1.1832  2.1760
 3795TIP3    H211392   0.742   3.022   4.261  0.0483 -0.3083  1.2595
 3796TIP3   OH211393   2.696   0.592   0.360 -0.0965  0.0236  0.0940
 3796TIP3    H111394   2.670   0.656   0.294  0.0307 -0.7753 -0.7563
 3796TIP3    H211395   2.627   0.525   0.358 -0.0503 -0.0509  0.7176
 3797TIP3   OH211396   6.033   3.690   2.244  0.2939 -0.5754  0.2252
 3797TIP3    H111397   6.030   3.777   2.284 -1.5138 -0.2560 -0.5064
 3797TIP3    H211398   6.045   3.630   2.317  0.6238  0.2283  0.8436
 3798TIP3   OH211399   4.859   4.049   4.186 -0.0887  0.1087 -0.2408
 3798TIP3    H111400   4.802   4.018   4.256  0.3124 -0.1052 -0.0062
 3798TIP3    H211401   4.823   4.134   4.162  0.0251  0.3774  0.5221
 3799TIP3   OH211402   3.872   4.448   2.012  0.2933  0.0439  0.2301
 3799TIP3    H111403   3.901   4.528   1.967 -1.5522  0.8563  0.3956
 3799TIP3    H211404   3.826   4.398   1.945  0.4645 -0.3524  0.4069
 3800TIP3   OH211405   4.481   2.306   2.530 -0.1477 -0.0538  0.4562
 3800TIP3    H111406   4.543   2.296   2.602  2.3877 -0.6478 -1.6475
 3800TIP3    H211407   4.449   2.217   2.514 -2.4139  0.3789  2.1402
 3801TIP3   OH211408   4.370   3.740   3.310 -0.0441 -0.0142 -0.3529
 3801TIP3    H111409   4.345   3.826   3.277 -0.5980  0.7166  1.7724
 3801TIP3    H211410   4.319   3.678   3.258 -2.3841  1.1668  0.3877
 3802TIP3   OH211411   0.338   0.628   1.516  0.0172 -0.3388  0.4834
 3802TIP3    H111412   0.293   0.544   1.506  0.6382 -0.4144 -2.7338
 3802TIP3    H211413   0.279   0.692   1.477 -0.1628  0.7050  2.3195
 3803TIP3   OH211414   5.424   1.107   1.212 -0.2407  0.2909 -0.1111
 3803TIP3    H111415   5.368   1.045   1.165 -1.4059  1.4785 -0.3717
 3803TIP3    H211416   5.474   1.151   1.143 -0.5942  0.7351 -0.0943
 3804TIP3   OH211417   5.471   4.801   1.628 -0.2302 -0.1306 -0.2708
 3804TIP3    H111418   5.381   4.832   1.618 -0.0751  0.1682 -0.7665
 3804TIP3    H211419   5.508   4.806   1.540  0.6938  1.0355  0.1659
 3805TIP3   OH211420   5.749   3.361   1.917 -0.3165  0.6596  0.1385
 3805TIP3    H111421   5.776   3.334   2.005 -0.7527 -0.6176 -0.1000
 3805TIP3    H211422   5.776   3.453   1.911  0.9537  0.3822  1.1081
 3806TIP3   OH211423   3.047   4.654   4.615 -0.2184  0.2090 -0.6282
 3806TIP3    H111424   3.019   4.739   4.650  1.7069 -0.0298  1.7930
 3806TIP3    H211425   2.967   4.601   4.615 -0.7396  0.8670  1.6775
 3807TIP3   OH211426   3.297   2.293   4.565 -0.1466 -0.0107 -0.0553
 3807TIP3    H111427   3.377   2.297   4.513  0.5383 -1.0328  0.8680
 3807TIP3    H211428   3.319   2.234   4.637 -1.7155 -0.2336  0.2624
 3808TIP3   OH211429   4.337   2.231   5.110  0.1763  0.1783  0.1042
 3808TIP3    H111430   4.304   2.321   5.109 -0.5984 -0.0504  1.5759
 3808TIP3    H211431   4.422   2.237   5.154  1.1156  0.4397 -1.6379
 3809TIP3   OH211432   1.614   2.310   2.105  0.0771  0.0738 -0.3792
 3809TIP3    H111433   1.555   2.324   2.179  1.7219  1.7767  0.7386
 3809TIP3    H211434   1.638   2.218   2.110 -0.5274 -0.0444  0.6823
 3810TIP3   OH211435   4.477   3.805   1.581  0.0965  0.7298  0.6488
 3810TIP3    H111436   4.485   3.718   1.541  2.0711  1.5884 -0.9993
 3810TIP3    H211437   4.561   3.819   1.623 -0.2806  1.7743  1.0735
 3811TIP3   OH211438   4.556   0.710   2.436  0.3957 -0.5800  0.2100
 3811TIP3    H111439   4.622   0.647   2.463  1.4550 -0.2713 -1.4736
 3811TIP3    H211440   4.599   0.795   2.443  0.0700 -0.3382 -0.5836
 3812TIP3   OH211441   0.562   5.695   3.573 -0.4590 -0.0733  1.0188
 3812TIP3    H111442   0.569   5.622   3.511  1.1592 -0.1576  1.2443
 3812TIP3    H211443   0.627   5.674   3.640 -0.8039  1.0048  1.7037
 3813TIP3   OH211444   0.187   4.174   3.208 -0.2604 -0.4607  0.2018
 3813TIP3    H111445   0.208   4.220   3.127 -0.1478  0.5334  0.7735
 3813TIP3    H211446   0.254   4.202   3.270 -0.1506 -1.4598  0.5615
 3814TIP3   OH211447   5.061   4.025   1.599 -0.0450 -0.0735 -0.3802
 3814TIP3    H111448   5.130   4.052   1.659 -0.5729  0.2003  0.1146
 3814TIP3    H211449   5.030   3.942   1.635  1.3522 -1.2300 -1.7122
 3815TIP3   OH211450   1.450   0.697   3.738 -0.3372 -0.1596 -0.7714
 3815TIP3    H111451   1.406   0.775   3.772 -0.2126 -0.6467  0.5546
 3815TIP3    H211452   1.534   0.730   3.705  0.3692  0.0781  1.1652
 3816TIP3   OH211453   4.808   4.162   3.381 -0.1795 -0.3176 -0.7271
 3816TIP3    H111454   4.836   4.163   3.289  2.0761 -0.7313 -0.1062
 3816TIP3    H211455   4.733   4.103   3.383  2.5519 -4.1558 -1.6463
 3817TIP3   OH211456   3.533   5.927   0.874  0.3807  0.0117  0.2826
 3817TIP3    H111457   3.459   5.883   0.831 -0.8237  1.5996  0.6029
 3817TIP3    H211458   3.491   5.989   0.934  2.0084  0.2405  1.2219
 3818TIP3   OH211459   1.179   0.682   1.290  0.0548  0.1176  0.0302
 3818TIP3    H111460   1.129   0.715   1.365  0.4621 -0.1691  0.4325
 3818TIP3    H211461   1.116   0.679   1.218 -0.1580  1.1371  0.1542
 3819TIP3   OH211462   5.928   5.268   1.262 -0.1850 -0.0219 -0.5475
 3819TIP3    H111463   6.002   5.323   1.288 -0.6775 -0.1385  1.2186
 3819TIP3    H211464   5.928   5.271   1.167  0.9893  1.4373 -0.5293
 3820TIP3   OH211465   0.584   1.759   3.210  0.6012  0.0246 -0.1223
 3820TIP3    H111466   0.598   1.853   3.222  0.8382  0.2029 -1.5874
 3820TIP3    H211467   0.576   1.724   3.299  1.5214  1.2779  0.4817
 3821TIP3   OH211468   6.058   1.372   3.159 -0.6704 -0.2942  0.3348
 3821TIP3    H111469   6.052   1.292   3.107  0.8039 -1.0212  1.2112
 3821TIP3    H211470   5.984   1.368   3.219 -0.2021 -1.3992  0.8669
 3822TIP3   OH211471   0.631   2.131   2.590  0.4366 -0.0626  0.3672
 3822TIP3    H111472   0.720   2.098   2.582  0.1188 -0.8505 -0.0288
 3822TIP3    H211473   0.577   2.053   2.601 -0.5062  0.1692 -2.1068
 3823TIP3   OH211474   2.798   5.822   3.825 -0.0275 -0.2427  0.0476
 3823TIP3    H111475   2.741   5.886   3.868  0.8580 -0.7924  2.1998
 3823TIP3    H211476   2.886   5.859   3.833  0.0893  0.1477 -2.3832
 3824TIP3   OH211477   0.273   0.171   1.554  0.0223  0.2572  0.3993
 3824TIP3    H111478   0.333   0.127   1.615  1.0330  0.1186 -0.6623
 3824TIP3    H211479   0.240   0.100   1.499 -0.5540  0.4412  0.5051
 3825TIP3   OH211480   3.334   2.174   2.988 -0.3049 -0.2231 -0.1762
 3825TIP3    H111481   3.248   2.209   3.013 -0.3877 -0.9424  0.5778
 3825TIP3    H211482   3.331   2.171   2.892 -1.2563 -0.5632 -0.1470
 3826TIP3   OH211483   1.345   0.297   3.632  0.1909  0.0941 -0.2107
 3826TIP3    H111484   1.340   0.203   3.613  3.2225 -0.2500  0.1555
 3826TIP3    H211485   1.391   0.301   3.716 -1.5465  1.9037  0.7100
 3827TIP3   OH211486   5.069   4.931   2.050  0.1752  1.3517  0.2837
 3827TIP3    H111487   5.026   4.966   1.972 -1.0070  1.1531  0.8253
 3827TIP3    H211488   5.136   4.996   2.072  2.6471  0.0050 -2.6079
 3828TIP3   OH211489   1.623   4.320   0.525  0.6878 -0.5551  0.1081
 3828TIP3    H111490   1.655   4.410   0.518  1.0311 -0.6308  0.6414
 3828TIP3    H211491   1.558   4.312   0.455  2.1245 -0.5256 -1.2746
 3829TIP3   OH211492   2.816   2.685   1.821 -0.0463 -0.1849 -0.1350
 3829TIP3    H111493   2.871   2.658   1.894  2.3418  0.7180 -1.4861
 3829TIP3    H211494   2.829   2.617   1.755  0.6315  0.7507 -1.0010
 3830TIP3   OH211495   3.116   4.291   1.316  0.3834  0.5122 -0.3252
 3830TIP3    H111496   3.183   4.238   1.360  1.0887  2.4470  1.0937
 3830TIP3    H211497   3.036   4.238   1.323  1.2633 -0.8438  0.0161
 3831TIP3   OH211498   4.264   1.570   3.522 -0.0073  0.0678  0.2557
 3831TIP3    H111499   4.181   1.616   3.532  1.0510  2.2274 -0.2234
 3831TIP3    H211500   4.294   1.555   3.612  0.0874  1.2771  0.4414
 3832TIP3   OH211501   5.997   0.279   0.857  0.1015  0.7997  0.1510
 3832TIP3    H111502   6.034   0.266   0.944  3.1873  1.2204 -0.9686
 3832TIP3    H211503   5.970   0.191   0.830  1.1972  0.2619  0.7091
 3833TIP3   OH211504   4.617   4.309   4.725 -0.3594  0.0082 -0.2421
 3833TIP3    H111505   4.605   4.359   4.644  1.0974  1.1231  0.1832
 3833TIP3    H211506   4.610   4.218   4.698 -2.1559  0.3848 -1.2106
 3834TIP3   OH211507   1.326   4.135   1.280 -1.0055 -0.6560  0.0943
 3834TIP3    H111508   1.262   4.127   1.351 -1.0996 -0.5658  0.0214
 3834TIP3    H211509   1.288   4.202   1.222  0.3358  1.3059  1.3402
 3835TIP3   OH211510   3.373   4.640   1.144  0.1660  0.4232  0.0593
 3835TIP3    H111511   3.420   4.654   1.062  0.0924  0.3678  0.0061
 3835TIP3    H211512   3.308   4.573   1.122 -1.4182  2.0523 -0.4651
 3836TIP3   OH211513   5.129   1.622   4.099  0.1924  0.3881 -0.2517
 3836TIP3    H111514   5.087   1.705   4.122 -1.1460  0.0446 -1.2797
 3836TIP3    H211515   5.133   1.573   4.181  0.6702  1.3086  0.2958
 3837TIP3   OH211516   1.263   5.699   3.670 -0.1614  0.0520 -0.1014
 3837TIP3    H111517   1.341   5.666   3.715  0.4689 -2.0650 -2.5460
 3837TIP3    H211518   1.296   5.770   3.615 -0.0926 -0.3238 -0.5485
 3838TIP3   OH211519   0.501   2.206   1.845  0.6737  0.2779 -0.0603
 3838TIP3    H111520   0.492   2.165   1.931  2.6377  0.1395  0.1217
 3838TIP3    H211521   0.525   2.297   1.864 -0.2449  0.6141 -0.4736
 3839TIP3   OH211522   0.136   3.300   4.640 -0.2138  0.4144  0.1909
 3839TIP3    H111523   0.054   3.345   4.619  0.6523  2.5550  1.1731
 3839TIP3    H211524   0.155   3.248   4.561 -2.9348 -0.9084  0.2697
 3840TIP3   OH211525   0.605   4.059   3.557 -0.0748 -0.0930  0.0961
 3840TIP3    H111526   0.636   4.104   3.636  0.3238 -2.0476  1.1214
 3840TIP3    H211527   0.516   4.033   3.578 -0.5057  0.7085 -0.7124
 3841TIP3   OH211528   2.831   0.126   0.957 -0.1899  0.3356 -0.2848
 3841TIP3    H111529   2.752   0.134   0.904  0.0043  0.5432 -0.5481
 3841TIP3    H211530   2.804   0.151   1.045 -0.7552 -0.9824 -0.0580
 3842TIP3   OH211531   3.107   1.336   1.332  0.2887  0.3998  0.0206
 3842TIP3    H111532   3.189   1.307   1.373  0.6270  2.0988  0.6099
 3842TIP3    H211533   3.039   1.282   1.372  0.6407  1.7736  2.6885
 3843TIP3   OH211534   5.682   0.337   3.653 -0.0848 -0.3363 -0.5080
 3843TIP3    H111535   5.637   0.370   3.575  0.4566 -1.2398 -1.2288
 3843TIP3    H211536   5.743   0.408   3.677  0.9993 -0.7061 -1.9745
 3844TIP3   OH211537   3.130   5.161   2.567 -0.3562 -0.3729  0.1211
 3844TIP3    H111538   3.101   5.110   2.643 -0.8199  0.8441  0.7760
 3844TIP3    H211539   3.183   5.232   2.604 -2.1055  1.3233 -0.4788
 3845TIP3   OH211540   1.642   3.756   2.597  0.0044  0.0315 -0.5282
 3845TIP3    H111541   1.619   3.828   2.655 -0.2458  2.8932 -3.8535
 3845TIP3    H211542   1.737   3.748   2.605 -0.1182 -0.2160  0.8345
 3846TIP3   OH211543   5.531   2.885   1.972  0.2270 -0.5872 -0.6436
 3846TIP3    H111544   5.472   2.815   1.946 -0.7688  0.5755 -1.5874
 3846TIP3    H211545   5.508   2.959   1.916 -0.7767  1.4725  2.2376
 3847TIP3   OH211546   2.503   4.851   4.344  0.0626 -0.0251  0.1961
 3847TIP3    H111547   2.457   4.811   4.270  2.1555 -0.5394 -0.9053
 3847TIP3    H211548   2.553   4.922   4.305  2.1009 -1.0116  0.8793
 3848TIP3   OH211549   2.012   5.939   1.709  0.4187 -0.1275  0.3572
 3848TIP3    H111550   2.023   5.924   1.803  0.3523 -1.3167  0.1913
 3848TIP3    H211551   1.925   5.979   1.701  0.6519  0.5034  0.8344
 3849TIP3   OH211552   4.878   2.333   4.578 -0.5359  0.0296 -0.2884
 3849TIP3    H111553   4.965   2.305   4.608 -0.9724 -2.1130 -0.8385
 3849TIP3    H211554   4.845   2.388   4.649  0.3690 -0.9736  0.9707
 3850TIP3   OH211555   1.748   5.114   4.248  0.2872  0.1893  0.0494
 3850TIP3    H111556   1.673   5.171   4.267  0.9939  0.8577  0.9362
 3850TIP3    H211557   1.807   5.126   4.322  0.3430 -1.9420  0.4107
 3851TIP3   OH211558   3.337   1.521   0.662 -0.4350  0.2559  0.0447
 3851TIP3    H111559   3.388   1.481   0.734  1.2048 -1.2374 -1.8213
 3851TIP3    H211560   3.260   1.466   0.654 -1.6736  1.6157  1.8894
 3852TIP3   OH211561   1.155   1.413   3.820  0.1995 -0.4684  0.5507
 3852TIP3    H111562   1.118   1.413   3.732  1.1888 -0.3960  0.1169
 3852TIP3    H211563   1.247   1.437   3.807  0.3506 -0.4247  1.6084
 3853TIP3   OH211564   1.740   0.236   3.774  0.6950  0.8765 -0.0293
 3853TIP3    H111565   1.796   0.304   3.810  2.2100 -0.3705  0.0626
 3853TIP3    H211566   1.800   0.174   3.733 -0.6588 -0.2444 -0.3969
 3854TIP3   OH211567   6.041   4.741   1.677  0.1392 -0.2286 -0.0854
 3854TIP3    H111568   6.084   4.788   1.605  1.2250  0.4601  0.9713
 3854TIP3    H211569   6.014   4.810   1.737  1.4614 -0.8806  1.3268
 3855TIP3   OH211570   0.600   1.381   1.664  0.0651 -0.0068  0.7539
 3855TIP3    H111571   0.687   1.344   1.680  0.8805  1.6424  0.3202
 3855TIP3    H211572   0.543   1.333   1.724  1.2442 -1.1661  1.0187
 3856TIP3   OH211573   3.235   3.541   5.188  0.0246  0.1767  0.0949
 3856TIP3    H111574   3.195   3.458   5.163 -1.5565  1.0606 -0.4698
 3856TIP3    H211575   3.328   3.521   5.197 -0.3187 -1.6509  0.0151
 3857TIP3   OH211576   5.401   5.780   1.934  0.8731  0.3015 -0.4885
 3857TIP3    H111577   5.402   5.829   1.852  2.4962 -2.7352 -2.4935
 3857TIP3    H211578   5.445   5.697   1.913 -0.6113 -1.5614  2.8811
 3858TIP3   OH211579   3.324   3.297   0.798 -0.0005 -0.3979  0.3837
 3858TIP3    H111580   3.414   3.273   0.778 -0.0615  1.0072 -1.9636
 3858TIP3    H211581   3.270   3.237   0.746 -0.5287 -1.7977  2.4148
 3859TIP3   OH211582   5.367   4.292   3.344 -0.2954 -0.5903  0.4469
 3859TIP3    H111583   5.358   4.320   3.435 -2.1424 -0.1433  0.1797
 3859TIP3    H211584   5.442   4.340   3.311 -1.7334  2.0744  0.7703
 3860TIP3   OH211585   3.360   5.120   2.911  0.1163  0.8676 -0.2730
 3860TIP3    H111586   3.397   5.207   2.893  1.5403  0.8750  2.2463
 3860TIP3    H211587   3.422   5.059   2.872  1.3690  0.9600  1.4368
 3861TIP3   OH211588   1.579   3.038   4.630 -0.5502 -0.0566 -0.2081
 3861TIP3    H111589   1.498   3.087   4.643 -0.9194 -0.7638  0.2950
 3861TIP3    H211590   1.646   3.088   4.678 -0.7539  0.3654 -0.3644
 3862TIP3   OH211591   4.364   1.727   1.157 -0.3502 -0.1966 -0.1114
 3862TIP3    H111592   4.415   1.770   1.226  0.6596 -0.1619 -0.8525
 3862TIP3    H211593   4.275   1.761   1.168 -0.1015  0.1502  0.8851
 3863TIP3   OH211594   0.056   5.969   4.961 -0.5840  0.4094  0.0145
 3863TIP3    H111595  -0.033   5.935   4.956  0.4248 -2.3942 -0.4780
 3863TIP3    H211596   0.072   5.982   5.055 -0.7647 -1.3042  0.3015
 3864TIP3   OH211597   2.052   1.088   3.512  0.1003  0.5520  0.6183
 3864TIP3    H111598   2.133   1.046   3.540  0.8023  1.1962 -0.3613
 3864TIP3    H211599   2.080   1.173   3.479 -0.8912  0.4961 -0.4101
 3865TIP3   OH211600   4.285   2.601   4.657  0.0654 -0.4900  0.2332
 3865TIP3    H111601   4.247   2.611   4.570 -1.2493  0.7293  0.9089
 3865TIP3    H211602   4.316   2.688   4.680  0.7607 -0.8842  0.8434
 3866TIP3   OH211603   2.898   1.051   4.440 -0.2070  1.1340 -0.0364
 3866TIP3    H111604   2.933   1.104   4.512  0.7647 -0.2148  0.5214
 3866TIP3    H211605   2.933   0.963   4.456 -1.4857  0.3996 -1.1353
 3867TIP3   OH211606   2.484   0.388   1.658  0.0121  0.2283  0.0604
 3867TIP3    H111607   2.495   0.452   1.729 -0.5840  1.8860 -1.2627
 3867TIP3    H211608   2.392   0.362   1.663  0.1513 -0.2021  0.3462
 3868TIP3   OH211609   4.858   4.615   1.919  0.2722  0.1816 -0.1647
 3868TIP3    H111610   4.839   4.709   1.924  1.0601  0.3570 -0.3910
 3868TIP3    H211611   4.930   4.601   1.979  1.7241  0.1532 -1.8371
 3869TIP3   OH211612   0.544   4.242   4.167  0.2508 -0.2705 -0.1237
 3869TIP3    H111613   0.510   4.159   4.201  0.6700  0.4215  2.1202
 3869TIP3    H211614   0.613   4.267   4.227 -1.1145  2.6535  0.4176
 3870TIP3   OH211615   2.639   0.662   4.079 -0.5534  0.1294  0.6651
 3870TIP3    H111616   2.649   0.613   3.997  0.0295  1.4135 -0.0563
 3870TIP3    H211617   2.564   0.620   4.122  0.3911 -1.8961  0.4637
 3871TIP3   OH211618   1.361   0.962   1.266 -0.3040  0.0877  0.2361
 3871TIP3    H111619   1.322   0.923   1.345  0.6582 -0.2328  0.5702
 3871TIP3    H211620   1.347   1.056   1.276  1.4670  0.2618  1.7733
 3872TIP3   OH211621   6.055   3.483   2.434  0.3839  0.0288 -0.0376
 3872TIP3    H111622   6.089   3.436   2.358  0.7609 -0.2057  0.2735
 3872TIP3    H211623   6.057   3.419   2.505  0.5570  0.4087  0.3010
 3873TIP3   OH211624   0.286   3.983   4.522 -0.2571 -0.2575 -0.6815
 3873TIP3    H111625   0.213   4.039   4.549 -0.4335 -0.7293 -0.1514
 3873TIP3    H211626   0.341   4.039   4.467  0.9409  1.2697  1.8983
 3874TIP3   OH211627   3.349   4.345   1.735 -0.3335 -0.0036  0.1615
 3874TIP3    H111628   3.396   4.322   1.815 -0.7772 -0.3965  0.3110
 3874TIP3    H211629   3.409   4.324   1.664  1.0401  2.5533  0.4378
 3875TIP3   OH211630   4.041   4.976   4.935  0.1221 -0.0958  0.2656
 3875TIP3    H111631   4.062   4.987   4.843  1.6678 -1.7047  0.3804
 3875TIP3    H211632   4.074   5.056   4.977  0.2640  0.2265 -0.4528
 3876TIP3   OH211633   2.484   5.888   4.150  0.1976  0.3012 -0.2778
 3876TIP3    H111634   2.511   5.884   4.058 -1.1624 -0.4435 -0.6757
 3876TIP3    H211635   2.552   5.841   4.197 -0.0526 -1.0038 -1.1620
 3877TIP3   OH211636   2.781   3.179   3.660 -0.1536 -0.2839  0.1007
 3877TIP3    H111637   2.806   3.238   3.731 -1.5103  0.1424  0.2415
 3877TIP3    H211638   2.740   3.105   3.704 -1.0661  0.0162 -0.2340
 3878TIP3   OH211639   4.012   3.236   1.207  0.2010 -0.1432  0.2973
 3878TIP3    H111640   4.041   3.216   1.119 -1.6149  0.5056 -0.4957
 3878TIP3    H211641   4.046   3.164   1.260  0.0624 -1.3481 -1.1908
 3879TIP3   OH211642   3.154   2.452   0.405  0.0732 -0.5463 -0.1775
 3879TIP3    H111643   3.059   2.458   0.393  0.0351 -1.2937 -0.2708
 3879TIP3    H211644   3.188   2.534   0.368 -0.4681 -0.6106 -0.8315
 3880TIP3   OH211645   1.123   2.206   0.450  0.2572  0.4665 -0.2017
 3880TIP3    H111646   1.110   2.133   0.511 -0.4748  1.7904  1.3058
 3880TIP3    H211647   1.094   2.172   0.365  0.5197 -1.1693  0.3272
 3881TIP3   OH211648   6.071   5.214   2.154  0.6592  0.3502  0.4802
 3881TIP3    H111649   6.144   5.254   2.107 -0.4237  1.0946 -0.6210
 3881TIP3    H211650   6.033   5.152   2.091  1.8409 -1.9783  1.8911
 3882TIP3   OH211651   0.384   2.463   3.364 -0.4082 -0.0479 -0.8830
 3882TIP3    H111652   0.441   2.529   3.402 -1.3693  0.0966  0.3495
 3882TIP3    H211653   0.437   2.383   3.361  0.1535  0.3193 -0.6510
 3883TIP3   OH211654   6.263   0.111   2.597 -0.7008 -0.1344  0.1688
 3883TIP3    H111655   6.259   0.088   2.504  0.1243  0.0612  0.0798
 3883TIP3    H211656   6.171   0.124   2.622 -0.8109  3.0838 -1.4471
 3884TIP3   OH211657   2.794   0.896   1.391  0.6512 -0.2462 -0.1529
 3884TIP3    H111658   2.742   0.874   1.468 -1.1439  1.7717 -0.6827
 3884TIP3    H211659   2.818   0.811   1.352 -1.7377 -1.2821  0.4764
 3885TIP3   OH211660   0.288   3.007   1.473 -0.5593 -0.1582  0.0704
 3885TIP3    H111661   0.362   2.977   1.420  0.0523  2.5472 -0.7763
 3885TIP3    H211662   0.217   2.946   1.453  0.6438 -1.2084 -1.2172
 3886TIP3   OH211663   0.362   4.681   4.684 -0.7858  0.1666  0.1321
 3886TIP3    H111664   0.361   4.666   4.590  1.1014 -0.1952  0.1282
 3886TIP3    H211665   0.296   4.620   4.718 -0.9987 -0.1996 -0.8967
 3887TIP3   OH211666   5.900   2.823   3.595 -0.4331  0.2949 -0.5265
 3887TIP3    H111667   5.995   2.823   3.603 -0.2330  1.2675 -2.3776
 3887TIP3    H211668   5.872   2.745   3.642  1.3609 -0.4977 -0.6976
 3888TIP3   OH211669   2.142   4.223   2.503 -0.0866 -0.3445  1.0160
 3888TIP3    H111670   2.228   4.183   2.513 -0.1184 -0.6649  0.1197
 3888TIP3    H211671   2.101   4.213   2.588  0.7288 -0.2591  1.4300
 3889TIP3   OH211672   1.270   5.031   4.374  0.2715 -0.4097  0.2618
 3889TIP3    H111673   1.235   5.111   4.335 -1.3978 -1.4908 -0.5787
 3889TIP3    H211674   1.350   5.014   4.325  1.2361  1.2689  1.1558
 3890TIP3   OH211675   1.934   2.766   4.162 -0.0068 -0.0694 -0.1626
 3890TIP3    H111676   2.003   2.761   4.095 -0.0318  0.6700 -0.2568
 3890TIP3    H211677   1.871   2.699   4.136  0.0989  0.0463 -0.7519
 3891TIP3   OH211678   3.777   3.718   0.935  0.2696  0.0446 -0.0179
 3891TIP3    H111679   3.845   3.683   0.993  0.2414  0.2906  0.1609
 3891TIP3    H211680   3.776   3.657   0.861  1.1860  0.4287 -0.3681
 3892TIP3   OH211681   5.267   1.404   3.364 -0.1644 -0.0242 -0.2402
 3892TIP3    H111682   5.271   1.490   3.323  0.3702  0.4394  0.7612
 3892TIP3    H211683   5.356   1.369   3.356 -0.3118 -0.3788 -0.3929
 3893TIP3   OH211684   2.160   1.217   5.165  1.0627  0.0023 -0.0409
 3893TIP3    H111685   2.131   1.133   5.130  1.4796  0.4476 -1.5528
 3893TIP3    H211686   2.176   1.271   5.087  0.4198  1.6122  0.8873
 3894TIP3   OH211687   3.183   3.375   3.090  0.3559 -0.1458 -0.0735
 3894TIP3    H111688   3.112   3.375   3.154 -0.1378  0.8521 -0.5962
 3894TIP3    H211689   3.262   3.390   3.142 -0.0267  0.5360  0.3282
 3895TIP3   OH211690   5.813   4.948   1.332  0.2790 -0.2812 -0.1623
 3895TIP3    H111691   5.747   4.970   1.267  1.1362 -0.8801 -1.2672
 3895TIP3    H211692   5.856   5.031   1.352  0.3774 -0.1760 -0.7874
 3896TIP3   OH211693   2.427   0.021   3.422  0.2559 -0.2922 -0.0662
 3896TIP3    H111694   2.354   0.027   3.360  0.0475  1.1879  0.2835
 3896TIP3    H211695   2.436   0.110   3.458  1.1621 -0.8274  1.1216
 3897TIP3   OH211696   2.967   2.382   1.382 -0.2870  0.0246 -0.2254
 3897TIP3    H111697   3.031   2.374   1.453  0.3535  2.1322 -0.5046
 3897TIP3    H211698   2.945   2.475   1.380 -1.8238 -0.3313 -1.4916
 3898TIP3   OH211699   1.912   0.955   2.173  0.1305 -0.0706 -0.0196
 3898TIP3    H111700   1.817   0.967   2.175 -0.2582 -2.5061 -0.7569
 3898TIP3    H211701   1.942   1.015   2.105 -0.6305  1.8430  1.2637
 3899TIP3   OH211702   0.570   5.244   2.857 -0.2636  0.0444  0.5038
 3899TIP3    H111703   0.511   5.174   2.828 -1.3243  0.4436  1.6131
 3899TIP3    H211704   0.650   5.199   2.885 -0.3402 -0.5776 -0.2478
 3900TIP3   OH211705   5.866   4.885   4.400 -0.2989  0.7410  0.2637
 3900TIP3    H111706   5.862   4.863   4.493  1.5652 -1.6088 -0.1157
 3900TIP3    H211707   5.787   4.846   4.363  0.0487 -0.2889  0.5569
 3901TIP3   OH211708   1.504   3.775   1.522 -0.7039 -0.4470 -0.6590
 3901TIP3    H111709   1.587   3.820   1.505  0.6756 -3.0049 -1.3015
 3901TIP3    H211710   1.493   3.779   1.617 -0.1793  0.4129 -0.6223
 3902TIP3   OH211711   1.310   4.173   0.508 -0.1468 -0.4197  0.2344
 3902TIP3    H111712   1.280   4.260   0.532 -0.2746 -0.3524 -0.1668
 3902TIP3    H211713   1.384   4.188   0.449  0.4926 -0.5856  0.9833
 3903TIP3   OH211714   0.251   2.689   2.487  0.0207 -0.6707 -0.0700
 3903TIP3    H111715   0.206   2.736   2.558  1.1208  0.3974 -0.0612
 3903TIP3    H211716   0.186   2.624   2.458 -1.9840  1.5203 -0.8022
 3904TIP3   OH211717   1.073   1.030   2.074 -0.1457  0.4325  0.2771
 3904TIP3    H111718   1.124   1.080   2.138 -0.3121 -0.6032  1.2523
 3904TIP3    H211719   1.022   0.969   2.127 -1.2551  0.4083 -0.7803
 3905TIP3   OH211720   5.904   5.734   0.655  0.2794  0.6866  0.5386
 3905TIP3    H111721   5.836   5.752   0.720  0.1330  2.4135 -0.0441
 3905TIP3    H211722   5.960   5.668   0.696 -0.5548  0.7809  1.8815
 3906TIP3   OH211723   0.424   2.570   4.896 -0.6847  0.2400 -0.5928
 3906TIP3    H111724   0.500   2.525   4.858  0.5544  1.1117  0.7797
 3906TIP3    H211725   0.364   2.500   4.919  0.7732 -0.6935  0.5632
 3907TIP3   OH211726   5.609   5.767   0.640 -0.1596 -0.2843 -0.2009
 3907TIP3    H111727   5.681   5.824   0.612 -0.3616  0.4506  0.7274
 3907TIP3    H211728   5.618   5.688   0.586 -0.3734  0.9450 -2.1170
 3908TIP3   OH211729   0.952   4.292   3.560 -0.0703 -0.0341  1.3566
 3908TIP3    H111730   0.926   4.232   3.490  1.3722  0.9633 -0.1395
 3908TIP3    H211731   1.033   4.254   3.595 -1.0833 -0.8283  2.9329
 3909TIP3   OH211732   0.650   3.236   4.103 -0.2000 -0.3642  0.3084
 3909TIP3    H111733   0.567   3.283   4.111 -0.4702 -0.9847  1.3018
 3909TIP3    H211734   0.627   3.144   4.115  0.1935 -0.9025 -2.3770
 3910TIP3   OH211735   3.808   3.115   2.296  0.2407 -0.1672  0.8235
 3910TIP3    H111736   3.777   3.032   2.333  1.7788 -1.5902 -0.8659
 3910TIP3    H211737   3.896   3.125   2.331  0.9862 -0.5526 -0.8439
 3911TIP3   OH211738   4.582   3.188   2.632  0.5022 -0.6938 -0.2835
 3911TIP3    H111739   4.639   3.261   2.655 -2.9413  1.8809  0.8990
 3911TIP3    H211740   4.586   3.183   2.537  2.9788 -0.9948 -0.2405
 3912TIP3   OH211741   3.624   5.692   1.575  0.5984 -0.3665 -0.5410
 3912TIP3    H111742   3.598   5.613   1.528 -2.7928  0.7774 -0.8498
 3912TIP3    H211743   3.543   5.741   1.587  2.2350  2.1278  1.4689
 3913TIP3   OH211744   2.047   4.461   1.174  0.0701 -0.2377  0.3583
 3913TIP3    H111745   2.042   4.457   1.078 -0.5863 -0.8663  0.4150
 3913TIP3    H211746   2.127   4.412   1.195  0.8417  0.8472  0.0850
 3914TIP3   OH211747   2.995   4.698   2.654  0.3237 -0.0673 -0.0760
 3914TIP3    H111748   3.008   4.786   2.689 -0.1711  0.2244 -0.6017
 3914TIP3    H211749   2.917   4.665   2.699  0.8601 -0.4890  0.5740
 3915TIP3   OH211750   4.765   4.298   3.632 -0.0513  0.0422  0.6138
 3915TIP3    H111751   4.734   4.246   3.706  0.2473  0.7634  1.2601
 3915TIP3    H211752   4.762   4.237   3.557 -0.6851 -0.5928  1.1378
 3916TIP3   OH211753   0.054   4.188   0.828  0.2164 -0.1890  0.4985
 3916TIP3    H111754   0.014   4.150   0.907 -0.8327 -0.3908 -0.1088
 3916TIP3    H211755   0.122   4.246   0.862  1.4387 -2.0854  1.4788
 3917TIP3   OH211756   3.636   2.826   2.215  0.1116 -0.4259 -0.0053
 3917TIP3    H111757   3.555   2.855   2.257  0.3032  0.3260 -0.1516
 3917TIP3    H211758   3.705   2.852   2.276  0.2460 -1.1439  0.1608
 3918TIP3   OH211759   2.873   1.455   1.547  0.8644 -0.1609 -0.2965
 3918TIP3    H111760   2.893   1.546   1.526 -0.8995  0.2101 -0.5032
 3918TIP3    H211761   2.825   1.422   1.471 -0.0939 -0.7167  0.5271
 3919TIP3   OH211762   6.038   5.652   3.183  0.0732  0.6428 -0.2177
 3919TIP3    H111763   5.973   5.597   3.139  0.0882  0.4046  0.0517
 3919TIP3    H211764   6.097   5.589   3.224  1.2435  0.8173 -1.5444
 3920TIP3   OH211765   0.676   4.790   3.601 -0.0808 -0.3803 -0.4951
 3920TIP3    H111766   0.661   4.757   3.512 -1.0682 -1.3381 -0.0013
 3920TIP3    H211767   0.628   4.873   3.603 -0.6328 -0.6849 -0.6610
 3921TIP3   OH211768   0.953   5.537   1.246 -0.4013 -0.9395 -0.6137
 3921TIP3    H111769   0.982   5.462   1.299 -1.2318 -0.5133  0.4980
 3921TIP3    H211770   0.968   5.510   1.156  3.1584 -0.8500 -0.1804
 3922TIP3   OH211771   0.817   0.039   4.512 -0.0952  0.5842 -0.0073
 3922TIP3    H111772   0.898   0.067   4.555 -1.0390  1.2292  1.4347
 3922TIP3    H211773   0.776  -0.021   4.574 -0.6363  0.1182 -0.7939
 3923TIP3   OH211774   1.614   1.846   4.690  0.9301 -0.0102  0.0420
 3923TIP3    H111775   1.641   1.759   4.660 -0.6368  0.1756 -2.0951
 3923TIP3    H211776   1.544   1.828   4.753 -0.1281 -0.3255 -1.1805
 3924TIP3   OH211777   4.594   4.635   2.131 -0.2965 -0.1330  0.3606
 3924TIP3    H111778   4.654   4.668   2.064 -1.6435 -0.4345 -1.0681
 3924TIP3    H211779   4.554   4.714   2.168 -0.6833 -0.0177 -0.2976
 3925TIP3   OH211780   5.805   2.673   0.274 -0.3512 -0.5221  0.8064
 3925TIP3    H111781   5.845   2.702   0.356 -0.3922  1.2741  0.2451
 3925TIP3    H211782   5.879   2.662   0.214 -0.3837 -1.0165  0.8602
 3926TIP3   OH211783   3.138   5.727   4.713  0.0389  0.0011 -0.8578
 3926TIP3    H111784   3.057   5.679   4.727  0.6346 -0.9223 -0.4293
 3926TIP3    H211785   3.207   5.660   4.720  0.9642  1.0324  0.6541
 3927TIP3   OH211786   2.285   4.830   1.389 -0.5135  0.2351  0.0909
 3927TIP3    H111787   2.314   4.766   1.324  0.5772  1.2399 -0.4498
 3927TIP3    H211788   2.355   4.832   1.454 -1.8562 -1.1946  1.6975
 3928TIP3   OH211789   1.567   0.079   1.296  0.0157 -0.8481  0.0911
 3928TIP3    H111790   1.617   0.061   1.375  0.9630 -0.8657 -0.4980
 3928TIP3    H211791   1.500   0.010   1.294  1.1763 -2.0120 -0.1064
 3929TIP3   OH211792   4.260   1.531   2.052 -0.0355  0.4125  0.3101
 3929TIP3    H111793   4.318   1.548   2.127 -0.2522  1.7823  0.1962
 3929TIP3    H211794   4.183   1.489   2.090  0.4806 -0.2400  0.6476
 3930TIP3   OH211795   0.425   3.017   2.464  0.1399  0.3382 -0.0120
 3930TIP3    H111796   0.424   3.105   2.426 -0.1690 -1.0804 -3.7261
 3930TIP3    H211797   0.333   2.997   2.480  0.2288  0.7353  1.0671
 3931TIP3   OH211798   2.612   1.957   1.716 -0.4521 -0.0988 -0.3130
 3931TIP3    H111799   2.634   2.043   1.680  1.3932  0.2114  1.3622
 3931TIP3    H211800   2.523   1.967   1.749  0.0636  1.5253  0.7137
 3932TIP3   OH211801   5.541   5.618   1.251 -0.2645 -0.0364  0.6129
 3932TIP3    H111802   5.478   5.561   1.208  0.4211  0.1072 -0.6073
 3932TIP3    H211803   5.626   5.577   1.235  0.0208  0.0372  1.8129
 3933TIP3   OH211804   0.077   1.098   0.486  0.3651 -0.2614  0.3004
 3933TIP3    H111805   0.048   1.138   0.404 -1.4920 -2.1933 -0.0697
 3933TIP3    H211806   0.172   1.087   0.475  0.6332  2.0754 -0.3524
 3934TIP3   OH211807   1.615   2.889   1.287 -0.0747 -0.0393 -0.1255
 3934TIP3    H111808   1.573   2.967   1.250  2.3858  0.5210 -2.0262
 3934TIP3    H211809   1.697   2.921   1.324  1.3686 -1.7639 -1.6434
 3935TIP3   OH211810   1.620   3.429   4.650 -0.2794 -0.1129  0.3049
 3935TIP3    H111811   1.582   3.511   4.619  0.5657  0.1541 -0.0667
 3935TIP3    H211812   1.710   3.452   4.673  0.5767 -1.3200 -1.6451
 3936TIP3   OH211813   0.596   2.329   4.238  0.2061  0.4102  0.2871
 3936TIP3    H111814   0.505   2.312   4.211  0.3069 -0.8488  0.6548
 3936TIP3    H211815   0.633   2.241   4.252  1.8855  0.8380 -1.1521
 3937TIP3   OH211816   6.178   0.374   3.022 -0.2513 -0.0772 -0.0134
 3937TIP3    H111817   6.215   0.291   3.053 -0.3382  0.0672  0.4999
 3937TIP3    H211818   6.240   0.440   3.051 -1.3882  0.2796  1.8308
 3938TIP3   OH211819   5.571   4.022   3.493  0.0942  0.0356  0.0856
 3938TIP3    H111820   5.645   4.072   3.527  0.1426 -0.4647  0.7363
 3938TIP3    H211821   5.603   3.932   3.488 -0.6227 -0.2699  0.8587
 3939TIP3   OH211822   3.080   4.245   3.462 -0.7245 -0.2293  0.6816
 3939TIP3    H111823   3.146   4.183   3.494  0.6468  1.2923  0.9297
 3939TIP3    H211824   3.111   4.271   3.375  1.5120  3.7067  2.3941
 3940TIP3   OH211825   4.208   3.752   2.560 -0.2035  0.5389 -0.1320
 3940TIP3    H111826   4.198   3.847   2.568 -0.1275  0.4856  0.6687
 3940TIP3    H211827   4.208   3.720   2.650  0.7672 -0.1207 -0.3530
 3941TIP3   OH211828   1.262   4.217   4.512 -0.5161 -0.0442  0.3292
 3941TIP3    H111829   1.290   4.136   4.555  2.1052 -0.3697 -1.7154
 3941TIP3    H211830   1.331   4.236   4.448 -2.2114  2.5367 -0.9473
 3942TIP3   OH211831   5.451   3.398   0.627 -0.0487  0.4778 -0.5917
 3942TIP3    H111832   5.532   3.449   0.626  0.2873 -0.0458 -1.3234
 3942TIP3    H211833   5.475   3.318   0.674  0.9680 -1.3315 -3.8259
 3943TIP3   OH211834   4.970   0.834   0.344 -0.1957 -0.5901  0.2413
 3943TIP3    H111835   4.961   0.905   0.407  0.6020 -0.4659  0.2249
 3943TIP3    H211836   4.936   0.757   0.390 -0.1264 -0.3937  0.6271
 3944TIP3   OH211837   5.860   3.876   0.964  0.1176  0.6324 -0.6889
 3944TIP3    H111838   5.816   3.961   0.957 -0.0059  0.6219 -0.0890
 3944TIP3    H211839   5.944   3.889   0.920 -0.2491  0.8168 -1.3482
 3945TIP3   OH211840   4.452   3.567   1.155 -0.3091  0.1974 -0.0468
 3945TIP3    H111841   4.462   3.587   1.248 -1.2525 -0.3591  0.1794
 3945TIP3    H211842   4.359   3.579   1.137 -0.0382  0.9533 -1.0908
 3946TIP3   OH211843   0.289   3.642   3.319  0.3902  0.3202 -0.1533
 3946TIP3    H111844   0.265   3.659   3.410  1.6148 -0.0953  0.2782
 3946TIP3    H211845   0.215   3.674   3.267 -2.0264 -2.7523  1.1143
 3947TIP3   OH211846   5.015   2.106   2.162 -0.2656  0.1016  0.0398
 3947TIP3    H111847   4.984   2.024   2.200  0.7280  0.3567  1.4600
 3947TIP3    H211848   5.100   2.084   2.123  0.4826  0.6262  1.2980
 3948TIP3   OH211849   2.334   0.253   1.149 -0.3468 -0.1004 -0.3638
 3948TIP3    H111850   2.418   0.216   1.177 -0.6705  0.5029  1.5923
 3948TIP3    H211851   2.294   0.185   1.096  0.2702 -1.4353  0.8266
 3949TIP3   OH211852   1.944   3.621   2.043 -0.1681  0.1496 -0.0366
 3949TIP3    H111853   1.884   3.658   2.108  0.3969  1.0787 -0.0240
 3949TIP3    H211854   2.022   3.677   2.048 -0.8053  1.4387 -2.7877
 3950TIP3   OH211855   1.895   0.399   3.508 -0.5790  0.0041 -0.0775
 3950TIP3    H111856   1.861   0.327   3.454 -0.2398 -0.0077 -0.2825
 3950TIP3    H211857   1.988   0.377   3.520 -0.9577 -0.7480  1.7251
 3951TIP3   OH211858   3.089   5.612   3.835  0.0517 -0.0573  0.1826
 3951TIP3    H111859   2.998   5.622   3.809  0.0583 -0.2116  0.0966
 3951TIP3    H211860   3.106   5.518   3.828  0.2089 -0.0326  0.2217
 3952TIP3   OH211861   6.121   4.515   4.932  0.0391 -0.2467 -0.1347
 3952TIP3    H111862   6.164   4.473   4.857 -0.6830  1.2479 -1.4389
 3952TIP3    H211863   6.042   4.554   4.895 -0.0727  0.9769  1.3151
 3953TIP3   OH211864   1.364   3.974   5.088  0.6097 -0.2098 -0.5800
 3953TIP3    H111865   1.288   3.916   5.091  0.2845  0.2441  1.6705
 3953TIP3    H211866   1.440   3.915   5.091  0.3282 -0.5981 -1.0092
 3954TIP3   OH211867   1.069   3.439   2.692 -0.0577 -0.0497 -0.0766
 3954TIP3    H111868   1.058   3.345   2.681  0.7268 -0.1641  0.0823
 3954TIP3    H211869   0.986   3.468   2.730 -0.2639 -0.6924 -0.0190
 3955TIP3   OH211870   4.146   4.553   4.993  0.3430  0.5131 -0.4418
 3955TIP3    H111871   4.175   4.605   5.068  0.6645 -0.3996  0.0858
 3955TIP3    H211872   4.227   4.532   4.946  0.5609 -1.6333  0.7663
 3956TIP3   OH211873   5.184   5.739   1.712 -0.6704 -0.0720 -0.3295
 3956TIP3    H111874   5.120   5.787   1.765 -0.5472 -0.4150  0.1390
 3956TIP3    H211875   5.263   5.792   1.714  0.1547 -1.2301  1.9251
 3957TIP3   OH211876   1.011   4.083   2.753  0.2617  0.3273  0.5701
 3957TIP3    H111877   0.958   4.006   2.732 -0.1034  0.8791 -0.5991
 3957TIP3    H211878   1.045   4.112   2.669  0.5845  1.3165  1.0342
 3958TIP3   OH211879   3.295   0.085   4.830 -0.1315  0.3162 -0.0090
 3958TIP3    H111880   3.391   0.089   4.834 -0.1299 -0.5072  1.1805
 3958TIP3    H211881   3.276   0.070   4.737  0.9328 -0.4402 -0.1212
 3959TIP3   OH211882   0.693   0.259   4.715  0.2388  0.5168  0.4173
 3959TIP3    H111883   0.702   0.172   4.754  0.2391  1.7314  3.4492
 3959TIP3    H211884   0.606   0.259   4.675  0.2516 -0.8614  0.3410
 3960TIP3   OH211885   2.222   2.581   0.785 -0.5301 -0.7204  0.6700
 3960TIP3    H111886   2.130   2.560   0.799 -0.6416 -0.1776  0.7808
 3960TIP3    H211887   2.227   2.610   0.694 -0.7393  0.6292  1.0735
 3961TIP3   OH211888   4.275   3.672   4.440  0.7602  0.9154  0.0931
 3961TIP3    H111889   4.187   3.700   4.415  0.7951  2.1105  1.2112
 3961TIP3    H211890   4.265   3.579   4.460 -0.2646  1.0465  0.2574
 3962TIP3   OH211891   4.825   0.503   3.418 -0.1009 -0.2848  0.0916
 3962TIP3    H111892   4.770   0.516   3.341 -1.3150 -2.1883  0.5571
 3962TIP3    H211893   4.786   0.559   3.485 -0.6151 -0.5253  0.0055
 3963TIP3   OH211894   5.673   4.740   0.384 -0.0133 -0.2269  0.2739
 3963TIP3    H111895   5.637   4.681   0.317  0.6949 -1.3354  0.8301
 3963TIP3    H211896   5.677   4.825   0.342 -0.0651 -0.7980 -0.9294
 3964TIP3   OH211897   2.306   1.414   1.155  0.2688 -0.6936  0.3376
 3964TIP3    H111898   2.228   1.361   1.172 -0.5291 -0.3081 -1.8792
 3964TIP3    H211899   2.273   1.504   1.153  0.5315 -0.6166 -1.7253
 3965TIP3   OH211900   5.028   4.354   1.813 -0.1112 -0.0432  0.0945
 3965TIP3    H111901   5.030   4.436   1.764 -1.2122  0.7942  1.3520
 3965TIP3    H211902   5.066   4.376   1.898 -0.9980 -0.6581  0.6703
 3966TIP3   OH211903   4.402   3.267   1.276  0.2231  0.7891 -0.1044
 3966TIP3    H111904   4.489   3.227   1.272 -0.1292 -0.0547  0.4331
 3966TIP3    H211905   4.353   3.223   1.206 -0.5220 -0.6554  1.2486
 3967TIP3   OH211906   6.067   0.637   1.858 -0.4268  0.0841 -0.2947
 3967TIP3    H111907   6.054   0.708   1.921  1.1611 -0.3759  0.6044
 3967TIP3    H211908   6.162   0.622   1.857 -0.6202 -1.3228 -1.2494
 3968TIP3   OH211909   2.056   0.491   4.106 -0.1120  0.4667  0.5733
 3968TIP3    H111910   2.084   0.474   4.196  1.0400  0.6277  0.2703
 3968TIP3    H211911   1.961   0.484   4.108 -0.1669  1.2290  1.9726
 3969TIP3   OH211912   4.556   4.050   4.916  0.1646 -0.0513 -0.3508
 3969TIP3    H111913   4.466   4.026   4.939  0.0408 -0.0190 -0.7894
 3969TIP3    H211914   4.566   4.020   4.825  1.1227 -1.5198  0.2005
 3970TIP3   OH211915   6.074   0.028   1.794  0.1886 -0.2812 -0.1535
 3970TIP3    H111916   6.164   0.001   1.778  0.1689 -0.5434  0.1546
 3970TIP3    H211917   6.024  -0.014   1.725  0.3049 -0.1194 -0.3364
 3971TIP3   OH211918   5.033   4.229   3.174 -0.5362  0.1476 -0.4539
 3971TIP3    H111919   5.095   4.188   3.113 -1.6569 -1.0958 -0.7887
 3971TIP3    H211920   5.056   4.191   3.260 -0.0227  0.6492 -0.3668
 3972TIP3   OH211921   3.045   5.955   5.080  0.2875  0.0539 -0.1587
 3972TIP3    H111922   3.051   5.871   5.126  0.2428  0.7923  1.2626
 3972TIP3    H211923   2.951   5.970   5.070  0.2921 -0.6648 -1.6394
 3973TIP3   OH211924   2.496   3.512   4.676  0.5006  0.5216 -0.0023
 3973TIP3    H111925   2.560   3.544   4.741  1.2063 -1.8216  0.5597
 3973TIP3    H211926   2.549   3.465   4.612 -0.4210  1.0092 -1.1550
 3974TIP3   OH211927   0.435   1.853   2.478  0.5356 -0.1030 -0.2430
 3974TIP3    H111928   0.438   1.785   2.546  2.1795  0.5569  0.3885
 3974TIP3    H211929   0.411   1.805   2.399 -0.4708 -1.0530  0.5940
 3975TIP3   OH211930   5.783   1.061   1.625 -0.0791 -0.2653  0.0255
 3975TIP3    H111931   5.762   1.104   1.542 -0.8589 -0.5947  0.0407
 3975TIP3    H211932   5.857   1.110   1.660 -1.2989  1.4402  0.3316
 3976TIP3   OH211933   1.474   5.217   2.831  0.2284  0.3120 -0.2748
 3976TIP3    H111934   1.434   5.130   2.834  1.3139 -0.1822  1.7199
 3976TIP3    H211935   1.422   5.269   2.893  0.8273  0.5101  0.0688
 3977TIP3   OH211936   0.112  -0.031   4.448  0.0216  0.0856 -0.5469
 3977TIP3    H111937   0.121   0.026   4.372 -0.0278 -0.0157 -0.6272
 3977TIP3    H211938   0.081   0.027   4.518 -0.1606  0.1276 -0.6654
 3978TIP3   OH211939   1.488   4.137   2.203 -0.1960 -0.6178  0.1946
 3978TIP3    H111940   1.405   4.179   2.227 -0.0581 -0.1245 -0.1571
 3978TIP3    H211941   1.550   4.210   2.198 -0.4421 -0.4791 -2.7127
 3979TIP3   OH211942   1.266   0.098   0.798  0.1213 -0.4735 -0.2001
 3979TIP3    H111943   1.216   0.160   0.851  1.2945  1.2354 -0.9907
 3979TIP3    H211944   1.305   0.038   0.861  2.0939  1.9518  1.0572
 3980TIP3   OH211945   0.296   3.796   5.197 -0.1783 -0.0505  0.0107
 3980TIP3    H111946   0.375   3.759   5.157  0.2706  0.2994  0.5489
 3980TIP3    H211947   0.235   3.722   5.203 -0.3708 -0.0547 -1.5398
 3981TIP3   OH211948   0.806   2.112   3.081 -0.1217 -0.3659 -0.1349
 3981TIP3    H111949   0.831   2.109   3.173  1.3398  0.2318 -0.4929
 3981TIP3    H211950   0.805   2.205   3.059 -0.4595 -0.5061 -0.7203
 3982TIP3   OH211951   1.667   1.231   4.378  0.5866  0.0330 -0.5618
 3982TIP3    H111952   1.735   1.255   4.315  1.3155 -1.5759 -0.4349
 3982TIP3    H211953   1.597   1.194   4.324  0.0610  1.0699 -0.6282
 3983TIP3   OH211954   3.101   2.000   4.826  0.4080  0.5663  0.0231
 3983TIP3    H111955   3.166   2.011   4.756 -0.3330 -0.6487 -0.8791
 3983TIP3    H211956   3.036   1.941   4.790  0.1759 -0.3684  1.8661
 3984TIP3   OH211957   4.454   1.028   2.344  0.1442 -0.7260  0.1053
 3984TIP3    H111958   4.498   0.979   2.414 -1.0741 -0.5674  0.9994
 3984TIP3    H211959   4.497   1.114   2.345 -0.0523 -0.6338  0.8403
 3985TIP3   OH211960   5.986   3.008   1.114 -0.5444 -0.7732 -0.2402
 3985TIP3    H111961   6.024   2.941   1.058  0.4794 -0.6091  0.2502
 3985TIP3    H211962   5.984   3.086   1.059 -0.6967 -0.9222 -0.4474
 3986TIP3   OH211963   3.092   3.112   1.065  0.0533  0.1791 -0.2202
 3986TIP3    H111964   3.092   3.030   1.016 -0.6730  0.6957 -1.1180
 3986TIP3    H211965   3.183   3.124   1.093 -0.0598 -1.5811  1.0909
 3987TIP3   OH211966   2.126   3.574   4.813  0.4533 -0.1517  0.1576
 3987TIP3    H111967   2.155   3.656   4.774 -0.0859 -0.0935 -0.1346
 3987TIP3    H211968   2.172   3.569   4.896  1.8763 -0.4310 -0.6125
 3988TIP3   OH211969   4.000   0.311   3.077 -0.4383  0.0501 -0.0482
 3988TIP3    H111970   3.931   0.359   3.123  0.5477 -0.0421  1.6132
 3988TIP3    H211971   4.015   0.234   3.131  2.0029  0.8260  0.5151
 3989TIP3   OH211972   5.170   0.892   4.728  0.0614 -0.0463  0.0750
 3989TIP3    H111973   5.257   0.917   4.761 -0.7546  0.9583  1.5952
 3989TIP3    H211974   5.170   0.797   4.729  0.8017 -0.0495  1.0590
 3990TIP3   OH211975   0.825   0.498   4.671  0.2850  0.0945 -0.2139
 3990TIP3    H111976   0.781   0.423   4.712  0.5065 -0.6534 -1.3191
 3990TIP3    H211977   0.788   0.503   4.583 -0.2454  1.7423  0.0589
 3991TIP3   OH211978   1.658   0.782   4.955 -0.0541 -0.1583 -0.1465
 3991TIP3    H111979   1.694   0.806   4.870 -0.1821  1.1976  0.1561
 3991TIP3    H211980   1.634   0.866   4.995  0.0848 -0.7606  1.2556
 3992TIP3   OH211981   1.563   1.941   1.727  0.7117 -0.2807 -0.4780
 3992TIP3    H111982   1.593   1.855   1.756  0.3083 -0.1770  0.2740
 3992TIP3    H211983   1.590   2.001   1.798 -0.8804 -0.1241  0.0401
 3993TIP3   OH211984   4.858   6.016   2.367 -0.0049 -0.1628 -0.1771
 3993TIP3    H111985   4.843   5.924   2.343 -0.3492  0.1861 -1.3741
 3993TIP3    H211986   4.945   6.036   2.332  0.5146 -0.3024  0.9782
 3994TIP3   OH211987   4.964   1.627   3.626  0.5107  0.4339 -0.0803
 3994TIP3    H111988   5.025   1.583   3.685  1.7451  1.3533 -0.6239
 3994TIP3    H211989   4.900   1.559   3.602  1.1455 -0.4722  0.7404
 3995TIP3   OH211990   0.357   0.187   2.421  0.8137  0.0118  0.1837
 3995TIP3    H111991   0.434   0.212   2.471  0.2024  2.0474  0.1932
 3995TIP3    H211992   0.311   0.269   2.404 -1.7599 -1.1935  0.8369
 3996TIP3   OH211993   0.309   1.109   2.214 -0.0171 -0.7577  0.6984
 3996TIP3    H111994   0.353   1.192   2.195  0.0652 -0.4970  1.9607
 3996TIP3    H211995   0.378   1.043   2.207 -0.1111 -0.7621 -0.4450
 3997TIP3   OH211996   1.611   0.347   3.151 -0.5760  0.1310  0.0741
 3997TIP3    H111997   1.557   0.287   3.101 -0.5783 -0.0178  0.2531
 3997TIP3    H211998   1.561   0.363   3.231 -2.0521  2.7614 -1.2371
 3998TIP3   OH211999   5.012   0.390   0.923 -0.0084 -0.6056 -0.0657
 3998TIP3    H112000   4.951   0.454   0.960  2.7595  0.4866  3.0768
 3998TIP3    H212001   5.011   0.408   0.829 -2.7891  0.8149  0.1289
 3999TIP3   OH212002   0.072   3.862   4.220  0.8820  0.1300  1.0981
 3999TIP3    H112003   0.026   3.799   4.165 -2.0346  1.4284  1.8641
 3999TIP3    H212004   0.112   3.923   4.158 -0.5156  0.3270  0.3363
 4000TIP3   OH212005   3.861   3.654   3.756 -0.4457  0.5369 -0.2110
 4000TIP3    H112006   3.881   3.737   3.713 -0.0756  1.1409  1.0834
 4000TIP3    H212007   3.938   3.599   3.739 -0.5621  0.5553 -0.8173
 4001TIP3   OH212008   2.123   1.428   4.604 -0.4109  0.4859 -0.2392
 4001TIP3    H112009   2.110   1.492   4.674 -0.8382  1.1325 -0.9020
 4001TIP3    H212010   2.057   1.450   4.539 -0.6315 -0.6945 -0.4396
 4002TIP3   OH212011   0.339   5.817   4.330 -1.0441  0.1003 -0.0848
 4002TIP3    H112012   0.262   5.797   4.277  0.2965 -1.8903 -1.4201
 4002TIP3    H212013   0.399   5.860   4.269 -1.4062  2.6883  1.2046
 4003TIP3   OH212014   5.407   1.940   1.079 -0.2128  0.4098 -0.2846
 4003TIP3    H112015   5.421   1.846   1.088 -3.2813 -0.1344 -0.3069
 4003TIP3    H212016   5.494   1.978   1.090  1.2237 -2.4396 -0.8858
 4004TIP3   OH212017   2.737   5.564   1.574 -0.0515  0.0866  0.2121
 4004TIP3    H112018   2.701   5.601   1.655 -0.2793  2.2383 -0.7745
 4004TIP3    H212019   2.829   5.591   1.574  0.7999 -2.5240  1.1282
 4005TIP3   OH212020   4.426   1.538   4.088 -0.7511  0.4953 -0.7560
 4005TIP3    H112021   4.416   1.557   4.181 -1.0536  1.2350 -0.9307
 4005TIP3    H212022   4.502   1.480   4.083 -1.1103 -0.0469  0.0034
 4006TIP3   OH212023   5.946   3.784   3.266  0.4423 -0.1864 -0.1127
 4006TIP3    H112024   5.872   3.754   3.214 -0.7136  2.1191  0.0538
 4006TIP3    H212025   5.910   3.797   3.354  0.8971  1.2999 -0.1119
 4007TIP3   OH212026   3.518   1.491   1.727  0.3358  0.7862 -0.0182
 4007TIP3    H112027   3.495   1.467   1.816  1.1430 -0.2749 -0.0764
 4007TIP3    H212028   3.614   1.492   1.726  0.3435  2.1003 -0.5446
 4008TIP3   OH212029   0.163   0.767   2.861 -0.4324  0.7615 -0.2586
 4008TIP3    H112030   0.119   0.682   2.861 -0.0381  0.5384  0.5520
 4008TIP3    H212031   0.175   0.787   2.954  0.1548  1.3494 -0.4533
 4009TIP3   OH212032   6.110   3.349   2.181 -0.4496  0.1637 -0.7096
 4009TIP3    H112033   6.123   3.412   2.110 -0.1788  1.0279  0.0773
 4009TIP3    H212034   6.193   3.304   2.189 -0.2972  0.4665 -0.5701
 4010TIP3   OH212035   2.803   3.468   0.551 -0.0670 -0.1231 -0.4925
 4010TIP3    H112036   2.748   3.540   0.520  1.2101 -0.0356 -2.7913
 4010TIP3    H212037   2.845   3.435   0.471  0.9647 -2.0674  0.7993
 4011TIP3   OH212038   5.560   3.198   3.910 -0.1964 -0.0995  0.0479
 4011TIP3    H112039   5.636   3.245   3.944  0.0290  0.5779 -1.3472
 4011TIP3    H212040   5.498   3.198   3.984  0.6391  0.4940  0.7749
 4012TIP3   OH212041   4.653   2.272   0.093  0.1273  0.5047  0.6606
 4012TIP3    H112042   4.689   2.204   0.149  0.1760  0.3662  0.4624
 4012TIP3    H212043   4.722   2.289   0.028 -0.6289 -0.6510 -0.4871
 4013TIP3   OH212044   4.537   2.957   3.180 -0.0675  0.0478  0.0896
 4013TIP3    H112045   4.545   3.047   3.149 -2.1318  0.4296  0.5579
 4013TIP3    H212046   4.497   2.964   3.266 -0.6522 -1.3330 -0.0368
 4014TIP3   OH212047   1.046   5.320   1.420 -0.1093 -0.2739 -0.2775
 4014TIP3    H112048   1.099   5.242   1.404  1.4132  0.9114 -1.4232
 4014TIP3    H212049   1.067   5.347   1.509  0.7763 -0.1670 -0.5118
 4015TIP3   OH212050   3.742   3.582   3.009  0.0654  0.3354 -0.5689
 4015TIP3    H112051   3.651   3.552   3.008  0.0208  0.4705 -0.5769
 4015TIP3    H212052   3.791   3.509   2.971  0.2844 -0.7478  1.6257
 4016TIP3   OH212053   1.679   4.044   1.784  0.3292 -0.3958 -0.5016
 4016TIP3    H112054   1.750   4.059   1.846 -0.3054 -1.8097  0.6209
 4016TIP3    H212055   1.709   3.969   1.732 -1.7339 -3.6093  2.4620
 4017TIP3   OH212056   3.972   4.671   4.057 -0.3584 -0.2563 -0.2223
 4017TIP3    H112057   4.026   4.635   3.987  2.1900  0.3268  1.2868
 4017TIP3    H212058   3.904   4.605   4.071  0.2053 -1.2680 -1.9389
 4018TIP3   OH212059   1.693   3.273   3.251 -0.3426  0.2348 -0.8300
 4018TIP3    H112060   1.779   3.311   3.234  0.2854 -1.2251 -1.0173
 4018TIP3    H212061   1.653   3.333   3.315  2.1777 -0.8362  1.9725
 4019TIP3   OH212062   0.739   3.748   4.198  0.2112  0.4928  0.6511
 4019TIP3    H112063   0.731   3.826   4.142 -1.5272 -0.4075 -0.4567
 4019TIP3    H212064   0.832   3.724   4.192  0.1798  0.6939 -1.5351
 4020TIP3   OH212065   1.600   3.191   1.898 -0.3887  0.4516 -0.2982
 4020TIP3    H112066   1.626   3.282   1.883  0.6650 -0.0165 -1.4152
 4020TIP3    H212067   1.650   3.164   1.975 -0.0748  0.5667 -0.4614
 4021TIP3   OH212068   1.314   0.022   3.561 -0.1789  0.0824  0.3615
 4021TIP3    H112069   1.309   0.045   3.469 -0.1884  0.7092  0.5153
 4021TIP3    H212070   1.397  -0.023   3.571 -1.0463 -1.7631 -0.3340
 4022TIP3   OH212071   1.642   0.369   1.280 -0.6520  0.2875  0.0546
 4022TIP3    H112072   1.704   0.371   1.207 -0.6559  1.0289  0.0615
 4022TIP3    H212073   1.597   0.285   1.271  0.1565 -0.1386 -0.1079
 4023TIP3   OH212074   2.320   1.532   2.993 -0.4710 -0.1448  0.6632
 4023TIP3    H112075   2.263   1.555   3.066  0.3516  0.3603  1.1733
 4023TIP3    H212076   2.408   1.555   3.024  0.2590 -2.5718  0.6057
 4024TIP3   OH212077   1.496   5.881   1.597 -0.4791 -0.3086  0.6749
 4024TIP3    H112078   1.458   5.814   1.539 -0.6227 -1.2389  1.8012
 4024TIP3    H212079   1.551   5.832   1.658  3.5678  1.0611 -1.5365
 4025TIP3   OH212080   2.916   3.337   0.226  0.5236 -0.6581  0.0356
 4025TIP3    H112081   2.904   3.257   0.175 -1.3487  0.7763 -1.9902
 4025TIP3    H212082   2.999   3.374   0.195 -0.4488  0.0434 -1.8972
 4026TIP3   OH212083   4.631   2.194   0.976 -0.3537 -0.0966  0.4543
 4026TIP3    H112084   4.689   2.256   1.019 -0.6704  1.4959 -1.3044
 4026TIP3    H212085   4.684   2.115   0.966  1.2008  0.9720 -0.2007
 4027TIP3   OH212086   5.056   3.743   0.055 -0.3888  0.4007  0.0353
 4027TIP3    H112087   4.966   3.766   0.033  0.0579  3.8216  1.1637
 4027TIP3    H212088   5.108   3.817   0.025  1.6375  0.0026  2.2469
 4028TIP3   OH212089   2.476   5.151   1.290 -0.0834  0.1134 -0.0510
 4028TIP3    H112090   2.457   5.155   1.384 -0.9798  0.3871 -0.2379
 4028TIP3    H212091   2.570   5.134   1.286  0.0681  0.6318  0.8974
 4029TIP3   OH212092   5.906   3.732   4.831  0.4150  0.0624  0.0529
 4029TIP3    H112093   5.854   3.713   4.753 -0.5261 -0.7966  0.8715
 4029TIP3    H212094   5.923   3.826   4.826 -1.3952  0.4152 -0.1583
 4030TIP3   OH212095   4.698   4.861   0.142  0.4159  0.0644  0.4415
 4030TIP3    H112096   4.734   4.866   0.231  0.5689 -1.7337  0.5016
 4030TIP3    H212097   4.659   4.775   0.136 -1.2313  0.8369 -0.6636
 4031TIP3   OH212098   0.423   2.018   4.175 -0.4368 -0.5718 -0.7928
 4031TIP3    H112099   0.383   2.104   4.191  0.0988 -0.3229 -0.7896
 4031TIP3    H212100   0.483   2.006   4.248 -1.7540 -1.7172  0.1520
 4032TIP3   OH212101   3.551   4.300   5.046  0.6462 -0.0428  0.3986
 4032TIP3    H112102   3.617   4.297   4.977  1.4384 -1.2732  1.1537
 4032TIP3    H212103   3.587   4.245   5.116 -0.4390  0.6004  1.5113
 4033TIP3   OH212104   2.304   5.811   4.876  0.2857  0.3020 -0.9760
 4033TIP3    H112105   2.226   5.755   4.871  0.2842  0.3940 -2.3096
 4033TIP3    H212106   2.269   5.899   4.891  0.3241 -0.0871  2.1774
 4034TIP3   OH212107   4.797   1.339   2.964 -0.6036 -0.2686  0.2799
 4034TIP3    H112108   4.781   1.373   2.876  1.0703 -2.4919 -0.9974
 4034TIP3    H212109   4.710   1.326   3.001 -1.3263  2.0465 -0.4337
 4035TIP3   OH212110   4.599   3.924   1.246  0.5212  0.6764 -0.0646
 4035TIP3    H112111   4.635   3.952   1.330 -1.8287  1.0370  0.9159
 4035TIP3    H212112   4.579   4.006   1.200 -2.1766  0.6749  0.9142
 4036TIP3   OH212113   3.532   3.850   2.851 -0.3074  0.2904  0.1711
 4036TIP3    H112114   3.628   3.856   2.852 -0.3045  0.6221 -0.8109
 4036TIP3    H212115   3.512   3.769   2.898  0.4322  0.4859  0.8292
 4037TIP3   OH212116   5.040   4.094   0.081  0.7635  0.5358 -0.0446
 4037TIP3    H112117   5.017   4.157   0.013  0.2768  0.8600  0.4162
 4037TIP3    H212118   5.111   4.042   0.042 -1.0961 -0.8905 -1.7122
 4038TIP3   OH212119   4.143   4.860   0.862  0.7195 -0.2002 -0.0847
 4038TIP3    H112120   4.219   4.835   0.913  0.5382 -0.2889  0.1420
 4038TIP3    H212121   4.166   4.836   0.772  0.0981 -2.3240  0.2562
 4039TIP3   OH212122   4.485   2.589   2.107  0.1462 -0.5353 -0.1933
 4039TIP3    H112123   4.463   2.518   2.047 -0.3403 -0.6078  0.0611
 4039TIP3    H212124   4.478   2.551   2.194 -1.5536  0.1642  0.0215
 4040TIP3   OH212125   1.770   4.072   0.511 -0.5827  0.0834  0.2868
 4040TIP3    H112126   1.837   4.074   0.579 -1.5642  1.1715  1.2656
 4040TIP3    H212127   1.723   4.154   0.521 -0.0840  0.8069 -2.4474
 4041TIP3   OH212128   3.195   1.717   3.982  0.2465  0.0296 -0.1623
 4041TIP3    H112129   3.209   1.764   4.065  1.0776 -1.3697  0.5282
 4041TIP3    H212130   3.266   1.746   3.926  0.0218  0.5370 -0.1948
 4042TIP3   OH212131   2.318   1.143   2.964 -1.0343  0.0150 -0.0036
 4042TIP3    H112132   2.300   1.146   2.870 -3.4595 -1.5867  0.3311
 4042TIP3    H212133   2.232   1.135   3.005  0.0858 -2.0442  2.2073
 4043TIP3   OH212134   5.719   3.019   3.519  0.2477 -0.0039  0.0924
 4043TIP3    H112135   5.627   2.994   3.525  0.1000  0.2495 -0.9193
 4043TIP3    H212136   5.768   2.942   3.549 -0.3105  0.2995  1.8653
 4044TIP3   OH212137   1.113   5.602   2.436 -0.0786 -0.4072  0.0037
 4044TIP3    H112138   1.115   5.644   2.350 -1.0247  0.0175  0.1807
 4044TIP3    H212139   1.205   5.585   2.456  0.1049 -2.2094 -1.9152
 4045TIP3   OH212140   0.665   5.625   4.387  0.6380  0.3213 -0.3181
 4045TIP3    H112141   0.609   5.645   4.313  1.8866  3.5057 -0.5625
 4045TIP3    H212142   0.606   5.591   4.454 -0.8038 -0.6625 -2.0080
 4046TIP3   OH212143   3.284   0.305   3.519 -0.2462 -0.7041  0.7066
 4046TIP3    H112144   3.295   0.374   3.453  0.9107 -0.7295  0.8634
 4046TIP3    H212145   3.189   0.295   3.526 -0.6312  2.8298  2.6926
 4047TIP3   OH212146   4.138   5.396   0.799 -0.1104 -0.0291  0.0404
 4047TIP3    H112147   4.047   5.383   0.827 -0.8310 -0.2978 -2.2646
 4047TIP3    H212148   4.135   5.394   0.704  2.6148 -2.0585 -0.1210
 4048TIP3   OH212149   1.330   2.051   2.416 -0.2613  0.6051  0.3816
 4048TIP3    H112150   1.292   2.083   2.334  2.9394  0.0014 -1.5157
 4048TIP3    H212151   1.395   2.118   2.439  1.6828 -1.0912  0.1343
 4049TIP3   OH212152   1.365   3.352   1.067 -0.0196 -0.2240  0.2448
 4049TIP3    H112153   1.298   3.384   1.006 -1.0905 -0.8429  1.0645
 4049TIP3    H212154   1.433   3.419   1.066  0.3010 -0.5020 -2.0894
 4050TIP3   OH212155   2.803   3.273   2.380  0.9721  0.1609 -0.1762
 4050TIP3    H112156   2.842   3.309   2.301  0.9667 -0.1742 -0.3323
 4050TIP3    H212157   2.875   3.227   2.423  0.9283  0.1812 -0.0806
 4051TIP3   OH212158   4.446   2.517   1.544  0.5792  0.1130  0.5994
 4051TIP3    H112159   4.398   2.501   1.625  1.6802  0.7356  1.4160
 4051TIP3    H212160   4.471   2.429   1.513  0.0489 -0.1342  0.8615
 4052TIP3   OH212161   6.314   1.782   5.122  0.1706 -0.2392 -0.4226
 4052TIP3    H112162   6.282   1.733   5.047 -1.2838 -0.7441  0.4697
 4052TIP3    H212163   6.365   1.853   5.084 -0.9981 -0.1367 -1.9328
 4053TIP3   OH212164   0.124   5.081   3.220 -0.0888  0.0575  0.0296
 4053TIP3    H112165   0.217   5.060   3.212 -0.0450 -0.2099  1.0885
 4053TIP3    H212166   0.084   5.000   3.251 -0.2868  0.8130  1.8987
 4054TIP3   OH212167   2.002   1.804   1.736  0.5862 -0.4441 -0.2399
 4054TIP3    H112168   2.092   1.774   1.749  1.3728  2.2720  1.4630
 4054TIP3    H212169   2.008   1.870   1.668 -0.1437 -0.2719 -0.1486
 4055TIP3   OH212170   4.903   4.243   1.437 -0.0210 -0.4920 -0.4550
 4055TIP3    H112171   4.959   4.198   1.500  0.3905 -0.3865 -0.7502
 4055TIP3    H212172   4.962   4.296   1.385 -0.5756  1.1576  0.5106
 4056TIP3   OH212173   0.550   4.496   1.816 -0.2179  0.3670 -0.1855
 4056TIP3    H112174   0.525   4.404   1.805 -3.5139  1.0608  0.4937
 4056TIP3    H212175   0.635   4.493   1.858 -0.8899 -2.4087  1.2015
 4057TIP3   OH212176   1.011   3.142   4.975 -0.2571  0.0378  0.9030
 4057TIP3    H112177   0.921   3.166   4.999  0.5455  0.9514  3.3119
 4057TIP3    H212178   1.005   3.050   4.948 -2.2533  0.7344 -1.3863
 4058TIP3   OH212179   0.563   0.357   0.135 -0.0618 -0.0300  0.0637
 4058TIP3    H112180   0.611   0.355   0.052 -0.0799 -2.3908  0.0633
 4058TIP3    H212181   0.586   0.275   0.179 -1.3296  0.4235  1.6806
 4059TIP3   OH212182   1.033   3.133   4.656 -0.3929 -0.1970  0.0889
 4059TIP3    H112183   1.082   3.215   4.650 -1.6942  0.6468  0.5440
 4059TIP3    H212184   1.002   3.117   4.567 -1.5027  0.6991  0.2960
 4060TIP3   OH212185   1.344   1.599   4.352 -0.0289 -0.1963  0.0925
 4060TIP3    H112186   1.292   1.628   4.427 -1.5072 -2.0279 -0.1696
 4060TIP3    H212187   1.409   1.669   4.341 -0.4311  0.6474  2.3827
 4061TIP3   OH212188   2.101   4.564   4.292 -0.3837  0.3397  0.2626
 4061TIP3    H112189   2.127   4.581   4.202 -1.5552 -1.2615 -0.4252
 4061TIP3    H212190   2.071   4.649   4.324  0.6092  1.0618 -0.6313
 4062TIP3   OH212191   3.922   1.514   2.399 -0.0412  0.1745 -0.0076
 4062TIP3    H112192   3.899   1.423   2.378  1.5181 -0.6058  1.4474
 4062TIP3    H212193   3.866   1.535   2.475 -2.8876  1.6890 -2.3018
 4063TIP3   OH212194   4.855   5.958   3.306 -0.2766 -0.5496 -0.1841
 4063TIP3    H112195   4.893   5.873   3.328 -0.4193 -0.3093  1.0675
 4063TIP3    H212196   4.787   5.937   3.242 -0.6579 -1.4524  0.4895
 4064TIP3   OH212197   5.310   1.654   0.168 -0.1899  0.4698  0.0489
 4064TIP3    H112198   5.295   1.746   0.147  0.2383  0.6241  0.3937
 4064TIP3    H212199   5.388   1.655   0.225 -0.6407 -0.0290  0.6894
 4065TIP3   OH212200   4.794   0.226   4.124  0.1811  0.2207 -0.1052
 4065TIP3    H112201   4.708   0.244   4.163 -0.5140 -0.6980 -1.1428
 4065TIP3    H212202   4.848   0.301   4.149 -0.7708  0.5666  1.0026
 4066TIP3   OH212203   2.899   2.460   3.818  0.0080 -0.0513 -0.0378
 4066TIP3    H112204   2.886   2.369   3.789  0.1000 -0.8765  2.2773
 4066TIP3    H212205   2.993   2.474   3.810 -0.0764  0.0288 -0.9115
 4067TIP3   OH212206   0.388   4.813   0.669 -0.0931 -0.1974  0.5527
 4067TIP3    H112207   0.343   4.753   0.610  2.0089  0.4135 -1.8429
 4067TIP3    H212208   0.348   4.899   0.652 -0.6301 -0.2728  1.3357
 4068TIP3   OH212209   5.913   4.682   1.054 -0.1659 -0.2132  0.0212
 4068TIP3    H112210   5.915   4.719   0.966  1.0013 -0.3281 -0.0152
 4068TIP3    H212211   5.821   4.689   1.080 -0.6453 -0.6856 -1.4131
 4069TIP3   OH212212   1.951   0.411   3.839 -0.0965  0.1441  0.1858
 4069TIP3    H112213   1.996   0.448   3.915 -2.2581  2.5479  0.4402
 4069TIP3    H212214   1.965   0.475   3.769  1.1496 -1.6260 -1.2796
 4070TIP3   OH212215   4.103   2.607   2.611 -0.1366 -0.1392  0.0136
 4070TIP3    H112216   4.141   2.568   2.690  1.6038 -1.1142 -1.2158
 4070TIP3    H212217   4.179   2.640   2.563 -0.6053 -2.8507 -2.9463
 4071TIP3   OH212218   5.250   0.637   2.410 -0.0872 -0.4050 -0.4978
 4071TIP3    H112219   5.263   0.730   2.431  1.1184 -0.9142  1.1950
 4071TIP3    H212220   5.163   0.617   2.444  0.2335 -0.2378  0.4347
 4072TIP3   OH212221   0.094   4.559   0.101  0.6415  0.2192 -0.7000
 4072TIP3    H112222   0.176   4.557   0.150  0.9361 -1.1104 -1.2156
 4072TIP3    H212223   0.082   4.652   0.079  0.0826  1.0340  2.5025
 4073TIP3   OH212224   2.381   3.969   0.846 -0.2196  0.3928 -0.3093
 4073TIP3    H112225   2.389   3.879   0.878  0.7706  0.5665 -0.0529
 4073TIP3    H212226   2.424   3.967   0.760  1.7672  1.1025  0.6309
 4074TIP3   OH212227   1.542   4.734   1.747 -0.2454 -0.3208 -0.0069
 4074TIP3    H112228   1.601   4.685   1.805 -2.5492 -0.9491  1.9748
 4074TIP3    H212229   1.565   4.826   1.763  0.0485 -0.5408  0.9229
 4075TIP3   OH212230   0.847   3.803   4.528 -0.6033  0.3105 -0.2733
 4075TIP3    H112231   0.917   3.811   4.464  0.0839 -0.9182  0.2757
 4075TIP3    H212232   0.875   3.856   4.602 -0.8610  0.8218 -0.5363
 4076TIP3   OH212233   4.520   5.963   3.320 -0.0433 -0.4315  0.0883
 4076TIP3    H112234   4.464   5.976   3.243 -0.6294 -1.0041  0.4102
 4076TIP3    H212235   4.480   6.017   3.388  0.0184 -0.5462  0.2143
 4077TIP3   OH212236   0.490   5.029   1.227  0.1473 -0.0275  0.5639
 4077TIP3    H112237   0.422   5.071   1.280  0.3132 -0.4770  1.1504
 4077TIP3    H212238   0.460   5.039   1.137  0.7911  2.4354  0.5592
 4078TIP3   OH212239   5.758   1.892   1.318  0.5428  0.1886 -0.1080
 4078TIP3    H112240   5.712   1.808   1.317  0.6321 -0.0206  2.9635
 4078TIP3    H212241   5.840   1.875   1.271 -0.0289 -1.0455 -0.7015
 4079TIP3   OH212242   3.960   1.615   3.151  0.4178 -0.6622  0.2680
 4079TIP3    H112243   3.952   1.549   3.219  1.0361 -1.7824 -0.7176
 4079TIP3    H212244   3.900   1.587   3.082  0.2039  0.1533  0.1085
 4080TIP3   OH212245   5.867   2.125   4.954  0.4342  0.1611 -0.2319
 4080TIP3    H112246   5.794   2.184   4.971 -0.8090 -1.1583 -0.7666
 4080TIP3    H212247   5.853   2.096   4.864  1.4329 -0.3888 -0.2205
 4081TIP3   OH212248   6.300   2.505   2.844  0.1725  0.8839 -0.1454
 4081TIP3    H112249   6.316   2.493   2.938 -2.1131 -1.0495  0.0798
 4081TIP3    H212250   6.383   2.537   2.810  1.2584  1.0572  2.4200
 4082TIP3   OH212251   4.342   3.305   0.773 -0.0854 -0.4825 -0.3052
 4082TIP3    H112252   4.401   3.279   0.703 -1.1505  0.4685 -1.6260
 4082TIP3    H212253   4.259   3.263   0.751 -0.5935  0.3089  0.0424
 4083TIP3   OH212254   6.151   5.375   0.379  0.0763 -0.3476  0.6639
 4083TIP3    H112255   6.214   5.361   0.308 -0.3651  1.5148 -0.1569
 4083TIP3    H212256   6.190   5.445   0.432 -0.5073 -0.3739  1.1365
 4084TIP3   OH212257   1.637   0.216   1.926  0.1878  0.1337  0.4334
 4084TIP3    H112258   1.698   0.225   1.853  0.9168  0.1612  1.0377
 4084TIP3    H212259   1.682   0.157   1.987 -0.5748 -0.1903  0.6896
 4085TIP3   OH212260   0.166   1.139   1.334 -0.1474  0.2268  0.0552
 4085TIP3    H112261   0.121   1.078   1.275 -0.4783  1.2574 -0.7790
 4085TIP3    H212262   0.203   1.206   1.276 -1.4500  1.8939  1.0568
 4086TIP3   OH212263   3.425   4.331   0.729 -0.4198  0.2596  0.3258
 4086TIP3    H112264   3.496   4.268   0.738  0.3412  1.1564  0.7623
 4086TIP3    H212265   3.364   4.289   0.668  0.7723 -0.2774 -0.5388
 4087TIP3   OH212266   4.228   3.300   2.026  0.0966 -0.0336 -0.3110
 4087TIP3    H112267   4.323   3.300   2.036  0.1040  0.3790 -0.3672
 4087TIP3    H212268   4.212   3.252   1.945  0.3910  1.7803 -1.4851
 4088TIP3   OH212269   0.477   0.061   2.029  0.4446 -0.0875  0.1746
 4088TIP3    H112270   0.431   0.024   2.105 -0.1910  0.7140  0.2001
 4088TIP3    H212271   0.511   0.145   2.061 -0.1301  0.4178 -0.5205
 4089TIP3   OH212272   6.017   3.026   0.382  0.0168 -0.0027  0.0232
 4089TIP3    H112273   5.996   3.097   0.443  0.4285 -0.0170  0.1914
 4089TIP3    H212274   6.049   2.955   0.438 -0.0106 -0.1731 -0.1760
 4090TIP3   OH212275   3.149   0.701   3.248 -0.1043  0.2583 -0.0103
 4090TIP3    H112276   3.131   0.680   3.157  0.5260  1.9718 -0.5619
 4090TIP3    H212277   3.086   0.769   3.272  1.5200  1.8970 -0.1057
 4091TIP3   OH212278   3.819   5.160   4.704  0.5163 -0.4507  0.1164
 4091TIP3    H112279   3.851   5.195   4.787 -0.0572 -1.4246  0.7638
 4091TIP3    H212280   3.889   5.102   4.674  1.3160  0.9250 -0.7841
 4092TIP3   OH212281   3.626   0.686   1.660  0.4356  0.5312  0.3655
 4092TIP3    H112282   3.660   0.660   1.745 -0.9251 -1.6746  0.3135
 4092TIP3    H212283   3.656   0.617   1.600 -0.7664  0.6723 -0.4288
 4093TIP3   OH212284   3.300   1.869   2.391  0.1242  0.0145 -0.9365
 4093TIP3    H112285   3.381   1.847   2.437 -0.5363 -0.0001  0.2461
 4093TIP3    H212286   3.301   1.814   2.313  1.5203  0.4282 -1.2433
 4094TIP3   OH212287   5.455   3.280   2.859  0.0233 -0.4804  0.2388
 4094TIP3    H112288   5.540   3.325   2.859  0.0123 -0.0192 -3.7340
 4094TIP3    H212289   5.393   3.347   2.829 -1.0556 -1.6626 -0.2938
 4095TIP3   OH212290   5.207   2.687   3.575 -0.1259 -0.0270  0.2542
 4095TIP3    H112291   5.176   2.777   3.561 -1.2077 -0.4847 -0.4670
 4095TIP3    H212292   5.150   2.653   3.644  0.0739 -0.2560  0.3067
 4096TIP3   OH212293   4.718   4.053   1.472  0.3873  0.2625  0.2729
 4096TIP3    H112294   4.784   4.116   1.443  0.0487  1.7246  2.4597
 4096TIP3    H212295   4.752   4.020   1.555 -0.9615 -0.0146  0.7270
 4097TIP3   OH212296   2.364   4.996   3.737  0.0397  0.2033 -0.1363
 4097TIP3    H112297   2.277   5.037   3.735  0.6467  1.5249 -0.5383
 4097TIP3    H212298   2.387   4.996   3.830 -0.5887 -0.6138  0.0294
 4098TIP3   OH212299   3.056   3.399   3.331 -0.2536 -0.0389  0.3660
 4098TIP3    H112300   2.964   3.404   3.357 -0.5825 -1.0009 -0.5527
 4098TIP3    H212301   3.104   3.411   3.412 -1.1708  0.8791  0.8036
 4099TIP3   OH212302   1.133   5.888   0.342  0.0342  0.2362  0.2282
 4099TIP3    H112303   1.177   5.843   0.414  1.5003  0.9379 -0.1830
 4099TIP3    H212304   1.113   5.975   0.377  0.4539  0.4690 -0.1121
 4100TIP3   OH212305   0.310   5.465   4.992  0.4045 -0.2605  0.0984
 4100TIP3    H112306   0.366   5.438   5.064  0.8360  0.2994 -0.0165
 4100TIP3    H212307   0.239   5.401   4.990  0.2643 -0.1460  1.1563
 4101TIP3   OH212308   3.377   1.426   3.465 -0.4478 -0.5493 -0.4171
 4101TIP3    H112309   3.361   1.495   3.530  2.2567 -1.3900  1.2751
 4101TIP3    H212310   3.422   1.471   3.393  0.4599 -0.3533  0.2583
 4102TIP3   OH212311   0.329   0.682   0.426  0.6009 -0.1067  0.1984
 4102TIP3    H112312   0.234   0.677   0.424  0.6059 -0.1620  0.0635
 4102TIP3    H212313   0.358   0.607   0.374  0.7360 -0.5882  0.9652
 4103TIP3   OH212314   4.177   2.996   5.141  0.0365  1.0313  0.2559
 4103TIP3    H112315   4.120   2.997   5.064  1.8864  2.2929 -1.1705
 4103TIP3    H212316   4.174   2.905   5.172  0.0353  0.2420 -1.9189
 4104TIP3   OH212317   2.761   5.858   0.770 -0.0856  0.2253 -0.2648
 4104TIP3    H112318   2.827   5.814   0.823 -1.0750  0.4272  1.1883
 4104TIP3    H212319   2.745   5.941   0.816 -1.8718 -0.1535 -0.1506
 4105TIP3   OH212320   2.316   2.054   3.238 -0.3311  0.1670  0.1678
 4105TIP3    H112321   2.403   2.091   3.227 -0.3327  0.0654 -0.2349
 4105TIP3    H212322   2.278   2.058   3.150 -0.6592  0.0342  0.3025
 4106TIP3   OH212323   2.077   1.220   3.972 -0.4730 -0.0229  0.1989
 4106TIP3    H112324   2.149   1.157   3.967 -1.5184 -1.1942 -1.2083
 4106TIP3    H212325   2.105   1.294   3.919  0.5806  0.5193  1.4778
 4107TIP3   OH212326   3.662   5.431   4.629  0.3021 -0.2590  0.1030
 4107TIP3    H112327   3.664   5.441   4.724  1.8129  1.0303 -0.0232
 4107TIP3    H212328   3.655   5.520   4.596 -3.5582 -0.8252 -1.0319
 4108TIP3   OH212329   4.516   4.681   4.681  0.5151  0.0680 -0.0768
 4108TIP3    H112330   4.538   4.763   4.637  0.3063 -0.0692 -0.4409
 4108TIP3    H212331   4.599   4.636   4.692  0.4590 -0.3530 -1.2475
 4109TIP3   OH212332   2.199   5.187   1.240  0.4675  0.0606 -0.1327
 4109TIP3    H112333   2.278   5.150   1.280 -0.0640 -0.1532  0.7538
 4109TIP3    H212334   2.151   5.111   1.207  0.5756  0.1804 -0.5674
 4110TIP3   OH212335   3.373   2.927   1.992 -0.4370  0.0653  0.2138
 4110TIP3    H112336   3.419   3.007   2.015 -2.9752  1.4349  0.8472
 4110TIP3    H212337   3.403   2.863   2.056  2.1066  0.2333 -0.6833
 4111TIP3   OH212338   4.815   1.064   4.274  0.5551  0.0491 -0.3059
 4111TIP3    H112339   4.842   1.134   4.334  0.4082  1.6896 -2.0682
 4111TIP3    H212340   4.879   1.068   4.202 -0.1054 -0.9088 -0.9673
 4112TIP3   OH212341   1.628   0.187   4.113 -0.4755 -0.1783 -0.0921
 4112TIP3    H112342   1.556   0.194   4.176 -0.2754 -0.6129  0.1870
 4112TIP3    H212343   1.586   0.201   4.027 -0.5896  1.4235  0.1901
 4113TIP3   OH212344   2.793   0.501   0.935  0.3589  0.5064  0.0129
 4113TIP3    H112345   2.856   0.488   1.006  1.2802  1.8653 -0.5280
 4113TIP3    H212346   2.831   0.455   0.861  0.3493  0.6938 -0.1088
 4114TIP3   OH212347   3.587   1.584   1.293  0.0639  0.5233  0.0699
 4114TIP3    H112348   3.674   1.561   1.259  0.0346  1.0814 -0.3919
 4114TIP3    H212349   3.540   1.501   1.295  0.5209  0.2583  0.0629
 4115TIP3   OH212350   4.558   0.850   0.398 -0.1887  0.2749 -0.1500
 4115TIP3    H112351   4.566   0.913   0.325 -0.1610  0.1627 -0.2438
 4115TIP3    H212352   4.619   0.882   0.464 -0.6132  0.6909  0.0494
 4116TIP3   OH212353   1.466   4.390   3.502  0.6545 -0.2479  0.0136
 4116TIP3    H112354   1.413   4.401   3.423  2.8760  1.6304 -1.3229
 4116TIP3    H212355   1.404   4.358   3.568 -1.5434 -0.6600 -2.1107
 4117TIP3   OH212356   3.858   1.505   0.470  0.6041  0.1436  0.0437
 4117TIP3    H112357   3.769   1.524   0.500  0.5134 -1.3428  0.8314
 4117TIP3    H212358   3.881   1.578   0.413 -0.9444  0.7877  0.2087
 4118TIP3   OH212359   4.396   1.236   1.276 -0.5498  0.6788  0.0537
 4118TIP3    H112360   4.455   1.231   1.350  0.3416  0.8692 -0.6324
 4118TIP3    H212361   4.376   1.329   1.267 -1.1410  0.5914  0.4238
 4119TIP3   OH212362   2.088   3.707   3.989 -0.4170 -0.3979  0.1524
 4119TIP3    H112363   2.047   3.694   3.904 -0.2884 -1.1976  0.2020
 4119TIP3    H212364   2.026   3.761   4.038 -1.2478 -1.2728  0.1004
 4120TIP3   OH212365   3.360   0.491   3.336  0.8249  0.3692 -0.5789
 4120TIP3    H112366   3.415   0.563   3.366  1.3771 -0.3132  0.1068
 4120TIP3    H212367   3.278   0.532   3.310  1.2238  1.2670 -0.4576
 4121TIP3   OH212368   2.115   4.799   0.615 -0.2594 -0.3779  0.4390
 4121TIP3    H112369   2.046   4.864   0.625  0.3250  0.2669  0.3779
 4121TIP3    H212370   2.194   4.850   0.597  0.0979 -1.1398 -0.2351
 4122TIP3   OH212371   5.494   5.165   2.704  0.6112  0.1876  0.6355
 4122TIP3    H112372   5.566   5.186   2.645 -0.8827  1.0811 -0.9841
 4122TIP3    H212373   5.494   5.070   2.709  1.0974  0.1088 -0.4480
 4123TIP3   OH212374   2.338   2.032   1.735 -0.4248  0.3797  0.0763
 4123TIP3    H112375   2.384   2.090   1.674 -0.4241  0.3272  0.0272
 4123TIP3    H212376   2.280   2.091   1.784 -1.5680  0.2193 -1.0239
 4124TIP3   OH212377   5.511   3.639   2.477  0.4788 -0.0977  0.4544
 4124TIP3    H112378   5.575   3.571   2.456  0.3130  0.0453 -0.5551
 4124TIP3    H212379   5.562   3.705   2.523  0.8199 -0.5117  0.6826
 4125TIP3   OH212380   1.624   3.393   3.698  0.3992 -0.2188  0.5037
 4125TIP3    H112381   1.559   3.403   3.767 -2.5682 -1.5303 -1.8836
 4125TIP3    H212382   1.589   3.441   3.623  1.1740 -2.4736 -1.4517
 4126TIP3   OH212383   5.081   5.684   3.171 -0.1909  0.1436 -0.3500
 4126TIP3    H112384   5.092   5.709   3.263  0.6131 -0.3494 -0.2979
 4126TIP3    H212385   5.138   5.744   3.123 -0.7371  0.5099 -0.5518
 4127TIP3   OH212386   1.473   0.219   2.953  0.2430  0.0114 -0.1947
 4127TIP3    H112387   1.378   0.210   2.961  0.1000 -1.5188 -2.6659
 4127TIP3    H212388   1.486   0.277   2.878  1.1914 -1.6628 -1.4016
 4128TIP3   OH212389   1.377   5.795   4.546  0.0756  0.4355  0.2033
 4128TIP3    H112390   1.362   5.702   4.526 -0.3745  1.1208 -3.1388
 4128TIP3    H212391   1.467   5.810   4.519 -0.1178  1.1569 -0.0429
 4129TIP3   OH212392   2.362   2.868   4.776  0.2890 -1.0523  0.2601
 4129TIP3    H112393   2.280   2.874   4.727 -0.6463 -3.8153  1.2375
 4129TIP3    H212394   2.341   2.907   4.861  0.2039 -1.1289  0.2751
 4130TIP3   OH212395   0.469   5.137   4.772  0.3206 -0.0268 -0.1092
 4130TIP3    H112396   0.455   5.231   4.779  0.7238  0.0439 -0.2565
 4130TIP3    H212397   0.533   5.127   4.701  0.6268 -0.3803  0.2124
 4131TIP3   OH212398   5.815   5.504   3.047  0.2933 -0.5871  0.1467
 4131TIP3    H112399   5.732   5.532   3.085  0.9230  0.7175  0.5951
 4131TIP3    H212400   5.793   5.480   2.957 -0.5223  0.0077  0.1754
 4132TIP3   OH212401   2.775   1.122   0.595  0.5462 -0.3342 -0.3215
 4132TIP3    H112402   2.850   1.181   0.602  1.4020 -1.4578  0.3454
 4132TIP3    H212403   2.809   1.037   0.623 -1.7484 -0.2566  3.3087
 4133TIP3   OH212404   0.751   1.065   3.242  0.6030  0.0745 -0.5938
 4133TIP3    H112405   0.783   1.089   3.155 -0.2611  1.0746 -0.6591
 4133TIP3    H212406   0.700   1.141   3.270  1.7883  0.2424  1.2705
 4134TIP3   OH212407   4.534   4.237   3.831 -0.1730  0.0735 -0.5095
 4134TIP3    H112408   4.445   4.201   3.828  0.4005 -1.3098 -2.0154
 4134TIP3    H212409   4.522   4.332   3.822 -1.6668  0.3269  2.6730
 4135TIP3   OH212410   4.229   0.045   2.518  0.5004  0.4676 -0.7800
 4135TIP3    H112411   4.264   0.040   2.429  0.3214 -0.1757 -0.8219
 4135TIP3    H212412   4.152   0.101   2.510 -1.3161 -1.9657 -1.6674
 4136TIP3   OH212413   6.215   3.576   0.267  1.0327 -0.2374  0.1288
 4136TIP3    H112414   6.260   3.641   0.320  0.5975  1.1538 -1.1498
 4136TIP3    H212415   6.284   3.522   0.230  1.4303 -0.1471  0.7284
 4137TIP3   OH212416   3.560   1.483   4.694 -0.1898 -0.2941  0.6316
 4137TIP3    H112417   3.465   1.479   4.702 -0.1309  0.5813  2.2875
 4137TIP3    H212418   3.575   1.509   4.603 -1.6409  1.6607  0.8612
 4138TIP3   OH212419   5.733   2.119   3.240 -0.4373  0.7758 -0.1616
 4138TIP3    H112420   5.805   2.157   3.190  0.9887 -2.2030 -0.5794
 4138TIP3    H212421   5.718   2.034   3.200 -2.6601  0.3425  1.4039
 4139TIP3   OH212422   1.805   0.113   4.649 -0.2531  0.0260  0.1865
 4139TIP3    H112423   1.825   0.097   4.741  1.1213  0.4741 -0.0035
 4139TIP3    H212424   1.827   0.031   4.605 -0.0468  0.0962  0.1541
 4140TIP3   OH212425   2.068   5.163   3.169 -0.5430 -0.0132  0.5196
 4140TIP3    H112426   2.089   5.157   3.076  1.4133  0.2319  0.8934
 4140TIP3    H212427   2.007   5.092   3.185 -1.4920  0.3995 -1.0856
 4141TIP3   OH212428   6.168   5.331   3.377 -0.7591 -0.8887 -0.1301
 4141TIP3    H112429   6.209   5.356   3.460 -1.0703 -1.0121  0.0615
 4141TIP3    H212430   6.090   5.281   3.403 -0.8592 -0.9217 -0.4952
 4142TIP3   OH212431   3.317   0.814   2.005  0.1546  0.0395  0.5435
 4142TIP3    H112432   3.306   0.719   2.012  1.0147 -0.1725 -0.8345
 4142TIP3    H212433   3.242   0.843   1.953 -0.7388  0.2957  1.9196
 4143TIP3   OH212434   5.806   1.744   4.248 -0.2373  0.1893 -0.1476
 4143TIP3    H112435   5.723   1.772   4.288 -0.9764  0.3233 -1.6876
 4143TIP3    H212436   5.848   1.825   4.221  0.2732  0.1058  0.4021
 4144TIP3   OH212437   3.789   3.742   1.954 -0.6718  0.1124 -0.1136
 4144TIP3    H112438   3.716   3.794   1.920 -0.8967  0.1367  0.4057
 4144TIP3    H212439   3.817   3.689   1.879  0.5423  2.0468 -1.1160
 4145TIP3   OH212440   3.256   5.039   4.900  0.1393  0.6967  0.2129
 4145TIP3    H112441   3.162   5.041   4.919 -0.8218  1.5800 -3.7255
 4145TIP3    H212442   3.282   4.948   4.916 -1.3281  0.4587  1.4450
 4146TIP3   OH212443   3.964   0.312   0.744  0.1461 -0.2500 -0.0458
 4146TIP3    H112444   3.903   0.274   0.807  2.0118 -1.4115  1.1669
 4146TIP3    H212445   3.934   0.281   0.659 -1.4722 -0.0115  0.4155
 4147TIP3   OH212446   2.316   4.194   2.147  0.8151  0.2955  0.0446
 4147TIP3    H112447   2.350   4.164   2.232 -3.7240  1.2706  2.5370
 4147TIP3    H212448   2.365   4.273   2.128  0.5436  1.3388  3.0812
 4148TIP3   OH212449   3.177   5.447   1.462 -0.1097 -0.0127 -0.1417
 4148TIP3    H112450   3.240   5.471   1.530 -0.1106  1.3361 -0.5828
 4148TIP3    H212451   3.221   5.379   1.412  1.0170  0.8859 -0.4193
 4149TIP3   OH212452   6.139   4.847   1.949  0.0646 -0.6551  0.5323
 4149TIP3    H112453   6.207   4.869   1.886 -0.5410 -3.4258 -1.2912
 4149TIP3    H212454   6.184   4.843   2.033  1.4692  0.5016 -0.1305
 4150TIP3   OH212455   1.056   1.569   4.939  0.3361 -0.1837 -0.3441
 4150TIP3    H112456   0.987   1.603   4.997 -0.6547  0.1599 -1.6661
 4150TIP3    H212457   1.127   1.632   4.948 -0.4416  0.7806 -0.7166
 4151TIP3   OH212458   2.097   4.940   2.677 -0.2990 -0.6898  0.1332
 4151TIP3    H112459   2.190   4.941   2.700 -0.5487  0.0525  1.2285
 4151TIP3    H212460   2.091   4.995   2.599  0.0569  0.1828  0.6973
 4152TIP3   OH212461   5.789   5.924   2.775  0.0567 -0.0638 -0.2291
 4152TIP3    H112462   5.799   5.947   2.683  0.4024  3.1031  0.4936
 4152TIP3    H212463   5.708   5.967   2.802  0.1709 -0.6214  1.0761
 4153TIP3   OH212464   2.415   0.470   2.648 -0.2005 -0.3273 -0.0742
 4153TIP3    H112465   2.322   0.482   2.627 -0.0700  1.1753  0.0704
 4153TIP3    H212466   2.420   0.479   2.743 -0.0090 -1.2705  0.0128
 4154TIP3   OH212467   1.703   2.524   3.710  0.2974 -0.4423 -0.5389
 4154TIP3    H112468   1.734   2.448   3.661  0.5986 -0.4863 -0.2796
 4154TIP3    H212469   1.614   2.502   3.735  1.0739 -1.6315  1.3986
 4155TIP3   OH212470   4.195   0.473   1.010  0.2005 -0.0897 -0.4585
 4155TIP3    H112471   4.129   0.407   1.033  0.1927 -0.6382 -1.9875
 4155TIP3    H212472   4.163   0.511   0.929  2.2694 -1.1153 -1.8308
 4156TIP3   OH212473   2.515   0.113   4.826 -0.6614  0.3445 -0.3176
 4156TIP3    H112474   2.546   0.204   4.832 -1.2465  0.5271  0.0406
 4156TIP3    H212475   2.499   0.099   4.733  1.8212 -0.2195 -0.7409
 4157TIP3   OH212476   0.617   5.240   2.467  0.0408 -0.7952  0.0194
 4157TIP3    H112477   0.671   5.318   2.451  0.2365 -0.9059  0.1390
 4157TIP3    H212478   0.678   5.176   2.504 -0.7752  0.1825  3.4257
 4158TIP3   OH212479   3.922   1.078   4.065 -0.4081  0.9155 -0.0820
 4158TIP3    H112480   3.861   1.145   4.035 -0.8409 -0.5132 -2.6261
 4158TIP3    H212481   3.866   1.012   4.107 -0.3443  0.6649 -0.3937
 4159TIP3   OH212482   4.902   1.203   3.613 -0.3465 -0.2028 -0.1832
 4159TIP3    H112483   4.840   1.271   3.589  0.2744  0.9085  1.2263
 4159TIP3    H212484   4.988   1.242   3.599  0.0949  0.7621  4.0303
 4160TIP3   OH212485   2.488   1.927   2.135  0.4751  0.0751 -0.6978
 4160TIP3    H112486   2.509   2.004   2.083  1.4003 -0.9392 -1.8833
 4160TIP3    H212487   2.573   1.889   2.158  0.0680 -0.0191  0.7993
 4161TIP3   OH212488   2.265   4.535   3.598 -0.0009 -0.8134  0.6627
 4161TIP3    H112489   2.198   4.532   3.666 -0.7055  0.5392  0.0648
 4161TIP3    H212490   2.225   4.490   3.523  0.2379 -1.0914  0.7016
 4162TIP3   OH212491   6.157   0.494   0.381 -0.1917 -0.7715 -0.0326
 4162TIP3    H112492   6.065   0.520   0.374  0.3084  1.4685  1.0026
 4162TIP3    H212493   6.164   0.455   0.468  0.3384  1.5268  1.0112
 4163TIP3   OH212494   2.404   5.431   1.246 -0.0831  0.1233  0.7073
 4163TIP3    H112495   2.498   5.441   1.234 -0.0936 -0.5047 -0.0083
 4163TIP3    H212496   2.392   5.337   1.260 -0.7290 -0.0108 -0.5691
 4164TIP3   OH212497   1.132   1.000   0.695  0.7471 -0.0571 -0.4453
 4164TIP3    H112498   1.172   0.950   0.624  0.4514 -0.4570 -0.3339
 4164TIP3    H212499   1.045   1.022   0.663  0.4233 -0.6721 -0.0219
 4165TIP3   OH212500   5.561   1.543   4.582  0.3139  0.5090  1.0282
 4165TIP3    H112501   5.618   1.594   4.639  1.5527  0.7401 -0.3539
 4165TIP3    H212502   5.544   1.600   4.507  1.8372 -1.0711 -0.6196
 4166TIP3   OH212503   2.642   1.451   3.868  0.3276 -0.5447  0.8522
 4166TIP3    H112504   2.644   1.356   3.878  0.0369 -0.4867  1.5293
 4166TIP3    H212505   2.582   1.481   3.937  0.8636  0.1748  1.0165
 4167TIP3   OH212506   1.606   1.345   0.507 -0.1264 -0.3962 -0.1951
 4167TIP3    H112507   1.633   1.437   0.506 -0.6539 -0.2252  0.1982
 4167TIP3    H212508   1.676   1.298   0.462  0.6978  0.0537  0.5687
 4168TIP3   OH212509   0.235   4.322   4.337  0.4720 -0.7818 -0.2867
 4168TIP3    H112510   0.294   4.276   4.396  0.1368 -1.0754 -0.1736
 4168TIP3    H212511   0.250   4.415   4.356 -0.3353 -0.8831  0.9822
 4169TIP3   OH212512   6.113   2.557   0.443 -0.6216  0.6126  0.0338
 4169TIP3    H112513   6.132   2.532   0.353  0.2534 -0.7455  0.5715
 4169TIP3    H212514   6.198   2.556   0.487 -0.8830  2.2799  0.6663
 4170TIP3   OH212515   6.039   1.994   0.527  0.5761 -0.5856 -0.4711
 4170TIP3    H112516   5.948   1.990   0.555  0.7828  0.7984  0.5286
 4170TIP3    H212517   6.036   2.022   0.436  0.0171  0.4506 -0.1420
 4171TIP3   OH212518   2.114   1.226   4.363  0.5381  0.1086  0.0683
 4171TIP3    H112519   2.181   1.162   4.340 -0.9630 -0.8511 -1.9528
 4171TIP3    H212520   2.132   1.301   4.306 -0.3104 -0.3239 -0.7989
 4172TIP3   OH212521   5.915   2.039   2.400 -0.1936  0.2477  0.1510
 4172TIP3    H112522   5.861   2.117   2.414  0.6446  0.4978  2.2051
 4172TIP3    H212523   5.904   2.020   2.307 -2.3767  1.3450  0.1214
 4173TIP3   OH212524   0.725   3.300   0.361 -0.6287  0.1947  0.7928
 4173TIP3    H112525   0.815   3.323   0.340 -0.6509  0.6329  1.1613
 4173TIP3    H212526   0.672   3.366   0.316 -0.8148 -0.6527 -0.2449
 4174TIP3   OH212527   2.367   4.934   1.936 -0.0650 -0.2023 -0.8833
 4174TIP3    H112528   2.310   4.859   1.920  0.1834 -0.6508  0.2384
 4174TIP3    H212529   2.307   5.007   1.950 -0.3404 -0.4006 -1.0171
 4175TIP3   OH212530   5.611   5.873   1.288 -0.2242  0.0590  0.3744
 4175TIP3    H112531   5.593   5.780   1.275  0.2868 -0.2180  1.5011
 4175TIP3    H212532   5.619   5.909   1.199 -0.7128 -0.9082 -0.0712
 4176TIP3   OH212533   5.015   2.620   3.763  0.1936 -0.4346  0.2276
 4176TIP3    H112534   4.991   2.707   3.795 -0.1166 -0.7564  0.8793
 4176TIP3    H212535   4.945   2.596   3.703  1.7676  1.0386 -2.4281
 4177TIP3   OH212536   4.764   4.871   3.288  0.0209 -0.2046  0.2314
 4177TIP3    H112537   4.746   4.933   3.358  2.5072 -0.0653  0.8431
 4177TIP3    H212538   4.701   4.800   3.301 -1.4833  1.1857  0.7763
 4178TIP3   OH212539   0.818   0.469   2.720 -0.3232  0.3217  0.4972
 4178TIP3    H112540   0.757   0.399   2.743 -0.2527 -0.4056 -1.3624
 4178TIP3    H212541   0.764   0.548   2.717 -1.1716 -0.2728 -0.8648
 4179TIP3   OH212542   2.517   4.910   0.177  0.0228  0.7073  0.3917
 4179TIP3    H112543   2.609   4.909   0.204  0.2962  1.7355 -0.4593
 4179TIP3    H212544   2.471   4.948   0.252  0.4947  1.5409  0.2750
 4180TIP3   OH212545   0.955   2.610   3.976  0.6045 -0.3155  0.3928
 4180TIP3    H112546   0.958   2.547   3.904  0.7691 -0.7535  0.7754
 4180TIP3    H212547   0.878   2.583   4.027  0.1932  0.2982  0.1136
 4181TIP3   OH212548   3.106   3.838   3.518  0.0913 -0.3922  0.6156
 4181TIP3    H112549   3.083   3.858   3.428  1.6098 -0.3225  0.2053
 4181TIP3    H212550   3.036   3.782   3.550  0.1252 -1.4117 -0.9959
 4182TIP3   OH212551   2.599   3.016   5.094 -0.0036 -0.3837 -0.2638
 4182TIP3    H112552   2.598   3.048   5.184 -1.4489 -2.4326  0.5287
 4182TIP3    H212553   2.647   2.934   5.098  0.9083  0.0495 -1.6108
 4183TIP3   OH212554   1.389   3.486   2.026  0.3460 -0.3804 -0.4378
 4183TIP3    H112555   1.405   3.413   2.086 -0.1300 -0.3935 -0.3206
 4183TIP3    H212556   1.314   3.457   1.973  0.1945  0.0008 -0.4325
 4184TIP3   OH212557   4.194   4.752   0.202 -0.3132 -0.0157  0.0914
 4184TIP3    H112558   4.190   4.663   0.168  0.7950  0.3907 -1.1588
 4184TIP3    H212559   4.255   4.797   0.145 -1.1277  1.6568  0.4766
 4185TIP3   OH212560   3.891   1.838   0.084 -0.2573 -0.0210 -0.6689
 4185TIP3    H112561   3.941   1.894   0.026  0.9797 -1.5643 -1.1643
 4185TIP3    H212562   3.949   1.823   0.160  0.1829 -1.9406 -1.3135
 4186TIP3   OH212563   5.411   2.341   2.808 -0.4849 -0.2435 -0.2697
 4186TIP3    H112564   5.494   2.296   2.823 -0.0512  0.3153 -0.9494
 4186TIP3    H212565   5.347   2.271   2.798  0.1258 -0.7067 -1.0172
 4187TIP3   OH212566   0.568   3.827   4.516 -0.0785  0.0588 -0.7069
 4187TIP3    H112567   0.551   3.879   4.594  0.0477  3.8220 -2.9209
 4187TIP3    H212568   0.658   3.850   4.492 -0.5016 -0.0702 -2.5374
 4188TIP3   OH212569   6.229   4.861   3.991 -0.1783 -0.2222 -0.0522
 4188TIP3    H112570   6.228   4.954   4.012  1.3830 -0.8490  3.6169
 4188TIP3    H212571   6.205   4.817   4.073  3.2829 -3.1053 -0.3146
 4189TIP3   OH212572   3.827   2.108   2.761  0.0383 -0.1940  0.2518
 4189TIP3    H112573   3.870   2.034   2.717 -1.3541 -0.4309 -0.7808
 4189TIP3    H212574   3.883   2.183   2.741  0.6473 -0.6997  0.0081
 4190TIP3   OH212575   0.957   4.081   0.097 -0.0907  0.0457 -0.5524
 4190TIP3    H112576   0.947   4.035   0.014  2.7963  1.7774 -2.0379
 4190TIP3    H212577   1.052   4.092   0.107 -0.0196 -2.2952  4.3281
 4191TIP3   OH212578   5.536   0.832   2.154  0.6550  0.0311  0.1493
 4191TIP3    H112579   5.546   0.817   2.248  1.6428 -0.4526 -0.0256
 4191TIP3    H212580   5.441   0.829   2.140  0.5144 -0.2377  1.0704
 4192TIP3   OH212581   4.335   5.785   2.382 -0.0989  0.8031 -0.6067
 4192TIP3    H112582   4.400   5.715   2.381 -1.9517 -0.9963 -0.4613
 4192TIP3    H212583   4.354   5.834   2.462  2.6738  2.0061 -1.8435
 4193TIP3   OH212584   2.048   0.115   1.566  0.0384 -0.0827  0.2479
 4193TIP3    H112585   2.031   0.021   1.565 -0.0802 -0.0731  0.7210
 4193TIP3    H212586   2.058   0.140   1.474  2.8826 -1.0559  0.1974
 4194TIP3   OH212587   1.813   1.912   2.543 -0.7380 -0.0948  0.8243
 4194TIP3    H112588   1.768   1.907   2.627 -0.3974  1.1304  1.0985
 4194TIP3    H212589   1.895   1.957   2.562 -1.0289  0.9672 -0.3091
 4195TIP3   OH212590   5.238   4.213   1.181 -0.2783  0.5260 -0.0365
 4195TIP3    H112591   5.263   4.254   1.098  0.1866 -1.7249 -1.0684
 4195TIP3    H212592   5.160   4.162   1.160 -1.0466  1.0882  1.3006
 4196TIP3   OH212593   1.290   1.227   1.129  0.4223 -0.0171 -0.2860
 4196TIP3    H112594   1.258   1.211   1.040 -1.4583 -1.2793  0.5351
 4196TIP3    H212595   1.377   1.187   1.131  0.5752  0.2074 -1.6052
 4197TIP3   OH212596   5.144   2.589   3.126  0.0851 -0.2213  0.4670
 4197TIP3    H112597   5.197   2.560   3.052 -1.1077 -0.4080 -0.3320
 4197TIP3    H212598   5.208   2.615   3.192  1.2085  1.6111 -1.2316
 4198TIP3   OH212599   1.948   1.282   2.251 -0.6223  0.3229 -0.4424
 4198TIP3    H112600   1.889   1.207   2.247 -0.3081  0.0513 -0.1130
 4198TIP3    H212601   1.986   1.287   2.164 -0.4541 -0.0637 -0.3953
 4199TIP3   OH212602   0.658   3.534   0.868 -0.4230  0.3855 -0.3404
 4199TIP3    H112603   0.695   3.474   0.803 -0.4296  1.0180 -0.9339
 4199TIP3    H212604   0.625   3.607   0.817 -1.9288  0.1391  0.2258
 4200TIP3   OH212605   2.968   5.930   2.308  0.5141 -0.1910 -0.4690
 4200TIP3    H112606   2.911   5.974   2.245  0.2310 -2.2897 -1.7812
 4200TIP3    H212607   2.941   5.839   2.305  0.2771 -0.3826  3.0026
 4201TIP3   OH212608   4.735   0.104   1.445 -0.3146  0.0246  0.2086
 4201TIP3    H112609   4.716   0.079   1.354  0.5231 -0.8257  0.2581
 4201TIP3    H212610   4.776   0.027   1.483  0.7385  0.8918  0.8722
 4202TIP3   OH212611   1.007   2.202   4.824 -0.0303 -0.2187 -0.1187
 4202TIP3    H112612   1.048   2.123   4.860  1.4659  0.6170  0.0860
 4202TIP3    H212613   0.914   2.190   4.841  0.3321 -1.2174  1.3653
 4203TIP3   OH212614   4.711   1.715   2.828 -0.0370  0.0611  0.2004
 4203TIP3    H112615   4.742   1.647   2.769 -0.7472  0.0886 -0.2180
 4203TIP3    H212616   4.779   1.721   2.895 -0.3261 -1.6547  0.7214
 4204TIP3   OH212617   5.247   1.420   2.935 -0.4138  0.0137 -0.2948
 4204TIP3    H112618   5.309   1.359   2.976  0.5691  0.5430 -0.9370
 4204TIP3    H212619   5.300   1.497   2.915 -1.1835  0.3044 -1.2733
 4205TIP3   OH212620   2.022   5.104   0.045 -0.2188  0.1468  0.3776
 4205TIP3    H112621   1.932   5.076   0.026 -0.2920  0.7119 -0.1573
 4205TIP3    H212622   2.012   5.175   0.109 -0.3284  1.6792 -1.2557
 4206TIP3   OH212623   2.024   3.474   2.997 -0.4040  0.5180  0.2529
 4206TIP3    H112624   2.068   3.519   2.924 -2.0126  1.5567 -0.1170
 4206TIP3    H212625   2.081   3.400   3.017  0.8585  1.0929 -1.0380
 4207TIP3   OH212626   0.681   0.586   4.408 -0.3409 -0.4977 -0.5876
 4207TIP3    H112627   0.712   0.502   4.374  1.0134  0.3191 -1.4698
 4207TIP3    H212628   0.698   0.648   4.338 -1.5161  0.4854 -0.0210
 4208TIP3   OH212629   5.395   5.999   0.364  0.4859  0.1109 -0.0525
 4208TIP3    H112630   5.444   5.959   0.292 -0.0152 -1.6245  0.5317
 4208TIP3    H212631   5.421   5.949   0.441 -0.0203  1.0633  0.7581
 4209TIP3   OH212632   2.616   5.080   4.199 -0.1327  0.3345  0.7033
 4209TIP3    H112633   2.612   5.163   4.152 -1.0431  0.8601  1.6496
 4209TIP3    H212634   2.707   5.072   4.227  0.1414  0.5962 -0.0995
 4210TIP3   OH212635   1.344   0.632   4.002 -0.4368  0.1988 -0.2196
 4210TIP3    H112636   1.423   0.631   3.947 -1.4247  0.6469 -1.7010
 4210TIP3    H212637   1.334   0.542   4.032  1.2625  0.3508  0.9602
 4211TIP3   OH212638   4.348   2.715   4.086  0.3561 -0.4739 -0.1056
 4211TIP3    H112639   4.373   2.658   4.159  1.7813 -0.1778 -0.3171
 4211TIP3    H212640   4.407   2.688   4.015 -0.6043 -0.3527 -0.9598
 4212TIP3   OH212641   3.200   0.229   2.211 -0.2644 -0.3627 -0.5954
 4212TIP3    H112642   3.242   0.214   2.126  1.5204 -2.6576  0.5473
 4212TIP3    H212643   3.155   0.147   2.229 -1.1430  0.3229  0.4054
 4213TIP3   OH212644   1.208   1.624   1.637 -0.1532 -0.3461  0.0671
 4213TIP3    H112645   1.150   1.610   1.712  0.8031 -0.3845  0.8246
 4213TIP3    H212646   1.234   1.716   1.644  0.8730 -0.6540  0.4821
 4214TIP3   OH212647   4.879   2.886   0.463 -0.1148 -0.5741  0.0195
 4214TIP3    H112648   4.796   2.930   0.446 -0.7753 -1.5341  0.7222
 4214TIP3    H212649   4.920   2.939   0.532 -0.9660 -1.1166  0.9538
 4215TIP3   OH212650   0.872   5.961   4.649 -0.3128  0.2244 -0.0079
 4215TIP3    H112651   0.809   6.033   4.637 -1.0956 -0.2259  1.1832
 4215TIP3    H212652   0.924   5.961   4.569 -2.1930  0.2648 -1.2987
 4216TIP3   OH212653   0.487   4.404   2.711  0.1696  0.6092  0.1281
 4216TIP3    H112654   0.515   4.495   2.701  3.1376 -0.2295  0.0320
 4216TIP3    H212655   0.509   4.382   2.802  0.1061 -0.2390 -0.0557
 4217TIP3   OH212656   4.094   2.097   1.102 -0.0597 -0.6708 -0.6486
 4217TIP3    H112657   4.183   2.126   1.082  0.6494 -1.4117  1.2382
 4217TIP3    H212658   4.098   2.001   1.093 -0.0881 -0.9021  1.3332
 4218TIP3   OH212659   2.891   2.371   4.380  0.0833  0.2470 -0.7043
 4218TIP3    H112660   2.901   2.452   4.429  1.9379 -0.8069  0.7834
 4218TIP3    H212661   2.885   2.399   4.288  0.7212  2.0375 -0.2398
 4219TIP3   OH212662   2.384   5.629   2.116  0.6766  0.3956  0.0858
 4219TIP3    H112663   2.358   5.691   2.047  1.1998 -1.0850 -1.5094
 4219TIP3    H212664   2.347   5.545   2.088  0.4201 -0.1381  1.9402
 4220TIP3   OH212665   4.812   5.333   1.460 -0.6965 -0.0892  0.4653
 4220TIP3    H112666   4.730   5.379   1.441  0.0762  0.4148 -1.9293
 4220TIP3    H212667   4.880   5.395   1.434  0.4300 -1.0903  0.9680
 4221TIP3   OH212668   6.238   0.828   2.245  0.0779  0.0871 -0.1855
 4221TIP3    H112669   6.288   0.897   2.291 -1.3520  0.3870  0.9942
 4221TIP3    H212670   6.306   0.773   2.206  1.3684  0.4869  1.3321
 4222TIP3   OH212671   2.279   1.765   1.431 -0.1569  0.5750  0.3824
 4222TIP3    H112672   2.368   1.757   1.463 -0.3451  0.9831  1.0174
 4222TIP3    H212673   2.240   1.679   1.448  0.2496  0.2289 -0.3571
 4223TIP3   OH212674   4.964   4.620   2.717 -0.2757 -0.5218 -0.1775
 4223TIP3    H112675   5.029   4.577   2.661  0.1614 -1.0933  0.7508
 4223TIP3    H212676   5.004   4.621   2.804 -1.2313 -0.2823  0.2696
 4224TIP3   OH212677   2.385   3.468   2.622 -0.3882  0.3951  0.0728
 4224TIP3    H112678   2.463   3.415   2.637  1.4685  2.4886 -1.4552
 4224TIP3    H212679   2.321   3.407   2.584 -0.6982 -2.0406  3.9694
 4225TIP3   OH212680   3.560   0.533   1.891 -0.2313 -0.0692 -0.0753
 4225TIP3    H112681   3.465   0.543   1.894 -0.2038  0.0411  2.5176
 4225TIP3    H212682   3.574   0.445   1.855 -1.1208  1.0115 -3.4291
 4226TIP3   OH212683   3.416   4.290   4.242 -0.2661  0.6616 -0.3174
 4226TIP3    H112684   3.439   4.324   4.155 -1.7289  2.8201  0.0443
 4226TIP3    H212685   3.491   4.314   4.297  0.8425 -1.0623 -1.0027
 4227TIP3   OH212686   4.103   2.366   1.608  0.1847  0.0226  0.1671
 4227TIP3    H112687   4.028   2.352   1.666  0.4436 -0.4165  0.4065
 4227TIP3    H212688   4.076   2.436   1.550 -0.6957 -0.6166 -0.2233
 4228TIP3   OH212689   5.550   5.377   4.533 -0.2109  0.2326  0.1619
 4228TIP3    H112690   5.587   5.338   4.612 -0.9192  0.4605  0.6228
 4228TIP3    H212691   5.507   5.304   4.489 -0.2978  0.2119  0.2793
 4229TIP3   OH212692   3.001   1.487   4.262 -0.1998  0.9540  0.3306
 4229TIP3    H112693   3.065   1.515   4.328 -0.4499 -0.8434  1.4064
 4229TIP3    H212694   2.941   1.429   4.309 -1.6411  1.2426 -1.0385
 4230TIP3   OH212695   5.747   0.088   3.598 -0.0584 -0.1988 -0.2573
 4230TIP3    H112696   5.695   0.080   3.518  0.2489  1.1739 -0.6119
 4230TIP3    H212697   5.732   0.177   3.628  1.0163 -0.2181  0.3814
 4231TIP3   OH212698   2.384   1.354   1.586  0.0837 -0.0588  0.1515
 4231TIP3    H112699   2.322   1.304   1.640  0.2508  0.2643  0.6486
 4231TIP3    H212700   2.459   1.296   1.575  1.0256  0.6785  2.1771
 4232TIP3   OH212701   4.070   3.023   3.280  0.0259 -0.4665  0.6824
 4232TIP3    H112702   4.003   3.036   3.347 -1.1862 -0.7690 -0.4374
 4232TIP3    H212703   4.108   2.937   3.302 -0.6350 -0.7480  0.7508
 4233TIP3   OH212704   3.658   4.899   3.141 -0.3071 -0.0212 -0.3664
 4233TIP3    H112705   3.607   4.822   3.117  0.7671 -1.4278  1.6156
 4233TIP3    H212706   3.708   4.872   3.218 -1.8328  3.4371  2.0927
 4234TIP3   OH212707   2.562   1.573   5.027  0.2046 -0.5248  0.6027
 4234TIP3    H112708   2.650   1.590   5.062 -0.0040 -1.4732  1.6328
 4234TIP3    H212709   2.531   1.497   5.075 -1.7161  0.5505  1.1864
 4235TIP3   OH212710   2.950   4.106   2.420  0.1578  0.1519  0.0067
 4235TIP3    H112711   2.997   4.169   2.366  0.6150  0.1971  0.4436
 4235TIP3    H212712   3.017   4.045   2.449 -0.3799 -0.8828 -0.8769
 4236TIP3   OH212713   4.660   0.604   3.234 -0.4424  0.3386  0.4075
 4236TIP3    H112714   4.633   0.683   3.186 -0.6320 -0.0396 -0.1255
 4236TIP3    H212715   4.622   0.532   3.183  0.3678 -0.1316  0.4590
 4237TIP3   OH212716   4.043   5.869   2.926  0.6837 -0.1267 -0.7542
 4237TIP3    H112717   4.015   5.844   2.837  0.6968 -0.4738 -0.6642
 4237TIP3    H212718   4.120   5.814   2.943 -0.4398 -1.4766  0.1991
 4238TIP3   OH212719   5.135   4.056   4.041 -0.1800  0.4427  0.5657
 4238TIP3    H112720   5.056   4.032   4.090  0.4850  0.6025  1.7546
 4238TIP3    H212721   5.104   4.117   3.974 -1.1650 -0.0231  0.5736
 4239TIP3   OH212722   2.719   1.454   1.872 -0.1086 -0.6464  0.0042
 4239TIP3    H112723   2.747   1.463   1.781  3.0052 -0.5419  0.8299
 4239TIP3    H212724   2.750   1.534   1.914 -2.3645 -0.2440  1.0296
 4240TIP3   OH212725   2.934   1.027   0.235 -0.2578  0.2131 -0.6465
 4240TIP3    H112726   2.853   1.017   0.286  1.1500  1.6583  2.1157
 4240TIP3    H212727   3.001   1.046   0.301  1.9429  1.1149 -2.9981
 4241TIP3   OH212728   5.676   5.062   0.419 -0.1608  0.8200  0.5114
 4241TIP3    H112729   5.672   5.012   0.501 -1.7748 -1.5196 -0.8758
 4241TIP3    H212730   5.622   5.140   0.436 -0.1737  0.5628  1.7639
 4242TIP3   OH212731   0.789   2.051   4.941 -1.0512 -0.1112  0.6721
 4242TIP3    H112732   0.701   2.034   4.974 -0.8949 -0.2076  1.0491
 4242TIP3    H212733   0.838   1.971   4.962 -0.2625  0.7951  2.6129
 4243TIP3   OH212734   1.669   1.873   0.652  0.1256 -0.0257  0.5113
 4243TIP3    H112735   1.661   1.945   0.589  1.6257 -2.9898 -3.4570
 4243TIP3    H212736   1.581   1.864   0.689 -0.7435  2.1559 -0.8101
 4244TIP3   OH212737   2.460   4.288   4.819  0.1088 -0.2316 -0.0046
 4244TIP3    H112738   2.383   4.336   4.849  0.3194 -0.2873  0.6429
 4244TIP3    H212739   2.426   4.227   4.754 -0.4081 -0.2927  0.3152
 4245TIP3   OH212740   1.782   3.745   2.241  1.0004 -0.0481  0.6697
 4245TIP3    H112741   1.771   3.753   2.336 -1.0349  0.3927  0.4421
 4245TIP3    H212742   1.736   3.821   2.205 -0.4766 -1.5205 -0.7421
 4246TIP3   OH212743   1.366   4.983   0.518 -0.1304  0.7933 -0.0140
 4246TIP3    H112744   1.366   4.903   0.570 -1.3058  1.1917  0.6069
 4246TIP3    H212745   1.379   4.953   0.428  0.1435 -0.0305  0.2951
 4247TIP3   OH212746   4.346   0.988   0.664  0.6044  0.2820 -0.1536
 4247TIP3    H112747   4.253   1.005   0.678 -0.0366 -0.4221 -2.9744
 4247TIP3    H212748   4.369   1.040   0.588  2.5420  0.3684  0.4333
 4248TIP3   OH212749   0.505   4.473   4.854  0.3604  0.9809  0.1431
 4248TIP3    H112750   0.515   4.456   4.761  1.2170  1.4288  0.1451
 4248TIP3    H212751   0.477   4.564   4.860  1.4948  1.3352  0.3558
 4249TIP3   OH212752   3.660   3.115   0.323 -0.3017 -0.4074  0.1857
 4249TIP3    H112753   3.720   3.086   0.392  0.6236  0.3130 -0.2846
 4249TIP3    H212754   3.600   3.175   0.368 -0.2269 -0.5788  0.5205
 4250TIP3   OH212755   6.293   2.265   1.836 -0.3275  0.5306  0.3990
 4250TIP3    H112756   6.270   2.172   1.838  0.0087  0.4613  1.2731
 4250TIP3    H212757   6.311   2.288   1.927 -1.5974  1.7662  0.3748
 4251TIP3   OH212758   1.739   2.961   3.083  0.2947  0.0466 -0.0861
 4251TIP3    H112759   1.735   2.985   3.176 -0.1271 -0.2813 -0.0189
 4251TIP3    H212760   1.680   3.022   3.040 -0.0008 -0.2141 -0.0517
 4252TIP3   OH212761   5.742   1.125   3.507 -0.0974 -0.1609  0.2783
 4252TIP3    H112762   5.672   1.065   3.532  0.9269 -1.6120 -0.1672
 4252TIP3    H212763   5.699   1.189   3.450 -1.1259 -0.8143  0.2832
 4253TIP3   OH212764   0.155   0.808   3.316 -0.6016  0.0711 -0.0135
 4253TIP3    H112765   0.154   0.871   3.388  0.6723  0.8168 -0.6116
 4253TIP3    H212766   0.124   0.857   3.240  0.9687  0.1953 -0.6144
 4254TIP3   OH212767   5.208   1.989   0.513  0.0373 -0.1604 -0.3471
 4254TIP3    H112768   5.205   2.082   0.535 -0.4786 -0.5725  1.6084
 4254TIP3    H212769   5.300   1.965   0.522 -0.0207 -0.1002  0.5592
 4255TIP3   OH212770   1.925   3.995   3.969 -0.6749 -0.2433  0.1989
 4255TIP3    H112771   2.020   4.004   3.969 -0.6442 -0.1019 -1.8696
 4255TIP3    H212772   1.901   3.992   4.062  1.4164 -1.2154  0.7625
 4256TIP3   OH212773   2.357   4.314   0.350  0.0421  0.3587 -0.7439
 4256TIP3    H112774   2.366   4.362   0.267  1.3813  0.4404 -0.5744
 4256TIP3    H212775   2.315   4.232   0.326  1.0356  0.0858 -1.6367
 4257TIP3   OH212776   5.574   5.367   1.497  0.2323  0.1082 -0.1368
 4257TIP3    H112777   5.482   5.386   1.511  0.1328 -1.0991  1.0858
 4257TIP3    H212778   5.581   5.350   1.403 -0.1775  3.0242 -0.7920
 4258TIP3   OH212779   0.580   0.267   2.195 -0.3713 -0.2161 -0.3380
 4258TIP3    H112780   0.643   0.333   2.224 -0.6070 -0.0163 -0.2734
 4258TIP3    H212781   0.565   0.213   2.273 -0.6186  0.0092 -0.2303
 4259TIP3   OH212782   4.380   3.959   2.263 -0.0589  0.1400 -0.6867
 4259TIP3    H112783   4.395   4.035   2.319 -0.8583 -0.5692  0.5266
 4259TIP3    H212784   4.334   3.994   2.187  0.3262  0.9953 -0.5369
 4260TIP3   OH212785   3.145   0.086   2.876 -0.1864 -0.1449  0.2046
 4260TIP3    H112786   3.216   0.110   2.818 -0.7759  1.3287  0.0654
 4260TIP3    H212787   3.146   0.152   2.945 -1.8269  0.3021 -0.1567
 4261TIP3   OH212788   0.195   3.492   2.491  0.3722  0.0088 -0.7011
 4261TIP3    H112789   0.198   3.561   2.426  1.2833 -0.1704 -0.8712
 4261TIP3    H212790   0.146   3.421   2.449 -0.0001  0.3037 -0.7680
 4262TIP3   OH212791   4.182   1.994   2.718 -0.4734  0.1842  0.0430
 4262TIP3    H112792   4.246   2.009   2.649 -0.2804  1.8150  0.5475
 4262TIP3    H212793   4.121   2.068   2.712 -2.5092 -1.4330 -0.5865
 4263TIP3   OH212794   3.648   0.128   2.722 -0.2280  0.0286  0.9455
 4263TIP3    H112795   3.737   0.136   2.758 -0.0821 -1.2487  0.9231
 4263TIP3    H212796   3.600   0.079   2.788 -0.2505 -1.3904 -0.0847
 4264TIP3   OH212797   2.206   4.215   3.649 -0.0490  0.3001 -0.0033
 4264TIP3    H112798   2.280   4.209   3.588 -0.1494 -1.6197  0.0048
 4264TIP3    H212799   2.244   4.253   3.728  1.8342 -3.4406  1.1498
 4265TIP3   OH212800   2.901   1.848   4.470  0.2696 -0.6838  0.0438
 4265TIP3    H112801   2.848   1.779   4.431  0.8219 -1.8666  1.2951
 4265TIP3    H212802   2.850   1.928   4.458 -0.8320 -1.4564 -0.5733
 4266TIP3   OH212803   1.476   3.516   4.354 -0.6904 -0.2021 -0.4596
 4266TIP3    H112804   1.567   3.532   4.332 -1.0865  2.1656 -0.6180
 4266TIP3    H212805   1.465   3.421   4.346  1.7807 -0.5555 -0.2288
 4267TIP3   OH212806   1.497   5.488   0.276 -0.1275 -0.3289 -0.0129
 4267TIP3    H112807   1.475   5.496   0.369 -2.4909  0.4230 -0.5871
 4267TIP3    H212808   1.551   5.564   0.258  1.8853 -1.3980  1.0782
 4268TIP3   OH212809   4.726   0.528   0.720 -0.4251 -0.1279 -0.1152
 4268TIP3    H112810   4.710   0.477   0.800 -0.2807  1.8237  1.2357
 4268TIP3    H212811   4.691   0.615   0.740  0.2043  0.5946 -1.9531
 4269TIP3   OH212812   5.501   2.759   3.233  0.6390  0.3114 -0.2762
 4269TIP3    H112813   5.590   2.792   3.224  0.5164  1.0684  1.0084
 4269TIP3    H212814   5.446   2.831   3.202  0.4046  0.9626  1.5457
 4270TIP3   OH212815   1.967   5.689   3.807 -0.4447  0.0324  0.0411
 4270TIP3    H112816   2.015   5.753   3.860  0.6566 -1.4562  0.9179
 4270TIP3    H212817   1.975   5.721   3.717 -0.7786  1.6328  0.5476
 4271TIP3   OH212818   4.095   1.807   0.335 -0.1039 -0.3956 -0.0150
 4271TIP3    H112819   4.178   1.814   0.288  0.6426  0.2237  1.3233
 4271TIP3    H212820   4.114   1.751   0.410 -0.7393  0.1796  0.5949
 4272TIP3   OH212821   5.352   0.587   0.018 -0.1890 -0.1103  0.2295
 4272TIP3    H112822   5.413   0.633  -0.040 -0.4356 -1.6621 -1.3286
 4272TIP3    H212823   5.373   0.621   0.106  2.8398 -0.4584 -0.2374
 4273TIP3   OH212824   1.219   5.564   2.846  0.1288 -0.3777  0.3502
 4273TIP3    H112825   1.144   5.508   2.828 -0.5264  0.5532  0.1205
 4273TIP3    H212826   1.288   5.504   2.874 -0.7805 -1.2252  0.8147
 4274TIP3   OH212827   3.219   0.861   2.312 -0.8061 -0.3652 -0.2484
 4274TIP3    H112828   3.163   0.873   2.235 -0.9660  2.7068  0.2108
 4274TIP3    H212829   3.177   0.911   2.381  0.5267 -1.1666  1.2226
 4275TIP3   OH212830   2.784   4.360   0.136  0.5406 -0.6835  0.5146
 4275TIP3    H112831   2.757   4.410   0.213  0.5289  0.3983 -0.1774
 4275TIP3    H212832   2.708   4.362   0.079 -0.0844 -2.9695  1.1617
 4276TIP3   OH212833   5.919   3.734   4.058  0.1372 -0.5434 -0.3292
 4276TIP3    H112834   5.862   3.808   4.036  1.8491  0.4405 -1.7042
 4276TIP3    H212835   5.915   3.677   3.981  0.2677 -0.9604 -0.0311
 4277TIP3   OH212836   0.383   1.727   0.634 -0.0982  0.0922  0.0658
 4277TIP3    H112837   0.425   1.701   0.552 -2.5227  0.2644 -1.3199
 4277TIP3    H212838   0.379   1.647   0.686 -0.7561 -0.6223 -1.0519
 4278TIP3   OH212839   2.126   3.829   3.296  0.0725 -0.3557  0.2929
 4278TIP3    H112840   2.150   3.794   3.382  0.7800 -0.2430  0.1485
 4278TIP3    H212841   2.169   3.914   3.292 -0.8983  0.1542  0.2801
 4279TIP3   OH212842   5.477   5.182   2.150 -0.5639  0.6128 -0.2514
 4279TIP3    H112843   5.536   5.109   2.134 -2.2752 -0.6215 -1.3291
 4279TIP3    H212844   5.511   5.253   2.096 -0.3823 -0.2563 -1.3087
 4280TIP3   OH212845   1.887   2.260   0.172 -0.2782  0.0438 -0.0785
 4280TIP3    H112846   1.887   2.350   0.205 -1.2339 -0.0822  0.2914
 4280TIP3    H212847   1.938   2.211   0.236 -0.0530  0.2540 -0.0936
 4281TIP3   OH212848   3.591   2.413   4.486  0.4526  0.6124 -0.5246
 4281TIP3    H112849   3.567   2.429   4.394 -1.1368 -0.9988 -0.4404
 4281TIP3    H212850   3.589   2.500   4.526 -0.5070  1.1382 -1.6418
 4282TIP3   OH212851   4.391   1.211   0.863  0.2433 -0.0976 -0.0579
 4282TIP3    H112852   4.364   1.186   0.951 -0.1860  1.1457  0.1890
 4282TIP3    H212853   4.384   1.131   0.812 -2.7621 -0.1881  0.2851
 4283TIP3   OH212854   5.515   3.206   3.159  0.0208  0.3772  0.3031
 4283TIP3    H112855   5.574   3.204   3.084 -0.1902  0.3929  0.1327
 4283TIP3    H212856   5.507   3.114   3.186 -1.9813 -0.0196 -1.3707
 4284TIP3   OH212857   2.079   3.299   1.598  0.1689 -0.4621 -0.0508
 4284TIP3    H112858   2.139   3.247   1.543  0.2954  1.1794 -1.5599
 4284TIP3    H212859   2.007   3.321   1.539 -1.0006 -0.7873  1.2142
 4285TIP3   OH212860   4.436   0.774   2.788 -0.1766 -0.0694 -0.0917
 4285TIP3    H112861   4.445   0.775   2.883  0.7322  1.9848 -0.1421
 4285TIP3    H212862   4.417   0.683   2.767  0.6142 -0.7746  1.9652
 4286TIP3   OH212863   4.675   4.459   4.925  0.0798  0.6562  0.2038
 4286TIP3    H112864   4.770   4.476   4.926  0.1509  0.3582 -0.6903
 4286TIP3    H212865   4.661   4.408   4.845 -0.9002  1.0599  0.1060
 4287TIP3   OH212866   5.759   0.262   1.088 -0.3328 -0.0838  0.5165
 4287TIP3    H112867   5.848   0.252   1.120 -0.7927 -0.0041  1.8672
 4287TIP3    H212868   5.738   0.355   1.102 -0.5212 -0.0206 -0.1184
 4288TIP3   OH212869   1.002   5.823   2.561 -0.0381 -0.2672  0.5598
 4288TIP3    H112870   0.915   5.833   2.522  0.0449 -0.5523  0.2937
 4288TIP3    H212871   1.035   5.741   2.524 -0.1425 -0.7907  1.5962
 4289TIP3   OH212872   5.022   5.469   1.194 -0.2684  0.1140 -0.3813
 4289TIP3    H112873   5.074   5.484   1.274 -0.9331 -1.1804  0.3264
 4289TIP3    H212874   4.953   5.536   1.198  0.2906  0.6967 -0.3952
 4290TIP3   OH212875   0.563   1.985   5.073 -0.3973  0.0562  0.4053
 4290TIP3    H112876   0.492   1.923   5.060 -0.8388  0.4026  1.1051
 4290TIP3    H212877   0.567   1.998   5.168  1.6924 -1.2222  0.5427
 4291TIP3   OH212878   5.847   3.049   2.619 -0.0446 -0.3002 -0.1576
 4291TIP3    H112879   5.858   2.962   2.582 -0.1529 -0.5160  0.3137
 4291TIP3    H212880   5.762   3.078   2.586 -1.3456 -1.5130  1.8972
 4292TIP3   OH212881   0.847   0.408   0.762 -0.1791 -0.5985 -0.4516
 4292TIP3    H112882   0.916   0.364   0.813  0.3025  0.6041 -0.0289
 4292TIP3    H212883   0.895   0.460   0.698 -0.6581  0.6833  0.2027
 4293TIP3   OH212884   0.337   0.517   3.890  0.1286 -0.6374  0.1737
 4293TIP3    H112885   0.393   0.464   3.947 -2.0764 -1.4790  1.7437
 4293TIP3    H212886   0.355   0.607   3.916  1.4160 -0.8221 -0.0349
 4294TIP3   OH212887   0.869   2.796   0.450 -0.0088  0.3244  0.0941
 4294TIP3    H112888   0.821   2.879   0.451  0.3815  0.5486  0.6689
 4294TIP3    H212889   0.932   2.806   0.378 -0.0072  0.5052  0.1198
 4295TIP3   OH212890   6.263   2.737   2.439  0.2060  0.5351  0.0217
 4295TIP3    H112891   6.324   2.750   2.366  1.7796 -0.8696  1.0309
 4295TIP3    H212892   6.316   2.751   2.518 -0.9090 -0.1804  0.9274
 4296TIP3   OH212893   5.585   3.064   4.545  0.0321 -0.0407 -0.3312
 4296TIP3    H112894   5.492   3.083   4.535 -0.1666 -1.1763 -0.7833
 4296TIP3    H212895   5.588   2.985   4.600  0.6290 -1.0049 -1.6707
 4297TIP3   OH212896   5.851   4.004   0.483  0.1358 -0.0037  0.0471
 4297TIP3    H112897   5.787   4.043   0.424  0.4524  1.9300  0.8980
 4297TIP3    H212898   5.884   3.927   0.436 -1.0433  0.3451 -1.4206
 4298TIP3   OH212899   5.835   4.559   1.603  0.5580  0.1471  0.2369
 4298TIP3    H112900   5.774   4.592   1.669 -0.2161  1.7981 -1.2221
 4298TIP3    H212901   5.914   4.612   1.615  0.2014  0.8691 -0.5146
 4299TIP3   OH212902   3.272   4.559   4.733  0.2610 -0.3122  0.4850
 4299TIP3    H112903   3.229   4.491   4.784 -1.7147  0.6643  0.2100
 4299TIP3    H212904   3.201   4.614   4.701  1.6877  1.0223 -0.5509
 4300TIP3   OH212905   2.794   5.874   3.226 -0.6282 -0.4931  0.0444
 4300TIP3    H112906   2.788   5.959   3.184 -0.3885  0.2835  1.5172
 4300TIP3    H212907   2.706   5.856   3.259 -0.1100  0.5589  2.2124
 4301TIP3   OH212908   2.969   1.946   0.703  0.1255 -0.3334 -0.3632
 4301TIP3    H112909   2.933   1.914   0.620 -0.5245 -0.2450 -0.1236
 4301TIP3    H212910   2.895   1.942   0.764  0.3770  0.3916  0.0020
 4302TIP3   OH212911   6.284   0.922   4.659  0.6249  0.8636  0.0152
 4302TIP3    H112912   6.328   0.988   4.714  0.6169  0.8161  0.0794
 4302TIP3    H212913   6.352   0.893   4.598  0.6631  0.8400  0.0692
 4303TIP3   OH212914   3.274   1.637   3.592 -0.2840 -0.1800  0.4622
 4303TIP3    H112915   3.330   1.636   3.670 -0.4400 -0.2455  0.5741
 4303TIP3    H212916   3.198   1.689   3.618 -0.0564  0.3137  0.1533
 4304TIP3   OH212917   2.436   1.243   3.639  0.6968  0.4182 -0.3224
 4304TIP3    H112918   2.513   1.252   3.583  0.1639 -1.6147 -1.4892
 4304TIP3    H212919   2.362   1.259   3.581  0.1758  2.6683  0.8556
 4305TIP3   OH212920   5.654   4.598   1.126  0.2002 -0.4008 -0.1295
 4305TIP3    H112921   5.573   4.638   1.160  0.0620 -0.3347 -0.5266
 4305TIP3    H212922   5.644   4.505   1.143 -0.5294 -0.5563 -1.3000
 4306TIP3   OH212923   6.292   2.487   4.540 -0.1079  0.3136  0.3806
 4306TIP3    H112924   6.275   2.551   4.470 -0.2689  0.1935  0.3105
 4306TIP3    H212925   6.206   2.471   4.580 -0.5051 -1.5921 -1.0822
 4307TIP3   OH212926   0.301   5.229   3.859  0.0405 -0.1041 -0.1367
 4307TIP3    H112927   0.313   5.295   3.791 -1.4340  0.5086  0.1596
 4307TIP3    H212928   0.231   5.172   3.826 -0.5108  0.0460  0.7266
 4308TIP3   OH212929   2.878   1.146   1.440  0.0411 -0.3322 -0.6566
 4308TIP3    H112930   2.803   1.193   1.476  0.8389 -0.3551  1.1734
 4308TIP3    H212931   2.845   1.058   1.420 -0.9233  0.3064 -2.0077
 4309TIP3   OH212932   4.678   1.808   4.323 -0.1953  0.2049 -0.0453
 4309TIP3    H112933   4.689   1.717   4.351  0.1815 -0.1496 -1.2826
 4309TIP3    H212934   4.716   1.860   4.393 -0.5643 -0.5851  0.7513
 4310TIP3   OH212935   3.238   1.924   0.220 -0.0672 -0.5473  0.3373
 4310TIP3    H112936   3.293   1.955   0.292 -2.0006  4.0385  0.1691
 4310TIP3    H212937   3.159   1.891   0.263  0.0038 -0.6870  0.3636
 4311TIP3   OH212938   2.834   4.039   5.037 -0.2334  0.2302 -0.1118
 4311TIP3    H112939   2.767   3.984   5.079 -0.1276 -1.2365 -1.7336
 4311TIP3    H212940   2.852   4.108   5.101 -2.5443  0.0938  0.8084
 4312TIP3   OH212941   5.916   0.507   3.513 -0.3058  0.4264  0.1924
 4312TIP3    H112942   5.992   0.564   3.501 -0.5306  0.5313 -0.8566
 4312TIP3    H212943   5.889   0.521   3.603 -0.5122  2.1804 -0.1157
 4313TIP3   OH212944   4.192   0.340   4.761  0.3282 -0.5974  0.7744
 4313TIP3    H112945   4.187   0.333   4.666  1.2297  1.3075  0.5199
 4313TIP3    H212946   4.191   0.250   4.792 -2.5163 -1.2515 -0.8430
 4314TIP3   OH212947   1.846   1.688   1.239 -0.4921  0.2223 -0.0147
 4314TIP3    H112948   1.856   1.684   1.334  1.1775 -0.9540 -0.1803
 4314TIP3    H212949   1.889   1.770   1.214 -0.8423  0.4821  0.2164
 4315TIP3   OH212950   1.792   3.399   1.995  0.2963  0.4782 -0.0595
 4315TIP3    H112951   1.854   3.471   1.984 -0.4467  1.1728  0.1161
 4315TIP3    H212952   1.843   3.327   2.031  0.5355  1.8270  2.5150
 4316TIP3   OH212953   5.523   1.726   3.185  0.0522 -0.1084  0.2969
 4316TIP3    H112954   5.547   1.770   3.266 -3.9376  1.7607  0.6719
 4316TIP3    H212955   5.462   1.657   3.211  0.2272 -0.7988 -0.9904
 4317TIP3   OH212956   1.436   5.564   3.052 -0.3641 -0.1316  0.1517
 4317TIP3    H112957   1.508   5.501   3.045  0.7326  1.0425  0.3491
 4317TIP3    H212958   1.463   5.637   2.996 -2.0164 -0.1882 -0.7660
 4318TIP3   OH212959   5.521   0.584   0.774 -0.0738 -0.2923 -0.1829
 4318TIP3    H112960   5.515   0.662   0.719  1.5588 -1.0634 -1.5206
 4318TIP3    H212961   5.441   0.535   0.755 -0.7988  0.7070  0.1845
 4319TIP3   OH212962   3.591   4.234   3.644  0.1010  0.4169  0.2142
 4319TIP3    H112963   3.519   4.266   3.698 -0.0902  2.8207 -1.3150
 4319TIP3    H212964   3.602   4.142   3.670 -2.9143  0.2036  1.1167
 4320TIP3   OH212965   2.678   4.399   1.833 -0.2656  0.3400  0.1949
 4320TIP3    H112966   2.629   4.333   1.882 -1.3862  0.2749 -0.9504
 4320TIP3    H212967   2.740   4.435   1.896  1.2457 -2.6238  0.5484
 4321TIP3   OH212968   3.094   0.974   4.145  0.5312 -0.2568 -0.2135
 4321TIP3    H112969   3.109   1.066   4.123  1.8817 -0.5813 -0.7642
 4321TIP3    H212970   3.123   0.966   4.235  1.8191 -0.4327 -0.6231
 4322TIP3   OH212971   4.312   2.759   1.461 -0.7099  0.0042 -0.2913
 4322TIP3    H112972   4.325   2.755   1.367 -0.0199 -0.9031 -0.1768
 4322TIP3    H212973   4.315   2.667   1.489  0.3367  0.3321  0.7639
 4323TIP3   OH212974   6.180   3.027   2.538 -0.3424 -0.1460  0.3065
 4323TIP3    H112975   6.184   2.984   2.452  2.7251  1.4812 -0.5314
 4323TIP3    H212976   6.110   3.091   2.529  0.1042  0.1839 -1.1125
 4324TIP3   OH212977   5.640   2.428   3.686 -0.1357  0.5753 -0.1892
 4324TIP3    H112978   5.567   2.368   3.674 -0.5837  0.9158  0.7468
 4324TIP3    H212979   5.622   2.501   3.627  0.3726 -0.1560 -1.2774
 4325TIP3   OH212980   2.520   0.591   3.343  0.2933  0.3009 -0.7032
 4325TIP3    H112981   2.529   0.579   3.438 -0.2568  0.9060 -0.5648
 4325TIP3    H212982   2.544   0.683   3.329 -0.4919  0.4576 -1.0290
 4326TIP3   OH212983   5.184   1.987   2.373  0.3439  0.6132  0.1259
 4326TIP3    H112984   5.273   1.981   2.338  0.4772 -1.2447  0.6925
 4326TIP3    H212985   5.177   2.077   2.405  2.4187  0.5002  1.0607
 4327TIP3   OH212986   5.930   3.625   3.782  0.6477 -0.5765 -0.1881
 4327TIP3    H112987   5.855   3.575   3.749  0.5007 -0.8731  0.5741
 4327TIP3    H212988   5.921   3.711   3.740 -1.1553  0.0011  1.2417
 4328TIP3   OH212989   5.862   1.293   2.164  0.4279 -0.3396  0.3583
 4328TIP3    H112990   5.838   1.316   2.253  0.2605  0.6235  0.0709
 4328TIP3    H212991   5.787   1.243   2.131  0.6256 -0.9781  0.8516
 4329TIP3   OH212992   2.287   3.762   3.775 -0.0800 -0.3892  0.0728
 4329TIP3    H112993   2.361   3.728   3.825  0.4500 -0.8604 -1.0082
 4329TIP3    H212994   2.210   3.723   3.817  0.3471 -0.6900  0.5864
 4330TIP3   OH212995   4.872   0.780   5.113  0.4125  0.1609  0.4104
 4330TIP3    H112996   4.781   0.809   5.109  0.3137 -0.2636 -1.0606
 4330TIP3    H212997   4.871   0.692   5.076  1.5767  0.5836 -0.7225
 4331TIP3   OH212998   1.757   4.454   2.680 -0.2878  0.2412 -0.8704
 4331TIP3    H112999   1.782   4.413   2.763 -1.8987 -0.0093 -0.4757
 4331TIP3    H213000   1.704   4.530   2.706 -0.7817  0.1819 -1.6656
 4332TIP3   OH213001   5.570   2.478   3.203 -0.3140 -0.3165  0.0061
 4332TIP3    H113002   5.509   2.552   3.191  0.5174  0.4043  0.1242
 4332TIP3    H213003   5.597   2.456   3.114  0.7994  0.7097  0.0646
 4333TIP3   OH213004   3.644   0.395   4.476 -0.9174  0.0010 -0.2879
 4333TIP3    H113005   3.630   0.469   4.416  1.4155  0.0760 -0.8225
 4333TIP3    H213006   3.563   0.391   4.527 -1.9095  1.6502 -1.6046
 4334TIP3   OH213007   2.398   5.771   1.725 -0.0253 -0.3157 -0.1325
 4334TIP3    H113008   2.338   5.714   1.678 -0.1224 -1.5074  1.3360
 4334TIP3    H213009   2.353   5.791   1.807  0.3462  1.2605 -0.2925
 4335TIP3   OH213010   0.989   3.554   1.873  0.0913  0.7986 -0.8065
 4335TIP3    H113011   0.922   3.494   1.839 -0.6409  2.0128 -1.6139
 4335TIP3    H213012   0.973   3.557   1.967  2.2838 -2.7991 -0.1232
 4336TIP3   OH213013   5.620   4.099   0.380  0.1448  0.5619  0.1843
 4336TIP3    H113014   5.572   4.159   0.438 -1.4437 -0.6394  0.1925
 4336TIP3    H213015   5.629   4.148   0.298  0.4148  1.4417  0.7257
 4337TIP3   OH213016   4.415   0.947   1.685 -0.2099  0.4003 -0.2495
 4337TIP3    H113017   4.374   0.994   1.757  1.1025 -1.0471  1.5629
 4337TIP3    H213018   4.438   0.862   1.723  0.2387 -0.5410 -2.5013
 4338TIP3   OH213019   5.548   2.061   2.450  0.1827 -0.3591 -0.2069
 4338TIP3    H113020   5.585   2.005   2.382 -0.0834  0.2596 -0.8708
 4338TIP3    H213021   5.539   2.147   2.409 -0.7366 -0.1696  0.3593
 4339TIP3   OH213022   3.972   2.765   3.050  0.2772  0.2023  0.3824
 4339TIP3    H113023   3.977   2.854   3.015 -0.5678  0.0925 -0.0561
 4339TIP3    H213024   4.061   2.745   3.079  0.0679  1.9964  2.5470
 4340TIP3   OH213025   5.738   5.387   2.814  0.0644 -0.3394 -0.0548
 4340TIP3    H113026   5.783   5.367   2.731 -2.1481 -0.5611 -1.2726
 4340TIP3    H213027   5.694   5.305   2.836 -2.2303  0.6939 -0.5781
 4341TIP3   OH213028   4.155   3.114   1.834 -0.2208  0.4407 -0.3416
 4341TIP3    H113029   4.065   3.096   1.808  0.0738 -0.0268 -1.0660
 4341TIP3    H213030   4.202   3.126   1.752  0.1103  2.1063  0.0346
 4342TIP3   OH213031   5.412   1.326   1.846 -0.2412  0.1390  0.2784
 4342TIP3    H113032   5.493   1.275   1.840 -0.6552 -0.3974 -1.2579
 4342TIP3    H213033   5.359   1.279   1.910  0.9453  0.9631  1.9542
 4343TIP3   OH213034   4.570   4.617   3.050  0.3862 -0.5389  0.0154
 4343TIP3    H113035   4.615   4.647   2.972  0.1427 -0.0669  0.0489
 4343TIP3    H213036   4.534   4.532   3.027  0.3852 -0.4356 -0.3623
 4344TIP3   OH213037   6.014   5.946   4.166 -0.2964 -0.0052  0.2752
 4344TIP3    H113038   5.986   6.035   4.184  0.2491 -0.0343  1.3076
 4344TIP3    H213039   6.051   5.949   4.078  1.6165  1.2427  1.0756
 4345TIP3   OH213040   1.087   3.850   4.404  0.1893  0.1242 -0.4084
 4345TIP3    H113041   1.121   3.889   4.323 -1.1385 -1.5761 -1.8851
 4345TIP3    H213042   1.138   3.769   4.414 -0.2931 -0.1372 -0.0611
 4346TIP3   OH213043   1.848   4.698   3.670 -0.4814  0.2768 -0.3528
 4346TIP3    H113044   1.754   4.683   3.678 -0.3517 -0.7085 -0.5960
 4346TIP3    H213045   1.873   4.650   3.591  0.4717 -0.6385  0.4837
 4347TIP3   OH213046   3.982   3.879   0.233 -0.3448 -0.2170 -0.4803
 4347TIP3    H113047   3.928   3.819   0.285 -0.0721 -0.7050 -0.7560
 4347TIP3    H213048   3.933   3.890   0.151  0.4104 -1.4066 -1.1166
 4348TIP3   OH213049   1.517   0.603   4.577  0.1236  0.3188  0.3583
 4348TIP3    H113050   1.428   0.568   4.577  0.0176  0.5826  0.6292
 4348TIP3    H213051   1.574   0.526   4.582 -0.0655  0.1009 -0.6562
 4349TIP3   OH213052   0.740   4.104   4.544  0.7423 -0.0298 -0.2386
 4349TIP3    H113053   0.683   4.065   4.610  0.3364  1.7964  0.5700
 4349TIP3    H213054   0.828   4.075   4.568  0.3564 -1.4680 -0.4675
 4350TIP3   OH213055   3.248   3.834   5.104  0.1863  0.3312 -0.0348
 4350TIP3    H113056   3.160   3.805   5.128  0.6049  1.8236  4.3888
 4350TIP3    H213057   3.235   3.903   5.040 -1.9091  0.5716  0.5836
 4351TIP3   OH213058   0.944   3.068   4.161 -0.5668  0.1186  0.1714
 4351TIP3    H113059   0.963   2.982   4.124 -1.2767 -0.1155  0.3388
 4351TIP3    H213060   0.996   3.129   4.108 -0.0486 -0.4094  0.0647
 4352TIP3   OH213061   4.080   1.018   0.742 -0.3919 -0.1504  0.0825
 4352TIP3    H113062   4.000   1.021   0.690  0.3314  2.2769 -1.0342
 4352TIP3    H213063   4.061   1.070   0.820  0.7613  2.7284 -1.4024
 4353TIP3   OH213064   5.810   1.473   1.735  0.0522 -0.0382  0.5341
 4353TIP3    H113065   5.762   1.424   1.668 -1.1658  1.2397  0.3946
 4353TIP3    H213066   5.743   1.530   1.774  1.2964  1.1804  0.9577
 4354TIP3   OH213067   1.697   3.819   4.546  0.1002  0.7986 -0.7888
 4354TIP3    H113068   1.659   3.758   4.609  3.1306 -2.0980 -1.5140
 4354TIP3    H213069   1.750   3.879   4.599  2.9100 -1.8293 -0.3830
 4355TIP3   OH213070   4.718   3.585   3.536  0.2552  0.0593  0.0527
 4355TIP3    H113071   4.712   3.557   3.445 -1.5809  3.1075 -0.9122
 4355TIP3    H213072   4.631   3.570   3.572  0.8800 -0.8437  1.3072
 4356TIP3   OH213073   4.065   1.272   4.660  0.1964  0.1394  0.5490
 4356TIP3    H113074   4.042   1.358   4.627 -2.0598 -0.7591 -0.4448
 4356TIP3    H213075   4.134   1.288   4.724  1.4091  2.4183 -1.1904
 4357TIP3   OH213076   4.141   4.558   2.947  0.2872 -0.2045  0.1942
 4357TIP3    H113077   4.189   4.594   3.022  1.7501 -0.6726 -0.4840
 4357TIP3    H213078   4.069   4.620   2.933  1.4459  1.2560  0.4391
 4358TIP3   OH213079   4.084   1.526   1.030 -0.1125  0.1906 -0.7299
 4358TIP3    H113080   4.104   1.433   1.026  0.1540  0.2499 -0.7718
 4358TIP3    H213081   4.056   1.548   0.941  0.7553  0.3588 -0.9719
 4359TIP3   OH213082   4.521   5.117   0.182  0.5135 -0.3519 -0.2985
 4359TIP3    H113083   4.545   5.129   0.090  2.4951  0.9077  0.3034
 4359TIP3    H213084   4.436   5.160   0.191 -0.1434 -1.3112 -1.7114
 4360TIP3   OH213085   0.205   1.396   1.809 -0.5869 -0.4084 -0.3776
 4360TIP3    H113086   0.286   1.344   1.812 -0.9990 -1.0378  0.9495
 4360TIP3    H213087   0.211   1.452   1.886  0.2419  2.2245 -2.2373
 4361TIP3   OH213088   2.517   3.837   2.174  0.8762  0.3143  0.3027
 4361TIP3    H113089   2.442   3.778   2.172  0.8803  0.3023  0.5588
 4361TIP3    H213090   2.485   3.916   2.218  1.4837 -0.3274  1.9324
 4362TIP3   OH213091   2.826   3.034   1.747  0.4421  0.0379 -0.3735
 4362TIP3    H113092   2.915   3.001   1.754  0.0075 -1.0716  0.0912
 4362TIP3    H213093   2.823   3.078   1.662  0.8222 -1.8315 -1.4087
 4363TIP3   OH213094   2.861   3.614   4.311 -0.5367  0.0521  0.0966
 4363TIP3    H113095   2.844   3.618   4.217 -1.8420  0.6487  0.3368
 4363TIP3    H213096   2.841   3.703   4.342 -1.2643 -0.4621  1.1228
 4364TIP3   OH213097   2.992   3.801   2.660 -0.4085 -0.0412 -0.6605
 4364TIP3    H113098   3.010   3.832   2.749 -3.2692  0.2643 -0.1033
 4364TIP3    H213099   3.072   3.822   2.611  1.3398 -0.4309  1.8348
 4365TIP3   OH213100   2.603   0.084   5.087  0.3928 -0.4304  0.1663
 4365TIP3    H113101   2.687   0.037   5.085 -0.3333 -1.7508  0.1452
 4365TIP3    H213102   2.579   0.093   4.995 -0.8606 -2.6216  0.2206
 4366TIP3   OH213103   4.568   5.563   1.699 -0.2726 -0.1663  0.3996
 4366TIP3    H113104   4.619   5.627   1.748 -1.4664  1.3265 -0.2515
 4366TIP3    H213105   4.519   5.515   1.766  0.9454 -0.7343  0.9232
 4367TIP3   OH213106   0.753   0.943   1.594 -0.0762 -0.3841 -0.2096
 4367TIP3    H113107   0.698   0.956   1.517  0.5923 -1.6949 -0.9302
 4367TIP3    H213108   0.817   1.015   1.589 -1.4647  0.9483  0.4549
 4368TIP3   OH213109   5.468   4.634   2.065  0.0927  0.0010 -0.4478
 4368TIP3    H113110   5.380   4.631   2.027  1.1539 -2.1086 -2.9273
 4368TIP3    H213111   5.496   4.725   2.052 -2.0721  1.0838  1.5257
 4369TIP3   OH213112   5.590   1.626   3.464 -0.3095 -0.3475  0.1962
 4369TIP3    H113113   5.680   1.631   3.433 -0.1690 -0.1432  0.6420
 4369TIP3    H213114   5.565   1.534   3.451  0.4937 -0.7785  1.5474
 4370TIP3   OH213115   4.553   1.320   2.373  0.0550 -0.0593  0.0150
 4370TIP3    H113116   4.561   1.353   2.283 -0.5062  1.1475  0.3787
 4370TIP3    H213117   4.590   1.390   2.427  1.9132 -1.4503  0.6595
 4371TIP3   OH213118   1.747   5.697   3.285  0.3838 -0.0287  0.3540
 4371TIP3    H113119   1.808   5.683   3.212  0.2826  1.6362 -0.0986
 4371TIP3    H213120   1.790   5.763   3.340 -1.7292  2.6954 -0.9993
 4372TIP3   OH213121   0.447   5.051   0.916  0.0451 -0.1239  0.3584
 4372TIP3    H113122   0.535   5.049   0.878 -0.5194 -0.8072 -1.0011
 4372TIP3    H213123   0.414   5.138   0.893  0.1530 -0.0882  0.3360
 4373TIP3   OH213124   1.342   0.337   1.539 -0.0475  0.1285 -0.2892
 4373TIP3    H113125   1.292   0.376   1.468  0.9001 -0.4144 -1.2721
 4373TIP3    H213126   1.316   0.245   1.540 -0.3913  0.2207  0.3801
 4374TIP3   OH213127   2.461   0.165   2.792 -0.3622  0.1670  0.1854
 4374TIP3    H113128   2.499   0.247   2.761 -0.3900  0.3255  0.5669
 4374TIP3    H213129   2.373   0.188   2.820 -0.6654 -0.1605 -0.4903
 4375TIP3   OH213130   5.535   5.275   0.187 -0.3542  0.0087  0.7707
 4375TIP3    H113131   5.541   5.292   0.281 -1.4873  0.2350  0.8104
 4375TIP3    H213132   5.467   5.209   0.179 -0.8289  0.5719  0.0472
 4376TIP3   OH213133   5.665   5.942   3.938 -0.5725 -0.1099  0.6881
 4376TIP3    H113134   5.579   5.906   3.916 -0.1135 -0.7953 -0.0434
 4376TIP3    H213135   5.697   5.885   4.008 -0.7846  0.2667  1.1006
 4377TIP3   OH213136   1.456   5.316   5.168 -0.0130 -0.2134  0.2733
 4377TIP3    H113137   1.441   5.227   5.201 -0.6031  0.2692  1.3641
 4377TIP3    H213138   1.371   5.341   5.132  0.1229 -0.0407  0.0742
 4378TIP3   OH213139   0.001   3.482   2.719  0.1889 -0.0090 -0.7646
 4378TIP3    H113140   0.045   3.521   2.644 -1.1194  0.4905 -1.2809
 4378TIP3    H213141   0.029   3.390   2.718  2.6673  0.6343  0.0075
 4379TIP3   OH213142   0.055   4.100   4.621 -0.0278  0.2337 -0.0343
 4379TIP3    H113143  -0.030   4.101   4.577  0.3481  0.5208 -0.7695
 4379TIP3    H213144   0.077   4.193   4.631  1.2208  0.1833 -1.8871
 4380TIP3   OH213145   3.780   1.778   4.061 -0.3474  0.1640  0.5716
 4380TIP3    H113146   3.809   1.775   4.152 -1.0873 -2.2256  0.7949
 4380TIP3    H213147   3.717   1.849   4.058  2.2371  2.6777  1.0332
 4381TIP3   OH213148   4.764   4.017   0.346  0.0191  0.1549 -0.3163
 4381TIP3    H113149   4.742   4.045   0.435  1.8229  2.3512 -0.4610
 4381TIP3    H213150   4.689   3.965   0.318 -0.9928  0.1417  2.1601
 4382TIP3   OH213151   1.186   4.839   4.733 -0.5356  0.5854  0.0630
 4382TIP3    H113152   1.214   4.761   4.780 -0.3227 -0.4062 -1.6393
 4382TIP3    H213153   1.144   4.893   4.800 -0.0355 -0.6452  1.4262
 4383TIP3   OH213154   4.048   5.491   1.228  0.3668  0.7777 -0.3046
 4383TIP3    H113155   4.137   5.455   1.229  0.2611  0.4865 -0.7833
 4383TIP3    H213156   4.025   5.494   1.135 -1.1836 -1.8301 -0.1208
 4384TIP3   OH213157   0.827   2.772   2.799  0.0862 -0.7313 -0.2541
 4384TIP3    H113158   0.872   2.702   2.752  5.0133  2.0193 -0.2892
 4384TIP3    H213159   0.823   2.845   2.737  0.2403  0.7413  1.3882
 4385TIP3   OH213160   6.203   0.774   3.758  0.5414 -0.2550  0.2511
 4385TIP3    H113161   6.195   0.746   3.850  0.7547  0.0398  0.3601
 4385TIP3    H213162   6.117   0.811   3.738  0.9261  0.9923  0.7809
 4386TIP3   OH213163   3.721   1.802   2.882  0.0480 -0.4714 -0.0514
 4386TIP3    H113164   3.671   1.883   2.868  0.1283 -0.6411 -1.4409
 4386TIP3    H213165   3.675   1.758   2.953 -0.0241  0.7643  0.6990
 4387TIP3   OH213166   1.595   2.362   1.055  0.3966  0.3032  0.5012
 4387TIP3    H113167   1.613   2.374   1.148 -1.5090  1.3230  0.7812
 4387TIP3    H213168   1.676   2.325   1.020  1.4440  0.6716  2.3919
 4388TIP3   OH213169   1.621   3.028   0.743 -0.0175  0.8427 -0.1229
 4388TIP3    H113170   1.565   3.098   0.708  1.1278  0.7236 -2.3650
 4388TIP3    H213171   1.567   2.950   0.740 -0.0596  0.8954 -1.4579
 4389TIP3   OH213172   1.554   5.301   4.331  0.0205  0.3176  0.0893
 4389TIP3    H113173   1.507   5.291   4.413 -1.5034  1.0526 -0.6592
 4389TIP3    H213174   1.593   5.389   4.336  0.8638 -0.0650  0.4644
 4390TIP3   OH213175   2.814   5.668   3.044  0.4245 -0.3232 -0.0358
 4390TIP3    H113176   2.841   5.599   3.104 -0.2859 -0.1487  0.5029
 4390TIP3    H213177   2.796   5.744   3.100  0.4752  0.0740 -0.5416
 4391TIP3   OH213178   6.140   2.346   2.426  0.5428 -0.1825  0.0555
 4391TIP3    H113179   6.205   2.388   2.482  0.1931 -0.1451  0.4353
 4391TIP3    H213180   6.159   2.253   2.431  0.6404 -0.1607  0.0733
 4392TIP3   OH213181   3.801   3.837   2.884  0.1827 -0.5466  0.4390
 4392TIP3    H113182   3.843   3.797   2.808  0.6364  0.2811  0.2341
 4392TIP3    H213183   3.809   3.772   2.953  2.3398 -0.1991  0.5654
 4393TIP3   OH213184   3.280   0.613   1.281 -0.2606  0.4286  0.2558
 4393TIP3    H113185   3.316   0.687   1.330 -0.9595 -0.2970  1.9792
 4393TIP3    H213186   3.203   0.587   1.332 -0.9787 -0.4544 -1.2231
 4394TIP3   OH213187   5.015   2.702   1.552  0.5331  0.1322  0.4489
 4394TIP3    H113188   4.920   2.707   1.543  0.6386 -0.0597 -0.8385
 4394TIP3    H213189   5.043   2.793   1.566  0.3123  0.4321 -0.9180
 4395TIP3   OH213190   4.974   0.633   1.384  0.5508 -0.0942  0.0180
 4395TIP3    H113191   4.885   0.641   1.418  0.6130  0.3329  0.0832
 4395TIP3    H213192   5.000   0.542   1.404  0.2477 -0.1240  0.2753
 4396TIP3   OH213193   0.254   4.012   4.077  0.1150  0.0079  0.1714
 4396TIP3    H113194   0.330   3.954   4.087 -0.4171 -0.6590  0.4652
 4396TIP3    H213195   0.277   4.070   4.004  0.2760 -1.2325 -0.8041
 4397TIP3   OH213196   4.901   4.331   4.600 -0.0346  0.1136  0.3703
 4397TIP3    H113197   4.927   4.329   4.692  0.4224 -0.2163  0.2402
 4397TIP3    H213198   4.961   4.270   4.557  0.4334  1.0320 -0.3192
 4398TIP3   OH213199   3.960   5.685   0.101  0.2818 -0.3794 -0.5606
 4398TIP3    H113200   3.893   5.616   0.107  0.4285 -0.8322 -3.0671
 4398TIP3    H213201   4.021   5.664   0.171 -1.2318 -1.0280  0.6367
 4399TIP3   OH213202   4.105   2.686   4.892  0.2086  0.0980 -0.2772
 4399TIP3    H113203   4.181   2.741   4.871  1.2166 -0.2470  2.1697
 4399TIP3    H213204   4.058   2.735   4.959  0.4774 -1.4350  1.0901
 4400TIP3   OH213205   0.649   3.243   2.551 -0.4141 -0.3061  0.2233
 4400TIP3    H113206   0.734   3.266   2.513 -0.8225  1.5898  0.3472
 4400TIP3    H213207   0.593   3.228   2.475 -0.9875  2.5573 -0.0202
 4401TIP3   OH213208   2.516   5.151   3.445 -0.1295 -0.0096 -0.6196
 4401TIP3    H113209   2.429   5.133   3.411 -0.7707  0.2862  0.8065
 4401TIP3    H213210   2.554   5.213   3.382 -0.3179 -1.3383 -2.1008
 4402TIP3   OH213211   2.760   5.782   1.274 -0.1638  0.2204  0.5438
 4402TIP3    H113212   2.736   5.808   1.363  0.1391  1.6528  0.2389
 4402TIP3    H213213   2.850   5.753   1.281 -0.1324  0.3532  0.7056
 4403TIP3   OH213214   5.444   5.208   0.743  0.0329 -0.0667 -0.1398
 4403TIP3    H113215   5.423   5.299   0.764  0.5113 -0.1787  0.8833
 4403TIP3    H213216   5.362   5.160   0.757  0.4431 -0.2322  2.1699
 4404TIP3   OH213217   5.569   4.995   3.959  0.2187 -0.4547  0.2473
 4404TIP3    H113218   5.503   4.975   4.026 -1.0617  1.5252 -0.3069
 4404TIP3    H213219   5.517   5.017   3.881  1.6121 -0.3925 -0.6934
 4405TIP3   OH213220   3.948   5.362   3.338  0.5340  0.4185 -0.4322
 4405TIP3    H113221   3.899   5.281   3.319 -0.7325  1.3677 -1.3519
 4405TIP3    H213222   3.973   5.395   3.252 -0.5862  1.9625 -0.2017
 4406TIP3   OH213223   4.048   2.338   0.100  0.2248  0.3451 -0.5215
 4406TIP3    H113224   3.972   2.293   0.137 -0.1815  0.9564 -0.5960
 4406TIP3    H213225   4.122   2.310   0.154 -0.1154  0.0347 -0.2136
 4407TIP3   OH213226   5.360   5.630   4.505  0.1578 -0.4657  0.0342
 4407TIP3    H113227   5.376   5.607   4.414 -0.7755  0.5034 -0.3908
 4407TIP3    H213228   5.416   5.570   4.555  1.5529 -0.2314 -1.1963
 4408TIP3   OH213229   5.006   3.261   3.390 -0.5319  0.5443 -0.1715
 4408TIP3    H113230   5.014   3.352   3.418 -2.4051  1.2531 -1.7271
 4408TIP3    H213231   5.076   3.216   3.436 -0.3133  2.5348  1.6041
 4409TIP3   OH213232   2.186   0.205   0.717  0.0041 -0.4648 -0.1154
 4409TIP3    H113233   2.137   0.243   0.644  0.5672 -0.6190 -0.5887
 4409TIP3    H213234   2.261   0.264   0.727 -1.2538  0.8949  1.8892
 4410TIP3   OH213235   0.856   1.209   1.679 -0.5438 -0.3039  0.2717
 4410TIP3    H113236   0.904   1.154   1.741 -0.1155 -0.4520 -0.1899
 4410TIP3    H213237   0.912   1.213   1.602 -0.9512  0.1064 -0.0056
 4411TIP3   OH213238   5.045   1.241   3.301  0.0245 -0.4307  0.6274
 4411TIP3    H113239   5.132   1.280   3.314 -0.0190 -0.3055  0.5467
 4411TIP3    H213240   4.996   1.309   3.254  0.0521 -0.7160  0.1852
 4412TIP3   OH213241   2.889   0.745   0.084  0.0989  0.1426  0.6856
 4412TIP3    H113242   2.885   0.650   0.097  0.7356  0.1810  1.1949
 4412TIP3    H213243   2.815   0.779   0.135 -0.2992 -0.0932  0.2794
 4413TIP3   OH213244   2.771   2.109   1.540 -0.1516  0.1075  0.7579
 4413TIP3    H113245   2.789   2.166   1.465  1.3100 -1.9620 -0.6039
 4413TIP3    H213246   2.849   2.116   1.595 -0.4556  0.2679  1.1740
 4414TIP3   OH213247   6.293   5.403   4.181  0.2618  0.1948  0.1982
 4414TIP3    H113248   6.379   5.441   4.197  1.2289 -1.0854 -1.5185
 4414TIP3    H213249   6.297   5.317   4.222 -1.4397  1.2978  2.9392
 4415TIP3   OH213250   5.009   1.646   0.307 -0.4659  0.0326  0.3406
 4415TIP3    H113251   4.979   1.693   0.230  1.6108  1.2967  0.2294
 4415TIP3    H213252   5.045   1.564   0.273 -1.4314 -0.3530  0.2202
 4416TIP3   OH213253   0.936   1.628   1.768  0.4270  0.4624  0.5742
 4416TIP3    H113254   0.877   1.703   1.767  1.2740  1.1517 -0.4323
 4416TIP3    H213255   0.921   1.584   1.685 -1.5458 -1.7542  1.9735
 4417TIP3   OH213256   1.643   3.816   0.141 -0.2476  0.1205 -0.0284
 4417TIP3    H113257   1.687   3.741   0.181  1.3160 -0.2463 -2.2160
 4417TIP3    H213258   1.562   3.780   0.104 -0.2454 -0.1672  0.2441
 4418TIP3   OH213259   0.904   3.912   0.844 -1.1444  0.3347 -0.5451
 4418TIP3    H113260   0.914   3.860   0.765 -2.6737 -1.5419  0.3992
 4418TIP3    H213261   0.993   3.935   0.870 -0.3802 -1.8947 -0.9913
 4419TIP3   OH213262   4.448   0.243   1.212  0.1872  0.3758 -0.2847
 4419TIP3    H113263   4.492   0.159   1.206  0.5812  0.3991  1.6860
 4419TIP3    H213264   4.354   0.221   1.211  0.1946 -0.5340  3.5865
 4420TIP3   OH213265   5.380   5.318   3.879 -0.1544  0.1602  1.3922
 4420TIP3    H113266   5.470   5.295   3.858 -0.6570  0.4906 -1.4467
 4420TIP3    H213267   5.384   5.351   3.969  2.2085 -1.5591  1.9931
 4421TIP3   OH213268   4.137   3.200   4.040  0.2741  0.1970  0.7777
 4421TIP3    H113269   4.109   3.165   3.956  1.7054 -0.4148  0.5300
 4421TIP3    H213270   4.105   3.290   4.041 -0.0657  0.0954 -0.2646
 4422TIP3   OH213271   5.022   4.773   3.236  0.5776 -0.1394  0.3972
 4422TIP3    H113272   5.011   4.682   3.262 -0.5722 -0.2270 -0.3199
 4422TIP3    H213273   4.936   4.813   3.251  0.4223  0.2635 -1.3431
 4423TIP3   OH213274   5.626   3.876   0.066 -0.2175  0.0007  0.1127
 4423TIP3    H113275   5.623   3.781   0.054 -0.0486  0.0581 -0.4252
 4423TIP3    H213276   5.664   3.909  -0.016 -2.2809  0.7032 -0.6132
 4424TIP3   OH213277   4.793   3.986   2.844  0.9640  0.4936  0.5113
 4424TIP3    H113278   4.703   3.964   2.818  0.4536  0.4233  2.2352
 4424TIP3    H213279   4.784   4.027   2.929  2.4101  2.4454 -0.2064
 4425TIP3   OH213280   6.009   3.768   1.740  0.4930 -0.2977  0.2151
 4425TIP3    H113281   5.990   3.840   1.680 -0.1236 -1.0789 -0.5643
 4425TIP3    H213282   6.071   3.804   1.803  1.4138  0.4716 -1.0867
 4426TIP3   OH213283   4.301   5.410   3.244 -0.6008 -0.5427 -0.5716
 4426TIP3    H113284   4.307   5.320   3.212  1.2771 -0.6660  0.0287
 4426TIP3    H213285   4.278   5.402   3.337 -0.2547 -0.4096 -0.4737
 4427TIP3   OH213286   0.915   5.804   0.161  0.1796 -0.0593  0.1394
 4427TIP3    H113287   0.904   5.709   0.170 -1.5070  0.3237  3.5147
 4427TIP3    H213288   0.990   5.824   0.218  0.9136  0.6293 -1.0248
 4428TIP3   OH213289   3.810   4.334   3.773 -0.3086 -0.1975 -0.4359
 4428TIP3    H113290   3.758   4.294   3.703  1.9672 -0.5683 -2.0325
 4428TIP3    H213291   3.755   4.405   3.807 -1.7116 -0.3638 -2.2259
 4429TIP3   OH213292   2.169   4.593   1.599  0.1449  0.6395  0.7350
 4429TIP3    H113293   2.242   4.647   1.631 -0.7675  2.1609  0.3414
 4429TIP3    H213294   2.097   4.654   1.589 -1.1224 -0.7885  0.8278
 4430TIP3   OH213295   0.211   2.960   3.119  0.0447  0.2155 -0.1804
 4430TIP3    H113296   0.293   2.942   3.075  0.3402  0.6174  0.1986
 4430TIP3    H213297   0.189   2.879   3.165  1.0142  0.5720  0.9618
 4431TIP3   OH213298   4.272   1.906   3.822 -0.2498 -0.1337 -0.0742
 4431TIP3    H113299   4.365   1.919   3.841 -0.1007 -1.7278  0.4214
 4431TIP3    H213300   4.262   1.934   3.731  1.1319 -1.6733 -0.7570
 4432TIP3   OH213301   0.991   1.404   1.926  0.6438 -0.2714  0.5193
 4432TIP3    H113302   0.961   1.483   1.881 -1.1585 -0.6905  0.9156
 4432TIP3    H213303   1.085   1.400   1.907  0.4270  0.9623 -1.0343
 4433TIP3   OH213304   1.515   3.137   1.580 -0.8436  0.4062 -0.2842
 4433TIP3    H113305   1.591   3.193   1.567 -0.9711  0.5502 -0.4089
 4433TIP3    H213306   1.459   3.155   1.504 -0.0486 -1.2346 -1.3216
 4434TIP3   OH213307   4.796   4.679   5.146  0.0018  0.3244 -0.5344
 4434TIP3    H113308   4.858   4.619   5.188  0.8518  0.6562 -1.2867
 4434TIP3    H213309   4.849   4.730   5.085 -0.8215  1.3852 -0.4042
 4435TIP3   OH213310   4.700   3.072   1.112  0.0745 -0.0413  1.0479
 4435TIP3    H113311   4.780   3.078   1.164  0.0461  0.3348  1.0495
 4435TIP3    H213312   4.681   3.162   1.087  0.4619 -0.2912 -0.1939
 4436TIP3   OH213313   3.127   3.085   2.012 -1.2138 -0.1295  0.4387
 4436TIP3    H113314   3.112   3.076   1.918 -0.0395 -3.0994  0.4296
 4436TIP3    H213315   3.197   3.022   2.032  0.0970  1.9082  2.9852
 4437TIP3   OH213316   3.484   1.779   0.372  0.1237  0.3571  0.5053
 4437TIP3    H113317   3.502   1.868   0.342  0.8867  0.4250  1.1386
 4437TIP3    H213318   3.399   1.785   0.414 -0.1356  0.6414 -0.0497
 4438TIP3   OH213319   5.471   3.932   3.919  0.4253 -0.1485  0.1099
 4438TIP3    H113320   5.476   4.016   3.874 -0.0036  0.4783  1.2020
 4438TIP3    H213321   5.423   3.950   4.000  2.0662 -1.0173  1.3376
 4439TIP3   OH213322   6.136   0.065   1.413 -0.1703 -0.8146  0.4701
 4439TIP3    H113323   6.128   0.153   1.377  0.5150 -1.3491 -1.1005
 4439TIP3    H213324   6.064   0.057   1.475  0.3824  1.2070  1.4732
 4440TIP3   OH213325   1.609   2.475   0.312 -0.0690  0.6788  0.8841
 4440TIP3    H113326   1.516   2.452   0.321 -0.3131  0.4437 -1.6970
 4440TIP3    H213327   1.628   2.464   0.219  2.4649  1.1334  1.2790
 4441TIP3   OH213328   5.111   5.085   2.672 -0.1978  0.4679  0.3361
 4441TIP3    H113329   5.126   5.094   2.766  0.7800 -1.0323  0.3560
 4441TIP3    H213330   5.171   5.148   2.632 -0.2888  0.7849  0.6930
 4442TIP3   OH213331   5.466   2.218   3.649 -0.4060  0.3143 -0.0771
 4442TIP3    H113332   5.483   2.232   3.556  0.5310 -1.5681 -0.2434
 4442TIP3    H213333   5.393   2.155   3.651 -0.0494 -0.0894  0.4459
 4443TIP3   OH213334   1.583   5.407   0.800 -0.1558 -0.0455 -0.4136
 4443TIP3    H113335   1.626   5.384   0.882  0.3645  0.1022 -0.6360
 4443TIP3    H213336   1.567   5.324   0.756 -0.6420 -0.1389 -0.0643
 4444TIP3   OH213337   2.697   1.442   2.728  0.1867  0.0630 -0.1062
 4444TIP3    H113338   2.696   1.347   2.719 -1.2990  0.1218 -0.8292
 4444TIP3    H213339   2.718   1.457   2.820 -0.3468 -0.9817  0.1963
 4445TIP3   OH213340   2.580   3.590   3.540 -0.9625  0.1640 -0.2761
 4445TIP3    H113341   2.655   3.585   3.599 -0.1724 -0.6808 -1.3159
 4445TIP3    H213342   2.528   3.512   3.560 -1.1675  0.3416 -0.1010
 4446TIP3   OH213343   3.378   0.603   2.282  0.0517  0.2341 -0.7088
 4446TIP3    H113344   3.473   0.614   2.288 -0.0368  1.0604 -0.6408
 4446TIP3    H213345   3.344   0.693   2.279 -0.7840 -0.0407  0.1673
 4447TIP3   OH213346   3.494   0.266   2.219 -0.8489 -0.4594 -0.1782
 4447TIP3    H113347   3.429   0.249   2.287  0.5135 -1.4176  0.9283
 4447TIP3    H213348   3.467   0.211   2.146 -0.5606 -1.9156  0.7664
 4448TIP3   OH213349   1.114   0.425   1.710 -0.1324 -0.1810  0.0213
 4448TIP3    H113350   1.137   0.508   1.668 -1.1230  0.4350  0.6446
 4448TIP3    H213351   1.121   0.443   1.804 -0.1018 -0.8857  0.1598
 4449TIP3   OH213352   5.514   2.364   2.422  0.2438  0.0155  0.0164
 4449TIP3    H113353   5.462   2.380   2.343 -2.0860 -1.8772  1.0036
 4449TIP3    H213354   5.461   2.401   2.493 -0.6223 -3.1369  1.2078
 4450TIP3   OH213355   5.905   5.505   0.928  0.4350 -0.2925  0.0671
 4450TIP3    H113356   5.984   5.509   0.873  1.3183 -0.6296  1.2644
 4450TIP3    H213357   5.892   5.412   0.945  0.1883 -0.1910  0.4447
 4451TIP3   OH213358   1.332   0.936   3.809 -0.8544 -0.3056  0.6555
 4451TIP3    H113359   1.299   1.025   3.794 -1.0698 -0.6703 -1.3791
 4451TIP3    H213360   1.421   0.949   3.843 -0.3634  0.7509 -0.8750
 4452TIP3   OH213361   4.214   0.515   3.093 -0.3642 -0.0428  0.4462
 4452TIP3    H113362   4.301   0.493   3.126 -0.4839  1.7997  2.1897
 4452TIP3    H213363   4.165   0.433   3.098  0.6931 -0.6519  1.3912
 4453TIP3   OH213364   6.206   2.354   4.134 -0.2034 -0.5108 -0.0910
 4453TIP3    H113365   6.196   2.286   4.068  0.5371 -0.1501 -0.5843
 4453TIP3    H213366   6.123   2.400   4.134 -1.2654 -2.2838  1.2675
 4454TIP3   OH213367   1.007   0.158   4.676  0.7631 -0.3580  0.6370
 4454TIP3    H113368   1.086   0.152   4.731  0.5391  0.0755  1.0147
 4454TIP3    H213369   1.008   0.248   4.642  2.0532 -1.2168 -1.8555
 4455TIP3   OH213370   2.008   3.763   3.671  0.1654 -0.0930  0.4134
 4455TIP3    H113371   1.929   3.732   3.627  0.4141  0.3626 -0.3762
 4455TIP3    H213372   2.025   3.849   3.632  1.4121 -0.4693  0.0835
 4456TIP3   OH213373   6.275   1.684   4.560  0.0500 -0.0860 -0.2146
 4456TIP3    H113374   6.369   1.671   4.549  0.8636  3.6867  0.6401
 4456TIP3    H213375   6.268   1.759   4.619 -3.5653 -0.8592  0.6328
 4457TIP3   OH213376   1.776   2.816   5.049 -0.2075  0.7966 -0.5202
 4457TIP3    H113377   1.785   2.783   5.138 -2.1321  2.0287  0.2098
 4457TIP3    H213378   1.793   2.741   4.992 -0.4213 -0.3862  0.9398
 4458TIP3   OH213379   1.742   1.430   1.240 -0.0954 -0.2172 -0.2819
 4458TIP3    H113380   1.794   1.401   1.314 -2.0853  0.1784  1.3782
 4458TIP3    H213381   1.754   1.525   1.237 -1.1885 -0.0318  0.5478
 4459TIP3   OH213382   0.979   5.190   0.245  0.4713 -0.1473  0.3451
 4459TIP3    H113383   0.972   5.285   0.235 -0.4754 -0.1539  0.7830
 4459TIP3    H213384   1.062   5.177   0.290 -0.5363  0.6912  2.5966
 4460TIP3   OH213385   3.462   0.282   2.564 -0.0199  0.4116 -0.2935
 4460TIP3    H113386   3.523   0.215   2.595  0.9060  0.8204 -1.1787
 4460TIP3    H213387   3.386   0.233   2.533  0.8088 -0.2642 -1.2917
 4461TIP3   OH213388   1.081   2.047   2.724  0.1286 -1.0668  0.5870
 4461TIP3    H113389   1.029   2.004   2.792  2.0815 -2.7122  1.1425
 4461TIP3    H213390   1.136   2.109   2.771 -0.1467 -0.5328  0.2149
 4462TIP3   OH213391   0.102   3.591   0.053  0.0933 -0.2129 -0.0267
 4462TIP3    H113392   0.192   3.621   0.061  0.0195 -0.0368  0.1925
 4462TIP3    H213393   0.108   3.502   0.019  0.3328 -0.0680 -0.3617
 4463TIP3   OH213394   4.850   2.989   4.693  0.6420 -0.5495 -0.1913
 4463TIP3    H113395   4.907   2.979   4.769  1.2845  0.8291 -0.4688
 4463TIP3    H213396   4.897   2.944   4.622  1.5660  0.8145 -0.4867
 4464TIP3   OH213397   2.789   1.634   4.339 -0.1570 -0.1514  0.3388
 4464TIP3    H113398   2.717   1.571   4.340 -0.1170 -0.1980  1.1569
 4464TIP3    H213399   2.857   1.591   4.287 -0.7538 -0.0526 -0.5409
 4465TIP3   OH213400   3.260   0.737   4.801 -0.5186  0.7486  0.1997
 4465TIP3    H113401   3.307   0.783   4.731  3.2644 -1.2289  1.1385
 4465TIP3    H213402   3.197   0.682   4.754 -0.3192  1.8092 -1.4044
 4466TIP3   OH213403   2.913   3.005   0.287 -0.4045 -0.1066  0.3708
 4466TIP3    H113404   2.978   2.961   0.232 -0.3775  0.0412  0.2821
 4466TIP3    H213405   2.835   2.950   0.281 -0.3594 -0.1620  0.2901
 4467TIP3   OH213406   5.532   1.709   1.092  0.4257 -0.2640 -0.5436
 4467TIP3    H113407   5.564   1.654   1.163  0.1562 -0.6303 -0.7056
 4467TIP3    H213408   5.585   1.685   1.017 -0.0395 -0.6805 -0.7455
 4468TIP3   OH213409   6.167   3.421   3.367  0.0936 -0.2189 -0.6908
 4468TIP3    H113410   6.226   3.415   3.291  0.9229  2.1710 -0.3359
 4468TIP3    H213411   6.154   3.516   3.379 -0.2931 -0.5355  1.9383
 4469TIP3   OH213412   4.916   0.128   1.868  0.0364 -0.8522 -0.2991
 4469TIP3    H113413   4.909   0.032   1.869  0.3238 -0.8869 -1.1743
 4469TIP3    H213414   5.000   0.146   1.828 -0.5115 -0.2176 -1.2106
 4470TIP3   OH213415   1.829   3.738   0.764  0.0124 -0.0571  0.1543
 4470TIP3    H113416   1.872   3.730   0.849  2.7481 -2.7217 -1.3092
 4470TIP3    H213417   1.884   3.799   0.715 -0.2975 -0.2066 -0.3896
 4471TIP3   OH213418   3.469   4.768   2.789 -0.0809  0.4785  0.4594
 4471TIP3    H113419   3.528   4.721   2.730 -1.5033 -0.6657 -0.1094
 4471TIP3    H213420   3.401   4.804   2.732  0.3071  2.2561  1.0338
 4472TIP3   OH213421   5.282   2.315   3.164 -0.3320  0.0872  0.2597
 4472TIP3    H113422   5.335   2.382   3.207  1.6648 -0.8597 -0.6296
 4472TIP3    H213423   5.265   2.250   3.233  1.9758 -0.9100 -0.0391
 4473TIP3   OH213424   1.557   4.637   3.623 -0.1192 -0.4602  0.0587
 4473TIP3    H113425   1.565   4.619   3.717 -1.6440 -1.0148  0.1222
 4473TIP3    H213426   1.533   4.552   3.585 -1.7407  0.2085 -0.4898
 4474TIP3   OH213427   4.350   1.709   2.608 -0.1663  0.0467  0.3549
 4474TIP3    H113428   4.346   1.803   2.591  1.6788 -0.0621 -0.9206
 4474TIP3    H213429   4.286   1.671   2.548 -0.8127  0.4550  0.7715
 4475TIP3   OH213430   1.927   3.456   5.012 -0.7293 -0.7365  0.0381
 4475TIP3    H113431   1.916   3.429   5.103  1.2199  0.2291  0.6290
 4475TIP3    H213432   1.942   3.375   4.964 -1.4521 -1.2213  0.6177
 4476TIP3   OH213433   2.558   0.740   0.177  0.9098  0.1278  0.2626
 4476TIP3    H113434   2.495   0.715   0.245  0.5806 -1.2376 -0.5285
 4476TIP3    H213435   2.505   0.750   0.098  1.2161  2.2009  0.2611
 4477TIP3   OH213436   4.070   5.344   4.177  0.1346  0.0341 -0.2444
 4477TIP3    H113437   4.014   5.408   4.222 -2.0871 -0.9997 -1.3653
 4477TIP3    H213438   4.106   5.392   4.102  0.9429  0.7677  0.5965
 4478TIP3   OH213439   2.342   1.299   2.020  0.1005 -0.6178  0.2209
 4478TIP3    H113440   2.328   1.328   2.110 -0.5252  0.8806 -0.3186
 4478TIP3    H213441   2.254   1.277   1.989 -0.1023  1.4776 -0.8325
 4479TIP3   OH213442   0.087   2.795   2.208 -0.1077  0.2856 -0.9165
 4479TIP3    H113443   0.182   2.787   2.199  0.0500  1.3818 -0.4026
 4479TIP3    H213444   0.051   2.737   2.141  0.8997 -1.1681 -0.2543
 4480TIP3   OH213445   3.127   0.287   4.889  0.3286  0.9856  0.3210
 4480TIP3    H113446   3.055   0.257   4.832 -0.3700 -0.2512  1.7662
 4480TIP3    H213447   3.196   0.223   4.874  0.9447  1.8530 -0.6470
 4481TIP3   OH213448   3.063   1.564   5.060  0.4260 -0.4699  0.2732
 4481TIP3    H113449   3.094   1.527   4.977 -1.2385  1.6242 -1.3648
 4481TIP3    H213450   3.110   1.647   5.068 -0.7063  0.1614  0.5141
 4482TIP3   OH213451   2.372   3.677   3.385  0.0510 -0.2058 -0.3072
 4482TIP3    H113452   2.405   3.629   3.309  1.3331  1.6085 -0.9452
 4482TIP3    H213453   2.430   3.651   3.456 -0.5563 -1.1677 -0.1446
 4483TIP3   OH213454   4.642   2.909   4.839 -0.5171  0.2698 -0.0484
 4483TIP3    H113455   4.677   2.914   4.750 -2.3130 -1.4363 -0.9113
 4483TIP3    H213456   4.660   2.819   4.867 -1.3559  0.3163  0.6988
 4484TIP3   OH213457   0.627   5.780   3.105 -0.0844 -0.4011  0.4656
 4484TIP3    H113458   0.651   5.691   3.131  1.3521 -0.0621  0.3834
 4484TIP3    H213459   0.589   5.771   3.018 -0.0452 -0.9455  0.5032
 4485TIP3   OH213460   4.032   5.657   5.184 -0.6188  0.1189  0.0235
 4485TIP3    H113461   4.049   5.733   5.239  2.1561 -0.9498  0.8648
 4485TIP3    H213462   4.108   5.652   5.126 -2.2051 -0.3102 -2.1412
 4486TIP3   OH213463   6.115   4.432   2.736 -0.3693 -0.2164  0.3357
 4486TIP3    H113464   6.100   4.498   2.668  1.7184  1.0048  0.9726
 4486TIP3    H213465   6.185   4.376   2.700 -1.4634 -1.5444  0.1978
 4487TIP3   OH213466   0.530   0.993   1.110  0.3389 -0.7323 -0.0801
 4487TIP3    H113467   0.438   0.966   1.112 -0.1435  0.8379  0.5328
 4487TIP3    H213468   0.530   1.076   1.063  1.6098 -1.1890 -0.9606
 4488TIP3   OH213469   4.564   5.933   4.647 -0.2661 -0.1247  0.7245
 4488TIP3    H113470   4.583   6.025   4.666 -0.1495 -0.1692  0.8286
 4488TIP3    H213471   4.511   5.936   4.568  1.3500 -0.0484 -0.4059
 4489TIP3   OH213472   0.269   0.716   5.045 -0.3127  0.1682 -0.0586
 4489TIP3    H113473   0.361   0.711   5.019 -0.2538 -1.5276  0.3484
 4489TIP3    H213474   0.220   0.694   4.965 -0.5322  3.2339 -0.9006
 4490TIP3   OH213475   4.230   4.744   4.276 -0.2089  0.4568  0.2232
 4490TIP3    H113476   4.279   4.709   4.202 -1.4404 -2.7354  0.7344
 4490TIP3    H213477   4.148   4.777   4.239  0.0138  0.7318 -0.0259
 4491TIP3   OH213478   4.787   0.383   4.656  0.3023 -0.2971  0.3483
 4491TIP3    H113479   4.696   0.356   4.645 -0.2392  1.9063 -1.2765
 4491TIP3    H213480   4.829   0.362   4.573 -0.0076  3.0048 -0.7741
 4492TIP3   OH213481   1.102   2.182   4.022  0.1198 -0.5764  0.6226
 4492TIP3    H113482   1.056   2.100   4.036  1.2908 -1.5168 -0.8398
 4492TIP3    H213483   1.152   2.195   4.103 -1.3095 -0.4195  1.5192
 4493TIP3   OH213484   4.844   3.875   2.283 -0.2506 -0.4454  0.0701
 4493TIP3    H113485   4.922   3.873   2.229 -0.4934  1.7059 -0.4222
 4493TIP3    H213486   4.877   3.879   2.373  0.1755 -0.9590 -0.0583
 4494TIP3   OH213487   1.361   1.985   3.553  0.3288 -0.0193  0.0187
 4494TIP3    H113488   1.418   1.965   3.627 -1.9446 -1.1193  1.5712
 4494TIP3    H213489   1.383   1.920   3.487  2.1094  0.7216 -0.1605
 4495TIP3   OH213490   2.935   0.201   3.272  0.0956 -0.2617 -0.3431
 4495TIP3    H113491   2.860   0.258   3.293  0.2285 -0.1599 -0.1404
 4495TIP3    H213492   2.897   0.114   3.264 -0.1271 -0.1291 -0.7655
 4496TIP3   OH213493   0.189   4.131   1.821 -0.5922  0.0693 -0.4850
 4496TIP3    H113494   0.226   4.161   1.737  0.6597  0.4105  0.1613
 4496TIP3    H213495   0.162   4.041   1.804 -1.4422  0.4954 -1.5710
 4497TIP3   OH213496   3.583   1.832   4.630 -0.1991  0.0144 -0.2188
 4497TIP3    H113497   3.632   1.826   4.712  0.5909 -1.6139 -0.7696
 4497TIP3    H213498   3.640   1.882   4.572 -0.2639  0.1945 -0.1291
 4498TIP3   OH213499   3.125   1.118   2.774 -0.4569  0.3802  0.2808
 4498TIP3    H113500   3.130   1.208   2.744 -3.9553  0.5666 -0.1747
 4498TIP3    H213501   3.143   1.123   2.868 -0.2658  1.4803  0.1989
 4499TIP3   OH213502   6.266   3.989   2.497 -0.5201  0.4368 -0.0242
 4499TIP3    H113503   6.213   3.909   2.490  1.8848 -1.1909 -0.6121
 4499TIP3    H213504   6.304   4.000   2.411  0.4878  1.2883  0.5108
 4500TIP3   OH213505   5.007   4.019   3.700  0.0898 -0.6911 -0.6282
 4500TIP3    H113506   4.974   3.935   3.732  1.5069 -1.2353 -0.5075
 4500TIP3    H213507   5.069   3.995   3.631  1.2860  0.1935  0.1079
 4501TIP3   OH213508   1.924   4.906   3.489  0.2593 -0.2211 -0.0845
 4501TIP3    H113509   1.895   4.983   3.537  2.7417 -0.2263  1.6370
 4501TIP3    H213510   1.888   4.832   3.538  0.9940 -0.1794  0.5474
 4502TIP3   OH213511   0.879   1.630   0.617 -0.2585 -0.0130 -0.2484
 4502TIP3    H113512   0.900   1.604   0.527 -1.5945  0.4250 -0.7108
 4502TIP3    H213513   0.896   1.725   0.619 -1.1243  0.1491 -0.3227
 4503TIP3   OH213514   6.194   0.263   5.101  0.4158  0.3534  0.0221
 4503TIP3    H113515   6.188   0.171   5.076  0.2833  0.5056 -0.5208
 4503TIP3    H213516   6.103   0.292   5.108  0.4527  0.3431  0.5753
 4504TIP3   OH213517   3.193   4.014   1.344  0.3016  1.1471 -0.0962
 4504TIP3    H113518   3.125   3.974   1.396  1.4029 -0.2946  0.3035
 4504TIP3    H213519   3.165   4.002   1.253 -0.3688  1.3510  0.0801
 4505TIP3   OH213520   6.099   4.378   1.125 -0.5312 -0.2691  0.2820
 4505TIP3    H113521   6.080   4.410   1.214  1.5984  1.6045  0.1627
 4505TIP3    H213522   6.139   4.453   1.081  1.0400 -1.9724 -1.3813
 4506TIP3   OH213523   3.586   2.044   3.738 -0.1494  0.5150  0.6283
 4506TIP3    H113524   3.602   1.979   3.669 -0.1501 -1.2008  2.1751
 4506TIP3    H213525   3.510   2.093   3.706 -0.2279 -0.3089 -0.5398
 4507TIP3   OH213526   0.643   0.423   2.992 -0.0646  0.1325  0.4567
 4507TIP3    H113527   0.599   0.416   2.907  1.3646 -1.2748 -0.2050
 4507TIP3    H213528   0.571   0.433   3.055 -1.4515 -2.5195 -0.5328
 4508TIP3   OH213529   2.704   0.594   2.575  0.2250 -0.1322  0.1288
 4508TIP3    H113530   2.748   0.521   2.619  1.3464  0.6403  0.3175
 4508TIP3    H213531   2.615   0.592   2.611  0.9287  0.0947  2.0257
 4509TIP3   OH213532   4.556   5.503   3.311 -0.1183  0.1314  0.4890
 4509TIP3    H113533   4.608   5.582   3.292 -0.1431  0.0911  0.2402
 4509TIP3    H213534   4.575   5.444   3.237 -0.7181  0.2164  0.2608
 4510TIP3   OH213535   2.183   2.912   0.392  0.0506  0.2472 -0.9151
 4510TIP3    H113536   2.250   2.937   0.456 -1.4451 -2.8282  2.1591
 4510TIP3    H213537   2.106   2.964   0.416 -0.8110 -1.6105  0.5882
 4511TIP3   OH213538   3.056   4.399   0.942  0.4214 -0.2135  0.4547
 4511TIP3    H113539   3.084   4.442   1.023  0.9362 -0.7000  0.5350
 4511TIP3    H213540   2.966   4.371   0.960 -0.3507  1.7840  0.0264
 4512TIP3   OH213541   4.619   2.713   1.536  0.2044  0.0259 -0.3377
 4512TIP3    H113542   4.542   2.662   1.561 -0.4846  0.7919 -0.8487
 4512TIP3    H213543   4.664   2.659   1.471 -1.0748  0.4782 -1.6554
 4513TIP3   OH213544   6.189   2.801   2.728 -0.1098 -0.0576 -0.0569
 4513TIP3    H113545   6.170   2.722   2.677  3.9478 -0.6007 -1.0861
 4513TIP3    H213546   6.203   2.869   2.662  1.0858  0.2970  0.5399
 4514TIP3   OH213547   3.403   1.438   1.978 -0.2389 -0.4888  0.1469
 4514TIP3    H113548   3.427   1.354   2.017 -1.0657 -0.6926  0.2291
 4514TIP3    H213549   3.308   1.439   1.978 -0.2540  0.7619  0.8118
 4515TIP3   OH213550   6.308   2.421   0.203  0.2624 -0.4915 -0.1542
 4515TIP3    H113551   6.218   2.401   0.230  0.8947 -0.5529  2.1306
 4515TIP3    H213552   6.302   2.436   0.109 -2.2959  0.3707  0.0607
 4516TIP3   OH213553   4.976   2.853   4.349 -0.4435  0.2481 -0.2033
 4516TIP3    H113554   5.065   2.828   4.374 -0.2209  0.2621 -0.9542
 4516TIP3    H213555   4.929   2.770   4.343 -0.6451  0.2769  0.7530
 4517TIP3   OH213556   5.071   0.149   0.783 -0.3200  0.0863 -0.3208
 4517TIP3    H113557   4.986   0.174   0.748  0.8536  1.9662 -2.0065
 4517TIP3    H213558   5.067   0.173   0.876 -1.6171  0.1304 -0.3772
 4518TIP3   OH213559   1.231   5.344   4.346  0.9690  0.1594  0.8823
 4518TIP3    H113560   1.263   5.425   4.385  0.8329 -0.1098  1.5587
 4518TIP3    H213561   1.141   5.363   4.321  1.2857  0.5723 -0.0277
 4519TIP3   OH213562   0.796   3.287   2.298 -0.4419 -0.0404  0.6369
 4519TIP3    H113563   0.855   3.356   2.327 -0.5457  1.5680 -2.5348
 4519TIP3    H213564   0.847   3.235   2.236 -1.6311 -0.0390 -0.3927
 4520TIP3   OH213565   5.037   4.618   2.144  0.1434  0.5510  0.4705
 4520TIP3    H113566   4.975   4.612   2.217  0.5997  1.8390  0.9950
 4520TIP3    H213567   5.052   4.712   2.133  2.0437  0.2839  0.4019
 4521TIP3   OH213568   5.559   4.004   1.745  0.3906 -0.3760 -0.1429
 4521TIP3    H113569   5.470   4.008   1.780 -0.9684 -2.3436 -2.9365
 4521TIP3    H213570   5.553   4.045   1.659  2.5630  0.6087  0.1115
 4522TIP3   OH213571   4.720   4.870   2.011 -1.1679 -0.2026  0.4901
 4522TIP3    H113572   4.743   4.957   2.042 -0.5398 -0.1440 -0.1231
 4522TIP3    H213573   4.664   4.886   1.935 -0.0792 -0.3072 -0.3598
 4523TIP3   OH213574   0.613   0.518   4.066  0.1148 -0.2446  0.1727
 4523TIP3    H113575   0.707   0.507   4.053  0.1610  1.0172 -0.8434
 4523TIP3    H213576   0.604   0.608   4.099 -0.6487 -0.7809  1.4918
 4524TIP3   OH213577   3.198   1.165   3.047  0.3030 -0.1847 -0.0854
 4524TIP3    H113578   3.283   1.128   3.072 -0.4071 -1.4060  0.6140
 4524TIP3    H213579   3.184   1.237   3.108 -1.7772 -3.5933  4.0249
 4525TIP3   OH213580   4.720   3.857   3.503  0.4106 -0.3807 -0.2464
 4525TIP3    H113581   4.798   3.868   3.449  0.6517  0.1489  0.2046
 4525TIP3    H213582   4.707   3.762   3.507  1.6458 -0.5404  0.5290
 4526TIP3   OH213583   5.893   3.451   2.929 -0.0417  0.0175  0.4963
 4526TIP3    H113584   5.910   3.422   3.019 -2.0612  0.2773  0.9966
 4526TIP3    H213585   5.962   3.514   2.911  1.3506 -1.2210  1.2608
 4527TIP3   OH213586   3.114   3.592   3.903  1.0103 -0.4992  0.2543
 4527TIP3    H113587   3.163   3.668   3.934  0.6202 -0.0006 -0.3562
 4527TIP3    H213588   3.032   3.594   3.951  1.2941 -0.9679  0.7878
 4528TIP3   OH213589   2.642   1.599   0.917  0.2256  0.2801 -0.1873
 4528TIP3    H113590   2.606   1.638   0.836  2.0219  1.0877 -0.6527
 4528TIP3    H213591   2.726   1.561   0.890  1.2948  1.3424  1.4374
 4529TIP3   OH213592   1.088   2.081   3.474 -0.0235  0.3360  0.1225
 4529TIP3    H113593   1.178   2.065   3.503  0.2758  0.2479 -0.8109
 4529TIP3    H213594   1.038   2.007   3.510  0.5624 -0.4276 -0.5941
 4530TIP3   OH213595   0.834   1.632   2.573 -0.1476  0.3583  0.4411
 4530TIP3    H113596   0.911   1.581   2.550 -0.1197  0.9164 -0.7691
 4530TIP3    H213597   0.816   1.609   2.664  1.3481  0.0934  0.6932
 4531TIP3   OH213598   0.993   2.481   5.177  0.3126  0.3869  0.2097
 4531TIP3    H113599   0.934   2.497   5.103 -0.8391 -0.6534  0.8670
 4531TIP3    H213600   0.960   2.537   5.247  0.4371  0.2223  0.4019
 4532TIP3   OH213601   0.554   0.431   3.713  0.2226  0.2764 -0.0333
 4532TIP3    H113602   0.522   0.380   3.638 -0.2925 -0.9808  0.9973
 4532TIP3    H213603   0.476   0.447   3.765  0.5201  1.4614  0.0634
 4533TIP3   OH213604   2.300   4.787   2.300 -0.1957 -0.1407 -0.8972
 4533TIP3    H113605   2.245   4.859   2.271 -1.3955 -0.1483  1.1110
 4533TIP3    H213606   2.362   4.827   2.361  1.1749 -0.3614 -2.0859
 4534TIP3   OH213607   1.913   3.203   3.418 -0.0516 -0.5384 -0.3304
 4534TIP3    H113608   1.936   3.289   3.380  1.4710 -2.2319 -3.6847
 4534TIP3    H213609   1.840   3.172   3.364  1.6790 -2.7350 -1.5637
 4535TIP3   OH213610   3.432   1.177   2.052 -0.2825 -0.4287 -0.4468
 4535TIP3    H113611   3.353   1.147   2.006 -0.6677  0.5976 -0.4777
 4535TIP3    H213612   3.413   1.162   2.144 -0.2986 -0.6771 -0.4903
 4536TIP3   OH213613   1.043   3.824   1.932  0.0715  0.1697  0.4342
 4536TIP3    H113614   1.112   3.851   1.871  1.7692 -2.4651  1.0303
 4536TIP3    H213615   1.019   3.736   1.905 -1.6962  0.2746  1.4666
 4537TIP3   OH213616   0.472   0.344   5.181 -0.2738  0.3702  0.4358
 4537TIP3    H113617   0.432   0.428   5.204  0.7676  1.4811 -1.5036
 4537TIP3    H213618   0.527   0.364   5.105 -1.3184 -2.3848 -1.2216
 4538TIP3   OH213619   0.546   2.236   0.081  0.0840 -0.0925  0.2828
 4538TIP3    H113620   0.472   2.257   0.023 -0.2436  3.4919  1.7631
 4538TIP3    H213621   0.505   2.208   0.163  0.5232 -2.3744 -0.2095
 4539TIP3   OH213622   1.548   4.395   2.098  0.5158  0.5380  0.1340
 4539TIP3    H113623   1.543   4.360   2.009 -1.6544  0.5038  0.2274
 4539TIP3    H213624   1.638   4.376   2.126  0.9977 -0.1527 -1.7508
 4540TIP3   OH213625   1.033   0.176   1.461  0.5540  0.2004 -0.0069
 4540TIP3    H113626   1.009   0.093   1.420  0.2489 -0.1224  0.7967
 4540TIP3    H213627   0.967   0.190   1.529  0.4449  1.2470 -0.3137
 4541TIP3   OH213628   4.472   4.511   3.820 -0.0845  0.1956 -0.2510
 4541TIP3    H113629   4.397   4.505   3.880  0.4116 -0.5295  0.3070
 4541TIP3    H213630   4.432   4.527   3.734 -0.9436 -0.9827 -0.0975
 4542TIP3   OH213631   1.833   1.484   2.382 -0.0948 -0.1560 -0.7824
 4542TIP3    H113632   1.882   1.543   2.325 -0.5396  0.0461 -0.9614
 4542TIP3    H213633   1.855   1.396   2.351  1.6964 -0.1779  0.3828
 4543TIP3   OH213634   3.103   4.965   4.547  0.0871 -0.4363  0.6216
 4543TIP3    H113635   3.104   4.924   4.461 -0.1055  0.5958  0.1073
 4543TIP3    H213636   3.024   4.932   4.589 -0.0095 -0.6641  0.2591
 4544TIP3   OH213637   2.164   1.414   4.197  0.0991 -0.4074  0.0170
 4544TIP3    H113638   2.204   1.363   4.127 -2.1858 -0.4111 -1.3772
 4544TIP3    H213639   2.181   1.505   4.172  0.2867 -0.4183  0.0995
 4545TIP3   OH213640   4.481   2.830   2.319 -0.2556 -0.1539  0.1575
 4545TIP3    H113641   4.517   2.832   2.408 -0.2483 -1.0266  0.1809
 4545TIP3    H213642   4.552   2.859   2.263  0.0848 -0.6180  0.3379
 4546TIP3   OH213643   2.004   2.025   3.801  0.4639  0.4083 -0.6858
 4546TIP3    H113644   1.947   2.047   3.874  1.2282  0.3052 -0.0556
 4546TIP3    H213645   2.057   2.103   3.786 -0.4886  0.8614 -1.9106
 4547TIP3   OH213646   2.990   2.715   3.413 -0.3150 -0.2045  0.1982
 4547TIP3    H113647   2.924   2.705   3.482 -0.2156  0.1131  0.3429
 4547TIP3    H213648   3.049   2.783   3.446  0.7747 -1.3138  0.5897
 4548TIP3   OH213649   5.410   4.126   2.515  0.2779  0.2395  0.2904
 4548TIP3    H113650   5.422   4.138   2.421 -0.0627 -2.2900 -0.1497
 4548TIP3    H213651   5.363   4.043   2.522  0.7289  0.1293  2.7152
 4549TIP3   OH213652   3.596   5.440   4.909 -0.7160  0.1856 -0.4322
 4549TIP3    H113653   3.653   5.428   4.985 -1.5996  0.7354  0.3395
 4549TIP3    H213654   3.528   5.373   4.920 -0.1414 -0.5918 -1.4435
 4550TIP3   OH213655   4.126   3.553   3.703  0.6363  0.1059 -0.4646
 4550TIP3    H113656   4.150   3.523   3.615 -1.1303 -3.2190  0.0152
 4550TIP3    H213657   4.185   3.506   3.762 -1.3834 -1.6692  0.2751
 4551TIP3   OH213658   6.070   0.569   0.925  0.3615 -0.3326 -0.3222
 4551TIP3    H113659   5.989   0.620   0.917  0.7947  0.0936 -2.5911
 4551TIP3    H213660   6.044   0.480   0.905  0.0018 -0.6920  1.5710
 4552TIP3   OH213661   0.731   4.179   3.809 -0.1245  0.2735 -0.1148
 4552TIP3    H113662   0.700   4.266   3.784  0.8893  0.1373 -2.0021
 4552TIP3    H213663   0.816   4.194   3.850 -0.7385  0.2760  1.2483
 4553TIP3   OH213664   5.749   1.846   0.158 -0.3514  0.5170 -0.2981
 4553TIP3    H113665   5.791   1.862   0.073 -0.2124 -0.5012 -0.4353
 4553TIP3    H213666   5.708   1.760   0.148  0.9919 -0.3506  1.1444
 4554TIP3   OH213667   5.032   2.563   4.355 -0.1976  0.3635 -0.1520
 4554TIP3    H113668   5.124   2.588   4.361 -0.4969  1.6843 -0.6938
 4554TIP3    H213669   5.033   2.467   4.355  1.0936  0.3440  0.8888
 4555TIP3   OH213670   2.505   2.102   0.346 -0.3005  0.2494 -0.1533
 4555TIP3    H113671   2.430   2.144   0.305  0.8319  1.6036 -0.9092
 4555TIP3    H213672   2.558   2.070   0.273 -0.3173 -1.0517  0.3774
 4556TIP3   OH213673   0.295   0.801   1.082 -0.1041 -0.3301  0.2619
 4556TIP3    H113674   0.275   0.733   1.017 -2.0868 -1.1077  1.5696
 4556TIP3    H213675   0.224   0.864   1.073  1.2006  1.1382 -0.2688
 4557TIP3   OH213676   3.370   2.236   0.059 -0.8065 -0.0282  0.1430
 4557TIP3    H113677   3.377   2.149   0.098  0.3877  0.4204  0.9830
 4557TIP3    H213678   3.385   2.221  -0.035 -1.7597 -0.8532  0.1021
 4558TIP3   OH213679   3.488   2.121   0.861 -0.4945 -0.4451  0.4967
 4558TIP3    H113680   3.546   2.075   0.801 -1.4477 -1.6871  0.4944
 4558TIP3    H213681   3.482   2.064   0.938 -0.5564  0.3702  1.1229
 4559TIP3   OH213682   3.471   4.129   0.276 -0.2638 -0.1224  0.4709
 4559TIP3    H113683   3.403   4.076   0.234 -0.2862 -0.3599  0.8061
 4559TIP3    H213684   3.435   4.152   0.361 -0.0201 -0.0476  0.5553
 4560TIP3   OH213685   3.984   3.348   2.112  0.4876  0.0402  0.1719
 4560TIP3    H113686   4.060   3.330   2.057  0.7259  0.1624  0.4555
 4560TIP3    H213687   4.009   3.317   2.199 -0.0137 -0.4664  0.1434
 4561TIP3   OH213688   3.020   5.697   0.135  0.2043  0.0613  0.3419
 4561TIP3    H113689   2.960   5.742   0.076  0.0682  0.1185  0.5227
 4561TIP3    H213690   3.059   5.767   0.187  1.7546  0.2187 -0.9618
 4562TIP3   OH213691   4.950   4.021   0.723  0.3728 -0.3397 -0.6942
 4562TIP3    H113692   4.958   3.930   0.696  0.5474 -1.0119  1.4978
 4562TIP3    H213693   4.859   4.044   0.704  0.1947 -1.1126 -0.8060
 4563TIP3   OH213694  -0.029   0.518   1.858  0.7908  0.3136  0.0612
 4563TIP3    H113695   0.003   0.566   1.782  1.4544 -0.7006 -0.3251
 4563TIP3    H213696   0.048   0.471   1.891 -0.4093 -3.3711 -1.7786
 4564TIP3   OH213697   2.215   3.835   4.686 -0.0917 -0.1624  0.0160
 4564TIP3    H113698   2.277   3.810   4.617  1.7079  2.7917  0.3718
 4564TIP3    H213699   2.141   3.873   4.639 -1.3817 -2.9338 -0.3782
 4565TIP3   OH213700   5.773   4.993   4.741  0.6693 -0.9695 -0.0888
 4565TIP3    H113701   5.731   4.912   4.713 -0.3819 -0.6984  0.6623
 4565TIP3    H213702   5.747   5.003   4.833  1.6024 -0.2878  0.1175
 4566TIP3   OH213703   0.774   5.152   5.104  0.3437  0.4201 -0.2965
 4566TIP3    H113704   0.866   5.161   5.132  0.8359  0.0861 -1.7137
 4566TIP3    H213705   0.779   5.150   5.009 -0.9918 -1.1849 -0.3709
 4567TIP3   OH213706   0.970   1.900   0.666  0.8773  0.1007  0.7694
 4567TIP3    H113707   1.002   1.909   0.756  2.1352  1.1911  0.2465
 4567TIP3    H213708   1.046   1.921   0.612  0.4585 -1.6461 -0.5745
 4568TIP3   OH213709   5.901   0.558   2.219  0.6762  0.5945  0.6718
 4568TIP3    H113710   5.888   0.489   2.154 -1.3883  0.7421  0.8538
 4568TIP3    H213711   5.878   0.639   2.173 -2.0079  0.5840  1.8252
 4569TIP3   OH213712   2.783   3.210   0.677  0.1372 -0.4353 -0.7739
 4569TIP3    H113713   2.821   3.297   0.662  0.0333 -0.1612  0.4109
 4569TIP3    H213714   2.697   3.228   0.716  0.0500 -1.0651 -0.6598
 4570TIP3   OH213715   0.242   1.543   2.059 -0.1958 -0.6710  0.3802
 4570TIP3    H113716   0.260   1.637   2.072  1.0280 -0.4269 -2.4524
 4570TIP3    H213717   0.292   1.501   2.129  0.7865  0.7089  0.5653
 4571TIP3   OH213718   2.400   3.400   3.929  0.0668  0.1266  0.3196
 4571TIP3    H113719   2.339   3.456   3.977  1.5065  0.4039  1.9222
 4571TIP3    H213720   2.458   3.364   3.996  1.8724  0.1450 -1.1421
 4572TIP3   OH213721   0.705   4.962   2.115 -0.1436 -0.0169  0.2798
 4572TIP3    H113722   0.755   4.917   2.182 -1.3809 -0.8736  0.6702
 4572TIP3    H213723   0.634   5.005   2.164  0.1276  1.0634 -0.2607
 4573TIP3   OH213724   4.991   4.816   2.948 -0.0021 -0.1527 -0.6695
 4573TIP3    H113725   4.982   4.782   3.037  3.8577  1.8103  0.6909
 4573TIP3    H213726   4.947   4.901   2.951  0.0135 -0.1435 -0.7130
 4574TIP3   OH213727   3.138   5.907   0.240 -0.0754  0.2744  0.2811
 4574TIP3    H113728   3.201   5.887   0.309  0.1745 -0.2235 -0.0845
 4574TIP3    H213729   3.117   6.000   0.252 -0.0536  0.1825  1.0358
 4575TIP3   OH213730   3.821   2.666   3.272 -0.1030 -0.5202 -0.3931
 4575TIP3    H113731   3.851   2.697   3.186  1.1527  0.9996  0.5466
 4575TIP3    H213732   3.756   2.732   3.299  1.2544  0.3664  0.8328
 4576TIP3   OH213733   3.793   0.359   2.560  0.8120 -0.1186 -0.0824
 4576TIP3    H113734   3.817   0.427   2.624  0.8189 -0.4543  0.2762
 4576TIP3    H213735   3.729   0.305   2.606  1.1864 -0.6561 -0.1928
 4577TIP3   OH213736   2.172   2.247   1.820 -0.5577 -0.1937 -0.2353
 4577TIP3    H113737   2.097   2.300   1.793 -0.4404  0.0568 -0.0761
 4577TIP3    H213738   2.248   2.300   1.798 -0.4316 -0.3973 -0.2868
 4578TIP3   OH213739   5.265   4.586   3.066  0.1572  0.2902 -0.0298
 4578TIP3    H113740   5.175   4.592   3.097  0.2668  1.4870  0.1256
 4578TIP3    H213741   5.259   4.537   2.984 -0.3473 -1.4357  0.9991
 4579TIP3   OH213742   6.108   3.929   1.936  0.6473 -0.0186  0.0309
 4579TIP3    H113743   6.043   3.994   1.961  1.2741  0.8102 -0.4427
 4579TIP3    H213744   6.126   3.881   2.017 -0.3182 -0.0605  0.2325
 4580TIP3   OH213745   5.399   0.440   0.507  0.5334  0.3910  0.3405
 4580TIP3    H113746   5.306   0.424   0.524  0.6914 -1.1778 -0.1175
 4580TIP3    H213747   5.401   0.518   0.451 -0.4534  0.8138  0.8706
 4581TIP3   OH213748   5.849   1.107   1.039  0.4529 -0.3650 -0.5877
 4581TIP3    H113749   5.862   1.012   1.034 -0.4844 -0.5809  0.5295
 4581TIP3    H213750   5.761   1.120   1.003 -0.1210 -0.1540  0.8281
 4582TIP3   OH213751   4.365   4.512   4.851 -0.5147 -0.6549  0.6343
 4582TIP3    H113752   4.374   4.577   4.781 -2.5138 -2.5703 -1.5991
 4582TIP3    H213753   4.452   4.473   4.860 -0.2239 -0.4361 -0.9194
 4583TIP3   OH213754   3.466   5.515   1.205 -0.5835 -0.5706  0.4966
 4583TIP3    H113755   3.452   5.609   1.196 -0.3588 -0.5582  0.2380
 4583TIP3    H213756   3.517   5.505   1.286 -1.1674 -0.5283  0.8695
 4584TIP3   OH213757   2.889   3.168   1.260 -0.0618  0.1513 -0.1584
 4584TIP3    H113758   2.974   3.150   1.220  0.3214  1.4232  0.0432
 4584TIP3    H213759   2.829   3.176   1.185  0.3634  1.0492 -0.4210
 4585TIP3   OH213760   4.023   0.255   0.048  0.1660  0.8261 -0.4085
 4585TIP3    H113761   4.093   0.203   0.087  0.0267  1.7032  1.0821
 4585TIP3    H213762   4.011   0.329   0.108 -1.1231  1.4120 -1.3317
 4586TIP3   OH213763   4.033   1.587   0.759 -0.0355 -0.0215  0.2374
 4586TIP3    H113764   4.016   1.498   0.727 -1.7107  0.4430 -0.2589
 4586TIP3    H213765   4.091   1.625   0.693 -1.3570  0.0565 -0.9408
 4587TIP3   OH213766   2.824   4.427   2.385 -0.6791 -0.3847  0.3129
 4587TIP3    H113767   2.814   4.522   2.383 -0.4886 -0.3306  1.5151
 4587TIP3    H213768   2.899   4.412   2.442 -0.3777 -1.2415 -0.2984
 4588TIP3   OH213769   5.050   0.165   1.073 -0.3771  0.3774 -0.4203
 4588TIP3    H113770   5.086   0.199   1.155 -1.2568 -0.1057  0.1891
 4588TIP3    H213771   5.003   0.238   1.035  2.1041  1.3614 -1.7998
 4589TIP3   OH213772   4.817   4.512   1.189  0.3705  0.1072  0.3116
 4589TIP3    H113773   4.880   4.455   1.233 -0.6877  0.2843  2.1934
 4589TIP3    H213774   4.813   4.479   1.099  0.5336 -2.1717  1.0754
 4590TIP3   OH213775   3.455   2.439   1.769  0.2246 -0.6631 -0.1106
 4590TIP3    H113776   3.368   2.480   1.768  0.6545  0.4489 -3.6159
 4590TIP3    H213777   3.438   2.348   1.742  0.0707 -0.7309  0.2034
 4591TIP3   OH213778   1.768   2.144   1.676  0.4413 -0.0092 -0.1548
 4591TIP3    H113779   1.740   2.226   1.717  0.3121 -0.5108  0.7918
 4591TIP3    H213780   1.693   2.117   1.623  0.0607 -0.0698  0.3997
 4592TIP3   OH213781   0.545   1.005   5.107  0.0800  0.2553  0.3663
 4592TIP3    H113782   0.524   0.913   5.119 -0.2293  0.1022 -1.1187
 4592TIP3    H213783   0.615   1.006   5.042 -0.2488  1.0749 -0.0032
 4593TIP3   OH213784   4.554   2.465   4.547 -0.2473 -0.4055  0.2368
 4593TIP3    H113785   4.472   2.448   4.500 -0.6250 -0.6604  0.9648
 4593TIP3    H213786   4.531   2.532   4.611 -0.5604 -2.2741  2.1665
 4594TIP3   OH213787   1.292   2.934   0.990  0.0887 -0.3597  0.4853
 4594TIP3    H113788   1.206   2.976   0.988  0.9270  1.4746 -1.9233
 4594TIP3    H213789   1.290   2.873   0.916  1.2755  0.7435 -0.5027
 4595TIP3   OH213790   2.293   0.889   2.332 -0.2674 -0.1100 -0.4019
 4595TIP3    H113791   2.303   0.875   2.237 -0.7739 -0.5891 -0.3868
 4595TIP3    H213792   2.199   0.880   2.348  0.0025 -1.8969  0.4196
 4596TIP3   OH213793   2.260   0.760   0.848  0.0089 -0.1437 -0.8768
 4596TIP3    H113794   2.312   0.699   0.795 -0.5448 -0.0323 -1.5722
 4596TIP3    H213795   2.199   0.799   0.785 -1.4295 -0.8293  0.0671
 4597TIP3   OH213796   4.584   4.188   1.190 -0.0754  0.0880 -0.4866
 4597TIP3    H113797   4.496   4.225   1.195 -0.3181 -0.3855 -1.0773
 4597TIP3    H213798   4.626   4.213   1.272 -0.3809  1.2832 -0.6800
 4598TIP3   OH213799   4.513   2.483   1.143 -0.0246  0.1856 -0.1625
 4598TIP3    H113800   4.490   2.454   1.055  2.5755  1.8388 -1.5310
 4598TIP3    H213801   4.602   2.449   1.157  0.4711  1.7778  0.8790
 4599TIP3   OH213802   3.590   4.081   3.940 -0.0232  0.1681  0.0722
 4599TIP3    H113803   3.608   4.020   3.869 -1.7321 -1.6002  1.0656
 4599TIP3    H213804   3.528   4.035   3.997 -2.0214  3.1272  0.5084
 4600TIP3   OH213805   2.978   2.635   4.421 -0.0802  0.3975 -0.8292
 4600TIP3    H113806   3.007   2.721   4.393  0.1840  1.3043  1.9180
 4600TIP3    H213807   2.981   2.638   4.516 -0.4746 -2.5294 -0.6116
 4601TIP3   OH213808   6.006   4.596   2.094  0.1263  0.3702 -0.1201
 4601TIP3    H113809   5.943   4.664   2.069 -0.1173 -0.6979 -2.6593
 4601TIP3    H213810   6.089   4.626   2.057  0.3497  0.0216  0.0909
 4602TIP3   OH213811   2.453   5.260   3.692  0.2891 -0.3628  0.0934
 4602TIP3    H113812   2.492   5.225   3.612 -0.1031  0.8860 -0.6753
 4602TIP3    H213813   2.378   5.202   3.710  1.5653 -1.8951  0.7656
 4603TIP3   OH213814   5.026   4.564   0.665 -0.2155 -0.2728 -0.5095
 4603TIP3    H113815   4.997   4.487   0.615 -0.6792 -0.7808  0.5059
 4603TIP3    H213816   5.063   4.528   0.745  2.9659  0.3753 -1.5576
 4604TIP3   OH213817   5.028   1.447   0.775  0.0744 -0.2101 -0.6891
 4604TIP3    H113818   4.999   1.488   0.857 -0.3471 -0.3632 -0.7552
 4604TIP3    H213819   5.120   1.470   0.768  0.0022  0.1910 -0.4015
 4605TIP3   OH213820   0.138   5.322   1.832 -0.4241  0.5538 -0.0630
 4605TIP3    H113821   0.213   5.380   1.816  0.9576 -0.6906  1.5204
 4605TIP3    H213822   0.173   5.234   1.816 -1.0924 -0.1618  2.0811
 4606TIP3   OH213823   5.944   2.605   1.135 -0.4103 -0.0460 -0.0658
 4606TIP3    H113824   6.000   2.582   1.209 -1.6713  1.2552  1.3443
 4606TIP3    H213825   5.905   2.521   1.107  0.4052 -0.6073  0.4437
 4607TIP3   OH213826   6.274   3.476   4.090  0.0465  0.2965  0.6220
 4607TIP3    H113827   6.271   3.567   4.118  0.1427  0.6129 -0.3638
 4607TIP3    H213828   6.199   3.466   4.030 -0.0603 -0.3151  0.8437
 4608TIP3   OH213829   6.306   5.848   3.371  0.5515  0.5043  0.2445
 4608TIP3    H113830   6.376   5.806   3.321  0.2040  0.4550 -0.2173
 4608TIP3    H213831   6.268   5.911   3.310 -0.3300 -0.0402  0.2007
 4609TIP3   OH213832   4.995   4.866   2.304 -0.4847 -0.2589  0.3011
 4609TIP3    H113833   5.006   4.883   2.210 -0.1034  1.4362  0.6143
 4609TIP3    H213834   5.069   4.911   2.344 -2.0850  1.3443  1.6043
 4610TIP3   OH213835   2.349   2.433   1.766 -0.0387  0.1802  0.0017
 4610TIP3    H113836   2.321   2.484   1.842  0.2937  0.3312  0.0229
 4610TIP3    H213837   2.401   2.494   1.714  1.6818 -0.5418  0.8016
 4611TIP3   OH213838   2.264   0.099   3.192  0.6331  0.8066 -0.2822
 4611TIP3    H113839   2.248   0.030   3.128 -2.9913  0.0243  1.2231
 4611TIP3    H213840   2.181   0.146   3.198  1.6655  2.5245  1.9296
 4612TIP3   OH213841   1.032   0.993   1.805 -0.0582 -0.0743  0.0579
 4612TIP3    H113842   1.107   1.031   1.759 -1.7373  2.4837 -0.8207
 4612TIP3    H213843   1.056   0.997   1.897  1.8074 -1.5947 -0.3208
 4613TIP3   OH213844   2.798   0.609   3.482  0.4096  0.3185  0.1305
 4613TIP3    H113845   2.742   0.541   3.519  0.8533 -1.0645 -1.6272
 4613TIP3    H213846   2.753   0.691   3.502 -2.1999 -0.7135 -1.0985
 4614TIP3   OH213847   3.330   3.411  -0.032 -0.0412 -0.4171  0.1601
 4614TIP3    H113848   3.272   3.418   0.044  0.4014  0.5681  0.4215
 4614TIP3    H213849   3.390   3.340  -0.009  0.6219  0.4200  1.1144
 4615TIP3   OH213850   0.957   3.581   4.736  0.1043 -0.3796  0.0756
 4615TIP3    H113851   0.955   3.537   4.821  2.5557 -1.5901 -0.4140
 4615TIP3    H213852   0.911   3.521   4.677 -1.0309  0.1656  0.3658
 4616TIP3   OH213853   2.073   5.825   0.533  0.0333  0.3232 -0.0266
 4616TIP3    H113854   2.150   5.791   0.486  0.2693  0.6010  0.1614
 4616TIP3    H213855   2.022   5.747   0.553  0.3993  0.1107  0.0870
 4617TIP3   OH213856   0.637   3.898   2.559  0.4529  0.2097  0.3430
 4617TIP3    H113857   0.581   3.852   2.496  1.5485  2.2288 -2.3258
 4617TIP3    H213858   0.618   3.990   2.545  2.3918  0.8177  1.3803
 4618TIP3   OH213859   4.571   1.742   2.465  0.0962 -0.8905  0.5771
 4618TIP3    H113860   4.494   1.714   2.514 -0.7425 -0.3094 -0.3914
 4618TIP3    H213861   4.573   1.838   2.474  2.0701 -1.0237  2.5712
 4619TIP3   OH213862   3.581   3.523   1.494 -0.5262  0.0862 -0.1818
 4619TIP3    H113863   3.618   3.546   1.579  0.4989 -1.4556 -0.1860
 4619TIP3    H213864   3.488   3.546   1.502 -0.4012  0.2070  1.2528
 4620TIP3   OH213865   3.649   3.259   2.464  0.1028 -0.1080  0.6024
 4620TIP3    H113866   3.701   3.209   2.402 -1.0860 -2.3340  1.3219
 4620TIP3    H213867   3.671   3.222   2.550  0.3331  1.6650  1.3635
 4621TIP3   OH213868   2.668   5.732   1.799  0.3739  0.1500  0.3307
 4621TIP3    H113869   2.573   5.730   1.809  0.2153  1.3832 -0.7125
 4621TIP3    H213870   2.701   5.757   1.886 -0.4582  2.6446 -0.0127
 4622TIP3   OH213871   0.561   2.679   3.380  0.2742 -0.1225 -0.4031
 4622TIP3    H113872   0.640   2.730   3.398 -0.3267 -0.0828  2.8387
 4622TIP3    H213873   0.492   2.744   3.367  0.2904 -0.1321 -0.5355
 4623TIP3   OH213874   0.376   5.350   2.485  0.1671 -0.3619  0.0717
 4623TIP3    H113875   0.358   5.401   2.407 -0.6419 -0.9570 -0.1521
 4623TIP3    H213876   0.451   5.295   2.462 -0.1552 -0.6332 -0.3423
 4624TIP3   OH213877   2.207   0.228   2.848 -0.2248  0.4104 -0.0169
 4624TIP3    H113878   2.152   0.245   2.924 -0.8599 -0.0027 -0.3703
 4624TIP3    H213879   2.171   0.147   2.810  0.4983  0.2444 -0.3722
 4625TIP3   OH213880   0.768   1.722   3.807 -0.3562 -0.1465  0.1317
 4625TIP3    H113881   0.674   1.718   3.822 -0.0250 -0.2322  2.6207
 4625TIP3    H213882   0.801   1.638   3.840  0.7983  0.8307  1.6126
 4626TIP3   OH213883   0.920   5.356   2.704 -0.1802 -0.3143  0.2700
 4626TIP3    H113884   0.885   5.434   2.747 -0.9955 -0.8589  0.6135
 4626TIP3    H213885   0.921   5.289   2.772 -0.7631 -0.9737 -0.3529
 4627TIP3   OH213886   4.507   0.710   3.900 -0.0282 -0.5377  0.0712
 4627TIP3    H113887   4.592   0.684   3.864  0.2689 -0.7853  0.9116
 4627TIP3    H213888   4.509   0.677   3.990 -1.1976 -0.9113 -0.0318
 4628TIP3   OH213889   2.496   5.488   1.839  0.4005  0.0330 -0.1050
 4628TIP3    H113890   2.431   5.450   1.898 -0.0912  1.4138  0.2799
 4628TIP3    H213891   2.577   5.490   1.890  0.2610  0.1300  0.1150
 4629TIP3   OH213892   3.158   3.705   0.550  0.0492 -0.4838  0.6559
 4629TIP3    H113893   3.129   3.675   0.464 -0.6561  1.1454  0.2710
 4629TIP3    H213894   3.143   3.631   0.608 -1.0276 -1.0794 -0.3365
 4630TIP3   OH213895   4.438   5.173   1.869 -0.1679 -0.0966 -0.2343
 4630TIP3    H113896   4.472   5.253   1.909 -0.5385 -0.6942  1.3539
 4630TIP3    H213897   4.514   5.116   1.861 -0.6747 -1.6205  3.7718
 4631TIP3   OH213898   5.029   2.015   1.855 -0.4448  0.2647  0.2420
 4631TIP3    H113899   5.045   1.926   1.885  0.6775  0.5521  0.5529
 4631TIP3    H213900   5.100   2.067   1.893 -0.4114  1.0893 -0.8792
 4632TIP3   OH213901   1.679   3.814   3.058 -0.1193 -0.1378  0.4905
 4632TIP3    H113902   1.772   3.794   3.047 -0.4224 -0.3857 -2.1589
 4632TIP3    H213903   1.635   3.730   3.044 -0.8295  0.3322 -0.1780
 4633TIP3   OH213904   0.765   1.873   1.858  0.3818 -0.3361 -0.4791
 4633TIP3    H113905   0.678   1.888   1.823  0.8745 -1.4837 -2.3022
 4633TIP3    H213906   0.783   1.951   1.912 -1.9456 -0.3382  0.4027
 4634TIP3   OH213907   5.820   4.439   0.628 -0.1666 -0.3649  0.0173
 4634TIP3    H113908   5.857   4.447   0.540  0.1158 -0.5528  0.1139
 4634TIP3    H213909   5.893   4.461   0.686 -0.5655  0.5520  0.1969
 4635TIP3   OH213910   5.573   4.951   0.176  0.0178  0.5486  0.2235
 4635TIP3    H113911   5.484   4.947   0.140  0.9031  1.7609 -2.3168
 4635TIP3    H213912   5.576   5.034   0.222 -0.2025  0.4403  0.4375
 4636TIP3   OH213913   1.858   0.239   2.438  0.6731  0.3681  0.3768
 4636TIP3    H113914   1.847   0.295   2.361  0.7389  1.2324  0.9756
 4636TIP3    H213915   1.868   0.151   2.403 -1.1070  0.4751 -0.5459
 4637TIP3   OH213916   4.016   5.027   3.169 -0.2007  0.3705 -0.0741
 4637TIP3    H113917   3.980   4.947   3.206 -1.0537  0.5993 -0.4016
 4637TIP3    H213918   3.944   5.090   3.172  0.5034  1.1749  0.3222
 4638TIP3   OH213919   3.417   0.186   1.707  0.3241  0.0948  0.1070
 4638TIP3    H113920   3.481   0.210   1.774  0.5463 -2.1784  0.7736
 4638TIP3    H213921   3.470   0.146   1.638  0.0576  2.1125 -1.3507
 4639TIP3   OH213922   1.953   0.077   3.178 -0.3354 -0.9051 -0.4054
 4639TIP3    H113923   1.896   0.060   3.103 -2.7456 -1.5766  1.4842
 4639TIP3    H213924   1.902   0.134   3.235  2.0006  0.7636  0.1594
 4640TIP3   OH213925   3.710   4.346   4.819 -0.6573 -0.0610 -0.4767
 4640TIP3    H113926   3.776   4.408   4.851 -0.0827 -0.2560 -1.2566
 4640TIP3    H213927   3.637   4.402   4.793 -0.6064  0.1958 -0.0880
 4641TIP3   OH213928   4.128   1.146   1.650 -0.5219  0.0140  0.4977
 4641TIP3    H113929   4.081   1.214   1.698 -1.0564 -0.5122  0.7385
 4641TIP3    H213930   4.117   1.169   1.558  0.1948  0.8261  0.6074
 4642TIP3   OH213931   6.222   1.313   0.608  0.2203  0.3599 -0.0004
 4642TIP3    H113932   6.263   1.230   0.584  0.5962  0.0745  1.5193
 4642TIP3    H213933   6.161   1.332   0.536 -1.2360 -2.1550  0.4387
 4643TIP3   OH213934   0.321   3.961   3.459 -0.2519  0.4741 -0.1397
 4643TIP3    H113935   0.283   4.048   3.471  0.0764  0.5851  0.1071
 4643TIP3    H213936   0.372   3.967   3.379  1.1248  0.9928  0.7461
 4644TIP3   OH213937   2.416   4.475   3.161  0.3821 -0.5012  0.2026
 4644TIP3    H113938   2.497   4.484   3.211  0.8789  1.4676 -0.8699
 4644TIP3    H213939   2.441   4.422   3.085  0.2094 -1.4033  0.7579
 4645TIP3   OH213940   1.531   0.060   4.817 -0.1373  0.1488 -0.1554
 4645TIP3    H113941   1.495   0.026   4.735 -2.0789  1.2325  0.1924
 4645TIP3    H213942   1.625   0.067   4.801 -0.4108 -0.1415 -2.1032
 4646TIP3   OH213943   0.319   5.387   4.091  0.0626  0.2261  0.2636
 4646TIP3    H113944   0.288   5.468   4.052  0.9189  1.0672  1.2720
 4646TIP3    H213945   0.312   5.322   4.020 -0.5973  1.1617 -0.5632
 4647TIP3   OH213946   4.452   4.386   2.343  0.2014  0.2396  0.2469
 4647TIP3    H113947   4.488   4.466   2.381 -0.1840  0.6678 -0.2940
 4647TIP3    H213948   4.489   4.382   2.255 -0.7120  0.4425 -0.1500
 4648TIP3   OH213949   3.035   2.179   0.883  0.3882  0.3722 -0.3933
 4648TIP3    H113950   2.971   2.250   0.888  0.6854  0.7242 -1.3425
 4648TIP3    H213951   3.016   2.136   0.799  1.2447  0.3359 -0.5720
 4649TIP3   OH213952   5.672   3.320   4.535  0.5646  0.0632  0.1069
 4649TIP3    H113953   5.586   3.362   4.530  0.4736  0.1097  1.4981
 4649TIP3    H213954   5.653   3.227   4.548  0.6876  0.1752  1.2066
 4650TIP3   OH213955   0.036   3.155   2.666  0.5070 -0.0983 -0.3900
 4650TIP3    H113956   0.018   3.115   2.751 -2.8847  0.7256 -0.5799
 4650TIP3    H213957  -0.026   3.114   2.606  0.3992  1.7983 -1.6757
 4651TIP3   OH213958   4.377   5.712   4.076  0.1068 -0.4741 -0.2557
 4651TIP3    H113959   4.284   5.729   4.059 -0.1010  0.4703  1.6522
 4651TIP3    H213960   4.423   5.773   4.018 -0.4393 -0.6564 -0.9068
 4652TIP3   OH213961   4.584   5.078   3.523 -0.5901 -0.2723 -0.3629
 4652TIP3    H113962   4.588   5.173   3.535  0.7007 -0.4443  0.8069
 4652TIP3    H213963   4.556   5.067   3.432  0.1072  1.2425 -0.7987
 4653TIP3   OH213964   2.587   2.669   3.191 -0.4377 -0.4705  0.3853
 4653TIP3    H113965   2.668   2.623   3.169  0.1575  0.2454  1.0169
 4653TIP3    H213966   2.546   2.688   3.106  0.2121 -0.5673  0.0420
 4654TIP3   OH213967   0.076   5.811   2.590 -0.4299 -0.1462  0.4783
 4654TIP3    H113968   0.031   5.731   2.563 -3.6225  1.0704  1.6830
 4654TIP3    H213969   0.130   5.785   2.664  0.5844 -1.5911 -0.7136
 4655TIP3   OH213970   4.664   5.584   2.040  0.1979 -0.2815  0.0105
 4655TIP3    H113971   4.664   5.669   1.995  0.2698 -0.2642  0.0434
 4655TIP3    H213972   4.751   5.577   2.078  0.5042 -0.7773 -0.7591
 4656TIP3   OH213973   1.448   0.132   0.333 -0.1205  0.8549 -0.9727
 4656TIP3    H113974   1.500   0.212   0.330  1.8827 -0.2944  0.3093
 4656TIP3    H213975   1.464   0.096   0.420  1.0846 -2.1500 -2.2610
 4657TIP3   OH213976   1.652   3.366   0.109 -0.1913 -0.7418  0.1098
 4657TIP3    H113977   1.633   3.293   0.051 -1.0179 -0.0455 -0.5292
 4657TIP3    H213978   1.573   3.375   0.163 -0.8492  0.7738 -1.0326
 4658TIP3   OH213979   0.810   4.829   3.220 -0.8223 -0.4354 -0.6447
 4658TIP3    H113980   0.831   4.917   3.250  1.8331 -1.6209  1.3850
 4658TIP3    H213981   0.804   4.837   3.124  0.0427  1.8162 -0.5643
 4659TIP3   OH213982   3.884   4.069   1.722  0.2873 -0.6547 -0.1554
 4659TIP3    H113983   3.966   4.024   1.741  0.2563 -0.1632  1.3035
 4659TIP3    H213984   3.819   3.999   1.715  1.0647 -1.2155 -3.1631
 4660TIP3   OH213985   3.109   1.128   0.431 -0.4704 -0.1477  1.3197
 4660TIP3    H113986   3.163   1.070   0.484  0.6995  1.1357  1.5736
 4660TIP3    H213987   3.168   1.160   0.362 -1.6449 -0.8677 -0.0966
 4661TIP3   OH213988   5.124   5.378   4.575 -0.2208 -0.2401 -0.3220
 4661TIP3    H113989   5.076   5.308   4.530 -1.9693  1.3896 -1.1439
 4661TIP3    H213990   5.141   5.443   4.506 -1.0649  1.3426  0.8936
 4662TIP3   OH213991   2.493   2.947   4.552  0.8475 -0.3082 -0.7392
 4662TIP3    H113992   2.458   3.032   4.579  2.3816  1.0601 -2.7378
 4662TIP3    H213993   2.528   2.909   4.632  1.2436  1.5122  0.0105
 4663TIP3   OH213994   4.985   2.352   1.541  0.0014  0.5867  0.1118
 4663TIP3    H113995   5.071   2.358   1.582  0.2802 -0.1842 -0.3301
 4663TIP3    H213996   4.992   2.277   1.482 -0.9745  0.5081  0.0752
 4664TIP3   OH213997   0.281   3.251   2.112 -0.2208  0.0596  0.4315
 4664TIP3    H113998   0.235   3.169   2.092 -0.1696  0.0925  0.1761
 4664TIP3    H213999   0.355   3.252   2.051 -0.9232  0.9070 -0.4420
 4665TIP3   OH214000   0.209   2.086   1.865 -0.0778 -0.7656  0.5363
 4665TIP3    H114001   0.137   2.024   1.854 -0.0299 -0.9289  1.0978
 4665TIP3    H214002   0.225   2.120   1.777 -1.3399 -0.1680  0.5062
 4666TIP3   OH214003   5.399   4.033   0.722  0.3047  0.1026  0.2194
 4666TIP3    H114004   5.489   4.046   0.693 -0.4552  2.0811 -1.5560
 4666TIP3    H214005   5.377   3.945   0.694  1.0911  0.3071 -1.1209
 4667TIP3   OH214006   0.873   5.837   2.911 -0.1776 -0.1173 -0.5618
 4667TIP3    H114007   0.800   5.881   2.955  0.2907 -0.3157  0.4485
 4667TIP3    H214008   0.940   5.905   2.900  0.5008 -0.5047  0.8968
 4668TIP3   OH214009   1.058   0.561   3.807  0.2811  0.1275 -0.1483
 4668TIP3    H114010   0.988   0.612   3.766  0.4823  0.3427 -0.2294
 4668TIP3    H214011   1.100   0.623   3.867 -1.0693 -0.6320  1.6745
 4669TIP3   OH214012   1.364   1.453   4.705 -0.0685 -0.2550  0.2974
 4669TIP3    H114013   1.270   1.446   4.687 -0.3911 -0.0251  1.7198
 4669TIP3    H214014   1.371   1.522   4.771  0.8688 -1.5501  1.6479
 4670TIP3   OH214015   1.582   4.623   0.221 -0.3461  0.1819  0.5814
 4670TIP3    H114016   1.559   4.635   0.314 -1.2431  0.2260  0.3594
 4670TIP3    H214017   1.657   4.563   0.223  1.3915  2.2697  1.4759
 4671TIP3   OH214018   2.410   1.778   4.866 -0.3639 -0.3951 -0.5658
 4671TIP3    H114019   2.496   1.765   4.906 -0.8145 -0.0895  0.5371
 4671TIP3    H214020   2.429   1.808   4.777  0.6728 -1.9096 -0.9095
 4672TIP3   OH214021   0.412   1.773   1.740 -0.3210 -0.5531  0.3635
 4672TIP3    H114022   0.440   1.830   1.668 -1.5687 -1.3673 -0.8077
 4672TIP3    H214023   0.410   1.685   1.703 -0.2881 -1.1049  1.6040
 4673TIP3   OH214024   3.827   0.900   2.095 -0.0346  0.3125  0.0639
 4673TIP3    H114025   3.878   0.822   2.071  0.2774 -0.5124  3.0223
 4673TIP3    H214026   3.736   0.875   2.078  0.2062  0.2055 -1.1847
 4674TIP3   OH214027   1.971   2.892   0.938  0.6206 -0.2418 -0.8341
 4674TIP3    H114028   1.881   2.909   0.963  0.1231  0.6732 -3.0258
 4674TIP3    H214029   1.983   2.798   0.954 -0.1293 -0.0536  1.0580
 4675TIP3   OH214030   3.558   2.072   2.197  0.0727  0.1317 -0.6138
 4675TIP3    H114031   3.544   1.982   2.227 -1.2684  0.1735 -1.0467
 4675TIP3    H214032   3.545   2.068   2.102 -0.7546  0.9210 -0.5422
 4676TIP3   OH214033   1.591   0.990   2.533 -0.0429 -0.0486 -0.3415
 4676TIP3    H114034   1.664   1.043   2.567  1.6294 -0.9299 -2.3690
 4676TIP3    H214035   1.513   1.039   2.559  1.2187  1.0512  1.7430
 4677TIP3   OH214036   3.462   0.378   3.734  0.4191 -0.3938  0.2849
 4677TIP3    H114037   3.545   0.332   3.717  0.7265  0.3888 -0.3840
 4677TIP3    H214038   3.403   0.344   3.667  0.6179  0.0984 -0.1469
 4678TIP3   OH214039   4.943   2.282   4.988  0.5912 -0.2392 -0.2477
 4678TIP3    H114040   4.919   2.254   4.900 -0.4135  0.1090 -0.1062
 4678TIP3    H214041   4.991   2.364   4.975 -3.0597  2.1132 -0.3762
 4679TIP3   OH214042   2.356   3.712   0.854 -0.2363  0.4271  0.5181
 4679TIP3    H114043   2.426   3.674   0.802 -0.6322  0.9615 -0.4301
 4679TIP3    H214044   2.276   3.670   0.821 -0.6443  1.8029 -0.3258
 4680TIP3   OH214045   1.417   0.824   2.664  0.0183 -0.1123 -0.1840
 4680TIP3    H114046   1.493   0.861   2.619 -0.4489  0.3911 -0.5822
 4680TIP3    H214047   1.379   0.898   2.713  0.5199 -0.6464  1.0657
 4681TIP3   OH214048   5.388   1.524   1.643  0.2189  0.5193  0.3802
 4681TIP3    H114049   5.357   1.551   1.730 -1.7845  2.0305 -0.7101
 4681TIP3    H214050   5.312   1.482   1.603  0.5729  1.3262 -1.2179
 4682TIP3   OH214051   3.271   1.760   0.515 -0.0418 -0.4525  0.1724
 4682TIP3    H114052   3.287   1.688   0.576 -0.1933 -2.6358 -2.1847
 4682TIP3    H214053   3.185   1.741   0.476  0.9525 -0.4069 -2.2345
 4683TIP3   OH214054   5.345   5.422   1.651  0.5063 -0.7044  0.0038
 4683TIP3    H114055   5.299   5.505   1.641  0.9830 -0.4525 -0.1455
 4683TIP3    H214056   5.418   5.442   1.710  0.2557 -1.1670  0.4718
 4684TIP3   OH214057   2.219   4.011   3.942 -0.6611  0.4350 -0.3242
 4684TIP3    H114058   2.270   3.936   3.912  0.2259  1.1564 -0.6867
 4684TIP3    H214059   2.269   4.087   3.912 -3.0537  1.2279 -2.6294
 4685TIP3   OH214060   1.382   3.366   0.261  0.2120  0.0913  0.2580
 4685TIP3    H114061   1.387   3.387   0.355  0.4467 -1.4531  0.6067
 4685TIP3    H214062   1.377   3.271   0.258  1.0051  0.0733 -1.3434
 4686TIP3   OH214063   4.892   0.518   4.945 -0.6720  0.1191  0.0315
 4686TIP3    H114064   4.947   0.453   4.989 -0.2153  0.6387  0.2352
 4686TIP3    H214065   4.803   0.494   4.971 -0.3523  1.2526  2.4558
 4687TIP3   OH214066   5.067   3.712   2.470 -0.6173  0.5433  0.0281
 4687TIP3    H114067   5.025   3.675   2.393 -0.9568  0.4930  0.2306
 4687TIP3    H214068   4.998   3.710   2.537  0.2175 -1.2067  0.8931
 4688TIP3   OH214069   0.057   5.676   2.837  0.5234  0.2003 -0.0448
 4688TIP3    H114070   0.038   5.752   2.892 -2.0769  0.7192 -1.4791
 4688TIP3    H214071   0.013   5.604   2.881 -1.1753  0.5326 -1.0855
 4689TIP3   OH214072   2.565   0.879   3.374  0.1358  0.5470 -0.1078
 4689TIP3    H114073   2.622   0.917   3.308  0.2253  1.5456  0.5230
 4689TIP3    H214074   2.599   0.911   3.457 -1.4689  1.3841  0.2788
 4690TIP3   OH214075   2.818   0.285   4.188 -0.1399 -0.7081  0.3871
 4690TIP3    H114076   2.810   0.379   4.203 -0.3259 -0.5010 -0.9530
 4690TIP3    H214077   2.739   0.248   4.227 -0.7170 -0.1596 -0.2421
 4691TIP3   OH214078   4.880   5.817   2.650  0.2715 -0.2968 -0.5380
 4691TIP3    H114079   4.893   5.722   2.641  1.4157 -0.2330  0.2302
 4691TIP3    H214080   4.903   5.835   2.741  0.5709  0.7987 -0.8231
 4692TIP3   OH214081   3.841   2.711   1.763 -0.3546 -0.2855 -0.2704
 4692TIP3    H114082   3.833   2.726   1.857 -0.6233 -1.0897 -0.1570
 4692TIP3    H214083   3.898   2.635   1.755  1.7003  1.2295 -0.8585
 4693TIP3   OH214084   2.890   2.503   2.802  0.1349 -0.2811 -0.6099
 4693TIP3    H114085   2.944   2.536   2.874  0.2453  1.1222 -1.2926
 4693TIP3    H214086   2.895   2.572   2.735 -2.7120  0.0402 -0.6226
 4694TIP3   OH214087   3.888   4.326   0.788  0.4557  0.0684  0.3003
 4694TIP3    H114088   3.867   4.404   0.736 -2.6556  0.4283  1.8769
 4694TIP3    H214089   3.935   4.269   0.727 -0.3989  1.6551 -1.9982
 4695TIP3   OH214090   6.076   4.594   2.530  0.5825 -0.4564  0.6973
 4695TIP3    H114091   6.148   4.587   2.467  0.7028  0.7679  0.6737
 4695TIP3    H214092   5.999   4.563   2.482  1.1709 -2.4657  0.9483
 4696TIP3   OH214093   4.775   1.293   0.855 -0.0958  0.0878  0.0349
 4696TIP3    H114094   4.759   1.282   0.948  0.3656  0.0688  0.1160
 4696TIP3    H214095   4.870   1.291   0.847 -0.1534 -1.0296 -0.5811
 4697TIP3   OH214096   2.028   2.770   2.008 -0.2582 -0.0762 -0.5194
 4697TIP3    H114097   2.052   2.843   2.065  0.3060  0.0923 -0.9674
 4697TIP3    H214098   2.034   2.692   2.064  1.9054 -0.1244 -0.7295
 4698TIP3   OH214099   1.321   5.516   4.631  0.0177 -0.1032  0.1189
 4698TIP3    H114100   1.370   5.465   4.695  1.3618 -1.0154 -1.5477
 4698TIP3    H214101   1.266   5.575   4.684  1.6157 -0.2604  2.0830
 4699TIP3   OH214102   5.006   1.416   0.145 -0.1840 -0.1884 -0.3677
 4699TIP3    H114103   5.056   1.334   0.141  1.3179  0.5435  1.7106
 4699TIP3    H214104   4.979   1.432   0.055  0.0665 -2.6023 -0.9394
 4700TIP3   OH214105   6.196   4.403   4.376 -0.3386 -0.0624 -0.2293
 4700TIP3    H114106   6.206   4.455   4.456 -0.5289 -1.0746  0.4742
 4700TIP3    H214107   6.214   4.464   4.305  0.5266  0.6912  0.6131
 4701TIP3   OH214108   3.227   2.678   2.764 -0.1575  0.6560 -0.1307
 4701TIP3    H114109   3.262   2.735   2.695 -0.4964  0.4575 -0.4734
 4701TIP3    H214110   3.132   2.685   2.755 -0.2235 -0.5957 -0.7245
 4702TIP3   OH214111   0.045   4.436   3.687 -0.3533 -0.1387  0.3019
 4702TIP3    H114112   0.025   4.497   3.758  0.2579  0.1163  0.2581
 4702TIP3    H214113   0.007   4.477   3.609  1.1385  0.8423  0.0405
 4703TIP3   OH214114   0.246   3.639   4.663  0.0138  0.0850 -0.0588
 4703TIP3    H114115   0.193   3.705   4.708  0.7322  1.9867 -1.8042
 4703TIP3    H214116   0.182   3.580   4.623 -0.6802  0.1592  0.9283
 4704TIP3   OH214117   1.799   4.308   2.903  0.4522 -0.0192  0.5401
 4704TIP3    H114118   1.883   4.348   2.929  2.6791 -3.0878 -1.2897
 4704TIP3    H214119   1.789   4.234   2.963  0.0064 -0.7534 -0.4326
 4705TIP3   OH214120   2.098   5.815   2.214  0.3321 -0.0008 -0.4351
 4705TIP3    H114121   2.157   5.858   2.277  1.1516  0.5828 -1.5736
 4705TIP3    H214122   2.033   5.770   2.269  1.4211 -0.0747  0.8479
 4706TIP3   OH214123   0.945   3.275   0.104  0.1717  0.0893 -0.5078
 4706TIP3    H114124   0.852   3.269   0.079 -0.0139 -1.1281  0.3592
 4706TIP3    H214125   0.992   3.279   0.021 -0.5362 -1.7852 -1.0605
 4707TIP3   OH214126   5.073   4.493   3.288  0.2349  0.3593 -0.2667
 4707TIP3    H114127   5.011   4.437   3.243  0.0891  1.5921 -1.6858
 4707TIP3    H214128   5.157   4.449   3.279  0.6022  1.4825 -3.6261
 4708TIP3   OH214129   3.199   3.461   2.841 -0.4987  0.5666  0.1486
 4708TIP3    H114130   3.153   3.395   2.789  0.6151 -0.3696  0.3162
 4708TIP3    H214131   3.186   3.434   2.932 -0.6428  0.9983  0.2622
 4709TIP3   OH214132   0.195   0.066   2.953 -0.0446  0.1897 -0.3181
 4709TIP3    H114133   0.233   0.019   2.879 -1.4961 -0.2242 -0.8306
 4709TIP3    H214134   0.152   0.142   2.914  0.3032  0.6814  0.2481
 4710TIP3   OH214135   2.180   0.829   1.575  0.5596 -0.4376 -0.3390
 4710TIP3    H114136   2.199   0.917   1.545  0.6258  0.2743  1.6390
 4710TIP3    H214137   2.121   0.841   1.650  1.7543 -1.9316  0.9222
 4711TIP3   OH214138   1.963   3.300   0.592 -0.0205 -0.5601 -0.2715
 4711TIP3    H114139   1.944   3.233   0.657  1.7883 -1.5952 -0.7267
 4711TIP3    H214140   1.878   3.327   0.559 -0.9140 -0.8401  1.6797
 4712TIP3   OH214141   1.160   5.454   0.948 -0.2165  0.1187  0.0836
 4712TIP3    H114142   1.171   5.433   0.855  0.1669  0.3221  0.0819
 4712TIP3    H214143   1.068   5.434   0.966 -0.8207  1.9082 -0.8128
 4713TIP3   OH214144   3.354   4.226   3.811  0.5982  0.7572  0.2065
 4713TIP3    H114145   3.329   4.173   3.736  0.7994 -0.0811  0.7125
 4713TIP3    H214146   3.273   4.236   3.861  0.9739 -0.9749  1.2464
 4714TIP3   OH214147   3.065   3.695   4.604 -0.0958 -0.0850 -0.1928
 4714TIP3    H114148   2.975   3.726   4.608 -0.2127 -0.3664 -0.5830
 4714TIP3    H214149   3.063   3.609   4.647 -0.3993 -0.9431 -1.8477
 4715TIP3   OH214150   0.031   0.779   1.405 -0.1794 -0.4420  0.3173
 4715TIP3    H114151  -0.008   0.867   1.402  0.3451 -0.2351 -0.8061
 4715TIP3    H214152   0.027   0.747   1.315 -0.0032 -1.4165  0.6459
 4716TIP3   OH214153   2.115   1.717   0.025  0.2363  0.3665  0.0872
 4716TIP3    H114154   2.205   1.738  -0.002  1.0583 -2.4432  0.3491
 4716TIP3    H214155   2.125   1.675   0.110 -0.9644 -2.5208 -1.0793
 4717TIP3   OH214156   5.687   4.687   0.645 -1.0302  0.2302 -0.4779
 4717TIP3    H114157   5.724   4.699   0.558  2.2930  0.1623  0.7791
 4717TIP3    H214158   5.712   4.597   0.670 -2.8241 -0.1401  0.2090
 4718TIP3   OH214159   2.854   1.235   3.144 -0.8156  0.1321  0.4437
 4718TIP3    H114160   2.870   1.181   3.067  0.7571  1.1924 -0.0168
 4718TIP3    H214161   2.879   1.179   3.218 -0.9343 -0.3846  0.0985
 4719TIP3   OH214162   1.302   2.678   2.257  0.1227 -0.1154 -0.4176
 4719TIP3    H114163   1.255   2.595   2.262 -0.8797  0.4527 -0.0471
 4719TIP3    H214164   1.306   2.698   2.164 -0.9649  0.1406 -0.4206
 4720TIP3   OH214165   3.448   3.554   2.963  0.2462  0.0692 -0.2672
 4720TIP3    H114166   3.377   3.532   2.902  0.4889 -0.3131 -0.4138
 4720TIP3    H214167   3.440   3.489   3.033  0.7635 -0.2899 -0.5379
 4721TIP3   OH214168   0.751   3.023   0.312 -0.2457  0.1209 -0.0257
 4721TIP3    H114169   0.714   3.022   0.224  0.4222 -2.1627 -0.3225
 4721TIP3    H214170   0.704   3.095   0.356 -1.3029  0.6564 -1.9091
 4722TIP3   OH214171   0.292   5.503   1.445 -0.3756  0.1219  0.5344
 4722TIP3    H114172   0.360   5.522   1.380  0.8274 -0.1563  1.6761
 4722TIP3    H214173   0.307   5.411   1.468 -0.4273  0.3792  1.6090
 4723TIP3   OH214174   4.628   4.016   2.437  0.2250  0.2304  0.2191
 4723TIP3    H114175   4.716   4.017   2.473  0.0890 -2.2721  0.8489
 4723TIP3    H214176   4.570   4.022   2.513 -0.1318  0.3098 -0.0537
 4724TIP3   OH214177   5.699   1.201   3.840  0.8286 -0.8638 -0.0954
 4724TIP3    H114178   5.654   1.262   3.782 -2.1316 -0.4966  2.2707
 4724TIP3    H214179   5.739   1.257   3.907 -0.7666 -1.3454  1.3425
 4725TIP3   OH214180   1.079   1.821   3.597 -0.2087  0.3451 -0.0611
 4725TIP3    H114181   1.010   1.795   3.535  1.0382  0.7561 -1.7145
 4725TIP3    H214182   1.161   1.800   3.551  0.7901 -0.1315  1.8468
 4726TIP3   OH214183   5.473   4.596   2.532  0.4865  0.1270 -0.6473
 4726TIP3    H114184   5.568   4.599   2.523  0.5722 -0.0459  0.0926
 4726TIP3    H214185   5.444   4.684   2.508  0.9924  0.6971  0.7276
 4727TIP3   OH214186   5.348   3.407   0.192 -0.4800 -0.0907 -0.0022
 4727TIP3    H114187   5.262   3.410   0.150  0.0978  0.5603 -1.2091
 4727TIP3    H214188   5.382   3.496   0.183  0.6571 -0.5358 -0.2870
 4728TIP3   OH214189   3.332   2.043   3.611  0.0848  0.4820  0.7029
 4728TIP3    H114190   3.334   2.024   3.517 -0.3136 -1.2607  1.0279
 4728TIP3    H214191   3.269   2.116   3.619  0.5388  1.0207 -0.4203
 4729TIP3   OH214192   4.070   1.147   1.378  0.3150  0.0438  0.2748
 4729TIP3    H114193   4.140   1.192   1.331 -0.0283 -1.0718 -1.3812
 4729TIP3    H214194   4.112   1.068   1.412  0.3637  0.4571  1.2306
 4730TIP3   OH214195   6.022   2.430   4.761 -0.2618  0.1595  0.3659
 4730TIP3    H114196   5.984   2.446   4.675  2.6198  1.6997 -0.7647
 4730TIP3    H214197   5.978   2.492   4.819 -1.0168  0.3295 -0.3703
 4731TIP3   OH214198   4.887   2.503   0.622  0.2600 -0.0958 -0.3546
 4731TIP3    H114199   4.825   2.568   0.588 -2.5943 -2.7687 -0.7479
 4731TIP3    H214200   4.879   2.510   0.717 -0.9917 -0.6541 -0.4012
 4732TIP3   OH214201   3.084   0.538   0.939  0.1639 -0.3584 -0.1188
 4732TIP3    H114202   3.033   0.524   1.019  0.1256 -1.4078 -0.3020
 4732TIP3    H214203   3.081   0.453   0.895  0.0960  0.2311 -1.2878
 4733TIP3   OH214204   0.193   2.102   4.652 -0.2930 -0.9344 -0.3144
 4733TIP3    H114205   0.171   2.031   4.591 -1.6584 -0.7181 -0.0961
 4733TIP3    H214206   0.265   2.067   4.704 -0.5183 -1.9181 -0.6447
 4734TIP3   OH214207   3.295   3.026   2.602  0.0065  0.3719  0.5755
 4734TIP3    H114208   3.323   3.002   2.514  1.2644 -0.8656  1.2721
 4734TIP3    H214209   3.214   2.978   2.617 -0.7959  1.4090 -0.2567
 4735TIP3   OH214210   6.254   3.995   1.260  0.3121 -0.1458 -0.3440
 4735TIP3    H114211   6.251   4.065   1.324 -0.3266 -0.2672 -0.2316
 4735TIP3    H214212   6.284   3.918   1.308  0.3593 -0.1080 -0.3140
 4736TIP3   OH214213   0.953   0.301   2.395  0.1341 -0.2360  0.1141
 4736TIP3    H114214   1.013   0.365   2.357  0.7867 -0.0571  1.3900
 4736TIP3    H214215   0.868   0.345   2.393  0.1758 -0.1671 -0.9420
 4737TIP3   OH214216   5.651   1.136   2.095  0.6247  0.3091 -0.6700
 4737TIP3    H114217   5.668   1.042   2.104  1.0400  0.3832 -0.6735
 4737TIP3    H214218   5.605   1.144   2.011  1.8109  0.2611 -1.3401
 4738TIP3   OH214219   3.807   5.510   0.768  0.1299  0.0017  0.1446
 4738TIP3    H114220   3.862   5.457   0.825  1.8313 -0.1940 -1.5796
 4738TIP3    H214221   3.733   5.537   0.823  1.7677  0.0070  2.4592
 4739TIP3   OH214222   2.233   3.934   3.574  0.0836  0.7702  0.3658
 4739TIP3    H114223   2.197   4.002   3.631 -0.8737 -1.2704  2.3917
 4739TIP3    H214224   2.261   3.865   3.635  0.7040 -0.7797 -1.5823
 4740TIP3   OH214225   0.210   4.358   2.695 -0.9503  0.1480 -0.4341
 4740TIP3    H114226   0.174   4.443   2.718  0.6919  0.9496 -0.7007
 4740TIP3    H214227   0.297   4.377   2.659 -0.1784 -1.6986  0.3218
 4741TIP3   OH214228   3.801   5.518   4.079  0.0869  0.2574 -0.4608
 4741TIP3    H114229   3.715   5.479   4.063 -0.0094 -0.7408  2.0986
 4741TIP3    H214230   3.784   5.612   4.086 -0.2315  0.4865 -3.0590
 4742TIP3   OH214231   3.334   3.173   1.167 -0.2383  0.1140  0.4363
 4742TIP3    H114232   3.355   3.175   1.260 -0.6619  1.1381  0.5255
 4742TIP3    H214233   3.387   3.102   1.132  2.6844  1.9512  0.7877
 4743TIP3   OH214234   3.305   5.972   0.044  0.1849  0.5700  0.5620
 4743TIP3    H114235   3.256   5.997  -0.034 -0.5683  2.0522  1.4594
 4743TIP3    H214236   3.246   5.912   0.091  0.6668 -0.3773 -0.0234
 4744TIP3   OH214237   4.718   1.479   4.138  0.3544  0.2980 -0.1730
 4744TIP3    H114238   4.717   1.509   4.229 -0.6162  0.3879 -0.2011
 4744TIP3    H214239   4.714   1.384   4.143 -1.2582  0.3397 -0.1130
 4745TIP3   OH214240   3.687   3.966   2.211 -0.4117 -0.0085 -0.2455
 4745TIP3    H114241   3.659   3.910   2.283  0.7294  0.9714  1.0232
 4745TIP3    H214242   3.638   4.048   2.224  0.3221  0.4226 -0.1661
 4746TIP3   OH214243   5.384   3.957   0.999  0.1414 -0.3313 -0.0414
 4746TIP3    H114244   5.382   4.007   0.918  0.9704 -0.6456 -0.2693
 4746TIP3    H214245   5.449   3.888   0.983  0.4158 -0.3164  0.9329
 4747TIP3   OH214246   0.614   5.560   4.774 -0.3886  0.5253 -0.1311
 4747TIP3    H114247   0.630   5.522   4.687  1.6459 -0.4498  0.5880
 4747TIP3    H214248   0.702   5.578   4.808 -1.1662  1.3691  1.5378
 4748TIP3   OH214249   4.664   5.845   2.498  0.6655  0.1018 -0.0577
 4748TIP3    H114250   4.647   5.927   2.451  1.2995 -0.2777 -0.9727
 4748TIP3    H214251   4.740   5.865   2.553  0.6175  0.2199 -0.0323
 4749TIP3   OH214252   1.405   2.442   0.629 -0.2462  0.2838  0.3948
 4749TIP3    H114253   1.483   2.485   0.664 -0.1896  0.2576  0.3034
 4749TIP3    H214254   1.402   2.358   0.674 -0.6362  0.5828  0.9371
 4750TIP3   OH214255   0.144   3.144   0.693 -0.3859  0.4131 -0.2099
 4750TIP3    H114256   0.120   3.233   0.668  1.4724  1.1203  0.3752
 4750TIP3    H214257   0.081   3.120   0.761 -1.5321  0.8695 -1.0819
 4751TIP3   OH214258   6.142   1.912   4.683 -0.1286 -0.0026 -0.2144
 4751TIP3    H114259   6.164   2.002   4.705  1.2747 -0.1286 -0.9821
 4751TIP3    H214260   6.053   1.900   4.716  0.3547  1.0651  1.5782
 4752TIP3   OH214261   4.611   4.586   0.253 -0.0309 -0.1776  0.3155
 4752TIP3    H114262   4.580   4.506   0.211  1.8255 -0.3701 -0.7881
 4752TIP3    H214263   4.535   4.618   0.302 -0.6953 -2.8562  1.2284
 4753TIP3   OH214264   1.771   1.154   1.080 -0.1675 -0.3170 -0.1123
 4753TIP3    H114265   1.781   1.236   1.130 -1.7202 -0.6497  0.8004
 4753TIP3    H214266   1.694   1.168   1.026 -1.1065 -1.5386  0.8556
 4754TIP3   OH214267   5.174   0.615   4.794 -0.3916  0.2711  0.0364
 4754TIP3    H114268   5.229   0.540   4.770  0.4495  1.4049 -1.8103
 4754TIP3    H214269   5.201   0.637   4.883  1.4280  0.1560 -0.4519
 4755TIP3   OH214270   4.455   4.320   0.509 -0.0340 -0.3750 -0.4835
 4755TIP3    H114271   4.454   4.416   0.503 -2.0446 -0.0650  2.6232
 4755TIP3    H214272   4.403   4.291   0.434 -1.0487  1.1222 -0.4076
 4756TIP3   OH214273   4.206   3.693   1.064 -0.2058 -0.3028 -0.2593
 4756TIP3    H114274   4.130   3.750   1.049  1.0194  1.7055  0.7164
 4756TIP3    H214275   4.277   3.736   1.016  0.7781 -0.9968  0.5458
 4757TIP3   OH214276   1.429   4.984   0.243 -0.4754 -0.2565 -0.8141
 4757TIP3    H114277   1.396   4.980   0.153 -1.7686  1.2262 -0.4492
 4757TIP3    H214278   1.463   5.073   0.252  0.6305 -0.7219 -0.1304
 4758TIP3   OH214279   1.003   2.976   3.317  0.5405 -0.3076 -0.0742
 4758TIP3    H114280   1.088   2.985   3.274  0.5790  0.2865  0.1186
 4758TIP3    H214281   0.951   3.049   3.284  0.4453 -0.0720  0.5785
 4759TIP3   OH214282   6.039   2.544   1.999 -0.0197  0.2367 -0.3918
 4759TIP3    H114283   5.999   2.521   1.915 -0.2895  1.0467 -0.4893
 4759TIP3    H214284   5.979   2.506   2.064 -1.4377  2.1023 -0.5157
 4760TIP3   OH214285   4.076   0.152   3.261 -0.1159 -0.2856 -0.0040
 4760TIP3    H114286   4.152   0.095   3.253 -0.8090 -2.5314  5.2651
 4760TIP3    H214287   4.103   0.219   3.324 -1.6163  0.6104 -0.2744
 4761TIP3   OH214288   5.642   1.836   2.278  0.2625 -0.1914  0.2325
 4761TIP3    H114289   5.682   1.907   2.228  1.2160  0.4346  1.7948
 4761TIP3    H214290   5.715   1.777   2.297 -0.2919 -0.9661 -0.0372
 4762TIP3   OH214291   5.003   0.900   2.039  0.5094 -0.1007  0.2325
 4762TIP3    H114292   4.921   0.939   2.010 -0.1403 -1.3592  0.3306
 4762TIP3    H214293   5.011   0.926   2.130 -0.1745 -0.5816  0.4408
 4763TIP3   OH214294   3.283   2.581   4.630  0.3214  0.0004 -0.1960
 4763TIP3    H114295   3.366   2.591   4.585  0.5843 -2.1931 -0.3055
 4763TIP3    H214296   3.253   2.493   4.606 -0.8390 -0.1959  1.7571
 4764TIP3   OH214297   2.385   1.026   1.918 -0.4319 -0.3792 -0.1314
 4764TIP3    H114298   2.395   1.120   1.928 -0.5771 -0.3853  0.0661
 4764TIP3    H214299   2.294   1.014   1.891 -0.7349 -0.5468  0.9401
 4765TIP3   OH214300   5.235   4.720   1.925 -0.6980  0.2870 -0.4452
 4765TIP3    H114301   5.182   4.792   1.960  0.0973  1.1897 -1.0569
 4765TIP3    H214302   5.244   4.739   1.832  0.8554  0.2716 -0.3241
 4766TIP3   OH214303   0.803   5.576   2.840 -0.0579 -0.5742 -0.4935
 4766TIP3    H114304   0.717   5.599   2.803  0.3705 -0.2347 -1.2947
 4766TIP3    H214305   0.832   5.656   2.883  0.2773 -0.4000 -1.0409
 4767TIP3   OH214306   5.946   0.655   4.231 -0.4918 -0.4207 -0.4562
 4767TIP3    H114307   6.025   0.611   4.263 -0.4341 -0.8119 -1.1027
 4767TIP3    H214308   5.894   0.672   4.309 -0.2425 -1.1017 -0.1332
 4768TIP3   OH214309   1.927   3.000   0.497  0.1723  0.0200  0.8805
 4768TIP3    H114310   1.875   3.065   0.451  0.0932 -1.0597 -0.6361
 4768TIP3    H214311   1.942   3.038   0.584  0.7230  2.3461 -0.1523
 4769TIP3   OH214312   5.243   4.677   4.687  0.0283 -0.4601  0.1038
 4769TIP3    H114313   5.160   4.712   4.719  0.7057  1.0840  0.2410
 4769TIP3    H214314   5.310   4.726   4.734  1.0342 -1.7603  0.0729
 4770TIP3   OH214315   0.088   0.209   0.539  0.1348 -0.1566  0.5170
 4770TIP3    H114316   0.118   0.122   0.566 -0.7301 -0.7796 -0.4624
 4770TIP3    H214317  -0.002   0.195   0.509  0.0600  1.0394  0.1326
 4771TIP3   OH214318   2.927   5.209   3.081 -0.0151  0.1099  0.5025
 4771TIP3    H114319   2.983   5.138   3.051  0.5489  0.4665  0.7065
 4771TIP3    H214320   2.934   5.276   3.013  0.2438  0.3830  0.7971
 4772TIP3   OH214321   1.579   3.812   5.006 -0.0153  0.0092 -1.1305
 4772TIP3    H114322   1.645   3.757   5.049 -0.5392 -0.2243 -0.6086
 4772TIP3    H214323   1.630   3.870   4.949  0.7396  0.5573  0.0494
 4773TIP3   OH214324   1.465   2.820   0.453  0.2612 -0.4522 -0.2084
 4773TIP3    H114325   1.407   2.891   0.480  1.0964  0.3873 -0.5466
 4773TIP3    H214326   1.479   2.768   0.532 -0.8938 -0.6502 -0.1106
 4774TIP3   OH214327   1.175   1.773   3.092 -0.2440  0.1471  0.2890
 4774TIP3    H114328   1.246   1.803   3.034 -0.5275  0.8559  0.3034
 4774TIP3    H214329   1.146   1.690   3.053  0.0697  0.2413 -0.1585
 4775TIP3   OH214330   1.285   5.283   3.033 -0.1516  0.0797  0.3101
 4775TIP3    H114331   1.318   5.315   3.117 -0.4507 -0.7003  0.7337
 4775TIP3    H214332   1.192   5.304   3.034  0.0192  0.8971 -0.2282
 4776TIP3   OH214333   1.967   4.579   0.658  0.6437  0.2330 -0.1795
 4776TIP3    H114334   1.893   4.622   0.614 -0.5850 -0.5400  1.0475
 4776TIP3    H214335   2.044   4.621   0.621 -0.4527  3.3797  0.7356
 4777TIP3   OH214336   4.262   3.865   3.948 -0.3689 -0.1208 -0.4324
 4777TIP3    H114337   4.302   3.910   4.022  0.1991 -0.1983 -0.6880
 4777TIP3    H214338   4.172   3.847   3.976 -1.3828  3.1878 -1.1626
 4778TIP3   OH214339   0.136   2.713   3.267 -0.3964  0.0521  0.2877
 4778TIP3    H114340   0.162   2.626   3.238 -1.6289 -0.3659  0.3961
 4778TIP3    H214341   0.041   2.715   3.256 -0.6009  0.7607  1.9042
 4779TIP3   OH214342   0.478   3.742   1.404 -0.2567 -0.4301 -1.0160
 4779TIP3    H114343   0.427   3.668   1.436 -1.1971  0.9009  0.7998
 4779TIP3    H214344   0.411   3.804   1.371  0.3871  0.2096 -1.1478
 4780TIP3   OH214345   1.438   5.788   0.345  0.2654  0.0018  0.5964
 4780TIP3    H114346   1.521   5.745   0.325  0.4212  0.4956  0.1703
 4780TIP3    H214347   1.462   5.878   0.367 -0.1341  0.0828  0.7165
 4781TIP3   OH214348   0.826   3.816   2.993 -0.6366 -0.0399  0.3330
 4781TIP3    H114349   0.874   3.828   2.911  0.1925 -1.1647  0.6277
 4781TIP3    H214350   0.761   3.749   2.972  1.4247 -2.5104  1.2401
 4782TIP3   OH214351   5.312   4.584   1.175 -0.4340 -0.0999 -0.1890
 4782TIP3    H114352   5.365   4.597   1.096 -0.0072  0.4877  0.1790
 4782TIP3    H214353   5.290   4.673   1.203 -1.9054 -0.3419 -0.5091
 4783TIP3   OH214354   2.028   1.154   2.498 -0.5974  0.2412  0.0866
 4783TIP3    H114355   2.057   1.065   2.480 -1.1980  0.1822 -0.6337
 4783TIP3    H214356   2.035   1.199   2.414 -0.6085  0.7803  0.3739
 4784TIP3   OH214357   3.098   0.936   2.576  0.2088  0.1594  0.3303
 4784TIP3    H114358   3.003   0.933   2.574  0.1513  0.0658  1.9340
 4784TIP3    H214359   3.119   1.006   2.638  1.2183  1.1421 -1.0404
 4785TIP3   OH214360   3.904   2.558   0.583 -0.0951  0.3846  0.0928
 4785TIP3    H114361   3.947   2.586   0.502 -0.8739  0.2169 -0.3902
 4785TIP3    H214362   3.972   2.511   0.631  0.6749  1.3904  0.0247
 4786TIP3   OH214363   6.376   4.600   5.073  0.2044 -0.0786  0.2638
 4786TIP3    H114364   6.376   4.617   5.168  0.3152 -2.7590  0.7995
 4786TIP3    H214365   6.287   4.624   5.046 -1.0792 -2.6252  1.8046
 4787TIP3   OH214366   4.009   2.827   0.872  0.1214  0.3639  0.3177
 4787TIP3    H114367   3.922   2.840   0.910 -0.2482 -1.0004 -0.0065
 4787TIP3    H214368   4.069   2.830   0.946 -0.3559 -0.1005  0.7271
 4788TIP3   OH214369   2.766   5.800   2.567  0.3189  0.4426  0.1184
 4788TIP3    H114370   2.685   5.850   2.571  0.4438  0.7028 -0.4614
 4788TIP3    H214371   2.745   5.724   2.512  0.2370  0.0526  0.6755
 4789TIP3   OH214372   1.739   3.460   0.422  0.4470  0.1830  0.1638
 4789TIP3    H114373   1.657   3.414   0.442 -0.0948  0.5730 -1.0510
 4789TIP3    H214374   1.750   3.521   0.495 -1.0754  1.0520 -0.2689
 4790TIP3   OH214375   4.916   1.988   0.122 -0.3169  0.1568  0.4103
 4790TIP3    H114376   4.935   2.039   0.043 -0.6581 -1.3279 -0.6552
 4790TIP3    H214377   4.958   2.038   0.192  2.4862  0.0421 -1.0549
 4791TIP3   OH214378   0.300   0.399   0.554 -0.0603 -0.0431 -0.6548
 4791TIP3    H114379   0.299   0.460   0.480 -0.0054  0.2539 -0.4145
 4791TIP3    H214380   0.236   0.332   0.530 -0.7449  0.5557 -0.5606
 4792TIP3   OH214381   5.643   5.688   5.132  0.3291  0.9199 -0.2229
 4792TIP3    H114382   5.650   5.783   5.124 -1.2616  1.1663  0.8410
 4792TIP3    H214383   5.567   5.664   5.079  1.4290  0.0375 -1.4866
 4793TIP3   OH214384   5.549   0.241   1.462  0.2326  0.1372  0.3845
 4793TIP3    H114385   5.605   0.281   1.529  0.2024 -0.5803  0.8617
 4793TIP3    H214386   5.520   0.314   1.408  1.1911  0.5910  0.4564
 4794TIP3   OH214387   5.086   3.862   4.902  0.3730  0.5671  0.1299
 4794TIP3    H114388   5.021   3.933   4.908 -0.7242 -0.2483 -1.3047
 4794TIP3    H214389   5.058   3.798   4.966 -0.4356  0.0956 -0.6727
 4795TIP3   OH214390   5.866   1.367   3.619  0.0166  0.0714  0.3658
 4795TIP3    H114391   5.817   1.287   3.635 -1.2112  0.6491 -0.2957
 4795TIP3    H214392   5.865   1.377   3.524  0.7918  0.4929  0.3911
 4796TIP3   OH214393   1.092   0.294   0.904  0.2133  0.0353 -0.9323
 4796TIP3    H114394   1.164   0.355   0.886  1.4690 -1.6548 -1.9467
 4796TIP3    H214395   1.072   0.306   0.997  1.5316  0.8223 -0.7333
 4797TIP3   OH214396   1.001   0.556   1.106  0.3628 -0.7602 -0.5113
 4797TIP3    H114397   0.985   0.591   1.019  0.0253 -1.1729 -0.6216
 4797TIP3    H214398   0.915   0.553   1.147  0.7603  1.3722  0.6072
 4798TIP3   OH214399   4.470   2.320   2.246  0.1134 -0.0647  0.1406
 4798TIP3    H114400   4.489   2.312   2.340  0.4498  0.7881  0.1616
 4798TIP3    H214401   4.528   2.256   2.204  1.2256  0.7199  0.4034
 4799TIP3   OH214402   4.551   3.470   2.999  0.1977  0.3038  0.0405
 4799TIP3    H114403   4.486   3.437   2.937  1.1462 -0.9349 -0.3176
 4799TIP3    H214404   4.571   3.558   2.968 -0.2936  0.1811 -0.6492
 4800TIP3   OH214405   1.969   1.035   0.462  0.1380  0.3606  0.1474
 4800TIP3    H114406   1.880   1.002   0.450  0.0941  0.1254  1.0785
 4800TIP3    H214407   1.977   1.106   0.398 -0.6202  0.1948 -0.1378
 4801TIP3   OH214408   1.534   1.168   3.115 -0.3185  0.0589 -0.3229
 4801TIP3    H114409   1.448   1.164   3.158 -0.3705 -0.3867 -0.4636
 4801TIP3    H214410   1.567   1.079   3.120  0.1202  0.2223 -0.3110
 4802TIP3   OH214411   2.783   4.459   1.585 -0.4689 -0.6610  1.1538
 4802TIP3    H114412   2.783   4.374   1.542  0.9964 -0.5268  0.8353
 4802TIP3    H214413   2.728   4.447   1.662 -0.9652 -1.6499  0.6610
 4803TIP3   OH214414   5.869   2.830   1.291  0.7197 -0.3555  0.5362
 4803TIP3    H114415   5.886   2.908   1.239  0.8356 -1.7552 -1.6836
 4803TIP3    H214416   5.868   2.758   1.227 -5.0227 -1.6154  1.5221
 4804TIP3   OH214417   4.897   0.185   4.484  0.0265 -0.2209 -0.3740
 4804TIP3    H114418   4.813   0.144   4.462 -0.2318 -0.7961  1.5247
 4804TIP3    H214419   4.959   0.112   4.491  0.3037  0.0294 -0.1528
 4805TIP3   OH214420   5.906   4.284   1.626  0.1773 -0.3241 -0.4375
 4805TIP3    H114421   5.853   4.358   1.596 -0.9051 -1.1822 -0.7117
 4805TIP3    H214422   5.849   4.237   1.687  0.9726 -0.7404 -0.0077
 4806TIP3   OH214423   4.327   1.918   0.064 -0.1567 -0.2865 -0.1971
 4806TIP3    H114424   4.370   1.868   0.134  1.1620  0.8425 -0.1514
 4806TIP3    H214425   4.294   1.997   0.107  0.2172  0.1786 -0.7392
 4807TIP3   OH214426   0.570   3.997   4.748 -0.0460 -0.1806  0.5245
 4807TIP3    H114427   0.512   3.941   4.798  0.5070 -2.2085 -0.9746
 4807TIP3    H214428   0.603   4.061   4.811  0.3872 -2.4078  2.6847
 4808TIP3   OH214429   3.341   5.311   4.892 -0.0258  0.2611 -0.5089
 4808TIP3    H114430   3.290   5.239   4.855 -1.3621  1.1586 -0.4936
 4808TIP3    H214431   3.277   5.363   4.941  0.4002  2.6646 -2.2923
 4809TIP3   OH214432   5.716   4.888   1.759 -0.5270 -0.0144 -0.5232
 4809TIP3    H114433   5.647   4.861   1.699 -0.8083  0.9207 -0.6378
 4809TIP3    H214434   5.717   4.984   1.752  1.3926 -0.0388 -1.2294
 4810TIP3   OH214435   0.272   0.363   1.386 -0.5510 -0.8302  0.1248
 4810TIP3    H114436   0.289   0.305   1.311  0.6968 -0.8954  0.4402
 4810TIP3    H214437   0.296   0.310   1.463 -2.1266 -0.8850  0.6290
 4811TIP3   OH214438   4.633   3.897   0.755 -0.2307  0.3848 -0.4738
 4811TIP3    H114439   4.547   3.859   0.737  0.6399 -1.0020 -1.9874
 4811TIP3    H214440   4.654   3.867   0.843 -1.1384  0.4250 -0.2327
 4812TIP3   OH214441   2.577   3.137   1.065  0.0043 -0.0547  0.5429
 4812TIP3    H114442   2.493   3.102   1.094  1.0019 -2.2022  1.0100
 4812TIP3    H214443   2.556   3.184   0.984 -1.8859  1.0150  1.5726
 4813TIP3   OH214444   2.417   5.362   5.133  0.3322 -0.4260  0.0866
 4813TIP3    H114445   2.440   5.417   5.058 -1.1785  0.0865 -0.0540
 4813TIP3    H214446   2.321   5.365   5.136  0.3184  2.0548  3.8336
 4814TIP3   OH214447   5.137   3.806   1.158 -0.6618  0.3144 -0.4379
 4814TIP3    H114448   5.156   3.779   1.068 -0.0728  1.6108 -0.7360
 4814TIP3    H214449   5.221   3.805   1.203 -0.7980  0.5702 -0.1661
 4815TIP3   OH214450   2.034   5.984   4.456  0.0632 -0.1672  0.3648
 4815TIP3    H114451   2.105   5.977   4.392 -0.3792 -1.0077 -0.0550
 4815TIP3    H214452   2.027   5.897   4.494 -0.2652  0.1001  0.9298
 4816TIP3   OH214453   5.589   0.294   2.233 -0.8755  0.2258 -0.0323
 4816TIP3    H114454   5.641   0.340   2.299 -0.9139  1.3170 -0.7362
 4816TIP3    H214455   5.520   0.357   2.210  0.3621  0.7620 -2.6380
 4817TIP3   OH214456   4.072   3.496   4.839 -0.2386  0.0988  0.0693
 4817TIP3    H114457   4.122   3.556   4.783  0.5719 -2.3637 -2.0340
 4817TIP3    H214458   4.001   3.464   4.782  0.1272 -1.8841  0.6755
 4818TIP3   OH214459   5.356   0.493   4.478  0.1640 -0.6036 -0.8343
 4818TIP3    H114460   5.305   0.570   4.453 -0.2738 -1.0798 -1.4570
 4818TIP3    H214461   5.438   0.501   4.428  0.7968  0.2554  0.3055
 4819TIP3   OH214462   0.431   0.763   0.693 -0.3270  0.3718 -0.5615
 4819TIP3    H114463   0.478   0.695   0.742  2.8562  2.0166 -1.1008
 4819TIP3    H214464   0.398   0.717   0.615  0.1553 -0.9224 -0.0364
 4820TIP3   OH214465   3.756   0.652   3.633 -0.3954  0.0715  0.2432
 4820TIP3    H114466   3.794   0.724   3.683  0.3949 -0.4318  0.3865
 4820TIP3    H214467   3.830   0.595   3.614 -0.9921 -0.6327  0.0103
 4821TIP3   OH214468   0.931   0.109   1.731 -0.8222  0.2111 -0.3415
 4821TIP3    H114469   0.995   0.053   1.689  0.5693  1.6136 -0.1828
 4821TIP3    H214470   0.970   0.132   1.816 -1.8281  0.5601  0.0499
 4822TIP3   OH214471   0.845   4.465   2.996 -0.2025 -0.4451 -0.0966
 4822TIP3    H114472   0.753   4.463   2.968 -1.0433 -0.9001  2.4218
 4822TIP3    H214473   0.874   4.375   2.991 -0.4064 -0.5551  0.5432
 4823TIP3   OH214474   4.110   0.838   4.916  0.4425 -0.1813 -0.0626
 4823TIP3    H114475   4.130   0.750   4.948  1.2887  0.1532  0.3354
 4823TIP3    H214476   4.042   0.823   4.850 -0.1146 -1.0444  0.6568
 4824TIP3   OH214477   0.389   4.685   2.828 -0.1506 -0.0102  0.3092
 4824TIP3    H114478   0.318   4.627   2.802  1.4919 -1.5360 -1.0205
 4824TIP3    H214479   0.352   4.773   2.821 -1.9993 -0.7547  0.0673
 4825TIP3   OH214480   4.240   3.930   0.140 -0.1234 -0.3220  0.0313
 4825TIP3    H114481   4.147   3.932   0.159 -0.2669 -1.9725 -0.4301
 4825TIP3    H214482   4.250   3.864   0.072  1.4561 -0.5781  0.4720
 4826TIP3   OH214483   1.367   0.864   0.928  0.0745  0.4014 -0.9137
 4826TIP3    H114484   1.302   0.793   0.925  1.0280 -0.4936 -1.1856
 4826TIP3    H214485   1.436   0.835   0.867  2.3335 -0.3084  1.7779
 4827TIP3   OH214486   1.071   0.085   4.335 -0.0232  0.1155 -0.1885
 4827TIP3    H114487   1.003   0.072   4.268 -0.0553 -0.8577  0.0247
 4827TIP3    H214488   1.029   0.140   4.401 -0.2511  0.4205 -0.5802
 4828TIP3   OH214489   1.891   2.375   2.907 -0.2269  0.1702  0.1539
 4828TIP3    H114490   1.896   2.298   2.965 -1.5035  0.7695  1.1074
 4828TIP3    H214491   1.823   2.430   2.946  0.1641  1.4617 -0.9148
 4829TIP3   OH214492   2.145   1.515   0.527 -0.5284 -0.6167 -0.0698
 4829TIP3    H114493   2.105   1.568   0.595 -1.4673 -2.6206  1.0512
 4829TIP3    H214494   2.219   1.471   0.570  2.0743  1.8134 -1.7087
 4830TIP3   OH214495   4.188   2.294   2.164 -0.3782 -0.4518 -0.4424
 4830TIP3    H114496   4.279   2.281   2.192 -0.1680  0.2574 -0.7836
 4830TIP3    H214497   4.187   2.266   2.073 -0.3829  0.0262 -0.5908
 4831TIP3   OH214498   2.965   0.689   0.380 -0.2424  0.2062  0.2266
 4831TIP3    H114499   2.966   0.716   0.289 -1.7550  1.7774  0.6175
 4831TIP3    H214500   2.900   0.746   0.421 -0.3664 -1.1731  2.0691
 4832TIP3   OH214501   0.839   2.173   3.775 -0.2105  0.1447  0.0136
 4832TIP3    H114502   0.813   2.147   3.863 -0.7991  1.8237  0.3745
 4832TIP3    H214503   0.808   2.102   3.719 -0.3399 -0.6703  1.0830
 4833TIP3   OH214504   0.696   1.742   4.545 -0.0835 -0.1112  0.3273
 4833TIP3    H114505   0.727   1.818   4.593  0.5295  1.1890 -1.9665
 4833TIP3    H214506   0.766   1.678   4.552  0.1410  0.1869  0.8311
 4834TIP3   OH214507   6.002   5.809   3.408 -0.8017 -0.0349 -0.8043
 4834TIP3    H114508   6.088   5.787   3.442 -0.9341  0.8177  0.1139
 4834TIP3    H214509   6.000   5.769   3.321  1.2490  1.4835 -1.6552
 4835TIP3   OH214510   3.967   1.971   0.691  0.1806  0.7357 -0.1085
 4835TIP3    H114511   4.007   1.917   0.760 -1.7750 -0.1407  0.4184
 4835TIP3    H214512   4.004   2.058   0.705 -0.8378  0.8305  2.7191
 4836TIP3   OH214513   1.563   4.518   0.861 -0.0737 -0.2873 -0.3241
 4836TIP3    H114514   1.627   4.582   0.892  0.2615 -1.0468  0.6012
 4836TIP3    H214515   1.582   4.438   0.912 -1.6379 -0.5754 -0.1394
 4837TIP3   OH214516   1.083   2.938   3.582 -0.2008  0.2751  0.5616
 4837TIP3    H114517   1.053   2.956   3.492  0.6779  3.3378  0.7902
 4837TIP3    H214518   1.167   2.894   3.571 -0.3302  0.1789 -0.1044
 4838TIP3   OH214519   2.338   4.248   0.796  0.3278  0.2986 -0.2925
 4838TIP3    H114520   2.430   4.273   0.783  0.7702 -1.5003 -0.9065
 4838TIP3    H214521   2.341   4.177   0.859 -0.6006 -0.0964 -0.6714
 4839TIP3   OH214522   2.372   4.861   3.117 -0.1801  0.0643 -0.2290
 4839TIP3    H114523   2.408   4.924   3.054 -0.8109  0.7192  0.0398
 4839TIP3    H214524   2.282   4.848   3.087 -0.7702  1.0416  0.9909
 4840TIP3   OH214525   1.157   0.820   4.541 -0.2584 -0.0299  0.0008
 4840TIP3    H114526   1.204   0.890   4.496 -0.1723 -0.6899 -0.9709
 4840TIP3    H214527   1.211   0.799   4.617 -1.1032  2.0632  1.2543
 4841TIP3   OH214528   5.478   1.205   0.610 -0.0886 -0.2253  0.3599
 4841TIP3    H114529   5.556   1.236   0.563  0.5255 -0.7292  1.0165
 4841TIP3    H214530   5.508   1.128   0.658 -0.9149 -0.2342  0.8879
 4842TIP3   OH214531   0.658   5.500   3.069  0.0941  0.0520  0.5042
 4842TIP3    H114532   0.660   5.405   3.061  0.6003  0.0836  0.1928
 4842TIP3    H214533   0.740   5.529   3.030  0.2963  0.5676  1.2822
 4843TIP3   OH214534   5.343   5.107   1.175  0.2737  0.6118  0.1638
 4843TIP3    H114535   5.325   5.047   1.103  0.0610  2.6661 -1.5943
 4843TIP3    H214536   5.401   5.058   1.234 -1.3503 -1.9074 -0.2075
 4844TIP3   OH214537   3.612   0.047   3.034  0.1544  0.1569  0.6241
 4844TIP3    H114538   3.652   0.132   3.016  0.2399 -0.2887 -1.4560
 4844TIP3    H214539   3.536   0.068   3.089 -0.4673  1.7201 -0.7478
 4845TIP3   OH214540   4.841   1.719   1.095  0.4076 -0.0867 -0.0203
 4845TIP3    H114541   4.755   1.738   1.058  0.5888 -1.8344 -1.5082
 4845TIP3    H214542   4.822   1.668   1.174  0.0623  2.0489  1.3524
 4846TIP3   OH214543   2.555   4.822   1.065 -0.5046  0.3982  0.1471
 4846TIP3    H114544   2.567   4.728   1.081 -0.6362  0.5089  0.9417
 4846TIP3    H214545   2.629   4.847   1.010 -0.4562 -0.1695 -0.0475
 4847TIP3   OH214546   1.124   4.217   0.866 -0.2511 -0.2973  0.2528
 4847TIP3    H114547   1.187   4.145   0.862 -1.4584 -1.3722 -0.3639
 4847TIP3    H214548   1.041   4.178   0.836 -1.0169  1.2749  0.2057
 4848TIP3   OH214549   2.342   1.748   3.302  0.1386 -0.2491  0.5932
 4848TIP3    H114550   2.305   1.833   3.329  0.2968  0.2580 -0.7123
 4848TIP3    H214551   2.431   1.769   3.273  0.4029 -0.9799  0.8580
 4849TIP3   OH214552   2.249   1.465   0.837  0.4693 -0.2577  0.6988
 4849TIP3    H114553   2.283   1.404   0.902  1.1225 -0.4714  0.1645
 4849TIP3    H214554   2.275   1.551   0.869  0.9284 -0.3729  0.6380
 4850TIP3   OH214555   0.135   1.384   1.534  0.1005 -0.2144 -0.1124
 4850TIP3    H114556   0.168   1.318   1.473 -0.8735  0.0256 -0.9285
 4850TIP3    H214557   0.184   1.369   1.615  1.5587 -0.4310 -1.0024
 4851TIP3   OH214558   3.608   1.607   0.552  0.4110 -0.1798 -0.0134
 4851TIP3    H114559   3.562   1.671   0.498  0.3333  0.1306  0.4252
 4851TIP3    H214560   3.539   1.552   0.589  0.4600 -0.3362 -0.1488
 4852TIP3   OH214561   2.480   3.347   3.593  0.1401  0.3103 -0.1057
 4852TIP3    H114562   2.492   3.271   3.536 -0.1643  0.4688 -0.3882
 4852TIP3    H214563   2.431   3.314   3.668  1.8653 -0.2503  0.8460
 4853TIP3   OH214564   4.672   3.073   0.434  0.2318  0.5560  0.3304
 4853TIP3    H114565   4.696   3.076   0.341 -1.5815  0.9017 -0.1633
 4853TIP3    H214566   4.704   3.155   0.469  1.0662  0.3596  0.0527
 4854TIP3   OH214567   1.984   2.661   3.725 -0.5107 -0.6317 -0.6372
 4854TIP3    H114568   1.927   2.692   3.796 -0.0589  0.6969 -0.8251
 4854TIP3    H214569   1.937   2.684   3.645 -0.5544 -1.2118 -0.7790
 4855TIP3   OH214570   0.716   3.953   0.171 -0.2726  0.6327  0.1815
 4855TIP3    H114571   0.795   3.999   0.141  0.8757 -1.8647 -0.9454
 4855TIP3    H214572   0.655   3.959   0.097 -0.1246  0.3650  0.0361
 4856TIP3   OH214573   0.495   3.947   4.219 -0.0143  0.0452 -0.3086
 4856TIP3    H114574   0.505   3.907   4.306 -0.0507 -0.4529 -0.5287
 4856TIP3    H214575   0.535   3.884   4.159 -0.9791 -0.1432 -0.7750
 4857TIP3   OH214576   5.244   4.950   2.452 -0.7893 -0.0106 -0.1404
 4857TIP3    H114577   5.251   4.964   2.546  0.0921  0.4277 -0.2631
 4857TIP3    H214578   5.308   4.882   2.432  1.1763  1.9089 -0.8216
 4858TIP3   OH214579   5.450   3.699   4.233  0.1226  0.2832 -0.0489
 4858TIP3    H114580   5.510   3.766   4.266  0.5955 -1.0787  2.0095
 4858TIP3    H214581   5.495   3.662   4.157  1.0052  0.6034  0.3075
 4859TIP3   OH214582   4.667   4.958   1.351  0.0703  0.2334  0.9639
 4859TIP3    H114583   4.730   5.000   1.410  1.1671 -2.0468  1.5191
 4859TIP3    H214584   4.665   4.866   1.378 -1.0021 -0.4615 -1.1927
 4860TIP3   OH214585   5.021   5.979   4.834 -0.2993  0.6168  0.2829
 4860TIP3    H114586   4.989   5.963   4.923 -0.8430 -0.3374 -0.0753
 4860TIP3    H214587   5.109   5.941   4.833 -0.5761 -0.0251  0.2017
 4861TIP3   OH214588   0.031   1.476   2.409 -0.1800 -0.0336  0.6220
 4861TIP3    H114589  -0.051   1.456   2.365  1.3331 -1.0656 -1.9705
 4861TIP3    H214590   0.020   1.441   2.498 -1.4376 -3.1429 -0.6103
 4862TIP3   OH214591   3.749   2.180   1.469  0.2281 -0.2346 -0.0029
 4862TIP3    H114592   3.767   2.233   1.546  0.8919 -0.5125  0.0371
 4862TIP3    H214593   3.835   2.151   1.438 -0.1273 -1.7845  0.3350
 4863TIP3   OH214594   4.324   4.813   1.452 -0.3459 -0.0973 -0.2391
 4863TIP3    H114595   4.342   4.724   1.422 -0.2469  0.0445 -0.6178
 4863TIP3    H214596   4.348   4.868   1.377  0.7867  0.3404  0.4203
 4864TIP3   OH214597   5.716   5.145   1.710  0.1569  0.1436 -0.5353
 4864TIP3    H114598   5.636   5.153   1.657 -0.4695 -0.3982  0.3153
 4864TIP3    H214599   5.784   5.184   1.655 -0.2092 -1.5578 -2.3255
 4865TIP3   OH214600   3.041   2.564   3.021 -0.0088  0.1526 -0.4185
 4865TIP3    H114601   3.056   2.505   3.095 -0.9648 -1.1775 -1.2443
 4865TIP3    H214602   3.001   2.642   3.060 -3.0240 -1.5931  0.2346
 4866TIP3   OH214603   1.272   4.853   2.376  0.2153 -0.3767  0.0081
 4866TIP3    H114604   1.214   4.926   2.395  0.5297 -0.0291 -0.3352
 4866TIP3    H214605   1.354   4.875   2.421  0.2815 -0.5603 -0.0222
 4867TIP3   OH214606   3.836   3.532   4.024 -0.2852 -0.3233 -0.1370
 4867TIP3    H114607   3.868   3.543   4.113  0.1900 -0.3521 -0.3062
 4867TIP3    H214608   3.865   3.610   3.978  0.1217 -0.6648 -0.4602
 4868TIP3   OH214609   0.938   1.234   2.381 -0.7797 -0.1090 -0.4234
 4868TIP3    H114610   1.010   1.211   2.322  0.8336  0.1423  1.3592
 4868TIP3    H214611   0.881   1.290   2.329  1.3258  1.2812 -1.3651
 4869TIP3   OH214612   2.879   2.806   1.575  1.0526  0.4626  0.0392
 4869TIP3    H114613   2.953   2.760   1.615  0.5974 -0.0535  0.3023
 4869TIP3    H214614   2.818   2.821   1.646  0.9700  1.0379 -0.1466
 4870TIP3   OH214615   4.093   2.372   5.154  0.1840  0.5840 -0.4941
 4870TIP3    H114616   4.062   2.374   5.063  1.0452 -0.3745 -0.8203
 4870TIP3    H214617   4.025   2.325   5.202 -0.4226  1.3594 -0.5626
 4871TIP3   OH214618   3.446   4.614   3.933 -0.2600 -0.3846 -0.0024
 4871TIP3    H114619   3.494   4.557   3.992  0.4490 -1.2899 -1.3934
 4871TIP3    H214620   3.513   4.656   3.879 -0.9121 -0.0741 -0.6038
 4872TIP3   OH214621   1.696   2.083   0.495  0.1343  0.3440 -0.3583
 4872TIP3    H114622   1.751   2.035   0.434  1.9888  1.1631  0.5988
 4872TIP3    H214623   1.725   2.174   0.486 -0.8643  0.7509  0.3993
 4873TIP3   OH214624   1.999   2.409   4.637 -0.6837  0.0607 -0.3536
 4873TIP3    H114625   2.052   2.404   4.717  0.0410  0.7137 -0.7818
 4873TIP3    H214626   2.047   2.469   4.580 -1.4855  0.0430 -1.0655
 4874TIP3   OH214627   2.544   1.036   3.068  0.1089  0.7360  0.3484
 4874TIP3    H114628   2.463   1.088   3.069 -0.0577  0.4903 -0.0742
 4874TIP3    H214629   2.612   1.098   3.040  0.0394  0.9063  0.5582
 4875TIP3   OH214630   6.136   0.217   3.887 -0.8487  0.5384 -0.4175
 4875TIP3    H114631   6.204   0.153   3.866 -0.1305  1.0180  0.3912
 4875TIP3    H214632   6.062   0.164   3.916 -0.0719  0.0726  0.7899
 4876TIP3   OH214633   3.860   2.209   1.060 -0.3409 -0.1088 -0.1259
 4876TIP3    H114634   3.806   2.178   1.133  0.5605 -1.5332 -0.0166
 4876TIP3    H214635   3.947   2.175   1.078 -0.0186 -0.2211 -1.7047
 4877TIP3   OH214636   5.328   2.566   3.361  0.3367  0.5873 -0.0110
 4877TIP3    H114637   5.284   2.612   3.432 -0.9434 -0.7219  0.0769
 4877TIP3    H214638   5.421   2.585   3.374  0.0607  0.9531  1.5851
 4878TIP3   OH214639   0.892   5.398   0.967  0.4169  0.2385 -0.1932
 4878TIP3    H114640   0.799   5.420   0.967  0.4129  0.3089 -1.8734
 4878TIP3    H214641   0.900   5.328   0.903  1.4681 -0.0716  0.2540
 4879TIP3   OH214642   2.556   3.190   2.289  0.7214 -0.1707  0.0417
 4879TIP3    H114643   2.541   3.117   2.350  1.7457 -0.7055 -0.3173
 4879TIP3    H214644   2.650   3.208   2.297  1.0792 -0.8887 -2.0520
 4880TIP3   OH214645   6.358   0.188   4.619  0.2428 -0.3120 -0.4100
 4880TIP3    H114646   6.283   0.205   4.676 -0.1340 -3.4418  0.2343
 4880TIP3    H214647   6.342   0.241   4.541 -0.7797  1.7807  1.1183
 4881TIP3   OH214648   1.787   1.849   4.213  0.1683  0.4639  0.0828
 4881TIP3    H114649   1.860   1.892   4.257 -0.3001  0.9966  0.3565
 4881TIP3    H214650   1.822   1.765   4.186  0.2338 -0.2955  2.2959
 4882TIP3   OH214651   1.527   2.751   0.724 -0.1071 -0.4326 -0.1671
 4882TIP3    H114652   1.439   2.736   0.761 -0.5211 -0.0919 -1.0001
 4882TIP3    H214653   1.566   2.664   0.720 -0.4381 -0.5990  0.1269
 4883TIP3   OH214654   4.606   2.427   4.095  0.2203 -0.2014 -0.0759
 4883TIP3    H114655   4.680   2.379   4.058  0.2023 -1.2415  1.1607
 4883TIP3    H214656   4.529   2.385   4.057  0.2336  0.1714 -0.5257
 4884TIP3   OH214657   3.630   5.314   4.022 -0.6373  0.3812  0.4829
 4884TIP3    H114658   3.637   5.355   3.935  0.5597 -1.2914 -0.2648
 4884TIP3    H214659   3.546   5.268   4.019  0.0980 -0.9651 -0.4263
 4885TIP3   OH214660   6.275   4.983   2.983  0.0723 -0.4325 -0.0267
 4885TIP3    H114661   6.338   5.051   2.961 -0.9141  0.2431 -0.8229
 4885TIP3    H214662   6.256   4.997   3.076  0.7924 -0.4138  0.1279
 4886TIP3   OH214663   5.026   5.233   2.011  0.1670 -0.2313 -0.1327
 4886TIP3    H114664   5.097   5.216   1.948  0.5815  2.2835 -0.4409
 4886TIP3    H214665   5.065   5.211   2.096  0.8723 -0.1556 -0.4236
 4887TIP3   OH214666   2.834   0.039   3.058 -0.0666  0.3688 -0.3286
 4887TIP3    H114667   2.792  -0.038   3.096 -2.4234  1.2245 -1.0214
 4887TIP3    H214668   2.919   0.044   3.101 -0.8349 -1.2278  1.4997
 4888TIP3   OH214669   2.448   2.424   2.805 -0.0496  0.2472 -0.3260
 4888TIP3    H114670   2.408   2.486   2.866 -0.5386 -2.1954  2.0309
 4888TIP3    H214671   2.522   2.387   2.852  1.8439  0.8402 -2.6524
 4889TIP3   OH214672   1.589   1.115   2.032  0.6458 -0.4136 -0.1061
 4889TIP3    H114673   1.603   1.116   1.937  0.1912 -0.0658 -0.1759
 4889TIP3    H214674   1.624   1.031   2.061  2.4297  0.2254 -0.3154
 4890TIP3   OH214675   4.625   4.974   1.759  0.0212 -0.0667 -0.3720
 4890TIP3    H114676   4.567   5.005   1.689 -0.4266 -1.1250 -0.4905
 4890TIP3    H214677   4.594   4.885   1.779  0.3602  0.0909  0.9403
 4891TIP3   OH214678   0.668   4.386   1.101 -0.1417  0.0866 -0.2267
 4891TIP3    H114679   0.722   4.312   1.071  0.3624  0.1057  0.6041
 4891TIP3    H214680   0.629   4.355   1.183 -1.4828  0.0396 -0.8584
 4892TIP3   OH214681   0.370   5.920   2.632 -0.3690  0.9717 -0.2786
 4892TIP3    H114682   0.281   5.919   2.598 -0.2739  0.6964 -0.5297
 4892TIP3    H214683   0.368   5.981   2.705 -0.7042  1.1628 -0.4471
 4893TIP3   OH214684   3.070   1.251   1.036 -0.4688 -0.1880 -0.4839
 4893TIP3    H114685   3.098   1.282   1.122  1.6807 -0.8531 -0.8804
 4893TIP3    H214686   2.974   1.247   1.041 -0.4240  0.5303  1.5914
 4894TIP3   OH214687   0.492   4.970   1.560  0.4113  0.5380  0.1474
 4894TIP3    H114688   0.461   5.045   1.509 -1.2283  0.9337  1.6503
 4894TIP3    H214689   0.487   4.896   1.498 -3.1567  0.6793  0.0892
 4895TIP3   OH214690   5.180   1.942   4.620  0.0522 -0.3454  0.1912
 4895TIP3    H114691   5.221   1.894   4.547  1.7089  0.7179  0.3800
 4895TIP3    H214692   5.102   1.982   4.581  1.1843  0.6334 -1.1819
 4896TIP3   OH214693   2.254   2.245   0.807 -0.0376  0.5368 -0.1472
 4896TIP3    H114694   2.274   2.337   0.827 -1.3921  0.5379  1.3492
 4896TIP3    H214695   2.177   2.249   0.751 -0.0598  0.3180 -0.1317
 4897TIP3   OH214696   0.410   4.669   1.453 -0.0755  0.1229  0.0593
 4897TIP3    H114697   0.394   4.596   1.512  0.5181  0.2685  0.4106
 4897TIP3    H214698   0.328   4.679   1.404 -1.1958  1.0670  2.0269
 4898TIP3   OH214699   0.747   4.660   3.823 -0.0977 -0.2129  0.5187
 4898TIP3    H114700   0.658   4.627   3.830  0.2524 -0.9562  1.8563
 4898TIP3    H214701   0.747   4.712   3.742 -1.2492 -1.6680 -0.4724
 4899TIP3   OH214702   4.496   3.242   0.579 -0.5457 -0.1803 -0.2089
 4899TIP3    H114703   4.498   3.307   0.509 -1.3520 -1.2923 -1.3133
 4899TIP3    H214704   4.562   3.177   0.554 -0.1449 -0.0997  0.5880
 4900TIP3   OH214705   5.305   0.091   2.433  0.3795 -0.0318  0.1284
 4900TIP3    H114706   5.228   0.049   2.397 -0.1838  0.5145  0.6641
 4900TIP3    H214707   5.270   0.156   2.494  1.2325  0.7708 -0.2095
 4901TIP3   OH214708   3.877   5.157   3.890  0.2943  0.0223  0.0834
 4901TIP3    H114709   3.877   5.253   3.885 -0.9456  0.0368  0.1791
 4901TIP3    H214710   3.947   5.136   3.953  1.5064  0.7838 -0.9464
 4902TIP3   OH214711   5.079   5.423   3.056 -0.5178 -0.1915 -0.3456
 4902TIP3    H114712   5.092   5.370   3.134  1.0255 -1.1325 -1.1855
 4902TIP3    H214713   5.082   5.513   3.087 -1.0903 -0.5538  0.8212
 4903TIP3   OH214714   2.747   3.161   4.741  0.9040  0.2187  0.1368
 4903TIP3    H114715   2.805   3.230   4.775  1.3521 -0.7287  1.3965
 4903TIP3    H214716   2.802   3.112   4.679  0.5803  0.9737 -0.7717
 4904TIP3   OH214717   3.168   2.253   3.663 -0.2650 -0.2186 -0.3794
 4904TIP3    H114718   3.184   2.329   3.719  0.4524 -2.0715  2.1219
 4904TIP3    H214719   3.103   2.284   3.599  0.9636  2.8203 -0.3555
 4905TIP3   OH214720   5.558   0.363   3.400  0.2756 -0.6570  0.9760
 4905TIP3    H114721   5.468   0.386   3.377  0.1008  0.5777  2.6887
 4905TIP3    H214722   5.609   0.440   3.376  0.4599 -0.3377  2.3353
 4906TIP3   OH214723   4.118   0.046   4.780  0.0478  0.7999  0.5570
 4906TIP3    H114724   4.062   0.005   4.714 -0.7298  0.7238  1.2468
 4906TIP3    H214725   4.064   0.047   4.860  0.8339  1.2249  1.0933
 4907TIP3   OH214726   1.509   1.447   1.755 -0.3776 -0.5076  0.1842
 4907TIP3    H114727   1.521   1.450   1.660  1.5641 -1.4424  0.3411
 4907TIP3    H214728   1.533   1.535   1.785  0.7350 -0.7057 -0.0670
 4908TIP3   OH214729   0.128   3.240   2.371 -0.3261  0.2771  0.2452
 4908TIP3    H114730   0.136   3.171   2.437 -0.0095 -0.7701 -0.8495
 4908TIP3    H214731   0.119   3.193   2.288 -0.7267  1.5583 -0.4695
 4909TIP3   OH214732   0.352   2.261   0.854  0.4512 -0.1151 -0.0605
 4909TIP3    H114733   0.362   2.293   0.765 -0.0854 -0.7276 -0.3518
 4909TIP3    H214734   0.261   2.231   0.859  0.4474 -0.0040  0.7181
 4910TIP3   OH214735   6.022   4.434   3.910 -0.2727 -0.0515  0.0237
 4910TIP3    H114736   6.005   4.342   3.892  0.2752 -0.0099 -0.7471
 4910TIP3    H214737   6.054   4.435   4.001  2.4965 -1.0085 -0.8327
 4911TIP3   OH214738   5.381   3.078   5.137 -0.4957 -0.5274 -0.2444
 4911TIP3    H114739   5.447   3.025   5.182  1.0984  0.0894 -1.7089
 4911TIP3    H214740   5.428   3.114   5.061 -2.1115  1.1896 -0.5013
 4912TIP3   OH214741   1.732   5.160   4.690 -0.1746  0.6314 -1.1907
 4912TIP3    H114742   1.784   5.134   4.613  0.0245  0.4402 -0.9939
 4912TIP3    H214743   1.774   5.115   4.763 -1.0720 -0.1362 -1.1287
 4913TIP3   OH214744   2.696   5.365   1.332  0.2099 -0.4354 -0.0891
 4913TIP3    H114745   2.668   5.431   1.395  0.2770 -2.4760  2.2509
 4913TIP3    H214746   2.745   5.301   1.384  2.2910 -1.1113 -2.6454
 4914TIP3   OH214747   5.281   0.289   3.068  0.6780  0.2642 -0.0137
 4914TIP3    H114748   5.357   0.231   3.065  0.6056  0.1989 -1.4189
 4914TIP3    H214749   5.260   0.297   3.161  0.5119 -2.1924  0.2317
 4915TIP3   OH214750   1.291   1.500   0.268 -0.3489  0.0061 -0.3314
 4915TIP3    H114751   1.279   1.469   0.358 -1.5872 -1.3376 -0.9080
 4915TIP3    H214752   1.335   1.427   0.224  0.8092  0.9034 -0.6773
 4916TIP3   OH214753   4.012   0.337   1.487 -0.0347 -0.8797  0.0115
 4916TIP3    H114754   4.098   0.318   1.524 -0.4599  2.3502  3.3264
 4916TIP3    H214755   4.027   0.411   1.428 -0.4615 -0.1658  0.7621
 4917TIP3   OH214756   5.960   1.236   1.760 -0.0429  0.6491  0.3250
 4917TIP3    H114757   5.916   1.317   1.784  0.7146  0.8601  1.0576
 4917TIP3    H214758   6.034   1.230   1.821  0.1323 -0.3947  0.0313
 4918TIP3   OH214759   4.369   0.070   2.290  0.0846 -0.2642  0.2055
 4918TIP3    H114760   4.464   0.084   2.290  0.4309 -2.2834 -1.3207
 4918TIP3    H214761   4.341   0.100   2.204 -0.2532 -1.9304 -0.2890
 4919TIP3   OH214762   5.352   3.076   2.660 -0.0286  0.1780  0.7395
 4919TIP3    H114763   5.379   3.143   2.723 -1.4598  1.0533  0.4584
 4919TIP3    H214764   5.344   3.123   2.577  0.1592 -0.6081  0.2671
 4920TIP3   OH214765   4.690   3.369   1.562  0.0445 -0.2439 -0.1756
 4920TIP3    H114766   4.606   3.347   1.602 -1.0541  0.2457 -2.0903
 4920TIP3    H214767   4.746   3.393   1.636 -1.5683 -0.3131  1.1297
 4921TIP3   OH214768   0.496   5.387   2.052 -0.1601 -0.1932 -0.5277
 4921TIP3    H114769   0.473   5.298   2.023 -0.0396  0.4494 -2.7734
 4921TIP3    H214770   0.538   5.427   1.976  0.9551  1.3874  0.8611
 4922TIP3   OH214771   3.815   0.923   2.383  0.2946 -0.4988  0.7700
 4922TIP3    H114772   3.767   0.841   2.398 -1.4198  0.3825  0.3713
 4922TIP3    H214773   3.829   0.927   2.289  0.0902 -0.1955  0.7496
 4923TIP3   OH214774   5.275   0.452   0.810 -0.2101 -0.1757 -0.4409
 4923TIP3    H114775   5.311   0.363   0.809 -0.3890 -0.3534  1.8208
 4923TIP3    H214776   5.188   0.443   0.848  0.3649  1.0901  1.3294
 4924TIP3   OH214777   1.630   4.201   3.644 -0.3078 -0.1815 -0.6285
 4924TIP3    H114778   1.590   4.132   3.591  0.6759 -0.8414 -0.5307
 4924TIP3    H214779   1.619   4.280   3.591 -0.4097 -0.6163 -1.2710
 4925TIP3   OH214780   5.289   3.460   1.317  0.1396 -0.2560  0.0465
 4925TIP3    H114781   5.245   3.378   1.295  0.1371 -0.4631  0.8030
 4925TIP3    H214782   5.328   3.445   1.403  0.5806  0.3640 -0.0332
 4926TIP3   OH214783   2.060   5.548   0.792  0.6509 -0.0196 -0.0307
 4926TIP3    H114784   2.107   5.542   0.709  1.8077 -2.5230  0.7169
 4926TIP3    H214785   2.129   5.561   0.858  0.1150 -1.5153  0.8668
 4927TIP3   OH214786   6.052   1.614   1.631  0.1060  0.2021  0.2517
 4927TIP3    H114787   5.978   1.602   1.690 -0.0082  2.9029  0.7525
 4927TIP3    H214788   6.032   1.558   1.556 -1.1632 -1.0614  1.4747
 4928TIP3   OH214789   4.799   5.051   1.093  0.2581  0.0848 -0.4538
 4928TIP3    H114790   4.758   4.997   1.161  0.0927 -0.0249 -0.6379
 4928TIP3    H214791   4.886   5.013   1.080 -0.6598 -1.6107 -2.2090
 4929TIP3   OH214792   2.633   0.231   0.761  0.1084  0.2285  0.8490
 4929TIP3    H114793   2.672   0.244   0.675 -0.7018 -0.8723  0.2932
 4929TIP3    H214794   2.576   0.307   0.773  0.6381  0.6604  0.6545
 4930TIP3   OH214795   1.131   4.384   0.031  0.1982 -0.3449 -0.1653
 4930TIP3    H114796   1.063   4.450   0.040  1.1845  0.4930  1.5982
 4930TIP3    H214797   1.158   4.365   0.120  3.7222  0.8919 -0.8298
 4931TIP3   OH214798   1.680   5.699   0.228 -0.4078 -0.0218 -0.3197
 4931TIP3    H114799   1.731   5.629   0.187  0.3972  0.2659  0.1600
 4931TIP3    H214800   1.690   5.773   0.169 -1.2648 -0.2984 -0.8304
 4932TIP3   OH214801   5.269   3.742   2.817  0.7355 -0.5077  0.2414
 4932TIP3    H114802   5.294   3.649   2.813  0.5990 -0.4952 -1.1409
 4932TIP3    H214803   5.298   3.770   2.904  0.6132 -1.8892  0.7523
 4933TIP3   OH214804   2.069   1.736   0.672 -0.1190  0.4655 -0.0107
 4933TIP3    H114805   2.010   1.705   0.741  0.4284  1.1380  0.7822
 4933TIP3    H214806   2.135   1.788   0.719 -0.8334  2.5823 -1.2370
 4934TIP3   OH214807   0.433   4.241   3.346  0.0030  0.3453 -0.3978
 4934TIP3    H114808   0.472   4.277   3.425 -0.6573 -1.8830  1.0463
 4934TIP3    H214809   0.498   4.256   3.278  1.5996  0.3467  1.0591
 4935TIP3   OH214810   3.594   2.297   3.968 -0.7272 -0.0728 -0.6458
 4935TIP3    H114811   3.512   2.253   3.943 -2.0834  0.6596  2.1582
 4935TIP3    H214812   3.569   2.389   3.981  1.0220  0.5964 -1.6800
 4936TIP3   OH214813   4.532   0.049   1.652 -0.2192 -0.3480 -0.3600
 4936TIP3    H114814   4.532  -0.046   1.652  2.2382 -0.4195  0.3807
 4936TIP3    H214815   4.593   0.073   1.581  1.8390  0.5134  1.5651
 4937TIP3   OH214816   2.642   2.768   0.128  0.0498  0.5134 -0.0606
 4937TIP3    H114817   2.660   2.677   0.154  1.9432  0.6620 -0.6955
 4937TIP3    H214818   2.621   2.762   0.035  1.8105  0.8546 -0.5161
 4938TIP3   OH214819   0.476   0.703   1.733 -0.4291 -0.5574  0.2296
 4938TIP3    H114820   0.458   0.630   1.792 -1.5996 -0.7674 -0.3578
 4938TIP3    H214821   0.431   0.680   1.651 -0.5007  0.6306 -0.0923
 4939TIP3   OH214822   2.207   4.600   3.257  0.6664 -0.6768 -0.6743
 4939TIP3    H114823   2.140   4.544   3.296 -0.1256 -0.3492 -1.5301
 4939TIP3    H214824   2.277   4.540   3.231 -0.1761 -1.2935 -1.6037
 4940TIP3   OH214825   3.472   0.568   0.697 -0.0343  0.4381  0.1550
 4940TIP3    H114826   3.510   0.631   0.636 -1.1930  0.0685 -0.9950
 4940TIP3    H214827   3.477   0.610   0.782  1.5892  0.9907 -0.1836
 4941TIP3   OH214828   2.667   4.767   2.606  0.4045  0.3621  0.2812
 4941TIP3    H114829   2.685   4.837   2.670 -0.7268  0.5320  0.4421
 4941TIP3    H214830   2.630   4.696   2.658  1.1186 -0.1928  0.0478
 4942TIP3   OH214831   2.536   2.201   2.053 -0.0223 -0.2834 -0.1493
 4942TIP3    H114832   2.502   2.290   2.052  1.2499  0.2209 -2.1039
 4942TIP3    H214833   2.615   2.205   2.108 -1.0964 -0.7230  1.5222
 4943TIP3   OH214834   4.566   3.663   0.058 -0.4699  0.7822 -0.1649
 4943TIP3    H114835   4.517   3.703  -0.014  1.2332  0.5861 -1.4900
 4943TIP3    H214836   4.619   3.595   0.017  1.1677  1.2114  1.1223
 4944TIP3   OH214837   5.831   1.703   3.208 -0.5461 -0.4065  0.3132
 4944TIP3    H114838   5.748   1.746   3.188 -0.7656  0.1215  2.1726
 4944TIP3    H214839   5.884   1.713   3.129 -1.9002  0.0780 -0.5604
 4945TIP3   OH214840   5.452   1.460   2.696 -0.4499 -0.4668  0.2581
 4945TIP3    H114841   5.464   1.381   2.749  0.6620 -0.3354  0.2286
 4945TIP3    H214842   5.441   1.530   2.760  2.8445  0.0158  0.4750
 4946TIP3   OH214843   2.863   3.879   0.287 -0.4083 -0.5461 -0.3852
 4946TIP3    H114844   2.937   3.932   0.316 -0.0994 -1.7230  1.0785
 4946TIP3    H214845   2.870   3.879   0.191  1.6748 -0.8636 -0.2745
 4947TIP3   OH214846   4.047   5.984   0.735  0.3184 -0.2082  0.3958
 4947TIP3    H114847   4.037   5.927   0.811  0.3461  0.2066  0.7156
 4947TIP3    H214848   4.072   5.925   0.664  2.3655 -0.3773  1.1817
 4948TIP3   OH214849   0.611   1.376   2.037 -0.1821 -0.3463  0.2654
 4948TIP3    H114850   0.631   1.464   2.005 -0.8206 -0.0075  0.7772
 4948TIP3    H214851   0.694   1.329   2.031  0.1468  0.2666 -0.0890
 4949TIP3   OH214852   5.768   0.277   4.021 -0.3957  0.3422 -0.0644
 4949TIP3    H114853   5.725   0.238   3.945 -0.4460  0.9108 -0.3339
 4949TIP3    H214854   5.817   0.205   4.061 -1.6302 -0.3238  0.2835
 4950TIP3   OH214855   2.115   5.824   3.321 -0.0469  0.5527 -0.0659
 4950TIP3    H114856   2.058   5.858   3.390 -0.1328 -0.1044  0.2043
 4950TIP3    H214857   2.128   5.732   3.345  2.0248  0.9499  0.4771
 4951TIP3   OH214858   5.192   5.650   0.365 -0.0324 -0.2988  0.3401
 4951TIP3    H114859   5.108   5.692   0.383 -0.0385  0.0000 -0.3439
 4951TIP3    H214860   5.228   5.699   0.291  0.6376 -0.5763  0.4697
 4952TIP3   OH214861   3.937   1.476   3.712 -0.4195 -0.6385 -0.0716
 4952TIP3    H114862   3.955   1.563   3.677  1.8785 -0.7137  0.7013
 4952TIP3    H214863   3.860   1.488   3.767 -0.6532  0.7088 -0.6398
 4953TIP3   OH214864   3.918   3.523   3.415  1.1622  0.2811 -0.0763
 4953TIP3    H114865   3.880   3.494   3.498 -1.6516 -1.0564 -1.6855
 4953TIP3    H214866   3.942   3.614   3.429 -0.7422  0.5620  1.7395
 4954TIP3   OH214867   5.824   2.679   4.215 -0.3432  0.0029 -0.3871
 4954TIP3    H114868   5.884   2.745   4.250  1.3203  0.1003 -3.1226
 4954TIP3    H214869   5.754   2.730   4.174 -1.8006 -0.1025  1.7950
 4955TIP3   OH214870   6.015   3.393   4.262  0.0627 -0.5938 -0.0798
 4955TIP3    H114871   6.009   3.416   4.169  0.8007 -0.2818 -0.0548
 4955TIP3    H214872   6.040   3.475   4.305 -1.1625 -0.5129  0.5230
 4956TIP3   OH214873   2.905   1.866   3.438  0.5129 -0.2345 -0.2034
 4956TIP3    H114874   2.962   1.797   3.472 -0.9955 -1.6883 -0.4978
 4956TIP3    H214875   2.857   1.898   3.515 -1.4463 -2.1281 -0.5665
 4957TIP3   OH214876   4.702   5.476   4.679 -0.2245 -0.1839  0.3572
 4957TIP3    H114877   4.701   5.560   4.725  0.2492  0.4788 -0.7932
 4957TIP3    H214878   4.610   5.448   4.677 -0.5078  0.7299  0.0274
 4958TIP3   OH214879   5.194   2.124   3.598 -0.4823 -0.0493 -0.4538
 4958TIP3    H114880   5.185   2.034   3.567  0.8784 -0.6418  0.7310
 4958TIP3    H214881   5.208   2.176   3.518 -0.5189 -0.9919 -1.0897
 4959TIP3   OH214882   2.578   2.490   3.393  0.3649 -0.3608 -0.1387
 4959TIP3    H114883   2.571   2.563   3.332 -0.1132  0.1698  0.5450
 4959TIP3    H214884   2.496   2.492   3.443  0.8597 -0.6255  0.7028
 4960TIP3   OH214885   2.659   2.612   4.282  0.1101 -0.0952  0.3118
 4960TIP3    H114886   2.707   2.609   4.199 -0.7455  0.7711 -0.2302
 4960TIP3    H214887   2.659   2.704   4.307  0.5581 -0.3812  1.4066
 4961TIP3   OH214888   1.190   3.310   3.498  0.3509  0.1069 -0.0286
 4961TIP3    H114889   1.239   3.228   3.498  0.4911  0.1889  0.2912
 4961TIP3    H214890   1.143   3.310   3.415  0.4459 -0.2400 -0.0833
 4962TIP3   OH214891   6.169   4.621   0.085  0.0764 -0.1986  0.0964
 4962TIP3    H114892   6.259   4.598   0.106  0.4294  0.5909 -0.4793
 4962TIP3    H214893   6.175   4.662  -0.001 -0.9821 -1.0960 -0.4307
 4963TIP3   OH214894   2.619   1.965   4.651 -0.0288 -0.2092 -0.7000
 4963TIP3    H114895   2.636   1.903   4.722 -1.0655 -1.4162 -1.4497
 4963TIP3    H214896   2.637   2.051   4.689  0.0777 -0.8662  0.8136
 4964TIP3   OH214897   4.258   4.202   2.388  0.0917 -0.0549  0.0863
 4964TIP3    H114898   4.217   4.202   2.302 -0.1368 -0.0523  0.1943
 4964TIP3    H214899   4.324   4.271   2.384 -1.9213  2.0498  0.8597
 4965TIP3   OH214900   3.914   1.350   0.693  0.1771  0.1383  0.8116
 4965TIP3    H114901   3.845   1.284   0.686 -1.2008  1.3915  2.0663
 4965TIP3    H214902   3.912   1.397   0.610 -0.0230 -0.2494  0.5965
 4966TIP3   OH214903   4.510   3.913   2.703 -0.1201 -0.4096 -0.5979
 4966TIP3    H114904   4.429   3.959   2.684 -0.9757 -1.0779  1.1555
 4966TIP3    H214905   4.493   3.869   2.787  3.0235  1.8929  1.4869
 4967TIP3   OH214906   0.297   2.560   3.731  0.2548 -0.8548 -0.2176
 4967TIP3    H114907   0.379   2.575   3.777  0.0998  0.2357 -0.2813
 4967TIP3    H214908   0.309   2.599   3.645 -0.6935  0.3406  0.1508
 4968TIP3   OH214909   2.016   1.010   1.103 -0.3367 -0.2706 -0.1662
 4968TIP3    H114910   1.987   0.943   1.041  0.0070 -0.4085 -0.1795
 4968TIP3    H214911   1.956   1.083   1.089  1.0328  0.5710 -2.2330
 4969TIP3   OH214912   4.354   3.313   2.575 -0.1718 -0.1928 -0.1897
 4969TIP3    H114913   4.401   3.348   2.499 -1.1499  1.2047 -0.1843
 4969TIP3    H214914   4.402   3.233   2.599  2.3597  1.2833 -0.0265
 4970TIP3   OH214915   3.633   1.564   4.011  0.0393  0.4168  0.0139
 4970TIP3    H114916   3.582   1.568   4.092  0.2284  0.3967  0.1361
 4970TIP3    H214917   3.707   1.623   4.027  0.0312  0.4808 -0.1783
 4971TIP3   OH214918   4.209   1.009   4.006 -0.1975  0.5300  0.7035
 4971TIP3    H114919   4.288   1.061   3.994 -0.9459  1.2748 -1.2345
 4971TIP3    H214920   4.210   0.985   4.099  1.4951  1.8030  1.0459
 4972TIP3   OH214921   2.682   3.222   3.340 -0.5826 -0.0883 -0.0470
 4972TIP3    H114922   2.615   3.171   3.387 -0.3732  0.5958  1.0262
 4972TIP3    H214923   2.672   3.195   3.249 -1.1773 -1.2730  0.3370
 4973TIP3   OH214924   3.305   3.931   4.414  0.6376 -0.0918  0.0883
 4973TIP3    H114925   3.281   3.839   4.422  1.0069 -0.4071 -1.8684
 4973TIP3    H214926   3.289   3.968   4.501 -2.0869 -1.3729  0.2408
 4974TIP3   OH214927   1.334   4.306   3.270  0.4564 -0.4754  0.4468
 4974TIP3    H114928   1.254   4.358   3.273  1.4076  1.2472 -1.2939
 4974TIP3    H214929   1.305   4.217   3.250 -1.0352  0.0354  0.2421
 4975TIP3   OH214930   5.056   3.478   0.079  0.4742 -0.2797 -0.6028
 4975TIP3    H114931   4.994   3.461   0.150 -0.8564 -0.4925 -1.7559
 4975TIP3    H214932   5.074   3.572   0.085 -1.4279  0.1820 -1.3318
 4976TIP3   OH214933   5.931   1.163   0.558 -0.4334  0.0910  0.2130
 4976TIP3    H114934   5.872   1.121   0.495  1.8758 -1.8222 -0.8183
 4976TIP3    H214935   5.966   1.238   0.511  0.1094 -0.4436 -0.2559
 4977TIP3   OH214936   5.445   2.532   0.972  0.1051 -0.0474  0.0702
 4977TIP3    H114937   5.410   2.476   1.041  1.0337  0.3135  0.8566
 4977TIP3    H214938   5.437   2.621   1.006  1.5447  0.0626  0.1987
 4978TIP3   OH214939   3.304   1.055   4.310 -0.4114 -0.1565  0.3198
 4978TIP3    H114940   3.299   1.101   4.393 -1.1186 -0.1474  0.2803
 4978TIP3    H214941   3.394   1.068   4.280 -0.3146  0.3095  0.8119
 4979TIP3   OH214942   2.549   2.541   0.792 -0.0567  0.0571  0.3724
 4979TIP3    H114943   2.518   2.595   0.719  0.9557 -1.0219 -0.9211
 4979TIP3    H214944   2.490   2.562   0.864 -2.7772 -0.7085 -1.4651
 4980TIP3   OH214945   1.519   1.833   4.332 -0.3174  0.3642 -0.3804
 4980TIP3    H114946   1.519   1.898   4.403  1.2718 -0.7842  0.7168
 4980TIP3    H214947   1.586   1.864   4.271 -0.4315  0.4053 -0.4858
 4981TIP3   OH214948   4.294   4.819   2.819  0.2741  0.3512  0.5471
 4981TIP3    H114949   4.307   4.854   2.731 -1.1495  1.5348  0.7772
 4981TIP3    H214950   4.257   4.732   2.805 -1.5431  1.1885 -0.0504
 4982TIP3   OH214951   2.389   3.291   4.410  0.3208  0.6918  0.1744
 4982TIP3    H114952   2.451   3.233   4.365  0.9644  1.8660 -0.5261
 4982TIP3    H214953   2.303   3.259   4.386  0.6084  1.7909 -2.7536
 4983TIP3   OH214954   0.530   5.851   4.757  0.1981  0.4653  0.4546
 4983TIP3    H114955   0.554   5.861   4.664 -2.6886 -1.2803 -0.6072
 4983TIP3    H214956   0.491   5.936   4.780  0.8453  0.8810  0.0602
 4984TIP3   OH214957   2.212   1.316   3.484 -0.8917 -0.1137  0.6774
 4984TIP3    H114958   2.244   1.302   3.395 -2.0170  0.1260  0.2152
 4984TIP3    H214959   2.184   1.408   3.485  0.0535  0.1801  1.5965
 4985TIP3   OH214960   0.997   0.451   4.987 -0.3582  0.0176 -0.0242
 4985TIP3    H114961   1.000   0.516   5.057  1.7369 -0.0763  0.0232
 4985TIP3    H214962   1.081   0.406   4.992 -0.3550 -0.3504 -2.2878
 4986TIP3   OH214963   5.609   1.377   1.285 -0.2891  0.1170  0.0297
 4986TIP3    H114964   5.668   1.304   1.264 -0.2530  0.0723  0.2844
 4986TIP3    H214965   5.572   1.354   1.370 -0.5938  0.1987 -0.0808
 4987TIP3   OH214966   4.516   0.943   2.610  0.4396 -0.2473  0.7860
 4987TIP3    H114967   4.497   1.024   2.658  1.6020 -0.5351  1.7789
 4987TIP3    H214968   4.502   0.873   2.673 -1.9081 -0.9830 -0.4467
 4988TIP3   OH214969   5.384   0.420   4.766 -0.2786 -0.3629 -0.0219
 4988TIP3    H114970   5.390   0.326   4.749  2.3266 -0.5915  1.5202
 4988TIP3    H214971   5.412   0.460   4.684 -1.1777 -0.9242 -0.6196
 4989TIP3   OH214972   3.132   0.470   2.298 -0.4502 -0.4135 -0.5028
 4989TIP3    H114973   3.210   0.524   2.280 -1.5662  0.6623 -2.5261
 4989TIP3    H214974   3.157   0.382   2.268  0.1581 -0.1920 -0.6736
 4990TIP3   OH214975   2.028   0.383   3.027  0.3464  0.2191  0.1805
 4990TIP3    H114976   1.963   0.423   3.085 -0.1595 -1.0427  0.5083
 4990TIP3    H214977   2.112   0.410   3.064  0.0222  0.7011  0.5908
 4991TIP3   OH214978   1.238   4.055   0.193 -0.6586 -0.3110  0.0852
 4991TIP3    H114979   1.235   3.980   0.252  0.4849  0.2761  0.9393
 4991TIP3    H214980   1.327   4.090   0.203 -0.4896 -0.0428 -1.8252
 4992TIP3   OH214981   0.790   0.335   3.948  0.6873 -0.5019  0.5547
 4992TIP3    H114982   0.865   0.384   3.980 -0.3179 -0.6589  3.4018
 4992TIP3    H214983   0.770   0.374   3.863  4.1788 -0.7551 -0.5638
 4993TIP3   OH214984   4.298   5.659   3.326 -0.7001  0.6420  0.2097
 4993TIP3    H114985   4.319   5.573   3.289 -0.2283  0.4051  0.9936
 4993TIP3    H214986   4.327   5.721   3.259 -0.2942  0.2154 -0.0218
 4994TIP3   OH214987   0.923   4.812   2.238 -0.1653 -0.4577  0.3409
 4994TIP3    H114988   0.948   4.767   2.318  2.1823 -0.4450 -0.3262
 4994TIP3    H214989   1.004   4.823   2.189 -1.2023  1.3654 -1.1271
 4995TIP3   OH214990   5.721   5.190   0.746  0.2530  0.3825 -0.6799
 4995TIP3    H114991   5.642   5.145   0.716  0.9860 -0.0517 -2.0036
 4995TIP3    H214992   5.794   5.138   0.713  1.1090  1.6483 -0.8701
 4996TIP3   OH214993   5.357   3.990   0.230 -0.0102  0.9165  0.5519
 4996TIP3    H114994   5.442   3.947   0.232 -0.6937 -0.4784  1.4833
 4996TIP3    H214995   5.317   3.969   0.314 -1.9170  0.1338 -0.4756
 4997TIP3   OH214996   6.219   1.217   5.058  0.5151  0.1427  0.3620
 4997TIP3    H114997   6.260   1.234   5.143 -1.8374  0.5383  1.4985
 4997TIP3    H214998   6.184   1.128   5.066 -2.2810  1.2035  1.0115
 4998TIP3   OH214999   1.966   3.389   2.667 -0.0470  0.1102 -0.1337
 4998TIP3    H115000   1.872   3.375   2.655 -0.4174  1.4898  0.8839
 4998TIP3    H215001   1.994   3.318   2.725 -0.3559 -0.5901 -0.8399
 4999TIP3   OH215002   2.864   0.495   3.212 -0.4397 -0.3122 -0.1405
 4999TIP3    H115003   2.792   0.436   3.189 -0.7512  0.0122 -0.0037
 4999TIP3    H215004   2.847   0.520   3.303 -0.0243 -0.4212 -0.0321
 5000TIP3   OH215005   0.140   1.013   4.977  0.0097  0.2606  0.2654
 5000TIP3    H115006   0.139   0.924   5.012  0.3756 -0.4326 -1.3927
 5000TIP3    H215007   0.229   1.044   4.990 -0.0940  0.3624  0.7568
 5001TIP3   OH215008   3.090   5.306   0.372  0.0139  0.0709  0.8355
 5001TIP3    H115009   3.019   5.370   0.361  0.9808  1.0472 -0.0458
 5001TIP3    H215010   3.063   5.231   0.319  0.0122  0.7862 -0.2208
 5002TIP3   OH215011   4.323   2.847   4.841 -0.2643  0.3435 -0.0543
 5002TIP3    H115012   4.400   2.814   4.796  1.7962  0.3678  3.1004
 5002TIP3    H215013   4.334   2.942   4.841 -0.7439  0.4033 -0.2798
 5003TIP3   OH215014   1.790   5.963   3.784 -0.0876  0.4872 -0.3373
 5003TIP3    H115015   1.817   6.049   3.751 -0.2097  0.2029 -1.1865
 5003TIP3    H215016   1.741   5.924   3.712 -0.0484 -0.2909  0.0529
 5004TIP3   OH215017   1.338   2.513   4.433 -0.4517  0.4596  0.1912
 5004TIP3    H115018   1.419   2.561   4.416 -0.8266  0.4781 -1.7581
 5004TIP3    H215019   1.269   2.578   4.422 -1.0024 -0.4920 -2.9859
 5005TIP3   OH215020   1.266   1.649   1.094 -0.3766  0.1949  0.5903
 5005TIP3    H115021   1.349   1.615   1.059 -0.4442  0.4172  0.2135
 5005TIP3    H215022   1.206   1.647   1.019 -1.0751 -1.1218  1.1458
 5006TIP3   OH215023   2.820   5.415   5.125  0.5582 -0.3423 -0.5861
 5006TIP3    H115024   2.750   5.380   5.179 -2.2562  2.9231 -1.7409
 5006TIP3    H215025   2.887   5.444   5.187 -0.6895 -0.4336  0.8505
 5007TIP3   OH215026   4.058   4.888   1.951 -0.5263 -1.0495  0.1667
 5007TIP3    H115027   4.048   4.954   1.883  0.8588 -1.3387 -0.3483
 5007TIP3    H215028   3.985   4.828   1.937 -1.3122 -0.1179  0.1085
 5008TIP3   OH215029   5.503   0.113   3.034  0.3066 -0.0931 -0.4605
 5008TIP3    H115030   5.535   0.087   2.947  1.2537 -0.9541  0.1258
 5008TIP3    H215031   5.483   0.030   3.078  2.1391  0.1830  0.9949
 5009TIP3   OH215032   0.884   0.653   2.477 -0.3223  0.2127  0.0277
 5009TIP3    H115033   0.868   0.742   2.506  2.0307  0.8459 -0.3567
 5009TIP3    H215034   0.923   0.610   2.553 -1.0864 -0.3767  0.0916
 5010TIP3   OH215035   2.538   5.743   5.072  0.1999  0.4902  0.1801
 5010TIP3    H115036   2.448   5.736   5.038 -0.1824  0.5821  1.1330
 5010TIP3    H215037   2.544   5.833   5.105  0.7275  0.5582 -0.0895
 5011TIP3   OH215038   1.488   1.095   3.593  0.1632  0.0194  0.2047
 5011TIP3    H115039   1.488   1.085   3.688  0.7694 -0.0383  0.1987
 5011TIP3    H215040   1.446   1.016   3.560  1.1396 -0.5742  0.3630
 5012TIP3   OH215041   6.256   5.270   1.675  0.8441 -0.0429  0.1443
 5012TIP3    H115042   6.174   5.285   1.722 -0.2933 -0.6659 -1.5224
 5012TIP3    H215043   6.324   5.295   1.737 -0.6204  2.4948  0.9108
 5013TIP3   OH215044   3.816   4.875   1.612 -0.3319  0.4238  0.3053
 5013TIP3    H115045   3.874   4.926   1.668  0.4475  0.1634 -0.2571
 5013TIP3    H215046   3.844   4.895   1.523 -1.7436  1.0645 -0.0341
 5014TIP3   OH215047   4.576   2.274   1.459  1.1062 -0.3715  0.0998
 5014TIP3    H115048   4.633   2.208   1.499  0.8657 -0.7485 -0.1786
 5014TIP3    H215049   4.529   2.227   1.390  0.5302 -0.0402  0.2585
 5015TIP3   OH215050   6.094   4.612   3.687  0.3578  0.1102  0.0097
 5015TIP3    H115051   6.011   4.624   3.641  0.7359  2.0439 -0.2810
 5015TIP3    H215052   6.071   4.567   3.768 -1.0968  1.2154  0.2515
 5016TIP3   OH215053   6.290   2.259   3.354  0.4525 -0.1165  0.8284
 5016TIP3    H115054   6.371   2.282   3.399 -0.0046  0.9484  1.1386
 5016TIP3    H215055   6.223   2.263   3.422 -0.2307  1.4065  0.1076
 5017TIP3   OH215056   5.786   2.787   4.617 -0.2466  0.3094  0.1637
 5017TIP3    H115057   5.846   2.834   4.559  0.6051  0.4382  1.1266
 5017TIP3    H215058   5.803   2.823   4.704 -0.0121 -1.3519  0.8280
 5018TIP3   OH215059   3.281   4.558   2.784 -0.9230  0.8409 -0.1256
 5018TIP3    H115060   3.316   4.536   2.698 -1.8700  0.1169 -0.3492
 5018TIP3    H215061   3.338   4.628   2.817  1.7515 -1.3877  0.2682
 5019TIP3   OH215062   5.499   3.274   0.380 -0.0849  0.0402 -0.1358
 5019TIP3    H115063   5.443   3.328   0.325 -1.5500 -0.8068  0.4576
 5019TIP3    H215064   5.472   3.295   0.469  2.9607  2.1582  0.4343
 5020TIP3   OH215065   3.525   3.492   5.184  0.2290  0.3020 -0.4287
 5020TIP3    H115066   3.500   3.431   5.115 -1.1450 -0.2667  0.5158
 5020TIP3    H215067   3.552   3.571   5.137  0.7879 -0.5709 -1.6324
 5021TIP3   OH215068   1.279   2.747   1.978  0.1307 -0.1986  0.1950
 5021TIP3    H115069   1.186   2.771   1.974 -0.1964 -1.1723  1.3956
 5021TIP3    H215070   1.323   2.825   2.012 -0.4281 -0.1167  0.7431
 5022TIP3   OH215071   4.961   2.945   2.930 -0.6514  0.1367 -0.0416
 5022TIP3    H115072   4.911   2.869   2.901 -0.8207 -0.2038  1.1118
 5022TIP3    H215073   5.037   2.946   2.872 -0.1428 -1.4977  0.5456
 5023TIP3   OH215074   4.932   0.254   0.281  0.2497 -0.5575 -0.3692
 5023TIP3    H115075   4.909   0.343   0.306  2.9890  0.3040 -0.6099
 5023TIP3    H215076   5.004   0.264   0.219  2.8726 -2.9663  2.0254
 5024TIP3   OH215077   0.883   2.401   2.638 -0.1192 -0.2791  0.1154
 5024TIP3    H115078   0.886   2.333   2.571 -0.4403 -0.9880  0.8072
 5024TIP3    H215079   0.799   2.446   2.623  0.8675  1.1608 -1.4617
 5025TIP3   OH215080   2.523   5.487   3.894 -0.4983  0.6143  0.5847
 5025TIP3    H115081   2.526   5.552   3.823  0.0791 -2.2426 -2.2334
 5025TIP3    H215082   2.448   5.431   3.873  0.1539 -0.7851  1.7850
 5026TIP3   OH215083   4.438   2.997   3.748 -0.0572  0.1351  0.3510
 5026TIP3    H115084   4.495   3.074   3.741 -0.8860  0.6916 -0.4431
 5026TIP3    H215085   4.483   2.941   3.812  0.1270  1.6531  1.6326
 5027TIP3   OH215086   5.622   3.915   4.299 -0.6667  0.1905 -0.0867
 5027TIP3    H115087   5.683   3.875   4.237  0.5012  1.1880  0.3848
 5027TIP3    H215088   5.632   4.009   4.285 -1.0100  0.4033  1.0227
 5028TIP3   OH215089   5.483   0.641   0.343  1.0607 -0.2755  0.1657
 5028TIP3    H115090   5.534   0.682   0.412  2.5471  0.5613 -1.3627
 5028TIP3    H215091   5.544   0.631   0.270 -0.3325 -1.5242 -0.8977
 5029TIP3   OH215092   0.315   2.492   1.062  0.6142  0.4407  0.2281
 5029TIP3    H115093   0.404   2.482   1.029  0.4330 -0.9065  0.1286
 5029TIP3    H215094   0.259   2.466   0.989  0.1776 -0.5852  0.9051
 5030TIP3   OH215095   5.621   0.636   1.683 -0.1952  0.3591 -0.6372
 5030TIP3    H115096   5.670   0.689   1.620  0.9728  2.0255  1.5476
 5030TIP3    H215097   5.689   0.590   1.733 -1.0723 -0.5779 -0.2739
 5031TIP3   OH215098   2.724   3.658   3.298 -0.1170 -0.0172  0.0452
 5031TIP3    H115099   2.680   3.615   3.371 -0.4241 -1.2090 -0.8066
 5031TIP3    H215100   2.745   3.587   3.238  1.2164  0.7849 -0.4815
 5032TIP3   OH215101   3.352   5.803   1.658 -0.2856 -0.3297 -1.3216
 5032TIP3    H115102   3.362   5.898   1.659  1.7456 -0.4719  0.7334
 5032TIP3    H215103   3.279   5.786   1.717 -0.3975 -0.0628 -1.3805
 5033TIP3   OH215104   3.142   4.781   2.054 -0.7019  0.2820  0.1298
 5033TIP3    H115105   3.170   4.760   1.965 -2.5012 -1.5911 -0.0890
 5033TIP3    H215106   3.139   4.876   2.057  0.5971  0.4155 -1.3911
 5034TIP3   OH215107   2.025   0.880   2.416  0.2141 -0.4181  0.4097
 5034TIP3    H115108   1.991   0.796   2.445 -3.2822  1.1031  1.1971
 5034TIP3    H215109   1.983   0.895   2.331  2.9298 -0.5614 -1.0908
 5035TIP3   OH215110   0.083   2.750   3.830  0.9004 -0.7041 -0.0752
 5035TIP3    H115111  -0.009   2.758   3.806  1.1591  1.1951 -0.6103
 5035TIP3    H215112   0.127   2.728   3.748  1.3805  2.6084 -0.8592
 5036TIP3   OH215113   3.162   1.878   4.435 -0.1097 -0.1989  0.0549
 5036TIP3    H115114   3.146   1.972   4.445 -0.3486  0.1590 -2.8319
 5036TIP3    H215115   3.074   1.840   4.426  0.0059 -0.6754  0.8195
 5037TIP3   OH215116   1.199   1.081   1.480  0.3435  0.0180  0.3991
 5037TIP3    H115117   1.247   1.141   1.537  0.0885 -0.3390  0.9935
 5037TIP3    H215118   1.115   1.124   1.465  0.3209  0.0022  0.4819
 5038TIP3   OH215119   1.484   4.711   1.166  0.4618  0.0840 -0.4071
 5038TIP3    H115120   1.559   4.709   1.106 -0.4324  2.1432 -1.6794
 5038TIP3    H215121   1.522   4.731   1.251  1.2204  4.8790 -1.6005
 5039TIP3   OH215122   3.451   1.798   2.742 -0.4920  0.1605  0.4735
 5039TIP3    H115123   3.488   1.870   2.794 -3.4024  0.9319  1.6886
 5039TIP3    H215124   3.359   1.821   2.731 -0.9710 -2.1887 -1.3110
 5040TIP3   OH215125   5.693   0.801   4.728 -0.4057  0.1853  0.0764
 5040TIP3    H115126   5.621   0.794   4.666 -0.4240 -0.5276  0.1675
 5040TIP3    H215127   5.739   0.717   4.720  0.2189  0.5083  0.2534
 5041TIP3   OH215128   1.293   0.437   1.238  0.3257  0.0594  0.0048
 5041TIP3    H115129   1.368   0.496   1.230 -1.1290  1.7619 -2.0716
 5041TIP3    H215130   1.216   0.494   1.237 -1.1001 -1.7413 -0.0953
 5042TIP3   OH215131   2.166   0.317   2.378  0.3428  0.2759 -0.6824
 5042TIP3    H115132   2.117   0.351   2.453  3.7865  2.1518  0.9399
 5042TIP3    H215133   2.160   0.385   2.312  0.1649  0.1906 -0.7533
 5043TIP3   OH215134   0.629   2.268   3.309 -0.3430 -0.3468 -0.4262
 5043TIP3    H115135   0.660   2.288   3.398  0.3068  0.9716 -0.9133
 5043TIP3    H215136   0.702   2.294   3.253 -0.6050 -1.5164 -1.3347
 5044TIP3   OH215137   4.323   5.877   3.142  0.0984 -0.7428  0.4104
 5044TIP3    H115138   4.370   5.928   3.077  0.6053 -0.4785  0.9787
 5044TIP3    H215139   4.277   5.810   3.091 -1.0989  0.6477 -0.4116
 5045TIP3   OH215140   5.266   5.307   2.597 -0.5486  0.3812 -0.1149
 5045TIP3    H115141   5.357   5.282   2.614 -0.5772 -1.0275 -1.6845
 5045TIP3    H215142   5.247   5.375   2.661  1.6618  0.8408  0.1358
 5046TIP3   OH215143   1.331   0.123   1.113 -0.8470 -0.5225  0.6801
 5046TIP3    H115144   1.392   0.177   1.064 -0.1677 -1.4183  0.5133
 5046TIP3    H215145   1.311   0.174   1.191 -0.7851  0.2745  0.1843
 5047TIP3   OH215146   5.251   3.917   0.482  0.3461  0.3635  0.2008
 5047TIP3    H115147   5.159   3.922   0.457 -0.2866  1.1916  2.4302
 5047TIP3    H215148   5.253   3.849   0.550  1.2242  0.9330  0.7527
 5048TIP3   OH215149   1.790   6.003   4.331  0.0719 -0.1410 -0.2916
 5048TIP3    H115150   1.881   5.990   4.356  0.0603 -0.8165 -0.5611
 5048TIP3    H215151   1.767   5.923   4.284 -1.1383 -0.6825  1.1403
 5049TIP3   OH215152   3.198   2.351   2.056 -0.0617  0.2498  0.5054
 5049TIP3    H115153   3.276   2.335   2.109  0.9078  0.7082 -0.7673
 5049TIP3    H215154   3.165   2.263   2.036  0.9650 -0.0027 -0.1623
 5050TIP3   OH215155   1.377   5.521   2.513 -0.2729  0.2417 -0.6098
 5050TIP3    H115156   1.433   5.532   2.437  0.2996 -1.3072 -0.4439
 5050TIP3    H215157   1.368   5.427   2.524  0.1860  0.4010  1.6129
 5051TIP3   OH215158   3.920   1.427   2.939  0.5789 -0.1958 -0.0291
 5051TIP3    H115159   3.898   1.489   2.869 -2.2398 -0.5555  0.4036
 5051TIP3    H215160   3.916   1.341   2.896 -0.0756 -0.3387  0.2932
 5052TIP3   OH215161   5.208   5.090   2.192 -0.5940 -0.0248  0.6788
 5052TIP3    H115162   5.226   5.103   2.285  0.0192  0.6661  0.4777
 5052TIP3    H215163   5.289   5.118   2.148 -0.3710 -1.6061  0.0083
 5053TIP3   OH215164   3.309   0.526   2.039  0.0325  0.6348 -0.2338
 5053TIP3    H115165   3.356   0.497   2.117  0.6590 -0.5851 -1.0324
 5053TIP3    H215166   3.217   0.510   2.059  0.2924 -1.0429 -0.2662
 5054TIP3   OH215167   0.573   5.343   5.077  0.5996 -0.2753 -0.1125
 5054TIP3    H115168   0.619   5.425   5.094  0.4605  0.0499 -1.2051
 5054TIP3    H215169   0.640   5.284   5.044  0.6390 -0.5092  0.3746
 5055TIP3   OH215170   5.885   1.541   0.587 -0.5380  0.4543 -0.7851
 5055TIP3    H115171   5.925   1.470   0.536  0.2217  2.3370 -2.9670
 5055TIP3    H215172   5.844   1.597   0.522 -0.4102  2.4506  0.7737
 5056TIP3   OH215173   3.843   1.297   1.460  0.7890  0.8070 -0.4637
 5056TIP3    H115174   3.826   1.255   1.544 -0.8559 -1.2501 -1.7053
 5056TIP3    H215175   3.925   1.257   1.430  0.2028 -0.1820 -0.8018
 5057TIP3   OH215176   5.431   5.944   2.943 -0.3349 -0.4324 -0.0995
 5057TIP3    H115177   5.498   5.927   3.009  0.9452 -0.3855 -1.3368
 5057TIP3    H215178   5.428   6.039   2.935  1.1067 -0.4784 -1.6306
 5058TIP3   OH215179   0.504   2.213   3.841 -0.3448 -0.5740  0.5182
 5058TIP3    H115180   0.595   2.240   3.849 -0.0979 -0.5722 -1.7495
 5058TIP3    H215181   0.508   2.128   3.796 -1.4956  0.7458 -2.3180
 5059TIP3   OH215182   4.803   0.153   0.007  0.0983 -0.0055  0.1007
 5059TIP3    H115183   4.784   0.151   0.101  0.3860 -0.0424  0.1587
 5059TIP3    H215184   4.718   0.140  -0.035  0.0733 -0.7055  0.3632
 5060TIP3   OH215185   3.369   5.593   3.391  0.1145  0.3937 -0.0546
 5060TIP3    H115186   3.393   5.678   3.428  0.6424  0.5451 -0.7229
 5060TIP3    H215187   3.441   5.571   3.332  1.1657 -1.6307  1.8647
 5061TIP3   OH215188   1.878   5.560   1.109  0.5539  0.0261  0.2784
 5061TIP3    H115189   1.897   5.647   1.144  0.6917 -0.7398  2.2262
 5061TIP3    H215190   1.963   5.515   1.107  0.4781 -0.1070 -0.6626
 5062TIP3   OH215191   1.956   5.419   4.462  0.2867 -0.2361 -0.0704
 5062TIP3    H115192   1.947   5.324   4.464  0.7005 -0.2784 -0.2405
 5062TIP3    H215193   1.891   5.450   4.525 -0.4230 -0.5868 -0.5978
 5063TIP3   OH215194   2.018   1.251   0.829  0.6604 -0.1408 -0.4750
 5063TIP3    H115195   2.003   1.305   0.907 -0.1938 -0.8301 -0.1456
 5063TIP3    H215196   2.104   1.211   0.844  0.2272 -0.7712  0.4399
 5064TIP3   OH215197   4.055   5.579   0.400  0.0683  0.1702 -0.0791
 5064TIP3    H115198   4.132   5.532   0.432 -2.1832 -2.1287  2.5747
 5064TIP3    H215199   4.045   5.653   0.460 -1.0501 -0.9594  1.2117
 5065TIP3   OH215200   2.602   1.361   3.234  0.0257 -0.2616  0.8895
 5065TIP3    H115201   2.669   1.408   3.283  0.8996 -0.6257  0.0708
 5065TIP3    H215202   2.647   1.328   3.156 -1.3695  0.4538 -0.2625
 5066TIP3   OH215203   4.376   2.765   3.629  1.0236  0.5972 -0.1430
 5066TIP3    H115204   4.402   2.850   3.665 -1.4077  1.2821  0.1281
 5066TIP3    H215205   4.286   2.777   3.600  0.6685 -1.8461 -0.2897
 5067TIP3   OH215206   0.777   1.920   3.631 -0.1467 -0.2374  0.1807
 5067TIP3    H115207   0.776   1.855   3.701 -0.5652  0.1165  0.5045
 5067TIP3    H215208   0.786   1.869   3.551  1.8392 -0.5877  0.5649
 5068TIP3   OH215209   1.821   2.183   0.971  0.0002 -0.1182  0.3458
 5068TIP3    H115210   1.901   2.175   0.919  0.2527  2.0510  0.3113
 5068TIP3    H215211   1.757   2.128   0.925  1.3093 -1.5205  0.1116
 5069TIP3   OH215212   2.871   5.212   3.672  0.3997 -0.0229 -0.2329
 5069TIP3    H115213   2.802   5.154   3.703 -0.0938  0.8085  0.2656
 5069TIP3    H215214   2.949   5.186   3.720 -0.3306  1.1874  1.6989
 5070TIP3   OH215215   5.174   5.825   4.294  0.1118  0.2380 -0.2037
 5070TIP3    H115216   5.088   5.786   4.275 -0.4605  0.6169  1.4265
 5070TIP3    H215217   5.168   5.853   4.386  1.4101  1.7553 -0.5289
 5071TIP3   OH215218   1.653   4.538   5.185 -0.0233 -0.3426 -0.1854
 5071TIP3    H115219   1.681   4.606   5.123  1.2268 -0.9927 -0.3546
 5071TIP3    H215220   1.733   4.513   5.230 -0.5936 -1.2637  0.3245
 5072TIP3   OH215221   3.329   1.760   3.341  0.2143  0.3758  0.0435
 5072TIP3    H115222   3.379   1.686   3.307  0.3093  0.1414  0.6805
 5072TIP3    H215223   3.306   1.734   3.430 -0.0894  0.9495  0.1335
 5073TIP3   OH215224   2.080   0.289   0.438  0.0215 -0.7688 -0.2699
 5073TIP3    H115225   2.082   0.376   0.479  0.7689 -0.1035 -1.6678
 5073TIP3    H215226   1.987   0.275   0.418  0.1490  0.8276 -2.2659
 5074TIP3   OH215227   4.675   5.536   0.433 -0.0425 -0.9159 -0.2520
 5074TIP3    H115228   4.606   5.472   0.449 -1.2517  0.3125 -0.3730
 5074TIP3    H215229   4.685   5.537   0.338  0.0772 -1.0246 -0.2408
 5075TIP3   OH215230   2.775   2.809   5.118 -0.2276 -0.0600 -0.1285
 5075TIP3    H115231   2.756   2.728   5.071 -1.4546 -0.5492  1.1194
 5075TIP3    H215232   2.831   2.782   5.191  1.2430  0.6086 -0.9659
 5076TIP3   OH215233   4.530   0.852   1.352  0.6222 -0.0384  0.2961
 5076TIP3    H115234   4.616   0.837   1.314  0.5247 -0.1580  0.1226
 5076TIP3    H215235   4.505   0.767   1.390 -0.0392 -0.4002 -0.9066
 5077TIP3   OH215236   1.246   4.315   2.893  0.0153 -0.2986 -0.1075
 5077TIP3    H115237   1.334   4.323   2.928 -0.0406  0.1918 -0.0714
 5077TIP3    H215238   1.239   4.224   2.864  0.5628 -0.3118 -0.1991
 5078TIP3   OH215239   6.106   0.866   4.399  0.0838 -0.4538 -0.3377
 5078TIP3    H115240   6.076   0.889   4.312  0.7373 -2.0732 -1.0319
 5078TIP3    H215241   6.031   0.884   4.456 -0.3406  0.6498 -1.2083
 5079TIP3   OH215242   3.183   1.741   1.216  0.0763  0.2084 -0.2779
 5079TIP3    H115243   3.254   1.796   1.183 -0.0219 -0.6846 -2.0614
 5079TIP3    H215244   3.143   1.704   1.138 -1.2996 -0.6286  0.7815
 5080TIP3   OH215245   3.833  -0.025   5.090  0.0862 -0.7355 -0.1246
 5080TIP3    H115246   3.771   0.005   5.157  1.2376 -1.6612  1.4380
 5080TIP3    H215247   3.875   0.054   5.058 -1.7236 -0.1193 -1.0501
 5081TIP3   OH215248   3.029   5.276   1.783  0.7240  0.5822 -0.1031
 5081TIP3    H115249   3.071   5.346   1.832 -1.3096  0.8414  1.3909
 5081TIP3    H215250   2.945   5.262   1.827 -0.1014 -0.9492 -1.9931
 5082TIP3   OH215251   5.995   2.073   0.274 -0.5682 -0.2823 -0.3856
 5082TIP3    H115252   6.027   2.021   0.201  0.8514 -1.5830  1.0643
 5082TIP3    H215253   5.900   2.074   0.264 -0.5873 -2.5373 -0.8934
 5083TIP3   OH215254   4.519   4.649   1.083 -0.1528  0.0890 -0.5404
 5083TIP3    H115255   4.498   4.589   1.155 -0.6324  0.3124 -0.4916
 5083TIP3    H215256   4.613   4.667   1.093 -0.2010  0.0561 -0.0142
 5084TIP3   OH215257   2.884   3.388   4.806 -0.5616  0.6178 -0.0790
 5084TIP3    H115258   2.972   3.419   4.785 -1.1910  1.5791 -1.3981
 5084TIP3    H215259   2.833   3.404   4.727 -2.1716  1.0258  0.9931
 5085TIP3   OH215260   3.630   4.100   1.186 -0.2674  0.1447  0.7555
 5085TIP3    H115261   3.647   4.183   1.141  1.3002 -1.2633 -1.5103
 5085TIP3    H215262   3.706   4.088   1.243 -0.5589  0.3091  1.1835
 5086TIP3   OH215263   5.612   1.184   0.933 -0.1569 -0.4653 -0.4945
 5086TIP3    H115264   5.617   1.271   0.892 -1.0531  0.8590  1.9800
 5086TIP3    H215265   5.541   1.140   0.887 -0.2384  0.4380 -1.2590
 5087TIP3   OH215266   4.602   3.200   3.107 -0.7893  0.1282 -0.2730
 5087TIP3    H115267   4.698   3.196   3.111 -0.7175  2.0357  1.4036
 5087TIP3    H215268   4.583   3.289   3.078 -2.0930 -0.6010 -1.8007
 5088TIP3   OH215269   0.152   0.192   4.882  0.8324 -0.7209 -0.2140
 5088TIP3    H115270   0.209   0.252   4.834 -0.1831 -0.1155 -0.6967
 5088TIP3    H215271   0.091   0.159   4.815 -0.0041 -0.5879  0.4644
 5089TIP3   OH215272   1.530   1.497   1.070 -0.4417 -0.3353  0.4774
 5089TIP3    H115273   1.594   1.552   1.026  0.0271  0.1532  1.7173
 5089TIP3    H215274   1.583   1.436   1.122 -0.9499 -1.8154 -0.6686
 5090TIP3   OH215275   1.399   0.145   3.291 -0.6441  0.8711  0.1918
 5090TIP3    H115276   1.316   0.190   3.307 -0.7005  0.1875  2.1986
 5090TIP3    H215277   1.465   0.201   3.331 -0.4116  0.4167  0.4577
 5091TIP3   OH215278   3.108   0.969   3.462  0.4928 -0.2734  1.0564
 5091TIP3    H115279   3.161   0.917   3.522  2.2810  0.4202  0.1290
 5091TIP3    H215280   3.170   1.029   3.420 -1.0244  0.5754 -0.0718
 5092TIP3   OH215281   3.287   3.424   4.339 -0.1929  0.0266  0.1569
 5092TIP3    H115282   3.290   3.369   4.260  2.3179 -0.3367  0.3993
 5092TIP3    H215283   3.278   3.362   4.411 -2.0113  0.3270  0.2295
 5093TIP3   OH215284   4.342   3.694   3.582  0.1364  0.1377  0.1454
 5093TIP3    H115285   4.262   3.747   3.585 -0.5619 -0.9086  1.0618
 5093TIP3    H215286   4.365   3.690   3.490 -2.6987 -2.0938 -0.6168
 5094TIP3   OH215287   6.116   5.266   4.466 -0.2353  0.2658 -0.2898
 5094TIP3    H115288   6.105   5.235   4.556  0.0514 -1.5010 -0.8303
 5094TIP3    H215289   6.210   5.282   4.458 -0.2682  0.4783 -0.2782
 5095TIP3   OH215290   3.831   3.727   0.427 -0.5069  0.0403 -0.2516
 5095TIP3    H115291   3.882   3.690   0.499 -1.4917 -0.7003  0.0813
 5095TIP3    H215292   3.761   3.777   0.470 -0.6947  0.1607 -0.6929
 5096TIP3   OH215293   5.461   3.011   2.306 -0.4920  0.1955  0.1738
 5096TIP3    H115294   5.422   3.031   2.221 -1.8930  1.4426  1.0633
 5096TIP3    H215295   5.387   2.989   2.362  0.2259  1.0762  1.5190
 5097TIP3   OH215296   3.891   4.769   0.841  0.2333 -0.1612  0.9728
 5097TIP3    H115297   3.856   4.744   0.926  2.0191  1.8048  2.3993
 5097TIP3    H215298   3.982   4.793   0.859  0.6541  0.3412 -1.4922
 5098TIP3   OH215299   0.262   2.331   2.275  0.0651  0.2156  0.0022
 5098TIP3    H115300   0.210   2.393   2.326 -0.9896  0.3747 -1.2052
 5098TIP3    H215301   0.249   2.359   2.184  0.0317 -1.4227 -0.5229
 5099TIP3   OH215302   0.158   5.113   0.751  0.0239  0.3880  0.5908
 5099TIP3    H115303   0.079   5.094   0.701 -0.0574 -1.3835  1.3103
 5099TIP3    H215304   0.158   5.208   0.762 -0.5695  0.7074 -1.7260
 5100TIP3   OH215305   2.602   1.709   0.662 -0.4611 -0.2239 -0.3262
 5100TIP3    H115306   2.560   1.783   0.617  0.6925  0.4862 -0.2824
 5100TIP3    H215307   2.608   1.641   0.595  1.0326  0.7430 -1.2370
 5101TIP3   OH215308   3.983   2.396   4.870 -0.7567  0.1008  0.2727
 5101TIP3    H115309   4.033   2.473   4.844 -0.1196 -0.6044 -0.6314
 5101TIP3    H215310   3.892   2.423   4.861 -0.5462  0.7868  0.1085
 5102TIP3   OH215311   5.327   4.837   3.808  0.1081 -0.0472  0.0904
 5102TIP3    H115312   5.381   4.911   3.779 -0.5391 -0.0657 -1.2468
 5102TIP3    H215313   5.313   4.785   3.729  0.1970 -1.3920  0.9275
 5103TIP3   OH215314   6.040   3.439   3.946 -0.1644  0.0139 -0.2794
 5103TIP3    H115315   6.076   3.372   3.889 -0.1209 -0.5747  0.4324
 5103TIP3    H215316   6.010   3.507   3.886 -2.6798 -1.7849 -1.2236
 5104TIP3   OH215317   4.288   1.314   4.814  0.7274 -0.7687 -0.2390
 5104TIP3    H115318   4.296   1.359   4.899 -0.4731 -0.7068 -0.1304
 5104TIP3    H215319   4.340   1.367   4.754 -0.2240  0.5075  0.0008
 5105TIP3   OH215320   1.780   1.047   0.765 -0.1175  0.2048  0.8164
 5105TIP3    H115321   1.831   0.984   0.815  1.9552  0.2538 -1.0591
 5105TIP3    H215322   1.830   1.128   0.771 -0.6168  0.5910 -0.0564
 5106TIP3   OH215323   0.428   3.132   2.924 -0.0941  0.5482  0.1617
 5106TIP3    H115324   0.447   3.219   2.888  1.6056 -0.0913 -0.6558
 5106TIP3    H215325   0.421   3.076   2.846 -0.4765 -0.1647  0.7048
 5107TIP3   OH215326   5.300   0.820   0.689  0.1135  0.4075 -0.0203
 5107TIP3    H115327   5.296   0.742   0.633 -0.4399  0.6239 -0.2842
 5107TIP3    H215328   5.222   0.814   0.744 -0.0266  0.8694 -0.1678
 5108TIP3   OH215329   5.306   5.136   4.162 -0.5563  0.7739 -0.1391
 5108TIP3    H115330   5.351   5.118   4.244  1.3733 -0.1843 -1.3142
 5108TIP3    H215331   5.336   5.223   4.137 -1.4195  1.2116  0.3278
 5109TIP3   OH215332   0.128   2.126   0.874  0.3125  0.1857  0.1800
 5109TIP3    H115333   0.071   2.087   0.808 -0.1070 -1.3649  1.3893
 5109TIP3    H215334   0.155   2.052   0.928  0.6496  1.4075  1.7416
 5110TIP3   OH215335   6.303   4.784   0.719 -0.0069 -0.2235  0.0908
 5110TIP3    H115336   6.339   4.853   0.663  1.5626 -1.6276 -0.7342
 5110TIP3    H215337   6.210   4.782   0.698 -0.1997  1.9471  0.5155
 5111TIP3   OH215338   3.459   0.821   1.497 -0.2999 -0.2632  0.2676
 5111TIP3    H115339   3.510   0.763   1.554  0.3756  0.5908  0.5628
 5111TIP3    H215340   3.370   0.816   1.532 -0.2011 -0.9313  0.4401
 5112TIP3   OH215341   0.433   4.520   2.309 -0.4613 -0.4808 -0.4292
 5112TIP3    H115342   0.523   4.527   2.277 -0.1155 -0.9574  0.3932
 5112TIP3    H215343   0.412   4.427   2.299 -0.7475 -0.4273 -0.3183
 5113TIP3   OH215344   4.770   1.422   3.519 -0.3490 -0.1892  0.2517
 5113TIP3    H115345   4.767   1.467   3.434 -1.7116 -0.4883  0.1214
 5113TIP3    H215346   4.680   1.423   3.550  0.1564  0.0687  1.8049
 5114TIP3   OH215347   4.007   3.043   4.934 -0.2059  0.6350  0.0925
 5114TIP3    H115348   3.935   3.106   4.939 -0.4385  0.4516 -0.7462
 5114TIP3    H215349   4.078   3.092   4.892 -0.0670  0.6195  0.3109
 5115TIP3   OH215350   6.161   4.903   1.457  0.4888 -0.3440 -0.1999
 5115TIP3    H115351   6.213   4.941   1.387 -0.4759  0.6525 -0.4038
 5115TIP3    H215352   6.094   4.851   1.412 -0.1096  0.2679 -0.0258
 5116TIP3   OH215353   2.174   4.578   4.020 -0.0014 -0.0281  0.7602
 5116TIP3    H115354   2.202   4.487   4.016 -1.9155 -0.6349 -0.0830
 5116TIP3    H215355   2.113   4.588   3.947 -0.4408  1.7215  1.3005
 5117TIP3   OH215356   4.292   1.044   0.366  0.6679 -0.9352  0.0336
 5117TIP3    H115357   4.236   1.051   0.289  2.2219  0.8247 -1.0538
 5117TIP3    H215358   4.353   0.973   0.345  1.0586 -0.4906 -0.3750
 5118TIP3   OH215359   5.308   1.630   2.497  0.0122 -0.2389  0.0522
 5118TIP3    H115360   5.386   1.683   2.477 -0.8260  1.5285  1.2041
 5118TIP3    H215361   5.341   1.557   2.549  1.0293 -0.1145 -0.3882
 5119TIP3   OH215362   0.064   3.708   1.245  0.1836 -0.0962 -0.0456
 5119TIP3    H115363   0.089   3.617   1.230  0.5922 -0.0055  0.0888
 5119TIP3    H215364   0.027   3.736   1.161  0.0850 -0.3718 -0.0983
 5120TIP3   OH215365   1.177   5.675   1.406  0.4717  0.3161 -0.2560
 5120TIP3    H115366   1.182   5.623   1.486  2.0732  1.0058  0.1356
 5120TIP3    H215367   1.120   5.625   1.347 -0.4874 -0.3431  1.1972
 5121TIP3   OH215368   1.956   4.069   3.217  0.0278 -0.1592 -0.0436
 5121TIP3    H115369   2.045   4.070   3.253 -0.3689 -0.3298  0.9487
 5121TIP3    H215370   1.965   4.019   3.135  1.0544  0.7800 -0.5375
 5122TIP3   OH215371   0.345   5.905   1.700 -0.5134  0.3051 -0.0737
 5122TIP3    H115372   0.406   5.839   1.733 -0.3330  0.0976 -0.8042
 5122TIP3    H215373   0.399   5.963   1.647 -0.8332  0.5170 -0.1687
 5123TIP3   OH215374   5.932   4.973   0.272 -0.1389  0.2518  0.0071
 5123TIP3    H115375   5.841   4.985   0.297 -0.5913 -0.5065 -1.1672
 5123TIP3    H215376   5.937   4.882   0.242  0.6733  0.6712 -1.2220
 5124TIP3   OH215377   3.014   0.584   2.077 -0.2980  0.4562 -0.0859
 5124TIP3    H115378   3.034   0.528   2.153 -0.7666  1.7395  1.0121
 5124TIP3    H215379   2.922   0.567   2.058  0.0381 -0.5104 -0.9474
 5125TIP3   OH215380   3.418   0.973   2.824 -0.0987 -0.4253 -0.1313
 5125TIP3    H115381   3.364   0.896   2.806  0.7581 -0.7045 -1.7318
 5125TIP3    H215382   3.415   1.023   2.743  0.7196  0.3745  0.3177
 5126TIP3   OH215383   4.500   1.766   1.749  0.2163 -0.0544  0.1785
 5126TIP3    H115384   4.408   1.765   1.724  0.6595 -0.6606 -1.5290
 5126TIP3    H215385   4.523   1.859   1.755  0.1288  0.1366 -1.9474
 5127TIP3   OH215386   0.266   4.562   2.027  0.3185 -0.8239  0.5990
 5127TIP3    H115387   0.255   4.472   2.056 -4.4246 -0.5941  0.3198
 5127TIP3    H215388   0.257   4.557   1.931  0.2504 -0.1213  0.5631
 5128TIP3   OH215389   0.198   5.069   1.711 -0.4411  0.1107 -0.1600
 5128TIP3    H115390   0.148   4.997   1.672  0.1735 -0.2203 -0.3591
 5128TIP3    H215391   0.235   5.116   1.636 -0.6843  0.5186 -0.0246
 5129TIP3   OH215392   0.852   3.260   2.750  0.2835 -0.4919  0.3078
 5129TIP3    H115393   0.774   3.312   2.774  1.0548 -0.2182  2.4464
 5129TIP3    H215394   0.817   3.176   2.723 -0.7889 -0.5132  1.6245
 5130TIP3   OH215395   1.676   3.189   4.387 -0.2208  0.1613  0.2410
 5130TIP3    H115396   1.702   3.187   4.295 -1.2664  0.2659 -0.0739
 5130TIP3    H215397   1.748   3.231   4.432  1.1855 -1.6198 -0.2317
 5131TIP3   OH215398   4.779   3.331   2.133  0.1120  0.0838  0.3420
 5131TIP3    H115399   4.864   3.302   2.100  1.1524  0.5172  2.4417
 5131TIP3    H215400   4.776   3.425   2.114 -1.3031 -0.4269 -2.4482
 5132TIP3   OH215401   6.143   0.355   0.156  0.3542 -0.4800 -0.1778
 5132TIP3    H115402   6.144   0.406   0.237 -2.5046 -0.8363  0.1690
 5132TIP3    H215403   6.051   0.335   0.141  1.1045 -3.2270 -1.7907
 5133TIP3   OH215404   3.277   1.201   0.222  0.1189  0.6212  0.0238
 5133TIP3    H115405   3.267   1.214   0.128  0.2066  0.3068 -0.0286
 5133TIP3    H215406   3.352   1.256   0.246 -0.2427  1.1314  0.0075
 5134TIP3   OH215407   1.914   4.920   3.219 -0.3200 -0.0838  0.1546
 5134TIP3    H115408   1.853   4.848   3.205  1.4357 -2.0944  2.0722
 5134TIP3    H215409   1.908   4.939   3.313  0.7294  0.8690  0.0565
 5135TIP3   OH215410   2.487   2.464   2.059 -0.2160 -0.0075 -0.4034
 5135TIP3    H115411   2.563   2.513   2.028  0.8840 -1.1407  0.3831
 5135TIP3    H215412   2.447   2.520   2.126  1.5274 -0.4715  1.1083
 5136TIP3   OH215413   1.925   2.014   0.746  0.3613 -0.1557 -0.1019
 5136TIP3    H115414   2.008   2.002   0.794  1.2866 -0.2874 -1.6721
 5136TIP3    H215415   1.879   1.931   0.757  0.5768 -0.1985  0.5226
 5137TIP3   OH215416   3.471   4.334   2.680 -0.0173 -0.1618 -0.1831
 5137TIP3    H115417   3.523   4.352   2.759  0.2509  1.7447 -0.7321
 5137TIP3    H215418   3.489   4.243   2.659  0.3068 -0.5598  1.6688
 5138TIP3   OH215419   6.285   1.347   1.760  0.5589  0.1203  0.2965
 5138TIP3    H115420   6.279   1.402   1.838  2.5708  0.7930  0.0268
 5138TIP3    H215421   6.378   1.326   1.752  0.3441 -0.3075 -1.6562
 5139TIP3   OH215422   1.710   1.404   1.989  0.4929  0.2826  0.0500
 5139TIP3    H115423   1.666   1.319   2.000 -2.0830  1.2480 -1.7396
 5139TIP3    H215424   1.777   1.387   1.922 -0.2437 -0.3052 -0.5735
 5140TIP3   OH215425   5.748   3.198   2.998 -0.4851  0.0356  0.9287
 5140TIP3    H115426   5.802   3.211   2.919 -0.5166  0.3497  0.9588
 5140TIP3    H215427   5.798   3.136   3.051 -0.6245 -0.4461  0.5096
 5141TIP3   OH215428   2.126   3.616   0.744  0.3816  0.0372  0.1564
 5141TIP3    H115429   2.160   3.601   0.655 -0.9560  0.0098 -0.3789
 5141TIP3    H215430   2.044   3.566   0.747  0.1661  0.4260  1.2478
 5142TIP3   OH215431   1.324   3.151   1.795  0.4169  0.1167  0.0649
 5142TIP3    H115432   1.349   3.211   1.866  1.0891 -0.7497  0.5736
 5142TIP3    H215433   1.403   3.141   1.743  0.1999 -0.0319 -0.2414
 5143TIP3   OH215434   2.258   1.693   1.849  0.0054 -0.8212 -0.7167
 5143TIP3    H115435   2.229   1.624   1.908  0.7729  0.4708  1.2462
 5143TIP3    H215436   2.328   1.652   1.798  0.6319 -1.4378  0.5882
 5144TIP3   OH215437   6.201   4.927   3.279  0.6360  0.4282 -0.0283
 5144TIP3    H115438   6.114   4.929   3.240  0.7066  1.8995 -0.1668
 5144TIP3    H215439   6.197   4.991   3.351  1.8490  1.2241 -0.6297
 5145TIP3   OH215440   2.399   1.609   4.616  0.1946 -0.0287 -0.1829
 5145TIP3    H115441   2.318   1.623   4.667  0.1821  1.0882 -0.4893
 5145TIP3    H215442   2.380   1.647   4.530  0.8495 -0.2827 -0.4441
 5146TIP3   OH215443   5.496   0.471   1.303 -0.3152 -0.7578  0.2187
 5146TIP3    H115444   5.439   0.525   1.357  1.1479  0.5724  0.5028
 5146TIP3    H215445   5.478   0.498   1.213  0.5270  0.3566  0.3701
 5147TIP3   OH215446   3.367   1.702   0.091  0.0472 -0.3767  0.6575
 5147TIP3    H115447   3.437   1.648   0.130  0.7494 -0.4070 -0.6166
 5147TIP3    H215448   3.361   1.778   0.149  0.5524 -0.7787  1.2560
 5148TIP3   OH215449   3.997   5.798   2.637 -0.1216 -0.3851 -0.3123
 5148TIP3    H115450   3.934   5.744   2.589 -0.4748  0.1969 -0.5248
 5148TIP3    H215451   4.075   5.744   2.644 -0.4152 -0.8646 -0.6494
 5149TIP3   OH215452   4.166   5.360   3.922 -0.1017  0.2041  0.1066
 5149TIP3    H115453   4.097   5.396   3.866  0.1075 -0.4803 -0.6021
 5149TIP3    H215454   4.239   5.420   3.912  0.0855 -0.1406 -0.7148
 5150TIP3   OH215455   1.498   4.983   3.931  0.0972  0.5179  0.2562
 5150TIP3    H115456   1.593   4.993   3.937  0.0909  0.0429  1.2313
 5150TIP3    H215457   1.478   4.998   3.838  0.7798  3.4943  0.4825
 5151TIP3   OH215458   0.397   2.624   1.334 -0.2759  0.1926  0.1963
 5151TIP3    H115459   0.338   2.557   1.368  3.5034 -4.1649 -0.8105
 5151TIP3    H215460   0.388   2.620   1.239 -0.5635  1.8567  0.1084
 5152TIP3   OH215461   1.825   1.806   5.132 -0.0498  0.3843 -0.2724
 5152TIP3    H115462   1.843   1.885   5.182  2.2077 -0.2074 -0.0753
 5152TIP3    H215463   1.810   1.739   5.199 -2.1648  0.6101 -0.4343
 5153TIP3   OH215464   2.920   0.422   0.679  0.3464  0.0271  0.1130
 5153TIP3    H115465   2.970   0.361   0.731  2.0303 -0.5241 -1.9864
 5153TIP3    H215466   2.871   0.368   0.618  0.4509  0.6918 -0.5851
 5154TIP3   OH215467   4.180   0.605   1.831  0.1898 -0.0599  0.2207
 5154TIP3    H115468   4.117   0.608   1.759 -0.8996  2.0249  1.1654
 5154TIP3    H215469   4.127   0.625   1.909  1.6647 -0.3679  1.3402
 5155TIP3   OH215470   3.453   2.908   1.700 -0.1573 -0.3539 -0.0773
 5155TIP3    H115471   3.384   2.889   1.764  0.1817 -1.1760  0.0472
 5155TIP3    H215472   3.495   2.824   1.683  0.0957 -0.0603 -0.9995
 5156TIP3   OH215473   5.629   4.391   4.746  0.0457  0.6002 -0.1531
 5156TIP3    H115474   5.681   4.419   4.670  0.4399 -0.0866 -0.1509
 5156TIP3    H215475   5.560   4.337   4.708 -1.1619  2.1322 -0.2315
 5157TIP3   OH215476   2.414   2.322   4.125 -0.2829  0.1228 -0.1735
 5157TIP3    H115477   2.422   2.390   4.192 -2.8448 -0.0558  0.4162
 5157TIP3    H215478   2.480   2.257   4.149  0.8097  1.3946  0.4489
 5158TIP3   OH215479   2.480   2.719   0.618  0.0204 -0.0171  0.0493
 5158TIP3    H115480   2.393   2.709   0.581  0.6552 -0.2643 -1.4621
 5158TIP3    H215481   2.534   2.752   0.545  1.8403 -2.7607 -0.0021
 5159TIP3   OH215482   0.844   0.188   0.471 -0.1088  0.3083 -0.3636
 5159TIP3    H115483   0.833   0.279   0.445 -0.3104  0.6851  0.9862
 5159TIP3    H215484   0.928   0.186   0.517  0.3689 -0.3962 -1.2262
 5160TIP3   OH215485   5.403   4.268   0.275 -0.4356  0.1934 -0.6203
 5160TIP3    H115486   5.363   4.320   0.204 -1.7278 -1.3451 -1.0889
 5160TIP3    H215487   5.390   4.177   0.248  1.0567 -0.4072  0.5521
 5161TIP3   OH215488   0.331   1.110   4.328 -0.3922 -0.0119  0.1246
 5161TIP3    H115489   0.246   1.076   4.355 -0.1042 -0.2660  0.7222
 5161TIP3    H215490   0.342   1.078   4.238 -0.1236 -1.5263  0.6670
 5162TIP3   OH215491   3.085   4.853   4.283 -0.3171  0.2895 -0.0528
 5162TIP3    H115492   3.112   4.894   4.201 -1.6908 -0.4943 -0.9551
 5162TIP3    H215493   3.098   4.759   4.269 -2.7343 -0.0711 -0.3157
 5163TIP3   OH215494   0.066   2.084   4.259  0.1330  0.2174 -0.1805
 5163TIP3    H115495   0.009   2.047   4.327 -1.1228 -0.4860 -1.5643
 5163TIP3    H215496   0.133   2.132   4.308 -0.6450 -0.3750  1.5543
 5164TIP3   OH215497   4.563   0.235   0.158  0.0046  0.4668  0.1667
 5164TIP3    H115498   4.567   0.299   0.228 -0.2016  1.4812 -0.7254
 5164TIP3    H215499   4.590   0.283   0.080  2.1971 -1.1121 -0.1613
 5165TIP3   OH215500   2.092   5.785   4.051  0.0899  0.1117 -0.3021
 5165TIP3    H115501   2.179   5.759   4.084 -0.0337 -3.5688 -2.3356
 5165TIP3    H215502   2.031   5.742   4.111 -0.3173  0.8373 -0.1896
 5166TIP3   OH215503   5.709   0.327   4.593 -0.3269  0.1557  0.5157
 5166TIP3    H115504   5.644   0.265   4.560 -1.0361  1.5613 -0.8715
 5166TIP3    H215505   5.793   0.284   4.578 -0.8434 -1.0433  0.9031
 5167TIP3   OH215506   5.781   2.959   3.255  0.2371 -0.1194 -0.5586
 5167TIP3    H115507   5.862   3.001   3.226  1.0454 -1.1570  0.1509
 5167TIP3    H215508   5.755   3.008   3.333  0.0353  0.3622 -0.9188
 5168TIP3   OH215509   1.325   5.988   0.158  0.1715  0.0663  0.5517
 5168TIP3    H115510   1.244   5.989   0.210 -1.1674 -0.4564 -1.4195
 5168TIP3    H215511   1.362   5.901   0.173 -0.6730 -0.4068 -0.0135
 5169TIP3   OH215512   5.024   0.566   2.555  0.0372 -0.3715 -0.0194
 5169TIP3    H115513   5.045   0.609   2.638 -2.3410 -0.9027  0.9342
 5169TIP3    H215514   4.929   0.577   2.544  0.3846  0.5783 -3.2249
 5170TIP3   OH215515   0.651   0.433   0.507 -0.1367  0.1597 -0.3544
 5170TIP3    H115516   0.586   0.495   0.474 -1.2912 -0.1998  1.1389
 5170TIP3    H215517   0.709   0.486   0.562  0.0379  0.2437 -0.6170
 5171TIP3   OH215518   6.166   2.832   0.468  0.0933 -1.0683 -0.1378
 5171TIP3    H115519   6.133   2.743   0.479  1.0729 -1.5807 -1.1497
 5171TIP3    H215520   6.200   2.855   0.555 -0.4567 -1.5531  0.2138
 5172TIP3   OH215521   4.894   2.262   2.799  0.6745 -0.5080 -0.4083
 5172TIP3    H115522   4.940   2.184   2.768  0.6919 -0.8025  0.3234
 5172TIP3    H215523   4.914   2.265   2.893  0.3989  0.1891 -0.3671
 5173TIP3   OH215524   4.689   3.211   4.738  0.2862 -0.3470 -0.1180
 5173TIP3    H115525   4.763   3.244   4.788  0.2176  0.5325 -0.5668
 5173TIP3    H215526   4.723   3.134   4.693  1.0239  0.1962 -0.5309
 5174TIP3   OH215527   6.063   2.769   5.103 -0.0274 -0.0453  0.3121
 5174TIP3    H115528   6.023   2.831   5.164 -0.3768  0.4018 -0.3606
 5174TIP3    H215529   6.115   2.823   5.044  0.5078 -0.4993  0.3605
 5175TIP3   OH215530   4.715   5.142   0.500 -0.2459  0.1746  0.7839
 5175TIP3    H115531   4.736   5.104   0.585  0.8848 -0.1162  0.3935
 5175TIP3    H215532   4.706   5.067   0.442 -0.7372  0.3851  0.5831
 5176TIP3   OH215533   1.458   4.318   0.317 -0.2237  0.2773 -0.4432
 5176TIP3    H115534   1.467   4.292   0.225  1.3179  1.1982 -0.5883
 5176TIP3    H215535   1.408   4.399   0.314 -0.0199  0.4022 -0.4899
 5177TIP3   OH215536   0.283   0.168   3.922  0.0895  0.2347  0.1398
 5177TIP3    H115537   0.313   0.128   3.840 -0.6303  2.6889 -1.4314
 5177TIP3    H215538   0.363   0.202   3.963  0.1583  1.5309 -1.0286
 5178TIP3   OH215539   2.226   4.157   4.194  0.0290 -0.4318 -0.1848
 5178TIP3    H115540   2.274   4.112   4.263  3.2963  0.6227 -1.5588
 5178TIP3    H215541   2.208   4.088   4.129  0.3596 -0.7155  0.0204
 5179TIP3   OH215542   3.857   3.038   3.464  0.5198 -0.1634  0.0270
 5179TIP3    H115543   3.875   3.035   3.558 -2.4282  1.5844  0.7855
 5179TIP3    H215544   3.787   2.974   3.450 -0.1399  0.6812 -0.6543
 5180TIP3   OH215545   1.772   0.143   2.681 -0.2134  0.3717  0.4472
 5180TIP3    H115546   1.697   0.158   2.624  0.0135 -0.8919 -0.2377
 5180TIP3    H215547   1.833   0.213   2.661 -1.9262  2.5755  2.3846
 5181TIP3   OH215548   4.956   1.923   2.564 -0.1824 -0.2815  0.1973
 5181TIP3    H115549   5.041   1.894   2.532 -0.3327 -0.1280 -0.3630
 5181TIP3    H215550   4.975   1.969   2.646  0.1626 -1.0695  0.5645
 5182TIP3   OH215551   5.401   5.692   4.238 -0.2086 -0.5251 -0.3507
 5182TIP3    H115552   5.317   5.737   4.247 -0.0152 -0.3748  0.9653
 5182TIP3    H215553   5.466   5.757   4.266  0.3416 -0.6939 -1.1977
 5183TIP3   OH215554   4.790   1.542   3.289 -0.5774  0.3870 -0.4766
 5183TIP3    H115555   4.878   1.525   3.255 -0.1802  3.2010 -1.0683
 5183TIP3    H215556   4.735   1.550   3.211 -1.0256  0.3709 -0.1698
 5184TIP3   OH215557   2.944   3.112   3.409  0.2354 -0.2475 -0.2183
 5184TIP3    H115558   2.922   3.081   3.496  1.3673 -1.3438 -0.2999
 5184TIP3    H215559   2.865   3.159   3.379 -0.6508 -1.0318  0.8338
 5185TIP3   OH215560   2.599   2.497   3.761  0.0502  0.3937 -0.1778
 5185TIP3    H115561   2.535   2.446   3.709  0.3762  0.9959 -1.1955
 5185TIP3    H215562   2.675   2.439   3.768  1.0283  1.2280 -2.6618
 5186TIP3   OH215563   4.222   1.825   2.014  0.1535  0.4844 -0.1758
 5186TIP3    H115564   4.181   1.828   2.101 -0.7816 -1.3088 -0.5076
 5186TIP3    H215565   4.258   1.737   2.007 -1.1827  0.0177 -2.1780
 5187TIP3   OH215566   0.241   0.917   4.618  0.0794 -0.8209 -0.0367
 5187TIP3    H115567   0.310   0.850   4.620 -0.6383 -1.6138  2.9856
 5187TIP3    H215568   0.276   0.989   4.670 -0.1463  0.1268 -1.1764
 5188TIP3   OH215569   3.514   0.671   3.761  0.5752 -0.0963  0.0717
 5188TIP3    H115570   3.598   0.643   3.725  0.1774 -0.4639 -0.5882
 5188TIP3    H215571   3.475   0.591   3.796  0.9309  0.2435  1.3135
 5189TIP3   OH215572   4.652   1.550   4.388  0.2517 -0.5722  0.0614
 5189TIP3    H115573   4.565   1.513   4.404  0.7068 -2.6359 -1.7465
 5189TIP3    H215574   4.700   1.533   4.469 -0.8315  0.0601  0.8622
 5190TIP3   OH215575   0.504   1.663   3.825  0.2204  0.5026 -0.5583
 5190TIP3    H115576   0.438   1.692   3.889 -0.4027 -0.3730 -0.7875
 5190TIP3    H215577   0.454   1.635   3.749  0.8362 -0.4210 -0.6434
 5191TIP3   OH215578   2.531   0.414   5.149 -0.9888  0.0559  0.3295
 5191TIP3    H115579   2.597   0.383   5.087  0.8570 -0.4843  2.4167
 5191TIP3    H215580   2.448   0.378   5.117 -0.2474  0.4234 -2.1724
 5192TIP3   OH215581   3.908   3.043   2.985  0.1539  0.0285  0.1135
 5192TIP3    H115582   3.814   3.051   3.004  0.1245 -0.8628  0.4116
 5192TIP3    H215583   3.951   3.080   3.062  0.0649  0.9660 -0.2682
 5193TIP3   OH215584   4.694   2.000   1.254  0.1524 -0.0792  0.4267
 5193TIP3    H115585   4.628   1.931   1.266 -2.5802  2.0980 -0.9669
 5193TIP3    H215586   4.714   2.029   1.343 -3.0781  1.1142  0.9038
 5194TIP3   OH215587   5.430   0.211   0.797 -0.1636 -0.1054  0.3121
 5194TIP3    H115588   5.522   0.236   0.791  0.3254 -1.4365  1.6079
 5194TIP3    H215589   5.413   0.161   0.717  0.3906 -0.2862  0.3034
 5195TIP3   OH215590   2.906   2.142   4.089 -1.2069 -0.4614  0.7140
 5195TIP3    H115591   2.850   2.116   4.162  0.6783 -0.8682  2.1108
 5195TIP3    H215592   2.966   2.206   4.127 -0.2048 -0.6480 -0.4938
 5196TIP3   OH215593   6.329   0.563   4.552 -0.0735  0.2212  0.2162
 5196TIP3    H115594   6.417   0.537   4.525  0.0929  0.0614  0.8812
 5196TIP3    H215595   6.318   0.523   4.639 -0.4959  0.9021  0.4822
 5197TIP3   OH215596   3.517   5.026   1.709 -0.0247  0.0327  0.1445
 5197TIP3    H115597   3.444   5.020   1.647 -0.6068 -2.7443  0.9521
 5197TIP3    H215598   3.570   4.948   1.691  1.5958  0.9052  0.9741
 5198TIP3   OH215599   4.694   4.720   4.235 -0.0508 -0.2128  0.0886
 5198TIP3    H115600   4.716   4.792   4.176 -0.0286 -0.0565  0.2825
 5198TIP3    H215601   4.764   4.722   4.301  0.2214 -0.7262 -0.1766
 5199TIP3   OH215602   3.251   3.571   1.321  0.0507  0.4271 -0.8724
 5199TIP3    H115603   3.243   3.536   1.409 -1.5750  0.5106 -0.9496
 5199TIP3    H215604   3.161   3.573   1.288  0.5478  1.0514 -2.2741
 5200TIP3   OH215605   2.915   1.311   0.190 -0.1675 -0.6962  0.1719
 5200TIP3    H115606   2.877   1.251   0.255 -0.7408 -1.0406 -0.4764
 5200TIP3    H215607   2.919   1.260   0.110 -0.5368  0.0901 -0.3586
 5201TIP3   OH215608   1.001   4.797   3.642  0.2908 -0.2555  0.6077
 5201TIP3    H115609   0.989   4.814   3.736  0.8149  0.5363  0.5413
 5201TIP3    H215610   0.920   4.755   3.615 -0.4759  0.8371  1.1170
 5202TIP3   OH215611   4.855   0.256   2.569  0.5408 -0.0578  0.6744
 5202TIP3    H115612   4.785   0.208   2.614  0.4065  1.4396  2.1786
 5202TIP3    H215613   4.926   0.193   2.563 -0.8556 -1.6002 -0.8062
 5203TIP3   OH215614   4.805   5.195   3.630 -0.6045  0.2704  0.1518
 5203TIP3    H115615   4.738   5.127   3.616 -1.2146  1.3821 -3.3480
 5203TIP3    H215616   4.887   5.147   3.636 -1.2341 -0.8771 -0.1063
 5204TIP3   OH215617   5.854   5.632   1.330  0.6873 -0.3459 -0.4428
 5204TIP3    H115618   5.832   5.649   1.422  0.5421 -0.4760 -0.4524
 5204TIP3    H215619   5.928   5.571   1.334  1.7016  0.8524 -0.4020
 5205TIP3   OH215620   2.790   1.542   3.386  0.2521  0.7851 -0.1262
 5205TIP3    H115621   2.877   1.517   3.416  0.0386  0.7201  0.4483
 5205TIP3    H215622   2.740   1.559   3.466 -0.3110  0.6574 -0.4390
 5206TIP3   OH215623   4.267   3.456   1.417 -0.2602 -0.4717 -0.3234
 5206TIP3    H115624   4.204   3.392   1.451 -0.3461  0.2997  1.0833
 5206TIP3    H215625   4.320   3.408   1.354 -3.1402 -0.8378 -2.6988
 5207TIP3   OH215626   2.443   3.607   1.274  0.5197 -0.2690  0.0410
 5207TIP3    H115627   2.386   3.553   1.220  2.4703 -2.4537 -0.0013
 5207TIP3    H215628   2.457   3.686   1.222 -0.4105 -0.8107 -1.0749
 5208TIP3   OH215629   1.644   1.845   0.315 -0.6380  0.0929  0.2477
 5208TIP3    H115630   1.736   1.870   0.317 -0.7004  0.4065 -0.4836
 5208TIP3    H215631   1.641   1.771   0.254 -0.8617  0.0491  0.3103
 5209TIP3   OH215632   2.489   2.486   5.101  0.5463  0.0831  0.3554
 5209TIP3    H115633   2.442   2.567   5.081  0.0923 -0.3032 -0.1706
 5209TIP3    H215634   2.564   2.485   5.041  0.7861  0.3161  0.6506
 5210TIP3   OH215635   3.070   5.217   4.638  0.4786 -0.1092 -0.0863
 5210TIP3    H115636   3.101   5.134   4.601  0.5744  0.3825 -1.1365
 5210TIP3    H215637   3.002   5.191   4.701  2.1801 -1.1206  1.4018
 5211TIP3   OH215638   5.837   3.244   2.152 -0.0831  0.0762  0.5630
 5211TIP3    H115639   5.921   3.284   2.174  0.0909  1.5368 -2.2698
 5211TIP3    H215640   5.857   3.151   2.146  1.1073  0.2792  0.9230
 5212TIP3   OH215641   0.068   3.199   3.897  0.2880 -0.4593 -0.7524
 5212TIP3    H115642   0.122   3.272   3.930  2.0444 -2.0358  0.0236
 5212TIP3    H215643   0.067   3.213   3.802  0.0780  0.8988 -0.5793
 5213TIP3   OH215644   2.109   2.998   3.318 -0.6388 -0.0042 -0.5024
 5213TIP3    H115645   2.037   2.946   3.281 -0.9537  0.9346 -1.2476
 5213TIP3    H215646   2.066   3.067   3.368 -0.2170 -0.6844  0.8419
 5214TIP3   OH215647   3.951   3.768   3.190 -0.4156  0.2575  0.1360
 5214TIP3    H115648   4.005   3.804   3.120  2.2897 -2.1833  0.7750
 5214TIP3    H215649   3.882   3.719   3.145 -0.7714  1.5415 -0.7443
 5215TIP3   OH215650   3.582   3.355   4.030 -0.5796  0.1471  0.2563
 5215TIP3    H115651   3.639   3.391   3.962 -1.0699 -0.3740 -0.4498
 5215TIP3    H215652   3.640   3.302   4.084  0.1783  2.0333  1.3813
 5216TIP3   OH215653   4.618   2.242   3.054 -0.0999  0.0395 -0.4269
 5216TIP3    H115654   4.683   2.172   3.053  1.0941  1.1129 -1.3807
 5216TIP3    H215655   4.614   2.273   2.964 -2.5510 -0.4992 -0.5805
 5217TIP3   OH215656   5.673   5.469   0.753 -0.9893  0.7522 -0.3242
 5217TIP3    H115657   5.671   5.387   0.704  1.2826  1.2954 -1.4742
 5217TIP3    H215658   5.752   5.463   0.807 -2.3504  1.0240  1.8102
 5218TIP3   OH215659   4.914   2.231   3.336  0.5649  0.1244  0.0114
 5218TIP3    H115660   4.852   2.298   3.306  0.6454  0.2143  0.0470
 5218TIP3    H215661   5.000   2.273   3.330  0.7123 -0.2829 -0.8659
 5219TIP3   OH215662   3.377   2.637   1.172 -0.0920 -0.2193  0.4267
 5219TIP3    H115663   3.349   2.709   1.227  0.2895  0.0523  0.2734
 5219TIP3    H215664   3.469   2.656   1.152 -0.4462  0.1442 -0.9994
 5220TIP3   OH215665   4.506   0.983   2.058  0.0319 -0.1842  0.3587
 5220TIP3    H115666   4.487   1.014   2.147  0.7034 -0.2887  0.5410
 5220TIP3    H215667   4.426   1.002   2.009 -0.6584 -0.8660  1.1803
 5221TIP3   OH215668   3.823   2.761   0.135 -0.0880  0.3941  0.0241
 5221TIP3    H115669   3.832   2.719   0.049 -1.3789  1.8803 -0.9012
 5221TIP3    H215670   3.788   2.848   0.115 -1.4090  0.4092  2.1342
 5222TIP3   OH215671   3.287   3.804   4.777 -0.2111 -0.2655 -0.0206
 5222TIP3    H115672   3.209   3.846   4.816  0.4262  1.0925 -0.1459
 5222TIP3    H215673   3.253   3.758   4.701 -0.8136  0.9378 -0.5162
 5223TIP3   OH215674   4.867   3.794   4.055  0.0273  0.2523 -0.4888
 5223TIP3    H115675   4.773   3.780   4.062  0.0447  0.2160 -0.3188
 5223TIP3    H215676   4.888   3.853   4.128  0.1431  0.2239 -0.4984
 5224TIP3   OH215677   5.303   4.684   3.549  0.0593  0.5073 -0.0579
 5224TIP3    H115678   5.340   4.597   3.537 -2.1190 -0.3592 -1.0322
 5224TIP3    H215679   5.303   4.722   3.461 -3.0707 -0.3330 -0.5394
 5225TIP3   OH215680   3.701   5.556   0.136  0.1376 -0.3818  0.0528
 5225TIP3    H115681   3.737   5.547   0.224 -1.1353 -2.2353  0.4187
 5225TIP3    H215682   3.642   5.632   0.142  0.3251 -0.2787  0.6840
 5226TIP3   OH215683   4.225   5.614   0.965 -0.6018  0.1726  0.4279
 5226TIP3    H115684   4.150   5.670   0.945 -0.2714  0.0242 -1.3921
 5226TIP3    H215685   4.217   5.541   0.903  0.6453 -0.2200  0.7084
 5227TIP3   OH215686   4.099   5.758   3.446  0.3107  0.5073  0.6863
 5227TIP3    H115687   4.109   5.721   3.534  1.8706 -0.6821  0.0690
 5227TIP3    H215688   4.171   5.719   3.396  0.6746  2.7286 -0.6152
 5228TIP3   OH215689   1.035   2.427   1.768 -0.2008  0.2434 -0.0959
 5228TIP3    H115690   0.978   2.351   1.780 -0.3716  0.6167  1.5696
 5228TIP3    H215691   1.096   2.423   1.841  1.7423  0.0570 -1.6249
 5229TIP3   OH215692   5.187   1.017   3.639  0.0285  0.7551 -0.0622
 5229TIP3    H115693   5.191   1.111   3.660  2.3407  0.2515  2.2270
 5229TIP3    H215694   5.127   0.981   3.704 -0.2644  0.5344 -0.4551
 5230TIP3   OH215695   0.547   4.728   3.363  0.7587  0.1952 -0.1594
 5230TIP3    H115696   0.481   4.674   3.320 -0.4021 -0.0157  1.7680
 5230TIP3    H215697   0.610   4.748   3.294  0.2800 -2.1030 -1.3656
 5231TIP3   OH215698   3.278   0.317   1.037 -0.1833 -0.3627  0.8327
 5231TIP3    H115699   3.341   0.374   1.081  0.2718 -0.9270  0.9357
 5231TIP3    H215700   3.244   0.260   1.107 -1.6148  0.6334  0.9797
 5232TIP3   OH215701   2.351   2.433   2.562 -0.2917 -0.6268  0.1219
 5232TIP3    H115702   2.370   2.430   2.656 -0.7481 -0.0453  0.2418
 5232TIP3    H215703   2.339   2.526   2.543 -0.9637 -0.8039 -0.3531
 5233TIP3   OH215704   1.309   4.765   3.775 -0.6076  0.6789  0.1486
 5233TIP3    H115705   1.289   4.723   3.692 -1.3439  0.9403  0.1849
 5233TIP3    H215706   1.321   4.858   3.754  1.1495  0.4530  0.0476
 5234TIP3   OH215707   4.581   2.861   2.574  0.4219 -0.6571  0.1691
 5234TIP3    H115708   4.536   2.879   2.656 -0.0179  0.2388 -0.2582
 5234TIP3    H215709   4.668   2.831   2.601  0.6545  0.6207  0.9615
 5235TIP3   OH215710   0.877   1.809   1.399  0.0446  0.6777 -0.6111
 5235TIP3    H115711   0.895   1.768   1.483 -1.6964  0.8709 -0.1082
 5235TIP3    H215712   0.941   1.770   1.339 -0.8377 -2.0027  0.0755
 5236TIP3   OH215713   1.575   3.910   2.107 -0.2892 -0.0339 -0.0061
 5236TIP3    H115714   1.584   3.933   2.015 -1.5304  0.4577 -0.0217
 5236TIP3    H215715   1.539   3.988   2.148  0.1980 -0.2704  0.8897
 5237TIP3   OH215716   0.031   5.278   0.208 -0.7425 -0.0410  0.1080
 5237TIP3    H115717   0.013   5.287   0.114 -0.2169 -2.8147 -0.3484
 5237TIP3    H215718   0.119   5.313   0.219 -0.2723 -0.8860 -0.7430
 5238TIP3   OH215719   0.269   2.496   1.746  0.6408 -0.0420 -0.0034
 5238TIP3    H115720   0.293   2.497   1.653  1.6790 -1.1158  0.2333
 5238TIP3    H215721   0.335   2.551   1.788 -0.7192  1.7473 -0.0470
 5239TIP3   OH215722   5.344   1.904   0.069 -0.4203  0.3069  0.1656
 5239TIP3    H115723   5.325   1.950   0.151 -0.1111 -0.4048  0.6403
 5239TIP3    H215724   5.436   1.922   0.052  0.0458 -1.1568  1.0219
 5240TIP3   OH215725   1.478   5.636   3.832 -0.1727  0.4634  0.2323
 5240TIP3    H115726   1.500   5.555   3.878  2.3706  0.8458 -0.1748
 5240TIP3    H215727   1.477   5.703   3.901  0.5176  0.5240  0.1902
 5241TIP3   OH215728   6.233   2.571   2.219  0.3993  0.0470 -0.2506
 5241TIP3    H115729   6.235   2.605   2.129  1.0097  0.5019 -0.0735
 5241TIP3    H215730   6.141   2.552   2.235 -0.0023  1.7647 -0.3284
 5242TIP3   OH215731   0.540   0.976   1.406 -0.4370  0.0315  0.5432
 5242TIP3    H115732   0.583   1.059   1.387  0.1325 -0.1428  1.0444
 5242TIP3    H215733   0.498   0.951   1.324 -1.0056  1.0332  0.5097
 5243TIP3   OH215734   4.840   3.405   1.790 -0.3867  0.3018 -0.0523
 5243TIP3    H115735   4.886   3.335   1.835 -1.1793 -1.1046 -1.3236
 5243TIP3    H215736   4.830   3.474   1.855  0.6250 -0.6744  1.1679
 5244TIP3   OH215737   2.126   2.518   4.420 -0.0473  0.1912  0.5340
 5244TIP3    H115738   2.080   2.474   4.348 -0.0992  1.5171 -0.2738
 5244TIP3    H215739   2.217   2.523   4.391 -0.3134  1.9882 -0.1161
 5245TIP3   OH215740   3.655   2.022   5.159 -0.3279  0.2417 -0.3377
 5245TIP3    H115741   3.627   1.997   5.071  1.2208 -0.9686 -0.5176
 5245TIP3    H215742   3.573   2.030   5.208 -1.1730  0.2365 -1.6949
 5246TIP3   OH215743   4.815   0.967   2.405 -0.1050  0.1405 -0.0569
 5246TIP3    H115744   4.803   0.946   2.497  1.4792  0.2260  0.2001
 5246TIP3    H215745   4.871   1.045   2.405 -0.1259  0.1778 -1.0850
 5247TIP3   OH215746   2.387   4.652   4.525  0.3725 -0.2724 -0.2206
 5247TIP3    H115747   2.359   4.604   4.447 -0.2635 -0.5703  0.1861
 5247TIP3    H215748   2.407   4.740   4.492 -1.9217  0.2376 -0.4301
 5248TIP3   OH215749   6.293   4.650   2.100  0.5623  0.2120  0.4903
 5248TIP3    H115750   6.361   4.616   2.159 -0.0831 -0.5506  0.8303
 5248TIP3    H215751   6.334   4.723   2.055  1.8160 -0.6182  0.2264
 5249TIP3   OH215752   1.651   5.320   2.208 -0.1345  0.9126 -0.0912
 5249TIP3    H115753   1.727   5.378   2.214  1.2129 -0.8468  1.5041
 5249TIP3    H215754   1.625   5.305   2.299 -0.0915 -1.2973 -0.3739
 5250TIP3   OH215755   1.559   4.856   3.450 -0.6169 -0.5025 -0.3395
 5250TIP3    H115756   1.570   4.789   3.517  0.2010  0.0074  0.0478
 5250TIP3    H215757   1.510   4.813   3.381  0.7078 -1.7887 -0.5130
 5251TIP3   OH215758   3.997   5.057   2.180  0.3615 -0.2977  0.3286
 5251TIP3    H115759   3.943   4.994   2.227  1.4562 -1.2192  0.4106
 5251TIP3    H215760   4.033   5.008   2.107  2.4313 -0.2470  1.2305
 5252TIP3   OH215761   1.538   5.579   2.733 -0.0239  0.7283  0.4089
 5252TIP3    H115762   1.501   5.654   2.778 -0.8488 -0.7541  2.3571
 5252TIP3    H215763   1.483   5.566   2.656 -0.7823  1.2313  0.8645
 5253TIP3   OH215764   0.084   2.844   1.361 -0.1192  0.4796  0.3079
 5253TIP3    H115765   0.110   2.753   1.375  3.3453  1.2797 -0.0362
 5253TIP3    H215766   0.026   2.864   1.434  1.2106 -1.2440  1.9310
 5254TIP3   OH215767   0.630   1.856   1.261 -0.3033  0.5290 -0.3523
 5254TIP3    H115768   0.704   1.833   1.316 -1.1635 -1.4423  0.0474
 5254TIP3    H215769   0.669   1.898   1.184  1.0900  0.9392  0.5504
 5255TIP3   OH215770   5.154   0.242   1.328  0.2038 -0.6006  0.0672
 5255TIP3    H115771   5.203   0.206   1.403 -0.4077 -1.4352  0.0739
 5255TIP3    H215772   5.078   0.285   1.367  0.9394  0.7834  0.0622
 5256TIP3   OH215773   5.853   5.319   1.538 -0.3548 -0.0209  0.0074
 5256TIP3    H115774   5.761   5.346   1.534 -0.7657 -1.3635 -0.2707
 5256TIP3    H215775   5.869   5.277   1.453  0.4370 -0.0271  0.1570
 5257TIP3   OH215776   1.974   4.460   5.018  0.0422  0.2838  0.3956
 5257TIP3    H115777   1.930   4.478   5.102 -0.4075 -0.5629  0.3560
 5257TIP3    H215778   2.008   4.371   5.028 -2.3529 -0.9378 -1.2440
 5258TIP3   OH215779   2.587   1.525   3.589 -0.1042  0.2831 -0.5652
 5258TIP3    H115780   2.607   1.511   3.682 -0.4557 -1.2661 -0.6925
 5258TIP3    H215781   2.574   1.437   3.554 -0.6760  0.8836 -1.9339
 5259TIP3   OH215782   6.026   3.544   1.592  0.1147  0.6474  0.0574
 5259TIP3    H115783   6.059   3.484   1.659  2.8044  0.3824 -1.3489
 5259TIP3    H215784   6.020   3.629   1.637  0.1695  0.1404  1.0598
 5260TIP3   OH215785   5.888   2.419   1.780  0.0045 -0.3604 -0.2096
 5260TIP3    H115786   5.935   2.338   1.795 -1.0055 -0.7943  0.7970
 5260TIP3    H215787   5.878   2.425   1.685  1.0463 -0.8368 -0.3582
 5261TIP3   OH215788   0.567   4.885   0.466 -0.5525  0.4513  0.5108
 5261TIP3    H115789   0.515   4.914   0.541  0.8361  1.3484  1.1790
 5261TIP3    H215790   0.556   4.954   0.400 -1.8360 -0.3754 -0.1722
 5262TIP3   OH215791   3.819   3.893   4.033 -0.0355  0.0916  1.1692
 5262TIP3    H115792   3.743   3.844   4.002 -0.1929  1.4103 -0.6791
 5262TIP3    H215793   3.781   3.964   4.085 -0.0479  0.4238  0.7123
 5263TIP3   OH215794   2.320   4.199   1.078 -0.1259  0.1876 -0.3894
 5263TIP3    H115795   2.314   4.272   1.140 -1.0561 -0.3528  0.1751
 5263TIP3    H215796   2.291   4.123   1.128 -0.0222 -0.4142 -1.2359
 5264TIP3   OH215797   1.354   0.637   5.004 -0.2473  0.1884 -1.0244
 5264TIP3    H115798   1.327   0.559   5.052  1.2231 -0.1265 -0.6824
 5264TIP3    H215799   1.438   0.614   4.966  0.0818  1.5185 -1.1378
 5265TIP3   OH215800   5.530   0.621   4.914 -0.4975  0.0376 -0.0034
 5265TIP3    H115801   5.560   0.683   4.848 -1.5126 -1.3219 -1.8277
 5265TIP3    H215802   5.485   0.552   4.864  2.3419 -3.3080  1.6381
 5266TIP3   OH215803   5.151   3.474   3.732 -0.0882 -0.5958  0.5784
 5266TIP3    H115804   5.108   3.389   3.745 -1.9690  0.2868  0.3049
 5266TIP3    H215805   5.109   3.533   3.794  1.1648  0.1901  0.7275
 5267TIP3   OH215806   4.696   3.980   5.147 -0.6100 -0.4343 -0.0372
 5267TIP3    H115807   4.622   3.978   5.087 -0.5911  0.2539 -0.0879
 5267TIP3    H215808   4.659   4.008   5.231 -0.6682 -1.5523  0.3371
 5268TIP3   OH215809   3.020   1.985   3.898 -0.4677  0.5166  0.0526
 5268TIP3    H115810   2.987   2.067   3.934  0.7444  1.3012 -0.5237
 5268TIP3    H215811   3.091   1.960   3.958  0.1009  0.6692 -0.5383
 5269TIP3   OH215812   2.255   5.666   3.050 -0.7410 -0.0473 -0.1096
 5269TIP3    H115813   2.198   5.621   3.112 -1.1512 -1.1636 -1.2527
 5269TIP3    H215814   2.224   5.756   3.049 -1.4122 -0.2665  0.5032
 5270TIP3   OH215815   0.849   1.201   1.990  0.1868 -0.2280  0.1596
 5270TIP3    H115816   0.906   1.125   1.998  0.5541 -0.0094 -0.2915
 5270TIP3    H215817   0.910   1.275   1.980 -0.1619  0.1478  0.8084
 5271TIP3   OH215818   1.024   5.651   3.797 -0.4909 -0.3578  0.3449
 5271TIP3    H115819   1.103   5.661   3.744 -0.9716 -0.6660 -0.4458
 5271TIP3    H215820   1.002   5.740   3.825  0.0426 -0.2532  0.4462
 5272TIP3   OH215821   0.522   2.230   1.076  0.3857  0.2796 -0.0682
 5272TIP3    H115822   0.448   2.222   1.016  0.2182  1.9461 -0.1297
 5272TIP3    H215823   0.567   2.310   1.049  2.1295 -0.5947  0.0834
 5273TIP3   OH215824   2.780   5.853   2.028 -1.0624 -0.2639 -0.2610
 5273TIP3    H115825   2.869   5.856   1.993 -1.1209 -0.4470 -0.4258
 5273TIP3    H215826   2.790   5.813   2.115 -1.0487 -0.7656 -0.4919
 5274TIP3   OH215827   0.415   3.647   0.664  0.1772  0.5426  0.4217
 5274TIP3    H115828   0.396   3.554   0.678 -0.9655  0.8164  0.8016
 5274TIP3    H215829   0.498   3.647   0.617 -0.2476 -0.7062 -0.4073
 5275TIP3   OH215830   3.233   5.832   3.901 -0.2150  0.0276  0.0684
 5275TIP3    H115831   3.310   5.784   3.870  0.3501  0.2844  1.0495
 5275TIP3    H215832   3.159   5.773   3.883  0.3032 -0.5938 -0.0560
 5276TIP3   OH215833   0.723   4.587   0.832 -0.0355 -0.1847  0.2301
 5276TIP3    H115834   0.675   4.639   0.768  1.1604  0.8170  0.1138
 5276TIP3    H215835   0.803   4.560   0.787 -0.3538 -1.6329  0.4935
 5277TIP3   OH215836   5.156   1.515   4.676 -0.3446 -0.6124 -0.4961
 5277TIP3    H115837   5.159   1.429   4.717  1.3465 -0.5578 -0.4085
 5277TIP3    H215838   5.205   1.572   4.735 -0.0471  0.0369 -1.3338
 5278TIP3   OH215839   0.669   2.095   0.805  0.3031 -0.5195 -0.1546
 5278TIP3    H115840   0.638   2.135   0.886  0.9570  0.6090 -0.4351
 5278TIP3    H215841   0.705   2.011   0.831 -0.0733 -0.4435  0.6247
 5279TIP3   OH215842   4.138   3.148   0.699  0.0214  0.2625  0.4021
 5279TIP3    H115843   4.059   3.149   0.752  1.3177  0.0671  2.4694
 5279TIP3    H215844   4.120   3.083   0.631 -2.0433  1.1817 -0.0005
 5280TIP3   OH215845   0.819   1.215   3.965  0.2955  0.2561  0.1591
 5280TIP3    H115846   0.843   1.165   4.043 -2.1177  0.8396  1.3771
 5280TIP3    H215847   0.751   1.162   3.923 -0.8101  1.4746  0.3369
 5281TIP3   OH215848   1.477   4.222   5.116 -0.4303 -0.3248  0.1747
 5281TIP3    H115849   1.561   4.193   5.151 -0.6800  1.9732  3.0983
 5281TIP3    H215850   1.413   4.162   5.153 -0.3822  0.2226  1.1914
 5282TIP3   OH215851   1.512   1.556   3.554 -1.3016  0.1251 -0.5008
 5282TIP3    H115852   1.537   1.647   3.543 -0.3905 -0.0486  0.0231
 5282TIP3    H215853   1.570   1.508   3.495 -0.2317 -0.2986  0.8379
 5283TIP3   OH215854   4.797   3.391   3.926  0.1126 -0.0628  0.4556
 5283TIP3    H115855   4.872   3.398   3.985  0.8113 -0.5087 -0.3712
 5283TIP3    H215856   4.784   3.480   3.893  0.1561  0.0506  0.7443
 5284TIP3   OH215857   3.764   4.950   2.632 -0.2787 -0.5810  0.0569
 5284TIP3    H115858   3.782   4.906   2.715  0.3635 -0.6911 -0.1291
 5284TIP3    H215859   3.671   4.970   2.635 -1.1698 -3.9000 -0.7283
 5285TIP3   OH215860   3.461   3.361   3.158 -0.0638  0.4100 -0.0817
 5285TIP3    H115861   3.437   3.270   3.141  0.4528  0.5005 -1.3865
 5285TIP3    H215862   3.508   3.358   3.241 -0.9804 -0.3489  0.4321
 5286TIP3   OH215863   4.052   3.741   2.169 -0.3692 -0.1911  0.6566
 5286TIP3    H115864   4.003   3.805   2.117  0.8281 -0.2795 -0.6451
 5286TIP3    H215865   4.000   3.661   2.163 -1.1840  0.2909  1.1616
 5287TIP3   OH215866   1.097   3.467   3.896  0.1748 -0.1024  0.1470
 5287TIP3    H115867   1.047   3.514   3.829  0.5962 -0.1796 -0.2307
 5287TIP3    H215868   1.176   3.439   3.851 -0.0279 -1.1090  0.3842
 5288TIP3   OH215869   0.380   1.389   2.251 -0.5856 -0.7087 -0.0830
 5288TIP3    H115870   0.470   1.366   2.229 -0.4441 -0.8534  0.6225
 5288TIP3    H215871   0.366   1.351   2.338 -1.4151 -0.9159 -0.3024
 5289TIP3   OH215872   4.735   1.947   1.980  0.6813  0.3860 -0.4782
 5289TIP3    H115873   4.789   1.919   2.054  1.2984  3.5749  0.4259
 5289TIP3    H215874   4.645   1.937   2.011  0.8626 -0.6010 -0.2417
 5290TIP3   OH215875   3.347   0.026   3.311 -0.2826 -0.1960 -0.4421
 5290TIP3    H115876   3.329   0.066   3.396 -1.7784 -0.0534 -0.7944
 5290TIP3    H215877   3.400   0.091   3.265 -2.2390  1.2653 -0.8110
 5291TIP3   OH215878   5.214   5.464   2.790  0.7671  0.3340 -0.4176
 5291TIP3    H115879   5.235   5.558   2.796  0.5557  0.3309  0.5388
 5291TIP3    H215880   5.248   5.427   2.872 -0.2794 -0.2031 -0.2091
 5292TIP3   OH215881   3.483   4.074   2.612 -0.3356 -0.1082 -0.6464
 5292TIP3    H115882   3.568   4.051   2.575  0.2115  1.3328 -0.3369
 5292TIP3    H215883   3.457   3.996   2.662  1.6366  0.0377  0.7065
 5293TIP3   OH215884   4.722   1.556   0.778 -0.3431 -0.3408 -0.2595
 5293TIP3    H115885   4.754   1.466   0.789 -1.9677 -0.8862  0.3171
 5293TIP3    H215886   4.627   1.548   0.786 -0.4321  1.6335  1.1954
 5294TIP3   OH215887   3.686   4.995   0.385 -0.0055  0.2322  0.2110
 5294TIP3    H115888   3.669   5.081   0.424 -3.6523 -0.3029  0.1087
 5294TIP3    H215889   3.724   4.944   0.456  0.3566  1.3484  0.8482
 5295TIP3   OH215890   3.061   3.526   0.735 -0.7378  0.5673 -0.2215
 5295TIP3    H115891   2.973   3.530   0.697 -0.3131  2.3667 -1.1506
 5295TIP3    H215892   3.048   3.487   0.822 -2.6665  2.0300  0.2200
 5296TIP3   OH215893   1.054   4.384   1.404 -0.6783 -0.0202  0.9913
 5296TIP3    H115894   1.141   4.423   1.403 -0.3471 -0.6331  2.6680
 5296TIP3    H215895   1.070   4.290   1.418 -1.5696 -0.3075  0.2187
 5297TIP3   OH215896   6.244   1.046   4.197 -0.6807 -0.3696 -0.3500
 5297TIP3    H115897   6.302   1.018   4.127  0.1320 -0.7263  0.4579
 5297TIP3    H215898   6.238   1.141   4.187  1.5410 -0.0506  0.6384
 5298TIP3   OH215899   3.006   3.023   5.095  0.3942 -0.0427  0.1930
 5298TIP3    H115900   3.070   2.974   5.044 -0.5525  0.6053 -1.6824
 5298TIP3    H215901   2.923   2.977   5.080  0.1181  0.0015  1.4056
 5299TIP3   OH215902   2.205   1.257   0.029  0.4311 -0.6913  0.1275
 5299TIP3    H115903   2.183   1.313   0.103 -1.6839 -0.4648 -0.6121
 5299TIP3    H215904   2.300   1.266   0.019  0.2036  2.6406  0.1018
 5300TIP3   OH215905   0.163   4.379   4.990 -0.0438 -0.2131  0.5928
 5300TIP3    H115906   0.095   4.332   4.941  0.0525 -0.1902  0.4368
 5300TIP3    H215907   0.117   4.452   5.031  0.2194  0.9867 -1.1165
 5301TIP3   OH215908   2.095   5.369   2.062 -0.2037 -0.0841  0.1343
 5301TIP3    H115909   2.083   5.455   2.020 -0.0897 -0.4237 -0.6230
 5301TIP3    H215910   2.006   5.338   2.078 -0.2449  0.2043  0.4784
 5302TIP3   OH215911   0.626   5.825   3.893 -0.7328  0.1417 -0.0722
 5302TIP3    H115912   0.597   5.744   3.850  0.3575 -0.8347  0.9418
 5302TIP3    H215913   0.654   5.881   3.821 -0.0181 -1.0118 -0.7287
 5303TIP3   OH215914   4.458   4.920   0.388 -0.4543 -0.7267  0.3426
 5303TIP3    H115915   4.466   4.976   0.311 -0.4061 -1.1311  0.0523
 5303TIP3    H215916   4.548   4.909   0.419 -0.6283  0.9683  1.5714
 5304TIP3   OH215917   0.341   4.886   3.660 -0.0590 -0.4756 -0.2125
 5304TIP3    H115918   0.261   4.927   3.629 -0.1575 -1.8646 -1.9360
 5304TIP3    H215919   0.411   4.946   3.634 -0.4700  0.4908  0.8442
 5305TIP3   OH215920   4.212   3.948   4.892 -0.0299 -1.1368 -0.2775
 5305TIP3    H115921   4.147   3.988   4.835  0.1054 -1.2513 -0.5104
 5305TIP3    H215922   4.176   3.959   4.980  1.2428  2.0194  0.0039
 5306TIP3   OH215923   5.101   5.244   4.970  0.4559  0.0366  0.3277
 5306TIP3    H115924   5.006   5.248   4.958  0.2991 -1.3059  0.9176
 5306TIP3    H215925   5.116   5.274   5.059  0.3537 -1.6282  0.9420
 5307TIP3   OH215926   0.425   5.639   4.513 -0.6676 -0.4917 -0.4273
 5307TIP3    H115927   0.359   5.638   4.582 -0.2475 -0.2608 -0.0216
 5307TIP3    H215928   0.395   5.707   4.452  1.0089  2.2644  1.5746
 5308TIP3   OH215929   1.023   4.847   3.913  0.2437 -0.5264 -0.1371
 5308TIP3    H115930   1.107   4.801   3.913  1.0478  0.7968  1.5118
 5308TIP3    H215931   1.045   4.935   3.945 -1.6667  0.0673 -0.3653
 5309TIP3   OH215932   5.489   0.673   3.610  0.4745  0.1430  0.3460
 5309TIP3    H115933   5.565   0.724   3.583  1.0890 -0.7669  0.3436
 5309TIP3    H215934   5.516   0.629   3.690  0.3049 -0.9831 -0.1982
 5310TIP3   OH215935   0.800   2.215   1.273  0.1439 -0.0511 -0.1949
 5310TIP3    H115936   0.781   2.195   1.364 -0.6621 -1.7878 -0.6916
 5310TIP3    H215937   0.719   2.251   1.238  0.0697 -0.4862 -0.4920
 5311TIP3   OH215938   6.286   0.453   2.589 -0.4081  0.2605 -0.2288
 5311TIP3    H115939   6.220   0.480   2.653 -1.3709 -0.2624 -0.9697
 5311TIP3    H215940   6.241   0.458   2.505 -0.0342 -1.7499 -0.5887
 5312TIP3   OH215941   2.541   1.751   1.516  0.2316 -0.4317  0.2858
 5312TIP3    H115942   2.565   1.714   1.600 -0.7781 -0.9195  0.3780
 5312TIP3    H215943   2.546   1.846   1.529  0.9650 -0.5167  0.6177
 5313TIP3   OH215944   0.584   3.398   3.497 -0.7142 -0.4569  0.2079
 5313TIP3    H115945   0.659   3.342   3.476  0.3412  1.3571 -1.1910
 5313TIP3    H215946   0.521   3.381   3.427 -1.6413 -1.9607  1.3682
 5314TIP3   OH215947   6.196   2.058   2.449  0.1574  0.1706  0.3796
 5314TIP3    H115948   6.102   2.051   2.431 -0.0042  3.1061 -0.3370
 5314TIP3    H215949   6.235   1.994   2.389 -1.3468 -1.6704  1.2202
 5315TIP3   OH215950   1.199   5.726   2.140  0.4086  0.3863 -0.6357
 5315TIP3    H115951   1.285   5.732   2.180  0.1614  0.1452 -0.0580
 5315TIP3    H215952   1.202   5.786   2.066  1.8293 -1.2613 -2.0021
 5316TIP3   OH215953   4.381   1.496   4.371 -0.3786 -0.0643  0.5688
 5316TIP3    H115954   4.369   1.403   4.353  0.5887 -0.1529  0.2951
 5316TIP3    H215955   4.369   1.505   4.465 -2.4641 -0.1200  0.3449
 5317TIP3   OH215956   4.932   5.666   3.506  0.3042 -0.1149 -0.1312
 5317TIP3    H115957   4.906   5.574   3.516 -2.2699  0.2383 -2.3299
 5317TIP3    H215958   4.865   5.715   3.553  1.1031  0.7035  0.1754
 5318TIP3   OH215959   1.563   4.355   1.353 -0.0311  0.2939 -0.7851
 5318TIP3    H115960   1.585   4.415   1.424 -0.0125 -1.9799  1.2348
 5318TIP3    H215961   1.646   4.341   1.307  0.6759 -0.5743  0.6877
 5319TIP3   OH215962   2.576   0.489   1.438 -0.1834  0.7545  0.2689
 5319TIP3    H115963   2.666   0.458   1.446 -0.3389  0.3769  0.6151
 5319TIP3    H215964   2.530   0.445   1.510 -0.8249  0.2543 -0.4391
 5320TIP3   OH215965   0.814   4.585   1.649  0.1394 -0.6902 -0.3658
 5320TIP3    H115966   0.732   4.590   1.698 -0.1849  0.0856 -0.9661
 5320TIP3    H215967   0.847   4.675   1.647  1.2687 -1.0749  0.3006
 5321TIP3   OH215968   5.869   5.403   2.017  0.3004  0.1831 -0.6037
 5321TIP3    H115969   5.923   5.334   2.057 -1.4061 -1.1109 -0.3916
 5321TIP3    H215970   5.903   5.484   2.055  0.0925 -0.8149  1.9714
 5322TIP3   OH215971   3.791   0.462   3.157  0.2343 -0.2718 -0.2379
 5322TIP3    H115972   3.774   0.438   3.066 -0.2500 -2.0930  0.2988
 5322TIP3    H215973   3.798   0.558   3.155 -0.4137 -0.2172 -2.0711
 5323TIP3   OH215974   0.885   3.723   1.662 -0.0610  0.4789 -0.5582
 5323TIP3    H115975   0.924   3.673   1.734 -0.4189 -0.5645 -1.0655
 5323TIP3    H215976   0.945   3.796   1.648  0.3480  0.3333  0.3711
 5324TIP3   OH215977   1.816   2.468   3.366 -0.4515 -0.1747 -0.3775
 5324TIP3    H115978   1.787   2.545   3.318 -1.7391 -0.8844 -0.7816
 5324TIP3    H215979   1.911   2.468   3.355 -0.5089  0.8941 -1.0567
 5325TIP3   OH215980   5.221   0.227   2.148  0.7307  0.4718 -0.2919
 5325TIP3    H115981   5.279   0.293   2.186  2.4881 -1.3570  0.4015
 5325TIP3    H215982   5.250   0.144   2.187 -1.8409 -0.6659 -0.5569
 5326TIP3   OH215983   0.406   3.280   3.339  0.3840 -0.1785 -0.4903
 5326TIP3    H115984   0.344   3.289   3.412  0.2530 -0.7682 -0.5275
 5326TIP3    H215985   0.350   3.266   3.262  0.4818  1.2434 -0.8455
 5327TIP3   OH215986   1.684   1.495   3.257 -0.4762 -0.4558 -0.6399
 5327TIP3    H115987   1.707   1.434   3.187  0.7048  0.0739 -0.7294
 5327TIP3    H215988   1.646   1.570   3.211  1.4191  0.4255 -0.8665
 5328TIP3   OH215989   5.851   0.940   2.358  0.3591 -0.6173 -0.4679
 5328TIP3    H115990   5.901   0.873   2.405 -0.9607 -0.4059  1.3406
 5328TIP3    H215991   5.759   0.919   2.376 -0.1003  1.5746  0.0356
 5329TIP3   OH215992   1.157   3.332   0.517  0.3362 -0.0743 -0.6533
 5329TIP3    H115993   1.130   3.303   0.604  1.4443 -1.0902 -0.6323
 5329TIP3    H215994   1.130   3.261   0.458  0.0382  0.3840 -1.0785
 5330TIP3   OH215995   4.312   1.586   3.836 -0.5200  0.2458  0.8926
 5330TIP3    H115996   4.281   1.677   3.832 -1.2800 -0.0602 -1.0505
 5330TIP3    H215997   4.370   1.584   3.912  0.3886  2.6277  0.3426
 5331TIP3   OH215998   0.433   0.818   2.475 -0.1007 -0.2246 -0.3913
 5331TIP3    H115999   0.388   0.780   2.550 -0.9404 -0.7670 -1.1534
 5331TIP3    H216000   0.499   0.752   2.451 -1.4536 -1.1973 -1.6163
 5332TIP3   OH216001   0.684   5.356   4.553 -0.2509 -0.2914 -0.3346
 5332TIP3    H116002   0.627   5.366   4.477  0.3179 -1.1117 -0.8907
 5332TIP3    H216003   0.687   5.262   4.568  0.9209 -0.2593 -0.2973
 5333TIP3   OH216004   0.799   4.140   3.391  0.5755  0.0646 -0.0851
 5333TIP3    H116005   0.812   4.074   3.323 -0.9379 -2.4150  1.8381
 5333TIP3    H216006   0.716   4.116   3.433  1.3159  1.5419  2.4923
 5334TIP3   OH216007   3.102   2.488   4.171 -0.4332 -0.0789 -0.4137
 5334TIP3    H116008   3.109   2.537   4.253 -3.8967  1.6044 -0.9396
 5334TIP3    H216009   3.180   2.512   4.122  0.4482  0.8893  1.3828
 5335TIP3   OH216010   0.453   2.149   1.571 -0.1147  0.0453 -0.2398
 5335TIP3    H116011   0.460   2.056   1.551  0.2661 -0.3113  1.4123
 5335TIP3    H216012   0.450   2.153   1.667  1.1765  1.8046 -0.2175
 5336TIP3   OH216013   0.761   5.583   3.698  0.1479 -0.4113  0.3613
 5336TIP3    H116014   0.789   5.508   3.645 -2.3794  1.0597 -3.5279
 5336TIP3    H216015   0.842   5.632   3.714  1.3735 -2.2018 -0.0432
 5337TIP3   OH216016   4.259   2.742   3.325 -0.3261  0.3002 -0.1121
 5337TIP3    H116017   4.288   2.721   3.236  3.7772  0.8489  0.9271
 5337TIP3    H216018   4.261   2.659   3.372 -0.5127  0.3405 -0.0305
 5338TIP3   OH216019   3.397   4.843   1.365 -0.1719  0.3551 -0.1179
 5338TIP3    H116020   3.468   4.894   1.325  1.6334 -1.8428  0.0952
 5338TIP3    H216021   3.351   4.804   1.291 -0.6108  1.0422 -0.2191
 5339TIP3   OH216022   1.323   3.080   0.273 -0.8732  0.0945  0.0563
 5339TIP3    H116023   1.228   3.083   0.264 -0.8988  1.0613  0.4791
 5339TIP3    H216024   1.341   3.003   0.327 -1.5973  1.1470  1.8881
 5340TIP3   OH216025   1.543   1.631   4.942  0.1208  0.1939 -0.1792
 5340TIP3    H116026   1.599   1.601   4.871 -0.3123 -1.3346  0.0823
 5340TIP3    H216027   1.550   1.726   4.940  1.2711  0.1098 -1.3112
 5341TIP3   OH216028   4.843   1.230   2.131 -0.1303 -0.2530 -0.5007
 5341TIP3    H116029   4.815   1.228   2.223  0.6900 -1.6378 -0.2657
 5341TIP3    H216030   4.787   1.166   2.088  0.2118 -0.3728 -0.7621
 5342TIP3   OH216031   5.379   0.856   1.452  0.1397  0.3296 -0.3116
 5342TIP3    H116032   5.418   0.848   1.364 -1.9156  2.1391 -1.4814
 5342TIP3    H216033   5.286   0.871   1.435 -0.3342  0.5764  2.2192
 5343TIP3   OH216034   2.867   3.677   4.028  0.8385  0.8567 -0.2104
 5343TIP3    H116035   2.800   3.619   3.991 -1.3372 -0.0562  4.4870
 5343TIP3    H216036   2.833   3.765   4.013  0.1655  0.5436 -0.5631
 5344TIP3   OH216037   3.626   0.796   4.653 -0.5150 -0.1786 -0.4096
 5344TIP3    H116038   3.682   0.767   4.725 -0.7581  1.5531  0.5312
 5344TIP3    H216039   3.684   0.800   4.577  0.1246 -0.4675  0.0566
 5345TIP3   OH216040   0.224   5.667   1.106  0.5473 -0.2613  0.0936
 5345TIP3    H116041   0.130   5.673   1.119  0.6720  0.8438  0.6641
 5345TIP3    H216042   0.237   5.689   1.014  0.2453 -0.3489  0.0305
 5346TIP3   OH216043   4.629   1.830   3.198  0.3403  0.3635 -0.3233
 5346TIP3    H116044   4.649   1.737   3.210  1.1254  0.5230 -0.3406
 5346TIP3    H216045   4.581   1.854   3.277  1.7605  0.3831  0.5570
 5347TIP3   OH216046   1.705   0.072   2.977 -0.0370  0.4177 -0.6871
 5347TIP3    H116047   1.689   0.037   2.889  1.7614  1.2489 -1.3899
 5347TIP3    H216048   1.630   0.129   2.994 -1.2517 -1.0345 -0.9460
 5348TIP3   OH216049   2.356   5.294   4.108 -0.0681  0.0451 -0.1433
 5348TIP3    H116050   2.277   5.263   4.153  0.7423 -2.1236 -0.1039
 5348TIP3    H216051   2.378   5.224   4.047  2.2243  0.2570  0.3391
 5349TIP3   OH216052   2.795   4.538   2.813 -0.0392  0.0437  0.0812
 5349TIP3    H116053   2.834   4.455   2.838 -0.2082  0.2314  1.0176
 5349TIP3    H216054   2.709   4.515   2.778  0.7093 -0.3337 -1.6005
 5350TIP3   OH216055   5.308   5.898   2.369  0.2876 -0.2278 -0.2194
 5350TIP3    H116056   5.334   5.930   2.283  2.2303 -0.8647  0.0898
 5350TIP3    H216057   5.378   5.925   2.427  1.1587 -3.3830  0.3908
 5351TIP3   OH216058   5.267   3.511   2.514  1.0067 -0.2507 -0.6881
 5351TIP3    H116059   5.197   3.569   2.484  0.5877 -0.7781 -0.7485
 5351TIP3    H216060   5.341   3.569   2.530 -0.0692  0.6091  1.4305
 5352TIP3   OH216061   0.994   4.674   2.596 -0.3730  0.1693 -0.2958
 5352TIP3    H116062   0.944   4.744   2.637 -0.6488 -0.3211  0.2054
 5352TIP3    H216063   1.067   4.658   2.655  0.9153  1.4758 -1.4314
 5353TIP3   OH216064   4.514   4.387   3.393  0.1942  0.1442  0.4771
 5353TIP3    H116065   4.604   4.384   3.425  0.3175 -1.0527  0.0456
 5353TIP3    H216066   4.472   4.310   3.430  0.0429 -0.6699 -1.2921
 5354TIP3   OH216067   3.503   0.440   0.301  0.5067  0.0090  0.0637
 5354TIP3    H116068   3.532   0.385   0.374  0.2447  0.8342  0.8031
 5354TIP3    H216069   3.483   0.378   0.231 -0.2206 -0.8845  1.0233
 5355TIP3   OH216070   3.892   1.750   3.770 -0.1307 -0.2892 -0.1424
 5355TIP3    H116071   3.905   1.839   3.737 -0.8601 -0.0984  0.0838
 5355TIP3    H216072   3.878   1.761   3.864  0.5730 -0.7200  0.0259
 5356TIP3   OH216073   2.781   5.015   0.158 -0.2268 -0.5678 -0.3539
 5356TIP3    H116074   2.874   4.993   0.170  0.7432  0.5599 -4.1902
 5356TIP3    H216075   2.775   5.106   0.187 -0.2925 -0.8246  0.4515
 5357TIP3   OH216076   4.792   1.841   4.696 -0.7495 -0.4854  0.4622
 5357TIP3    H116077   4.836   1.785   4.631 -2.1481 -4.1938  2.4482
 5357TIP3    H216078   4.699   1.824   4.684 -1.4553  2.9058  0.0628
 5358TIP3   OH216079   0.567   0.169   2.596 -0.6598 -0.0802  0.3074
 5358TIP3    H116080   0.602   0.103   2.537 -0.4101  0.4200 -0.1107
 5358TIP3    H216081   0.605   0.147   2.681  0.6793  0.4284 -0.1272
 5359TIP3   OH216082   5.909   0.975   4.855 -0.1822  0.4433 -0.1006
 5359TIP3    H116083   5.952   0.981   4.770  1.1823 -0.1601  0.5260
 5359TIP3    H216084   5.844   0.906   4.844  0.7592 -0.4188 -0.3506
 5360TIP3   OH216085   0.403   0.086   3.670  0.5917 -0.0344 -0.0750
 5360TIP3    H116086   0.378   0.146   3.600  1.5458  0.3315 -0.1132
 5360TIP3    H216087   0.399  -0.001   3.630 -0.8204 -0.0181 -0.0141
 5361TIP3   OH216088   6.181   3.325   2.835 -0.0425 -0.5957  0.1478
 5361TIP3    H116089   6.235   3.396   2.800 -0.3700 -1.4594 -2.3822
 5361TIP3    H216090   6.188   3.333   2.930  1.6018  1.5084 -0.0778
 5362TIP3   OH216091   5.097   2.842   4.079 -0.0375  0.0334  0.1485
 5362TIP3    H116092   5.025   2.841   4.143  0.3364  1.4441  0.6292
 5362TIP3    H216093   5.159   2.906   4.114 -0.2740  1.6319 -2.1252
 5363TIP3   OH216094   0.075   1.146   3.851  0.2170  0.8894  0.0084
 5363TIP3    H116095   0.033   1.083   3.908  0.1753 -0.1776 -1.1563
 5363TIP3    H216096   0.166   1.117   3.846 -0.1619 -0.1310 -1.8581
 5364TIP3   OH216097   3.596   4.240   1.675  0.1903  0.3025 -0.0088
 5364TIP3    H116098   3.577   4.156   1.633 -1.8718  1.0879 -0.7770
 5364TIP3    H216099   3.646   4.289   1.609 -2.6989  1.3815 -1.5927
 5365TIP3   OH216100   6.139   4.257   1.782  0.0315  0.6433  0.0103
 5365TIP3    H116101   6.051   4.267   1.747  0.0557  1.2667  0.1257
 5365TIP3    H216102   6.179   4.343   1.774  1.0158  0.1155 -1.0402
 5366TIP3   OH216103   1.674   5.088   3.370  0.3320 -0.0134  0.1276
 5366TIP3    H116104   1.618   5.103   3.293  0.9556 -1.6152 -0.6779
 5366TIP3    H216105   1.646   5.003   3.403  0.6964  0.2560  1.1598
 5367TIP3   OH216106   2.165   3.999   2.023 -0.5511 -0.5103 -0.2480
 5367TIP3    H116107   2.125   3.938   2.085 -1.3264  1.3934  1.2141
 5367TIP3    H216108   2.218   4.057   2.077 -1.8092  1.6646 -1.2142
 5368TIP3   OH216109   2.504   2.819   3.577  0.2017  0.1002 -0.5259
 5368TIP3    H116110   2.414   2.817   3.544 -0.1104  1.9647  0.1153
 5368TIP3    H216111   2.519   2.731   3.611 -1.3802 -0.2358 -0.6327
 5369TIP3   OH216112   1.134   2.081   1.181 -0.0654  0.5006 -0.3358
 5369TIP3    H116113   1.108   2.040   1.263  0.9096 -0.5889 -0.5388
 5369TIP3    H216114   1.227   2.100   1.193  0.8793 -2.3478 -2.1727
 5370TIP3   OH216115   1.140   5.087   3.943  0.1659 -0.6270 -0.4514
 5370TIP3    H116116   1.112   5.164   3.894  0.8947 -1.3718 -2.1301
 5370TIP3    H216117   1.203   5.120   4.006  1.3319  0.0287 -1.9118
 5371TIP3   OH216118   6.158   5.226   2.426 -0.3715 -0.2724  0.6534
 5371TIP3    H116119   6.154   5.251   2.334 -0.8082  1.6082  1.1431
 5371TIP3    H216120   6.096   5.153   2.434 -0.4847 -0.3208 -0.4732
 5372TIP3   OH216121   1.918   0.369   4.586  0.1358  0.2144  0.0967
 5372TIP3    H116122   1.907   0.280   4.620 -0.8582  1.0059  1.9856
 5372TIP3    H216123   1.881   0.425   4.653  1.7372  2.1604 -0.5551
 5373TIP3   OH216124   5.448   1.588   1.988 -0.0231  0.6354  0.0209
 5373TIP3    H116125   5.457   1.578   2.083 -2.3354  1.0423  0.3432
 5373TIP3    H216126   5.390   1.516   1.961 -0.9172  1.5911 -0.7412
 5374TIP3   OH216127   1.519   1.335   0.200 -0.1255  0.3847 -0.2574
 5374TIP3    H116128   1.563   1.251   0.181  1.0044  1.0371 -0.6618
 5374TIP3    H216129   1.567   1.371   0.274  1.2527  1.9283 -1.7882
 5375TIP3   OH216130   0.699   2.822   3.905  0.1046  0.5017 -0.3126
 5375TIP3    H116131   0.778   2.780   3.941 -0.3760  0.0117  0.1846
 5375TIP3    H216132   0.733   2.884   3.840  0.8408 -0.6930 -1.1214
 5376TIP3   OH216133   2.437   2.896   1.382  0.2734  0.1922 -0.2985
 5376TIP3    H116134   2.490   2.817   1.391  0.6185  0.4296 -0.2269
 5376TIP3    H216135   2.438   2.935   1.470 -1.8276 -0.9290  0.2868
 5377TIP3   OH216136   2.159   1.635   1.188 -0.2821  0.3969 -0.0436
 5377TIP3    H116137   2.145   1.651   1.281  1.5489 -2.1456  0.7817
 5377TIP3    H216138   2.235   1.688   1.165  0.9635 -1.0010  0.6752
 5378TIP3   OH216139   4.468   5.954   1.352  1.1909  0.0535 -0.3863
 5378TIP3    H116140   4.511   6.023   1.302 -1.5099  2.2048 -0.0228
 5378TIP3    H216141   4.420   5.903   1.286 -0.5005  1.4569 -0.3098
 5379TIP3   OH216142   1.615   2.182   0.753 -0.2799 -0.5497 -0.4359
 5379TIP3    H116143   1.635   2.149   0.665 -0.7878 -3.1097  0.2974
 5379TIP3    H216144   1.617   2.103   0.808  2.9656  1.3029  2.4684
 5380TIP3   OH216145   6.128   0.913   0.615  0.0415  0.0369 -0.3217
 5380TIP3    H116146   6.084   0.983   0.664 -2.0688 -0.7518 -0.9621
 5380TIP3    H216147   6.139   0.843   0.678  0.0030  0.0903 -0.2557
 5381TIP3   OH216148   5.245   2.618   0.588 -0.1660 -0.0178 -0.1813
 5381TIP3    H116149   5.281   2.701   0.620 -0.0684 -0.1520  0.0539
 5381TIP3    H216150   5.225   2.636   0.496  1.6431 -0.2903 -0.6676
 5382TIP3   OH216151   1.777   5.314   3.469  0.2223 -0.1698  0.2825
 5382TIP3    H116152   1.703   5.374   3.469 -1.0382 -1.6162  1.8954
 5382TIP3    H216153   1.744   5.235   3.426  1.9015  0.2552 -1.9951
 5383TIP3   OH216154   5.922   3.114   4.637  0.6185  0.3182  0.9630
 5383TIP3    H116155   5.845   3.167   4.618  0.9088  0.4487  0.0870
 5383TIP3    H216156   5.978   3.125   4.560  2.1732  1.3824  2.1994
 5384TIP3   OH216157   1.292   4.033   4.726 -0.0012 -0.1616  0.5372
 5384TIP3    H116158   1.368   4.086   4.747 -1.6289  1.4332  2.9001
 5384TIP3    H216159   1.273   3.984   4.806 -1.4499 -0.5001  0.0281
 5385TIP3   OH216160   5.476   0.470   2.562  0.1181  0.3895 -0.5548
 5385TIP3    H116161   5.525   0.428   2.491 -2.1137  0.4046 -2.2054
 5385TIP3    H216162   5.442   0.550   2.524 -3.5760 -0.9721 -0.5239
 5386TIP3   OH216163   3.166   1.925   1.759  0.1409 -0.3611 -0.1010
 5386TIP3    H116164   3.107   1.857   1.791 -0.2466 -0.5077 -1.0744
 5386TIP3    H216165   3.169   1.910   1.664 -0.0626  1.0689 -0.3484
 5387TIP3   OH216166   5.746   0.000   1.419  0.1701  0.3875  0.8098
 5387TIP3    H116167   5.826   0.034   1.459  1.2818  0.9546 -1.7154
 5387TIP3    H216168   5.681   0.070   1.432  0.8016  1.0108  0.6794
 5388TIP3   OH216169   6.316   3.731   0.461  0.4028  0.6117 -0.7210
 5388TIP3    H116170   6.399   3.695   0.493 -0.0224 -1.0379 -1.3677
 5388TIP3    H216171   6.306   3.813   0.508  0.8471 -0.6679  1.7714
 5389TIP3   OH216172   2.696   5.457   0.417 -0.0415 -0.5158  0.1670
 5389TIP3    H116173   2.692   5.515   0.492 -0.3506  0.8753 -0.8762
 5389TIP3    H216174   2.747   5.505   0.352  1.5377 -2.3115 -0.0148
 5390TIP3   OH216175   6.135   0.236   4.794  0.3220 -0.2263 -0.3767
 5390TIP3    H116176   6.174   0.313   4.835 -0.5590  1.5466 -2.6560
 5390TIP3    H216177   6.049   0.228   4.837  0.6286 -0.2893  0.2404
 5391TIP3   OH216178   3.933   5.493   3.051 -0.3052  0.1618 -0.0634
 5391TIP3    H116179   3.950   5.456   2.965 -0.3077 -0.3835  0.1715
 5391TIP3    H216180   3.979   5.577   3.050  1.4022 -0.7383  0.1190
 5392TIP3   OH216181   3.630   5.849   2.631 -0.1171  0.2630 -0.3163
 5392TIP3    H116182   3.545   5.873   2.596  0.3165  1.2876 -0.7113
 5392TIP3    H216183   3.611   5.788   2.703 -1.1455  0.2147 -0.6218
 5393TIP3   OH216184   4.071   5.284   2.307  0.1351  0.3867  0.5830
 5393TIP3    H116185   4.069   5.192   2.280  0.1980 -0.3144  2.7543
 5393TIP3    H216186   3.984   5.317   2.288 -0.6517 -0.8244  1.8782
 5394TIP3   OH216187   2.063   2.015   2.237 -0.2138  0.0606 -0.4530
 5394TIP3    H116188   2.072   1.920   2.231  0.6968  0.2058 -2.3376
 5394TIP3    H216189   1.980   2.029   2.283  0.1460 -1.6140  0.7863
 5395TIP3   OH216190   5.655   4.450   0.865  0.3045  0.0223  0.6024
 5395TIP3    H116191   5.703   4.394   0.805  1.8799  2.7957 -0.9484
 5395TIP3    H216192   5.712   4.458   0.942  1.1080  1.0823 -0.0676
 5396TIP3   OH216193   1.571   3.136   3.641 -0.6944  0.4118  0.4838
 5396TIP3    H116194   1.627   3.076   3.690  0.5788  0.6980 -0.5663
 5396TIP3    H216195   1.601   3.223   3.667 -0.6026  0.5691 -0.1358
 5397TIP3   OH216196   6.156   3.088   1.793  0.2325 -0.0733  0.0329
 5397TIP3    H116197   6.196   3.032   1.859  0.4267 -1.2317 -1.0291
 5397TIP3    H216198   6.086   3.034   1.755  0.3558  0.4190 -0.9356
 5398TIP3   OH216199   5.900   3.784   0.341  0.2714  0.2542 -0.1072
 5398TIP3    H116200   5.809   3.754   0.342  0.4227 -0.3039  2.6002
 5398TIP3    H216201   5.941   3.735   0.269 -1.0114 -1.2034  0.1140
 5399TIP3   OH216202   0.086   3.472   1.005 -0.3901 -0.6513 -0.3135
 5399TIP3    H116203   0.009   3.529   0.994  0.3299  0.1396 -1.4571
 5399TIP3    H216204   0.094   3.462   1.100 -0.3679  1.4535 -0.0261
 5400TIP3   OH216205   5.547   5.629   3.788 -0.1541  0.0236 -0.0902
 5400TIP3    H116206   5.500   5.664   3.864  0.4646 -0.6078  0.6031
 5400TIP3    H216207   5.533   5.693   3.719 -0.8275  0.5542  0.5288
 5401TIP3   OH216208   0.282   4.361   2.979  0.2154  0.5768  0.5464
 5401TIP3    H116209   0.242   4.376   2.893  0.7873  1.6912  0.4480
 5401TIP3    H216210   0.355   4.302   2.962  0.1597  0.5778  0.2997
 5402TIP3   OH216211   6.282   2.074   2.723 -0.0370  0.2621  0.1930
 5402TIP3    H116212   6.259   2.084   2.630  0.3379  2.9427  0.3022
 5402TIP3    H216213   6.369   2.035   2.722  0.6558  1.7261 -0.6965
 5403TIP3   OH216214   5.528   1.364   0.188 -0.1660 -0.3361  0.5055
 5403TIP3    H116215   5.435   1.367   0.167 -0.2159 -0.2241  0.7404
 5403TIP3    H216216   5.532   1.327   0.276  0.0485 -0.9025  0.2665
 5404TIP3   OH216217   0.695   4.105   0.874  0.3432 -0.3955 -0.2162
 5404TIP3    H116218   0.713   4.155   0.795 -0.1501  0.0809 -0.0331
 5404TIP3    H216219   0.761   4.036   0.875 -0.6992 -1.4924 -1.9778
 5405TIP3   OH216220   1.638   0.841   2.167  0.3633  0.1531 -0.1060
 5405TIP3    H116221   1.620   0.842   2.261  1.4992  0.9825  0.1252
 5405TIP3    H216222   1.713   0.782   2.157  0.1082 -0.1108 -0.5344
 5406TIP3   OH216223   6.036   5.108   4.165 -0.4222 -0.0379 -0.0325
 5406TIP3    H116224   6.115   5.120   4.111  0.1224  0.0384  0.7696
 5406TIP3    H216225   5.964   5.135   4.108  0.0937 -0.4381 -0.8964
 5407TIP3   OH216226   3.075   2.264   2.960 -0.0206  0.7092 -0.2987
 5407TIP3    H116227   3.118   2.267   2.875  0.5856  1.0403  0.0116
 5407TIP3    H216228   2.991   2.308   2.946 -1.0415 -1.4266 -1.3247
 5408TIP3   OH216229   0.113   3.344   4.238  0.4735 -0.0305 -0.2281
 5408TIP3    H116230   0.047   3.383   4.180 -0.2120 -0.1357  0.4704
 5408TIP3    H216231   0.113   3.400   4.315 -0.2006 -1.1335  0.5978
 5409TIP3   OH216232   3.710   4.970   4.013  0.0510  0.1791  1.1631
 5409TIP3    H116233   3.715   5.052   3.964 -0.7118 -0.9765 -0.9603
 5409TIP3    H216234   3.776   4.979   4.081 -0.0212  2.5449  1.0095
 5410TIP3   OH216235   0.110   5.921   0.689 -0.3929 -0.0548 -0.4636
 5410TIP3    H116236   0.057   5.998   0.667  1.1300  1.4263  0.7728
 5410TIP3    H216237   0.194   5.938   0.645 -0.3394 -1.5132 -0.9693
 5411TIP3   OH216238   1.212   0.903   0.458  0.2336  0.2160  0.0973
 5411TIP3    H116239   1.291   0.931   0.411  0.6152 -0.8714  0.0533
 5411TIP3    H216240   1.188   0.820   0.417  1.9454 -2.0383  3.2202
 5412TIP3   OH216241   2.131   2.430   0.093  0.1057  0.2048 -0.1927
 5412TIP3    H116242   2.077   2.427   0.014 -3.8657  1.1270  2.1734
 5412TIP3    H216243   2.111   2.515   0.133  0.4563 -0.9332  2.6939
 5413TIP3   OH216244   5.843   4.201   2.567  0.1910 -0.4576 -0.0887
 5413TIP3    H116245   5.926   4.233   2.531  0.1563 -0.0233  0.2153
 5413TIP3    H216246   5.805   4.149   2.496 -0.3868  1.2543 -1.1043
 5414TIP3   OH216247   2.208   0.553   2.187  0.5399 -0.3944  0.0699
 5414TIP3    H116248   2.192   0.518   2.099 -1.1648 -1.7995  0.8856
 5414TIP3    H216249   2.169   0.640   2.185  1.2877 -0.0649 -0.8062
 5415TIP3   OH216250   5.589   1.350   1.591  0.5088  0.0766  0.8348
 5415TIP3    H116251   5.520   1.388   1.645 -0.2063  1.0260 -0.6771
 5415TIP3    H216252   5.564   1.258   1.582 -0.9732  0.5473 -0.2425
 5416TIP3   OH216253   0.961   0.724   0.390 -0.4319  0.1380 -0.5590
 5416TIP3    H116254   0.881   0.704   0.437 -0.2799 -0.0928 -0.3971
 5416TIP3    H216255   0.933   0.776   0.315 -1.0368 -1.9693 -1.8723
 5417TIP3   OH216256   5.895   1.753   2.176 -0.3413  0.2970 -0.5623
 5417TIP3    H116257   5.891   1.693   2.101 -1.1729  0.3439 -0.5709
 5417TIP3    H216258   5.950   1.825   2.146  1.4724 -0.8871 -0.2222
 5418TIP3   OH216259   5.270   3.434   1.596  0.3139  1.1274 -0.0879
 5418TIP3    H116260   5.190   3.456   1.644  0.3811  1.3780 -0.0885
 5418TIP3    H216261   5.307   3.519   1.572  0.6720  1.0129  0.0642
 5419TIP3   OH216262   0.020   2.521   1.437  0.2785 -0.4663  0.7122
 5419TIP3    H116263   0.045   2.458   1.371 -2.5207 -0.0444 -0.8888
 5419TIP3    H216264  -0.013   2.468   1.510 -0.6059 -0.9238  0.0040
 5420TIP3   OH216265   2.789   0.920   3.190  0.1084 -0.2858  0.2541
 5420TIP3    H116266   2.716   0.938   3.131  0.1580 -1.2363 -0.1042
 5420TIP3    H216267   2.867   0.942   3.139  0.1321 -0.6928  0.1105
 5421TIP3   OH216268   0.379   1.015   0.458  0.3931 -0.0668 -0.1625
 5421TIP3    H116269   0.381   0.954   0.531  0.0784  2.2067  1.8662
 5421TIP3    H216270   0.457   0.994   0.407  1.2716 -0.9589  1.4641
 5422TIP3   OH216271   5.250   0.292   3.339  0.3186  0.5431 -0.2953
 5422TIP3    H116272   5.167   0.278   3.385  1.1991  0.7576  1.4142
 5422TIP3    H216273   5.288   0.370   3.379  1.4839  0.2877 -0.8486
 5423TIP3   OH216274   4.350   2.267   4.369 -0.2134  0.3264 -0.1809
 5423TIP3    H116275   4.394   2.216   4.437 -1.2587 -0.5841 -0.1586
 5423TIP3    H216276   4.318   2.201   4.306 -1.8024  0.9059 -0.0267
 5424TIP3   OH216277   3.421   3.452   4.847 -0.7344  0.2299 -0.0994
 5424TIP3    H116278   3.441   3.380   4.907  0.6616  0.0468 -0.7419
 5424TIP3    H216279   3.492   3.449   4.782 -1.4460  1.2923 -0.9518
 5425TIP3   OH216280   3.389   4.071   4.979  0.0161 -0.1744 -0.3385
 5425TIP3    H116281   3.386   4.167   4.972  3.1147  0.1513  1.4045
 5425TIP3    H216282   3.472   4.046   4.939 -0.4267 -2.0845 -0.1525
 5426TIP3   OH216283   2.915   0.065   2.412  0.4482 -0.2347  0.1739
 5426TIP3    H116284   2.929   0.052   2.506 -0.4260  0.0209  0.3542
 5426TIP3    H216285   2.833   0.018   2.394 -0.3283  1.1752 -0.0876
 5427TIP3   OH216286   4.106   1.833   3.251 -0.8105  0.3437 -0.5207
 5427TIP3    H116287   4.157   1.864   3.176 -0.4690  1.6623  0.2131
 5427TIP3    H216288   4.039   1.775   3.213  1.1873 -1.4366 -1.5088
 5428TIP3   OH216289   5.685   4.738   4.661  0.1369 -0.2514 -0.4263
 5428TIP3    H116290   5.623   4.708   4.728  0.7727  0.0481  0.3159
 5428TIP3    H216291   5.647   4.708   4.578 -1.9653  1.5214 -0.1930
 5429TIP3   OH216292   1.554   2.842   4.168 -0.2034 -0.0521  0.3594
 5429TIP3    H116293   1.535   2.771   4.107  2.8075  1.2515 -2.4602
 5429TIP3    H216294   1.538   2.922   4.117  0.9631  1.1497  1.7586
 5430TIP3   OH216295   4.507   1.314   2.815  0.3151 -0.0092  0.3489
 5430TIP3    H116296   4.510   1.405   2.845  0.3753 -0.5401  2.0849
 5430TIP3    H216297   4.414   1.291   2.819  0.3831 -0.2398  0.6400
 5431TIP3   OH216298   4.013   5.363   4.571  0.5197 -0.0384 -0.1906
 5431TIP3    H116299   4.022   5.436   4.508 -0.3768  0.9618  0.7993
 5431TIP3    H216300   4.031   5.403   4.656 -3.2701 -0.0664  0.8162
 5432TIP3   OH216301   5.386   1.582   4.329  0.3135  0.0648  0.2153
 5432TIP3    H116302   5.440   1.565   4.252  1.5877 -2.7032  1.5585
 5432TIP3    H216303   5.409   1.512   4.390 -3.1290  0.1117  1.8135
 5433TIP3   OH216304   1.378   3.481   3.166 -0.5969 -0.3256 -0.4189
 5433TIP3    H116305   1.295   3.443   3.194 -0.6947  0.2285  0.0481
 5433TIP3    H216306   1.435   3.475   3.244 -0.8654  1.2040 -0.0687
 5434TIP3   OH216307   3.543   3.802   2.357  0.2048  0.2458  0.4942
 5434TIP3    H116308   3.515   3.775   2.445 -1.8511 -3.1422 -1.0041
 5434TIP3    H216309   3.613   3.741   2.334  0.0064  0.3971 -0.5805
 5435TIP3   OH216310   2.650   4.866   1.326 -0.4050 -0.2438 -0.4617
 5435TIP3    H116311   2.688   4.779   1.316 -1.1035 -0.7430  0.9611
 5435TIP3    H216312   2.597   4.879   1.248 -0.0087 -0.9396 -0.8533
 5436TIP3   OH216313   5.970   3.401   3.190 -0.2836 -0.2175 -0.3497
 5436TIP3    H116314   6.017   3.390   3.273 -0.1203 -2.8308 -0.7051
 5436TIP3    H216315   5.906   3.329   3.190 -0.8252  0.2258 -2.1342
 5437TIP3   OH216316   4.071   3.584   0.145 -0.2439 -0.1436  0.4816
 5437TIP3    H116317   3.978   3.586   0.123  0.1316 -2.1668 -1.7911
 5437TIP3    H216318   4.111   3.644   0.081  0.0469  0.6114  1.3582
 5438TIP3   OH216319   4.298   3.727   1.839  0.3435 -0.1506  0.6988
 5438TIP3    H116320   4.297   3.703   1.746  0.1164  0.9985  0.3868
 5438TIP3    H216321   4.352   3.659   1.880 -0.2972 -1.2015 -0.1135
 5439TIP3   OH216322   5.085   2.088   2.775  0.0517 -0.1161 -0.8175
 5439TIP3    H116323   5.166   2.096   2.726  0.3268 -0.6099 -0.4562
 5439TIP3    H216324   5.111   2.055   2.861 -0.5454 -0.4827 -0.7658
 5440TIP3   OH216325   5.992   5.349   1.765 -0.4011  0.1025  0.6406
 5440TIP3    H116326   5.921   5.355   1.701 -0.8585 -2.1148  0.8560
 5440TIP3    H216327   5.947   5.343   1.850  0.0083 -1.4496  0.7658
 5441TIP3   OH216328   3.410   0.787   3.193  0.4881  0.1447 -0.3006
 5441TIP3    H116329   3.472   0.759   3.260 -0.7570 -0.4447  0.6366
 5441TIP3    H216330   3.335   0.729   3.203 -0.9364  1.8879 -0.2814
 5442TIP3   OH216331   6.105   5.836   1.340  0.2372 -0.1184 -0.4487
 5442TIP3    H116332   6.119   5.865   1.430  1.9417 -0.4951 -0.5467
 5442TIP3    H216333   6.013   5.810   1.336 -0.5449  2.2858  0.4729
 5443TIP3   OH216334   5.568   0.360   2.807  0.2131 -0.4727  0.0785
 5443TIP3    H116335   5.586   0.267   2.791 -1.2836 -0.9968  1.2271
 5443TIP3    H216336   5.529   0.391   2.725 -0.0167 -1.0670 -0.0457
 5444TIP3   OH216337   0.629   1.998   3.348  0.2406 -0.4315  0.1633
 5444TIP3    H116338   0.579   2.035   3.421  0.5154 -2.7218  1.5999
 5444TIP3    H216339   0.693   2.066   3.326 -2.2935  1.8977 -0.6099
 5445TIP3   OH216340   5.736   5.790   4.149  0.0291 -0.9156 -0.3829
 5445TIP3    H116341   5.675   5.797   4.222  0.4744 -1.3983  0.0438
 5445TIP3    H216342   5.813   5.839   4.176  0.9175 -2.5636  0.2680
 5446TIP3   OH216343   0.870   3.411   4.517 -0.2845  0.4262  0.2627
 5446TIP3    H116344   0.832   3.409   4.429 -0.0716  1.8572  0.1257
 5446TIP3    H216345   0.947   3.354   4.511 -0.6388 -0.0044 -0.2896
 5447TIP3   OH216346   2.251   3.247   3.739  0.5900  0.3282 -0.1863
 5447TIP3    H116347   2.175   3.221   3.792  0.6243  0.6510  0.0295
 5447TIP3    H216348   2.286   3.324   3.785  2.3455 -1.0597  0.9793
 5448TIP3   OH216349   1.283   0.040   1.481  0.0460 -0.1849 -0.2346
 5448TIP3    H116350   1.200   0.077   1.451  0.2053  0.7979  0.4975
 5448TIP3    H216351   1.311  -0.018   1.409 -0.1623  1.2040 -1.4835
 5449TIP3   OH216352   5.086   1.376   2.724  0.4893  0.0730  0.1388
 5449TIP3    H116353   5.132   1.298   2.694  1.9074  1.1074 -0.5098
 5449TIP3    H216354   5.130   1.399   2.806 -0.9510 -0.6550  1.1535
 5450TIP3   OH216355   2.377   4.325   0.059  0.2817  0.1021 -0.1744
 5450TIP3    H116356   2.323   4.402   0.043 -1.0204 -1.1116 -1.9766
 5450TIP3    H216357   2.452   4.336   0.001 -0.6780 -0.6674 -1.6272
 5451TIP3   OH216358   3.851   1.380   3.416 -0.0399  0.4952 -0.4608
 5451TIP3    H116359   3.832   1.368   3.509 -3.0944 -0.4512 -1.1184
 5451TIP3    H216360   3.940   1.347   3.406  0.6764  1.3358  2.2242
 5452TIP3   OH216361   4.419   2.516   4.259 -0.3682  0.0992 -0.4369
 5452TIP3    H116362   4.375   2.433   4.274 -2.7515  1.2303 -0.6599
 5452TIP3    H216363   4.506   2.492   4.226 -0.0269 -2.2801  1.8327
 5453TIP3   OH216364   2.148   4.764   1.892  0.2495 -0.1015  0.1420
 5453TIP3    H116365   2.187   4.715   1.965 -1.7580  0.2057  1.4720
 5453TIP3    H216366   2.075   4.709   1.863  0.0594  0.5350 -0.6044
 5454TIP3   OH216367   4.900   5.557   2.580  0.2730 -0.2161  0.2653
 5454TIP3    H116368   4.923   5.490   2.644  1.3118  0.4993  0.6911
 5454TIP3    H216369   4.865   5.509   2.505 -2.7726 -0.9804  2.0331
 5455TIP3   OH216370   3.907   5.574   2.476 -0.4364  0.1770  0.4118
 5455TIP3    H116371   3.817   5.542   2.475 -0.1666 -0.5968 -0.4573
 5455TIP3    H216372   3.953   5.514   2.536  0.0118 -0.9753 -1.0191
 5456TIP3   OH216373   1.730   3.489   0.702  0.1310 -0.1350 -0.1988
 5456TIP3    H116374   1.694   3.568   0.744 -0.8133  0.8778 -2.6902
 5456TIP3    H216375   1.823   3.490   0.725  0.5482  2.7388 -1.4558
 5457TIP3   OH216376   3.768   2.177   0.198  0.8550  0.4326 -0.1024
 5457TIP3    H116377   3.675   2.171   0.175  0.2776  4.4845  0.4265
 5457TIP3    H216378   3.770   2.169   0.293  1.3665 -1.2987 -0.2106
 5458TIP3   OH216379   6.253   2.036   4.464 -0.6561 -0.3360  0.0531
 5458TIP3    H116380   6.250   1.966   4.529  2.1126 -0.2363  0.3918
 5458TIP3    H216381   6.207   2.109   4.505 -0.7171 -0.9123  1.0513
 5459TIP3   OH216382   6.132   4.346   4.727  0.3297 -0.2566  0.3159
 5459TIP3    H116383   6.194   4.342   4.654 -0.4873 -0.2140 -0.3931
 5459TIP3    H216384   6.058   4.293   4.699 -0.6306  0.9371  0.4768
 5460TIP3   OH216385   1.083   0.519   0.244 -0.2004  0.5367 -0.2200
 5460TIP3    H116386   1.042   0.593   0.289  0.6863 -0.0255  1.6158
 5460TIP3    H216387   1.104   0.553   0.156 -0.1942  2.3265  0.4233
 5461TIP3   OH216388   3.118   3.968   1.100 -0.2904  0.2200  0.5508
 5461TIP3    H116389   3.168   3.944   1.021  0.0379 -0.8772  1.0655
 5461TIP3    H216390   3.029   3.984   1.068 -0.2432 -0.5523 -0.0089
 5462TIP3   OH216391   5.647   0.054   0.396 -0.6362  0.3532 -0.2620
 5462TIP3    H116392   5.631   0.133   0.448 -0.3739 -0.2545  0.7664
 5462TIP3    H216393   5.577  -0.006   0.421 -0.5721  0.0943 -0.7001
 5463TIP3   OH216394   0.475   0.031   1.688 -0.2699  0.5502 -0.1456
 5463TIP3    H116395   0.543   0.092   1.663  0.3401 -0.3032 -0.6355
 5463TIP3    H216396   0.520  -0.053   1.696 -1.3010 -0.0948 -0.8168
 5464TIP3   OH216397   4.974   0.409   3.087  0.1379  0.1512 -0.3330
 5464TIP3    H116398   4.908   0.465   3.127 -0.6826 -1.6198  0.8651
 5464TIP3    H216399   4.959   0.419   2.993 -1.7205 -0.0650 -0.0911
 5465TIP3   OH216400   6.071   1.093   2.473 -0.0073 -0.3798 -0.1062
 5465TIP3    H116401   5.992   1.053   2.436  1.7885 -3.3529 -1.0596
 5465TIP3    H216402   6.133   1.097   2.400  1.5310 -0.4304  1.1417
 5466TIP3   OH216403   2.817   2.080   3.245  0.1153  0.1156 -0.0695
 5466TIP3    H116404   2.850   2.162   3.280  2.0363  0.3802 -2.2467
 5466TIP3    H216405   2.838   2.015   3.312 -0.3663  1.2002  1.1676
 5467TIP3   OH216406   4.905   4.190   3.894  0.0858 -0.1025 -0.4918
 5467TIP3    H116407   4.831   4.133   3.915 -0.1311  0.6957  1.0760
 5467TIP3    H216408   4.943   4.152   3.815 -1.4219 -1.0719 -0.7922
 5468TIP3   OH216409   3.681   4.421   2.843 -0.3706 -0.4461  0.3899
 5468TIP3    H116410   3.773   4.420   2.818 -0.4657 -0.0523  0.0258
 5468TIP3    H216411   3.682   4.405   2.938  0.0268 -1.1793  0.2732
 5469TIP3   OH216412   1.534   3.322   2.179  0.3264 -0.0831 -0.3492
 5469TIP3    H116413   1.604   3.340   2.116  0.5359 -1.7719 -0.6457
 5469TIP3    H216414   1.571   3.348   2.263  0.1399  1.9530 -0.8318
 5470TIP3   OH216415   0.586   3.810   1.161 -0.2423 -0.5839 -0.7890
 5470TIP3    H116416   0.677   3.786   1.179 -0.1691  0.5562  0.5949
 5470TIP3    H216417   0.541   3.795   1.245 -1.0799 -0.0659 -1.1323
 5471TIP3   OH216418   0.709   1.811   4.071 -0.1783  0.1144 -0.1328
 5471TIP3    H116419   0.654   1.745   4.028  0.2550 -0.4334  0.1501
 5471TIP3    H216420   0.699   1.794   4.164  0.8099 -0.2665 -0.0896
 5472TIP3   OH216421   5.715   0.811   0.692 -0.2823 -0.1758 -0.8094
 5472TIP3    H116422   5.717   0.802   0.596 -1.8862 -0.8502 -0.8157
 5472TIP3    H216423   5.759   0.733   0.724  0.1277 -0.0219 -0.9905
 5473TIP3   OH216424   0.501   1.386   4.466  0.1851  0.1717 -0.5638
 5473TIP3    H116425   0.542   1.310   4.425 -0.2715  0.1945 -1.0787
 5473TIP3    H216426   0.478   1.444   4.394  1.8149  1.4824 -0.0761
 5474TIP3   OH216427   3.753   1.099   3.665 -0.0383  0.2649  0.1852
 5474TIP3    H116428   3.788   1.023   3.710 -2.7002 -0.7346  0.7528
 5474TIP3    H216429   3.762   1.078   3.572  1.6843  0.4943  0.2779
 5475TIP3   OH216430   3.077   4.412   3.669 -0.9429 -0.4050  0.1107
 5475TIP3    H116431   3.055   4.352   3.598  0.5000 -0.6451 -0.1784
 5475TIP3    H216432   3.090   4.356   3.745  0.6715 -0.5391 -0.2227
 5476TIP3   OH216433   2.916   2.670   1.312  0.1915  0.2775  0.0700
 5476TIP3    H116434   2.824   2.664   1.284  0.6122 -1.0881 -1.1530
 5476TIP3    H216435   2.918   2.746   1.370 -1.4160  1.2526 -1.0484
 5477TIP3   OH216436   3.110   2.912   2.234 -0.2529  0.2805 -0.2849
 5477TIP3    H116437   3.152   2.837   2.192 -0.3521  1.0225 -1.7565
 5477TIP3    H216438   3.091   2.972   2.163  2.2294  2.9353  1.0962
 5478TIP3   OH216439   2.890   1.124   2.357 -0.2979  0.1977 -0.0174
 5478TIP3    H116440   2.820   1.185   2.332 -1.3067 -1.1611 -0.6296
 5478TIP3    H216441   2.865   1.041   2.316  1.6768 -0.3428 -0.2393
 5479TIP3   OH216442   2.127   1.480   3.174 -0.3266 -0.5627 -0.6384
 5479TIP3    H116443   2.184   1.405   3.191 -0.5268 -0.4578  0.5140
 5479TIP3    H216444   2.083   1.497   3.257  1.8808  2.6731  0.0743
 5480TIP3   OH216445   0.449   4.758   2.107  0.2232  0.4356  0.0480
 5480TIP3    H116446   0.395   4.690   2.066 -0.2804  0.4025  0.7505
 5480TIP3    H216447   0.485   4.807   2.033 -0.8161  0.4999 -0.4364
 5481TIP3   OH216448   5.378   3.128   0.960  0.1742  0.3558  0.1567
 5481TIP3    H116449   5.456   3.182   0.971 -0.3602  1.3419 -0.7637
 5481TIP3    H216450   5.398   3.073   0.884 -1.4937  3.4767 -2.8042
 5482TIP3   OH216451   5.025   2.665   5.046 -0.4111  0.4705  0.0092
 5482TIP3    H116452   5.040   2.706   4.961 -0.6835 -0.0809 -0.3076
 5482TIP3    H216453   5.086   2.591   5.047 -2.6458 -1.4982 -1.0784
 5483TIP3   OH216454   0.590   2.532   0.766 -0.0755  0.7596  0.2029
 5483TIP3    H116455   0.655   2.464   0.785  0.1931  0.7966 -0.5620
 5483TIP3    H216456   0.625   2.578   0.690 -1.4140  0.2123 -0.7894
 5484TIP3   OH216457   4.713   3.443   2.698 -0.7275 -0.1450  0.2675
 5484TIP3    H116458   4.755   3.428   2.783 -0.1930 -0.5509 -0.0642
 5484TIP3    H216459   4.697   3.537   2.695 -0.0816 -0.0281  0.5096
 5485TIP3   OH216460   0.633   2.069   4.352  0.3161  0.3776  0.3150
 5485TIP3    H116461   0.620   2.079   4.446 -0.5114  0.4238  0.2054
 5485TIP3    H216462   0.728   2.073   4.340  0.4852 -0.4472  1.2324
 5486TIP3   OH216463   0.392   5.393   3.682 -0.0006  0.5689  0.1017
 5486TIP3    H116464   0.485   5.372   3.675  0.1030  0.2389  1.8783
 5486TIP3    H216465   0.355   5.369   3.597  1.3014 -0.5968 -0.1697
 5487TIP3   OH216466   3.599   4.529   0.801  0.2291 -0.5870  0.0258
 5487TIP3    H116467   3.632   4.562   0.717 -1.2277 -1.1796 -0.8049
 5487TIP3    H216468   3.520   4.481   0.779 -0.7866  0.1405  1.8615
 5488TIP3   OH216469   2.302   5.640   4.422  0.3413 -0.0484 -0.3441
 5488TIP3    H116470   2.290   5.635   4.327  1.3224 -0.7174 -0.4500
 5488TIP3    H216471   2.394   5.663   4.434  0.1354  0.4151  0.4461
 5489TIP3   OH216472   2.762   0.244   2.885  0.1790 -0.2129  0.3053
 5489TIP3    H116473   2.673   0.240   2.851  0.0472 -0.7726  0.6949
 5489TIP3    H216474   2.763   0.180   2.957  1.7763 -2.8431 -1.8319
 5490TIP3   OH216475   1.965   3.818   4.494 -0.5223  0.4675 -0.7614
 5490TIP3    H116476   1.966   3.913   4.507 -0.5822  0.4126 -0.3300
 5490TIP3    H216477   1.874   3.793   4.511 -0.4323  0.2904 -0.5419
 5491TIP3   OH216478   4.664   1.183   4.891  0.1098  0.2598 -0.0513
 5491TIP3    H116479   4.626   1.252   4.945 -0.5026 -1.1516  1.4188
 5491TIP3    H216480   4.744   1.158   4.936  1.3977  1.2843 -1.6345
 5492TIP3   OH216481   3.767   5.206   1.792  0.4636  0.0167 -0.4982
 5492TIP3    H116482   3.694   5.156   1.755  0.0689  0.8859 -0.9105
 5492TIP3    H216483   3.735   5.233   1.878  1.5401 -2.3785  0.7738
 5493TIP3   OH216484   4.727   0.887   0.768 -0.0532 -0.4130  0.2574
 5493TIP3    H116485   4.701   0.934   0.689  0.7994  0.9353  0.7525
 5493TIP3    H216486   4.806   0.932   0.798 -0.5983 -0.6123  2.1185
 5494TIP3   OH216487   3.904   5.438   3.834 -0.2473 -0.4171 -0.4410
 5494TIP3    H116488   3.904   5.523   3.792  0.7996 -0.5478 -0.7306
 5494TIP3    H216489   3.861   5.452   3.918  0.4602  0.5309 -0.2287
 5495TIP3   OH216490   5.574   0.610   3.889  0.1000 -0.2294 -0.1959
 5495TIP3    H116491   5.650   0.646   3.934 -0.1646 -0.3857  0.3959
 5495TIP3    H216492   5.538   0.546   3.951 -1.5067  1.0684  0.2991
 5496TIP3   OH216493   3.956   5.326   2.832  0.6097  0.1774 -0.6808
 5496TIP3    H116494   3.992   5.248   2.873 -0.9226  0.5051  1.4207
 5496TIP3    H216495   3.977   5.316   2.739  1.0628 -2.3635 -0.3726
 5497TIP3   OH216496   3.193   0.353   0.132 -0.1771 -0.5798  0.0559
 5497TIP3    H116497   3.256   0.307   0.076 -0.9029  0.0240 -1.3072
 5497TIP3    H216498   3.219   0.445   0.124 -0.6818 -0.4266  0.1912
 5498TIP3   OH216499   5.846   3.786   3.560  0.1837  0.6267 -0.0444
 5498TIP3    H116500   5.858   3.862   3.618 -1.4116 -0.3046  1.5932
 5498TIP3    H216501   5.754   3.763   3.570  0.8162 -2.0848  0.2338
 5499TIP3   OH216502   0.562   4.502   2.943  0.1438 -0.2120 -0.1519
 5499TIP3    H116503   0.522   4.489   3.029 -1.3269  0.0758 -0.7660
 5499TIP3    H216504   0.511   4.572   2.902  1.2289  0.1103 -1.0258
 5500TIP3   OH216505   2.890   3.743   3.001  0.5749 -0.7568  0.2647
 5500TIP3    H116506   2.829   3.678   2.965  1.1901 -0.8905 -0.5753
 5500TIP3    H216507   2.973   3.726   2.956  0.4258  1.4622 -1.0425
 5501TIP3   OH216508   3.480   1.360   0.362 -0.0489  0.1386  0.0249
 5501TIP3    H116509   3.519   1.347   0.448 -0.0117 -0.8415 -0.1284
 5501TIP3    H216510   3.538   1.422   0.319  0.9077 -0.6713  0.1048
 5502TIP3   OH216511   2.915   5.592   4.770  0.6399  0.1133 -0.1611
 5502TIP3    H116512   2.922   5.521   4.706  0.4423 -0.7797  0.7696
 5502TIP3    H216513   2.824   5.591   4.797  0.7404  0.4243  0.1943
 5503TIP3   OH216514   2.631   5.069   5.003 -0.0451  0.3143 -0.5112
 5503TIP3    H116515   2.676   5.002   5.054  1.2241  1.5410  0.0838
 5503TIP3    H216516   2.565   5.104   5.062  0.4711  0.7575 -0.1789
 5504TIP3   OH216517   2.636   2.002   0.115 -0.0047  0.3900 -0.6247
 5504TIP3    H116518   2.707   1.941   0.093 -0.2046 -0.1366  0.1605
 5504TIP3    H216519   2.647   2.074   0.053  1.0406  0.1765 -0.7116
 5505TIP3   OH216520   4.113   2.065   5.049 -0.1407 -0.1042 -0.1258
 5505TIP3    H116521   4.186   2.114   5.087  1.0997 -2.1562  0.3124
 5505TIP3    H216522   4.103   2.101   4.961  1.4655  0.1927 -0.2171
 5506TIP3   OH216523   3.806   2.417   3.395 -0.0802 -0.1241  0.2281
 5506TIP3    H116524   3.878   2.458   3.443  0.8658 -0.6034 -0.7480
 5506TIP3    H216525   3.771   2.488   3.341  0.0417 -0.0395  0.2583
 5507TIP3   OH216526   1.501   3.676   4.710 -0.3152 -0.2104 -0.6465
 5507TIP3    H116527   1.411   3.710   4.718 -1.2395 -2.3572 -1.2926
 5507TIP3    H216528   1.504   3.601   4.769  1.0790 -0.1880 -0.6551
 5508TIP3   OH216529   3.332   3.241   2.270 -0.3167  0.1544  0.4315
 5508TIP3    H116530   3.313   3.307   2.203 -1.1775  0.8618  1.3328
 5508TIP3    H216531   3.307   3.284   2.352  0.9166 -0.6136  1.2308
 5509TIP3   OH216532   5.280   4.764   3.289 -0.1317  0.2660  0.0523
 5509TIP3    H116533   5.185   4.775   3.280 -0.0339  0.6584 -0.5711
 5509TIP3    H216534   5.306   4.720   3.208 -0.1100 -2.0881  1.2554
 5510TIP3   OH216535   3.543   5.307   2.529  0.0105 -0.1926 -0.0107
 5510TIP3    H116536   3.572   5.393   2.559  0.5528  0.5772 -2.4766
 5510TIP3    H216537   3.467   5.325   2.473  0.7455 -1.1699 -1.3827
 5511TIP3   OH216538   2.976   1.308   4.778 -0.5245  0.3176 -0.6048
 5511TIP3    H116539   3.011   1.226   4.812  0.1281  0.9136  0.2108
 5511TIP3    H216540   2.882   1.294   4.775 -0.5906  0.1192  1.1990
 5512TIP3   OH216541   4.396   3.995   1.830 -0.0085  0.7896  0.4371
 5512TIP3    H116542   4.341   4.020   1.904 -0.0875 -0.1098  0.6998
 5512TIP3    H216543   4.377   3.902   1.817  0.5531  0.7629 -0.2419
 5513TIP3   OH216544   1.565   1.191   1.778 -0.1404 -0.1626 -0.0210
 5513TIP3    H116545   1.585   1.179   1.686 -0.0414  0.0228 -0.0242
 5513TIP3    H216546   1.554   1.286   1.788 -0.4243 -0.2050  0.1004
 5514TIP3   OH216547   2.278   1.968   1.225 -0.2492 -0.1916  0.3170
 5514TIP3    H116548   2.262   1.905   1.296 -0.6325 -0.7342 -0.2425
 5514TIP3    H216549   2.373   1.968   1.214 -0.3418 -2.2763 -1.0796
 5515TIP3   OH216550   5.992   4.488   0.841  1.0875  0.0111  0.5081
 5515TIP3    H116551   5.921   4.538   0.882 -0.2432 -1.2661 -0.1701
 5515TIP3    H216552   6.071   4.522   0.883  0.0261  0.8606  1.9430
 5516TIP3   OH216553   0.632   2.513   1.023  0.3188 -0.3419 -0.2692
 5516TIP3    H116554   0.584   2.548   0.948  0.9781 -0.3270 -0.6873
 5516TIP3    H216555   0.712   2.476   0.986  1.3442  0.9478  0.5821
 5517TIP3   OH216556   3.999   4.211   3.408 -0.1953  0.1443 -0.0185
 5517TIP3    H116557   3.944   4.181   3.337  1.5538 -1.3407 -0.8226
 5517TIP3    H216558   3.961   4.295   3.434 -1.8175 -0.0427 -1.6103
 5518TIP3   OH216559   2.425   3.270   1.601  0.0036 -0.3726 -0.5838
 5518TIP3    H116560   2.348   3.242   1.552 -0.0903 -0.0228 -0.6408
 5518TIP3    H216561   2.400   3.354   1.639  0.4920 -0.0660 -0.9278
 5519TIP3   OH216562   0.560   1.494   4.733  0.0324 -0.2321 -0.5507
 5519TIP3    H116563   0.548   1.440   4.655  1.9472  0.2175 -1.2102
 5519TIP3    H216564   0.630   1.449   4.782 -1.3543 -0.7016  1.1280
 5520TIP3   OH216565   1.828   1.314   1.765 -0.1770  1.0168 -0.5459
 5520TIP3    H116566   1.855   1.311   1.673  0.1635 -1.0571 -0.4177
 5520TIP3    H216567   1.901   1.273   1.812 -1.6130 -0.6475  0.3036
 5521TIP3   OH216568   5.984   1.720   0.362 -0.0109 -0.0795  0.1708
 5521TIP3    H116569   6.061   1.770   0.335 -0.3718 -0.4722 -1.7465
 5521TIP3    H216570   6.017   1.632   0.378  0.1107  0.0087  0.4076
 5522TIP3   OH216571   4.882   4.939   4.201 -0.1695  0.2993  0.2108
 5522TIP3    H116572   4.940   4.909   4.272 -1.0876  0.1863  0.9352
 5522TIP3    H216573   4.809   4.981   4.247 -0.4219  0.8730 -0.7057
 5523TIP3   OH216574   5.630   1.982   4.797 -0.0750 -0.1282 -0.2954
 5523TIP3    H116575   5.535   1.980   4.809 -0.3425 -3.0282 -1.9779
 5523TIP3    H216576   5.663   1.910   4.851  1.0763  0.2925 -0.4085
 5524TIP3   OH216577   5.795   5.468   5.125 -0.1415 -0.2823 -0.4570
 5524TIP3    H116578   5.744   5.409   5.069 -1.7815  1.8073 -1.2812
 5524TIP3    H216579   5.749   5.551   5.121  2.3108  1.2231  0.3287
 5525TIP3   OH216580   0.893   1.170   1.414 -0.6220 -0.5633  0.4258
 5525TIP3    H116581   0.801   1.195   1.409 -0.6012 -0.5265  0.2368
 5525TIP3    H216582   0.932   1.206   1.335 -0.4039 -0.4035  0.6028
 5526TIP3   OH216583   1.502   4.512   4.907  0.2184 -0.4189  0.2235
 5526TIP3    H116584   1.538   4.530   4.994 -0.3054  0.2698  0.3064
 5526TIP3    H216585   1.445   4.436   4.919  0.5619 -0.6569  0.3682
 5527TIP3   OH216586   5.322   2.122   2.647  0.1485  0.7773  0.1450
 5527TIP3    H116587   5.398   2.067   2.626 -0.3309 -0.5949  1.7998
 5527TIP3    H216588   5.304   2.170   2.566  1.9208  0.1162 -0.6996
 5528TIP3   OH216589   5.689   2.812   1.737 -0.3518  0.3483  0.1599
 5528TIP3    H116590   5.637   2.735   1.762  0.3283  0.0674  0.7433
 5528TIP3    H216591   5.661   2.881   1.797 -0.6340  0.4316 -0.0647
 5529TIP3   OH216592   3.544   2.385   1.332  0.8944 -0.0233  0.4150
 5529TIP3    H116593   3.566   2.421   1.418  1.8605 -0.2548  0.2759
 5529TIP3    H216594   3.622   2.400   1.279 -0.0749  1.1468 -0.7719
 5530TIP3   OH216595   2.135   0.146   4.714 -0.8856  0.5206  0.1463
 5530TIP3    H116596   2.164   0.083   4.780 -1.2719  0.1493 -0.0325
 5530TIP3    H216597   2.088   0.213   4.765  1.2472  1.7577  0.5783
 5531TIP3   OH216598   3.736   0.225   3.905  0.0075 -0.3511  0.0000
 5531TIP3    H116599   3.765   0.200   3.817 -0.7466 -0.0794 -0.3301
 5531TIP3    H216600   3.768   0.315   3.916  1.4879 -0.9241  0.6384
 5532TIP3   OH216601   4.861   4.332   2.990  0.0638  0.0051 -0.4126
 5532TIP3    H116602   4.792   4.278   3.029 -0.5047  0.8400 -0.2480
 5532TIP3    H216603   4.940   4.308   3.039  0.0948 -1.5810 -1.1636
 5533TIP3   OH216604   2.402   4.915   3.386  0.4944  0.4506  0.2726
 5533TIP3    H116605   2.378   4.890   3.297 -1.4330 -2.1094  1.4233
 5533TIP3    H216606   2.338   4.983   3.410 -1.4539 -1.5268  0.9415
 5534TIP3   OH216607   1.992   2.147   4.518 -0.4451  0.5815 -0.4257
 5534TIP3    H116608   1.993   2.091   4.595  0.5839  0.2861 -0.6413
 5534TIP3    H216609   1.996   2.236   4.552  0.2850  0.4451 -0.1333
 5535TIP3   OH216610   4.400   5.622   2.110  0.0832  0.1373  0.1595
 5535TIP3    H116611   4.489   5.624   2.144 -0.3237  0.0574  1.2520
 5535TIP3    H216612   4.389   5.707   2.067  0.1879  0.7779  1.3456
 5536TIP3   OH216613   1.870   3.103   2.553  0.2186  0.2770  0.1533
 5536TIP3    H116614   1.932   3.124   2.484 -0.8209  0.9479 -0.6133
 5536TIP3    H216615   1.810   3.178   2.555  0.5891  0.6030  2.2307
 5537TIP3   OH216616   2.817   0.174   1.764  0.0025  0.4507 -1.0015
 5537TIP3    H116617   2.888   0.239   1.769  1.0306 -0.5764 -1.7326
 5537TIP3    H216618   2.862   0.090   1.774 -1.3387 -0.1651  0.2587
 5538TIP3   OH216619   3.266  -0.011   5.093 -0.1871 -0.5757 -0.1415
 5538TIP3    H116620   3.287   0.030   5.009 -0.4010 -0.1819 -0.0049
 5538TIP3    H216621   3.297   0.052   5.158 -0.3454 -0.7205  0.0726
 5539TIP3   OH216622   6.363   0.777   4.389  0.0203 -0.3236  0.3761
 5539TIP3    H116623   6.270   0.793   4.404  0.0646 -0.8951  1.2956
 5539TIP3    H216624   6.376   0.685   4.411  0.8065 -0.2544  0.2523
 5540TIP3   OH216625   4.283   4.220   3.269  0.1010  0.4714  0.4513
 5540TIP3    H116626   4.288   4.127   3.246  1.5208 -0.1905  2.9876
 5540TIP3    H216627   4.190   4.235   3.287 -0.0269 -0.7657  0.9626
 5541TIP3   OH216628   1.206   0.565   1.940  0.0095  0.2429 -0.7549
 5541TIP3    H116629   1.247   0.636   1.990  2.1663 -0.9009 -0.8108
 5541TIP3    H216630   1.237   0.485   1.981 -2.0772 -0.7441 -0.9371
 5542TIP3   OH216631   0.480   2.114   3.112 -0.1079  0.1501 -0.4516
 5542TIP3    H116632   0.504   2.134   3.202  0.6881 -0.6287 -0.4824
 5542TIP3    H216633   0.563   2.118   3.064 -0.5113  0.4792 -1.1388
 5543TIP3   OH216634   4.038   5.726   2.297  0.6376  0.2277 -0.4604
 5543TIP3    H116635   4.121   5.755   2.334 -0.0233  0.5527  0.8093
 5543TIP3    H216636   4.005   5.662   2.360 -0.6231  0.9657 -0.3428
 5544TIP3   OH216637   3.995   2.684   2.184  0.4986  0.3639 -0.5131
 5544TIP3    H116638   3.945   2.677   2.103 -0.2016  1.3388 -0.1804
 5544TIP3    H216639   3.930   2.679   2.254  0.5411  3.5125 -0.0938
 5545TIP3   OH216640   3.236   0.728   2.729  0.4706 -0.2215  0.0370
 5545TIP3    H116641   3.182   0.767   2.660 -0.6015  0.6748  1.3448
 5545TIP3    H216642   3.298   0.673   2.681 -0.1544  0.4561 -1.6523
 5546TIP3   OH216643   1.473   1.750   2.045 -0.0971  0.8464  0.2243
 5546TIP3    H116644   1.487   1.749   2.140 -0.2793  0.1157  0.2478
 5546TIP3    H216645   1.472   1.843   2.022  0.7030  1.0140  0.8244
 5547TIP3   OH216646   1.203   5.580   3.252  0.5265 -0.1516 -0.4870
 5547TIP3    H116647   1.114   5.585   3.217 -0.5658  0.2322  2.1039
 5547TIP3    H216648   1.250   5.650   3.207 -0.4472 -0.3502 -1.8981
 5548TIP3   OH216649   6.135   0.341   1.694  0.2269 -0.0201  0.7872
 5548TIP3    H116650   6.136   0.413   1.758  0.9055 -1.2880  2.2659
 5548TIP3    H216651   6.227   0.328   1.672 -0.0050  0.4032 -0.4757
 5549TIP3   OH216652   6.232   0.837   0.359  0.1053 -0.3432 -0.4650
 5549TIP3    H116653   6.289   0.764   0.384  0.8983 -0.0478 -1.3369
 5549TIP3    H216654   6.178   0.853   0.436  0.0093 -1.7562 -0.2076
 5550TIP3   OH216655   0.326   1.888   3.571 -0.0651  0.0371  0.4975
 5550TIP3    H116656   0.254   1.875   3.509  0.9308  0.9712 -0.9126
 5550TIP3    H216657   0.341   1.802   3.610  0.0904 -0.8794 -1.4735
 5551TIP3   OH216658   0.509   0.385   2.731  0.0421  0.1358  0.0411
 5551TIP3    H116659   0.543   0.305   2.691 -0.6403 -0.8158  1.2867
 5551TIP3    H216660   0.416   0.384   2.712 -0.0824  0.2884  0.6127
 5552TIP3   OH216661   3.118   0.258   3.912 -0.1625  0.2542  0.3938
 5552TIP3    H116662   3.149   0.348   3.914  0.7960 -0.0513  2.7870
 5552TIP3    H216663   3.136   0.224   4.000 -0.4588 -2.2797 -0.4237
 5553TIP3   OH216664   1.027   2.258   0.996 -0.3904 -0.1841  0.6236
 5553TIP3    H116665   1.106   2.261   0.942 -0.8843 -0.6263 -0.1338
 5553TIP3    H216666   1.048   2.194   1.064 -0.5095 -1.1892 -0.2624
 5554TIP3   OH216667   2.585   2.078   3.963  0.4404 -0.4210  0.0632
 5554TIP3    H116668   2.598   2.158   3.911 -1.5181  0.4952  0.8804
 5554TIP3    H216669   2.657   2.020   3.937  2.4470  1.9096  0.0704
 5555TIP3   OH216670   4.312   3.461   2.843  0.1358 -0.6672 -0.0749
 5555TIP3    H116671   4.223   3.492   2.856  0.2655 -0.0282 -0.6994
 5555TIP3    H216672   4.315   3.433   2.751  0.0510 -2.4604  0.4176
 5556TIP3   OH216673   1.355   4.953   3.086 -1.2100 -0.3000 -0.4216
 5556TIP3    H116674   1.337   4.951   2.992 -1.4470 -1.2309 -0.3638
 5556TIP3    H216675   1.444   4.919   3.093 -1.8971 -2.1453 -0.1668
 5557TIP3   OH216676   2.596   2.126   0.823 -0.0018  0.0037 -0.2523
 5557TIP3    H116677   2.564   2.139   0.912  0.4194 -0.7922  0.0222
 5557TIP3    H216678   2.650   2.048   0.828  0.2426  0.1048 -1.1567
 5558TIP3   OH216679   4.645   3.312   0.908 -0.4514  0.5873 -0.4029
 5558TIP3    H116680   4.644   3.318   1.003 -0.0141  0.9096 -0.4143
 5558TIP3    H216681   4.616   3.398   0.878 -0.5317  0.5063 -0.5583
 5559TIP3   OH216682   4.289   4.481   4.028  0.1962  0.1685  0.5876
 5559TIP3    H116683   4.358   4.486   4.094 -0.3018 -1.2459  1.2366
 5559TIP3    H216684   4.222   4.425   4.066 -1.4171  1.6133  0.0267
 5560TIP3   OH216685   3.670   0.710   4.965  0.1951  0.0749 -0.1651
 5560TIP3    H116686   3.691   0.695   5.057  0.0352 -0.9663 -0.2788
 5560TIP3    H216687   3.626   0.795   4.963 -0.7721 -0.3821  0.8713
 5561TIP3   OH216688   5.032   4.997   1.777 -0.2951  0.1433 -0.1381
 5561TIP3    H116689   4.950   5.025   1.735 -0.5535  0.0133  0.2711
 5561TIP3    H216690   5.091   5.071   1.767 -0.5010  0.2808 -0.3422
 5562TIP3   OH216691   4.439   0.106   0.369  0.2077 -0.2788  0.1064
 5562TIP3    H116692   4.457   0.018   0.402  1.2359  0.9468  3.1505
 5562TIP3    H216693   4.496   0.114   0.292  0.7598 -1.9742  0.2849
 5563TIP3   OH216694   2.908   2.539   2.305 -0.4862  0.2604  0.4328
 5563TIP3    H116695   2.962   2.593   2.362 -0.2889  1.0033 -0.4481
 5563TIP3    H216696   2.938   2.449   2.322 -1.3042  0.3047  2.4217
 5564TIP3   OH216697   1.417   5.384   3.280  0.6725 -0.5006  0.1225
 5564TIP3    H116698   1.356   5.456   3.260  0.8244 -0.6024 -0.7768
 5564TIP3    H216699   1.493   5.427   3.320 -0.8081 -0.5835  3.2935
 5565TIP3   OH216700   0.390   1.487   0.028 -0.5389  0.3176 -0.3380
 5565TIP3    H116701   0.326   1.513  -0.038  0.3417  0.8932 -0.9920
 5565TIP3    H216702   0.464   1.545   0.013  0.0024 -0.1066  0.6292
 5566TIP3   OH216703   4.602   3.759   4.070  0.0718 -0.0124 -0.3241
 5566TIP3    H116704   4.596   3.684   4.129 -1.8731 -0.3561 -0.8669
 5566TIP3    H216705   4.574   3.725   3.985 -1.5630  1.4396 -0.4320
 5567TIP3   OH216706   2.337   3.108   3.234  0.5109 -0.2170  0.6436
 5567TIP3    H116707   2.415   3.053   3.234  1.4677  1.0917 -0.0512
 5567TIP3    H216708   2.268   3.051   3.268  1.8704 -1.2441  1.8098
 5568TIP3   OH216709   6.202   3.747   4.089  0.1670 -0.7250 -0.1220
 5568TIP3    H116710   6.108   3.733   4.085  0.2401 -1.7740  1.1707
 5568TIP3    H216711   6.213   3.841   4.077 -1.0828 -0.5318  0.1329
 5569TIP3   OH216712   2.008   1.917   1.219  0.3698  0.1094 -0.4209
 5569TIP3    H116713   2.076   1.946   1.159  0.9684 -0.7762 -0.1875
 5569TIP3    H216714   1.964   1.998   1.246  0.6307  0.5895 -1.3895
 5570TIP3   OH216715   0.393   5.970   0.758  0.5645  0.2675  0.5696
 5570TIP3    H116716   0.440   5.924   0.688  1.3230  0.4912  0.9141
 5570TIP3    H216717   0.429   6.059   0.756 -0.6824  0.7806  0.0922
 5571TIP3   OH216718   3.045   3.334   1.539 -0.1783 -0.3879 -0.1173
 5571TIP3    H116719   3.008   3.423   1.540 -1.2983 -0.8332 -0.4250
 5571TIP3    H216720   2.970   3.277   1.557  0.4877 -1.2838 -0.1535
 5572TIP3   OH216721   4.281   4.136   4.372 -0.4116 -0.1336  0.7467
 5572TIP3    H116722   4.347   4.177   4.317  1.2311 -1.8344  1.3644
 5572TIP3    H216723   4.271   4.196   4.446  0.2989  0.2344  0.5474
 5573TIP3   OH216724   1.860   0.265   0.702  0.5576  1.1725 -0.6333
 5573TIP3    H116725   1.837   0.192   0.645 -0.9277  0.1603  1.1296
 5573TIP3    H216726   1.905   0.225   0.776  0.6174  2.1687 -0.1095
 5574TIP3   OH216727   2.642   2.299   2.937 -0.0680  0.4602  0.4472
 5574TIP3    H116728   2.625   2.211   2.970 -0.9824  0.1203 -0.8223
 5574TIP3    H216729   2.699   2.286   2.862  1.1606  1.1208  1.2351
 5575TIP3   OH216730   0.140   1.752   1.803 -0.2928  0.1603  0.3962
 5575TIP3    H116731   0.117   1.756   1.710 -0.9422 -0.5352  0.5149
 5575TIP3    H216732   0.235   1.756   1.804 -0.3062  1.1032 -0.2371
 5576TIP3   OH216733   2.179   1.168   2.743 -0.0657  0.1689 -0.1722
 5576TIP3    H116734   2.109   1.130   2.690  0.0088 -3.1481  1.8637
 5576TIP3    H216735   2.146   1.254   2.768 -1.8814  0.1153 -2.0991
 5577TIP3   OH216736   5.817   0.937   4.351 -0.7739 -0.1830 -0.3598
 5577TIP3    H116737   5.761   0.878   4.300  0.5969 -1.5120 -0.4017
 5577TIP3    H216738   5.893   0.952   4.295  1.2766 -2.5184  1.5416
 5578TIP3   OH216739   3.921   4.511   4.859 -0.2390  0.4944  0.0368
 5578TIP3    H116740   3.906   4.598   4.823  1.7583  1.4047  1.2171
 5578TIP3    H216741   4.009   4.516   4.897 -0.5980 -1.6462  1.2899
 5579TIP3   OH216742   3.788   3.047   0.051 -0.2476 -0.2133 -0.6324
 5579TIP3    H116743   3.744   3.120   0.094  1.1678  1.0172 -1.1639
 5579TIP3    H216744   3.881   3.065   0.064  0.1546 -1.1690 -1.9857
 5580TIP3   OH216745   1.545   4.617   4.639  0.6405 -0.0824  0.5530
 5580TIP3    H116746   1.482   4.681   4.606  0.1834 -0.2111  1.1653
 5580TIP3    H216747   1.533   4.618   4.734  1.6665  0.0029  0.7008
 5581TIP3   OH216748   0.958   5.899   0.622 -0.0075  0.4913  0.9066
 5581TIP3    H116749   0.881   5.844   0.636  0.5865 -1.0309 -1.2383
 5581TIP3    H216750   1.031   5.848   0.659  0.5248 -0.1610 -0.9399
 5582TIP3   OH216751   3.483   5.661   4.536  1.1209  0.1703 -0.0046
 5582TIP3    H116752   3.426   5.662   4.459  1.1783 -0.0679 -0.0501
 5582TIP3    H216753   3.567   5.693   4.504  1.1107  0.1857 -0.0161
 5583TIP3   OH216754   4.460   3.094   4.998 -0.0692  1.2968 -0.2493
 5583TIP3    H116755   4.400   3.062   5.066 -1.0390  1.6993 -0.8987
 5583TIP3    H216756   4.503   3.015   4.965 -2.5720  0.5289 -1.9632
 5584TIP3   OH216757   2.285   5.665   3.568 -0.1138  0.0385  0.2447
 5584TIP3    H116758   2.376   5.683   3.592 -0.2557 -1.1898  1.9229
 5584TIP3    H216759   2.242   5.750   3.572  0.9334  0.6422 -0.5883
 5585TIP3   OH216760   2.187   5.951   0.774 -0.3224 -0.0811 -0.1855
 5585TIP3    H116761   2.244   6.027   0.764 -1.5344  0.8382 -0.3505
 5585TIP3    H216762   2.165   5.924   0.685  1.6006 -1.8569 -0.2070
 5586TIP3   OH216763   3.808   0.833   0.384  0.3587 -0.0185  0.6344
 5586TIP3    H116764   3.860   0.909   0.407  0.1124  0.6292 -0.8264
 5586TIP3    H216765   3.743   0.866   0.322  0.8975 -1.5926 -0.8430
 5587TIP3   OH216766   0.431   1.254   1.892 -0.3522  0.2815 -0.3138
 5587TIP3    H116767   0.489   1.311   1.943  1.8287 -0.7560 -1.5220
 5587TIP3    H216768   0.454   1.166   1.919 -3.1261 -0.1858  0.9348
 5588TIP3   OH216769   2.182   4.408   2.876 -0.0344 -0.2095  0.1816
 5588TIP3    H116770   2.209   4.498   2.860 -3.0053  0.6212 -0.9595
 5588TIP3    H216771   2.138   4.411   2.961  2.1522 -1.2270  1.4074
 5589TIP3   OH216772   4.912   5.703   4.540  0.4651  0.1082  0.5475
 5589TIP3    H116773   5.006   5.722   4.532  0.6121 -0.8074 -0.0201
 5589TIP3    H216774   4.905   5.646   4.617  0.4056 -0.0336  0.4372
 5590TIP3   OH216775   5.085   2.151   0.962  0.3136  0.0458 -0.1197
 5590TIP3    H116776   5.077   2.245   0.946 -0.9086  0.4427  2.3593
 5590TIP3    H216777   4.995   2.117   0.951  0.6541 -0.7797 -0.5090
 5591TIP3   OH216778   5.742   5.676   4.425  0.5834 -0.2654 -0.2743
 5591TIP3    H116779   5.674   5.609   4.415  0.3948 -0.0370 -0.5534
 5591TIP3    H216780   5.824   5.630   4.411  0.4603 -0.4620 -0.3523
 5592TIP3   OH216781   3.337   5.692   2.319 -0.3917 -0.2119 -0.4094
 5592TIP3    H116782   3.425   5.688   2.281  0.2437 -0.1794  1.0018
 5592TIP3    H216783   3.310   5.783   2.309  1.0051  0.5169  1.8228
 5593TIP3   OH216784   4.001   5.725   4.875  0.4622  0.2683 -0.5320
 5593TIP3    H116785   3.906   5.717   4.877  0.4870 -0.4280 -1.5618
 5593TIP3    H216786   4.032   5.675   4.951 -0.0511  1.8546  0.7723
 5594TIP3   OH216787   4.850   5.383   3.823 -0.3897  0.0853 -0.1974
 5594TIP3    H116788   4.815   5.311   3.772  1.6764 -1.1189 -0.0164
 5594TIP3    H216789   4.944   5.366   3.828  0.1690  2.7375 -0.0433
 5595TIP3   OH216790   4.358   0.090   3.268 -0.5021 -0.4220 -0.7708
 5595TIP3    H116791   4.413   0.133   3.334 -1.3180  0.2280 -0.5030
 5595TIP3    H216792   4.354  -0.001   3.297  1.1020 -0.6773 -1.2539
 5596TIP3   OH216793   5.128   2.866   2.198 -0.4890  0.4659  0.4631
 5596TIP3    H116794   5.079   2.855   2.116 -0.4706  0.2710  0.4763
 5596TIP3    H216795   5.185   2.941   2.182  0.3625 -0.2835 -0.1339
 5597TIP3   OH216796   4.885   3.140   4.322 -0.1653 -0.3580  0.2145
 5597TIP3    H116797   4.914   3.057   4.360 -1.0059 -0.0314  1.6469
 5597TIP3    H216798   4.839   3.115   4.242 -0.9736 -1.3416  0.9667
 5598TIP3   OH216799   5.941   4.908   3.173  0.0950  0.6642 -0.0757
 5598TIP3    H116800   5.900   4.848   3.110 -1.1736  0.9284  0.4617
 5598TIP3    H216801   5.868   4.938   3.228  1.0686  0.9589  1.0916
 5599TIP3   OH216802   3.676   2.355   0.611 -0.4199  0.0842 -0.0550
 5599TIP3    H116803   3.751   2.411   0.587 -0.4965  0.7450  1.1932
 5599TIP3    H216804   3.649   2.387   0.697 -0.7418 -1.6096  0.4968
 5600TIP3   OH216805   2.094   5.056   1.648 -0.1209  0.5550 -0.0879
 5600TIP3    H116806   2.140   5.066   1.731  1.2456 -0.3568 -0.7086
 5600TIP3    H216807   2.128   5.126   1.593  1.6139 -0.9173 -0.9894
 5601TIP3   OH216808   2.881   2.467   0.409  0.1572  0.6028  0.1215
 5601TIP3    H116809   2.829   2.386   0.408  0.0535  0.6631  0.4502
 5601TIP3    H216810   2.865   2.504   0.496 -1.1157  1.8418 -0.5999
 5602TIP3   OH216811   1.813   2.807   2.837 -0.5730  0.1414 -0.4297
 5602TIP3    H116812   1.825   2.833   2.929  1.5075  0.9625 -0.8592
 5602TIP3    H216813   1.756   2.875   2.800 -1.9449 -0.5381  0.3581
 5603TIP3   OH216814   3.310   2.729   4.257  0.1043  0.6496  0.4336
 5603TIP3    H116815   3.355   2.797   4.309 -1.7280  0.7690  1.9719
 5603TIP3    H216816   3.218   2.738   4.281 -0.3985 -1.3211 -0.5893
 5604TIP3   OH216817   1.025   2.989   1.932  0.6058  0.0478  0.3450
 5604TIP3    H116818   0.950   2.931   1.922  0.0641  0.8004 -0.0253
 5604TIP3    H216819   1.026   3.011   2.025 -0.3970  1.0236  0.1450
 5605TIP3   OH216820   1.325   2.198   1.766 -0.0624  0.0720 -0.4460
 5605TIP3    H116821   1.302   2.252   1.841 -0.8550  1.2380 -1.4963
 5605TIP3    H216822   1.343   2.112   1.803 -0.1306  0.7035  1.1071
 5606TIP3   OH216823   3.073   1.508   2.572 -0.2637  0.0702  0.3384
 5606TIP3    H116824   3.042   1.550   2.652 -1.1405 -1.4741  0.8530
 5606TIP3    H216825   2.994   1.470   2.533  0.1953  0.5582 -1.1152
 5607TIP3   OH216826   5.252   5.868   4.860  0.1201 -0.7013  0.2828
 5607TIP3    H116827   5.276   5.803   4.926  1.3013 -0.8274 -0.2386
 5607TIP3    H216828   5.333   5.917   4.843 -0.0458 -0.9169 -1.3262
 5608TIP3   OH216829   1.784   1.866   3.584  0.3155  0.5050  0.6521
 5608TIP3    H116830   1.866   1.859   3.632  1.2098  1.8123 -0.5900
 5608TIP3    H216831   1.797   1.811   3.506  0.6262  1.8581 -0.2908
 5609TIP3   OH216832   4.623   2.704   2.890  0.2233 -0.2419  0.1398
 5609TIP3    H116833   4.690   2.679   2.828  1.1577  0.3646  0.8764
 5609TIP3    H216834   4.620   2.800   2.885 -0.6614 -0.2621  0.0446
 5610TIP3   OH216835   0.355   0.470   0.262 -0.3306  0.7450 -0.4020
 5610TIP3    H116836   0.289   0.401   0.263 -1.1132  1.4001  2.5957
 5610TIP3    H216837   0.435   0.427   0.232 -1.3070 -0.8747 -0.8087
 5611TIP3   OH216838   2.227   0.458   1.002 -0.3350 -0.3245  0.1282
 5611TIP3    H116839   2.271   0.392   1.055 -0.1537 -0.9170 -0.7421
 5611TIP3    H216840   2.241   0.540   1.049  2.1023 -0.4133 -0.3474
 5612TIP3   OH216841   6.312   5.356   3.678 -0.1581 -0.8293 -0.4949
 5612TIP3    H116842   6.339   5.264   3.687  0.5652 -0.5178  0.8141
 5612TIP3    H216843   6.281   5.379   3.766  1.6505  0.7861 -0.2226
 5613TIP3   OH216844   3.461   5.381   2.931  0.2420  0.1316  0.6360
 5613TIP3    H116845   3.526   5.370   3.000 -0.8999 -0.0271  1.7243
 5613TIP3    H216846   3.399   5.445   2.965 -0.6978 -0.4214  0.0393
 5614TIP3   OH216847   0.125   0.586   3.155  0.1536 -0.3715 -0.2604
 5614TIP3    H116848   0.132   0.667   3.207  1.0183  0.7123 -1.9714
 5614TIP3    H216849   0.050   0.540   3.193 -0.4485  1.2987  0.7061
 5615TIP3   OH216850   4.045   5.807   0.969  0.2024  0.6655 -0.1084
 5615TIP3    H116851   3.950   5.798   0.977  0.4071 -0.7771  1.4176
 5615TIP3    H216852   4.075   5.822   1.059  1.6285 -1.9806 -0.0233
 5616TIP3   OH216853   4.995   5.125   4.450 -0.4772 -0.6401 -0.2820
 5616TIP3    H116854   4.908   5.087   4.454 -0.1663 -1.5653 -1.7162
 5616TIP3    H216855   5.006   5.152   4.359  0.5430 -0.0557 -0.0120
 5617TIP3   OH216856   5.271   1.887   4.341 -0.6886  0.3214  0.0986
 5617TIP3    H116857   5.237   1.798   4.351  0.0163  0.0439  0.0822
 5617TIP3    H216858   5.240   1.915   4.255 -1.8672  0.5266  0.5713
 5618TIP3   OH216859   0.938   2.743   0.052 -0.0359  0.5025  0.0975
 5618TIP3    H116860   1.014   2.684   0.055 -0.1941  0.3105  0.4102
 5618TIP3    H216861   0.863   2.687   0.074 -0.0702  1.0201  1.3769
 5619TIP3   OH216862   4.857   5.432   4.948  0.2937  0.0171 -0.4038
 5619TIP3    H116863   4.769   5.460   4.922  0.0765 -0.2062  0.0860
 5619TIP3    H216864   4.915   5.476   4.886 -0.2876 -1.5873 -2.1538
 5620TIP3   OH216865   3.370   0.357   4.540 -0.2028  0.0027  0.2275
 5620TIP3    H116866   3.316   0.387   4.613 -1.1370 -0.7604 -0.1278
 5620TIP3    H216867   3.354   0.263   4.536 -0.8774  0.1493 -1.5103
 5621TIP3   OH216868   3.355   2.037   3.325  0.2636  0.2326  0.3281
 5621TIP3    H116869   3.343   1.942   3.320  0.3297  0.2802 -1.3894
 5621TIP3    H216870   3.399   2.060   3.243  1.7448  1.5572  1.4391
 5622TIP3   OH216871   1.567   4.070   3.046 -0.6732  0.3580  0.1848
 5622TIP3    H116872   1.614   3.987   3.042  0.6661  1.1321 -1.7356
 5622TIP3    H216873   1.550   4.084   3.139 -2.0508 -2.6177  0.5185
 5623TIP3   OH216874   3.091   1.471   1.964  0.3792 -0.0978  0.3927
 5623TIP3    H116875   3.057   1.414   2.032  2.7773  0.4110  2.1784
 5623TIP3    H216876   3.036   1.549   1.967 -0.8033 -0.9101  0.2854
 5624TIP3   OH216877   1.404   1.308   3.821  0.6814  0.0287 -0.0731
 5624TIP3    H116878   1.363   1.305   3.907 -0.4513  2.9762 -0.4043
 5624TIP3    H216879   1.495   1.282   3.837  0.2971 -0.2723  1.8258
 5625TIP3   OH216880   6.012   3.288   2.618  0.0372  0.1583 -0.4313
 5625TIP3    H116881   5.932   3.236   2.616  1.4335 -2.1152 -0.9953
 5625TIP3    H216882   6.040   3.287   2.709  0.0221 -0.0312 -0.4288
 5626TIP3   OH216883   2.526   3.896   2.726  0.1564  0.0738 -0.5376
 5626TIP3    H116884   2.597   3.841   2.694  0.7430 -0.1218  1.0265
 5626TIP3    H216885   2.499   3.855   2.809  1.2258  2.5751  1.1793
 5627TIP3   OH216886   0.480   0.871   4.286 -0.3546 -0.0155  0.1482
 5627TIP3    H116887   0.468   0.938   4.218 -2.3272 -0.6765 -0.2261
 5627TIP3    H216888   0.571   0.843   4.276  0.0518  1.5111 -0.7132
 5628TIP3   OH216889   1.085   3.679   3.376  0.2112 -0.7155  0.0508
 5628TIP3    H116890   1.050   3.655   3.290  2.4886 -2.1782 -0.5390
 5628TIP3    H216891   1.044   3.617   3.436  0.6205 -1.4161 -0.3873
 5629TIP3   OH216892   0.326   2.269   4.170 -0.1686  0.0705 -0.1815
 5629TIP3    H116893   0.260   2.320   4.216  1.1218  1.2446  0.4245
 5629TIP3    H216894   0.320   2.298   4.079  0.0361  0.7388  0.0160
 5630TIP3   OH216895   5.949   2.480   4.070 -0.0495 -0.1520  0.0392
 5630TIP3    H116896   5.916   2.549   4.127 -1.0250 -0.7094  0.1720
 5630TIP3    H216897   5.881   2.467   4.004  0.5326 -0.3496 -0.5474
 5631TIP3   OH216898   6.126   1.513   0.097  0.2408 -0.0220  0.7590
 5631TIP3    H116899   6.172   1.593   0.124  0.6723 -0.4618  1.3758
 5631TIP3    H216900   6.103   1.470   0.180  0.2484 -0.6581  0.4360
 5632TIP3   OH216901   4.300   3.033   1.170 -0.2520 -0.0997 -0.0379
 5632TIP3    H116902   4.388   3.001   1.149  0.4660  1.9526 -0.4311
 5632TIP3    H216903   4.244   2.956   1.165  1.3719 -1.2819 -0.7401
 5633TIP3   OH216904   3.866   3.263   3.893 -0.3846  0.1766  0.0634
 5633TIP3    H116905   3.866   3.282   3.800  1.3169 -1.8741 -0.4278
 5633TIP3    H216906   3.875   3.348   3.935  1.3331  0.9499 -1.7396
 5634TIP3   OH216907   0.180   1.066   3.403 -0.9342  0.5299  0.1895
 5634TIP3    H116908   0.169   1.118   3.324  0.4798  0.9154  0.2181
 5634TIP3    H216909   0.094   1.065   3.444 -1.6222  0.5385 -1.2139
 5635TIP3   OH216910   0.726   4.345   2.000 -0.5972 -0.2174  0.3801
 5635TIP3    H116911   0.773   4.300   1.929 -0.5717  0.4819 -0.0574
 5635TIP3    H216912   0.658   4.284   2.026 -1.0230 -0.2241 -0.6951
 5636TIP3   OH216913   0.064   2.142   3.978  0.5198  0.3356 -0.2347
 5636TIP3    H116914   0.051   2.136   4.072  0.2023  1.2338 -0.2119
 5636TIP3    H216915   0.147   2.188   3.968  0.3511  0.6069 -0.3934
 5637TIP3   OH216916   5.747   0.884   1.254 -0.5456 -0.5794 -0.1061
 5637TIP3    H116917   5.658   0.870   1.220 -0.7992 -0.8785  0.6795
 5637TIP3    H216918   5.744   0.973   1.290 -0.0498  0.0529 -1.5356
 5638TIP3   OH216919   6.085   5.880   4.452  0.4195  0.0543  0.3507
 5638TIP3    H116920   6.026   5.888   4.376  0.1906  1.9077  0.6710
 5638TIP3    H216921   6.165   5.924   4.424 -0.6687  3.4601  2.0855
 5639TIP3   OH216922   1.018   5.377   3.025 -0.5352  0.2860  0.2296
 5639TIP3    H116923   0.958   5.315   3.068 -0.2706  0.1673  0.4261
 5639TIP3    H216924   0.982   5.463   3.047 -0.8574  0.2078  0.0245
 5640TIP3   OH216925   6.317   4.163   2.004 -0.1840 -0.6620  0.2765
 5640TIP3    H116926   6.239   4.184   1.953  0.5916  0.3332 -0.5591
 5640TIP3    H216927   6.371   4.111   1.945 -0.1737 -1.2825  0.8216
 5641TIP3   OH216928   1.262   3.976   1.795 -0.3328 -0.2258  0.6049
 5641TIP3    H116929   1.260   4.010   1.884 -0.8843 -0.1275  0.5576
 5641TIP3    H216930   1.303   4.046   1.744 -0.8934  0.1169  0.6185
 5642TIP3   OH216931   1.765   0.742   1.489 -0.2790  0.2706 -0.3473
 5642TIP3    H116932   1.853   0.707   1.480  0.6301  1.7959  1.8826
 5642TIP3    H216933   1.725   0.689   1.558 -1.4226 -0.8636 -1.8092
 5643TIP3   OH216934   1.708   5.348   3.926  0.1909  0.1648 -0.2895
 5643TIP3    H116935   1.629   5.347   3.873  0.7798  0.9527 -1.2121
 5643TIP3    H216936   1.715   5.437   3.959  1.8076  0.7287 -1.9865
 5644TIP3   OH216937   1.732   1.323   3.051 -0.4548  0.1763 -0.1386
 5644TIP3    H116938   1.764   1.276   2.974 -0.2454 -0.8375  0.5490
 5644TIP3    H216939   1.654   1.276   3.078 -0.0488 -0.0057  0.7717
 5645TIP3   OH216940   2.122   1.746   4.175 -0.2934 -0.3066  0.4700
 5645TIP3    H116941   2.212   1.745   4.207  0.5234  0.6010 -1.6422
 5645TIP3    H216942   2.081   1.819   4.221  0.3328 -0.1158  0.7417
 5646TIP3   OH216943   5.584   4.524   0.242 -0.4432  0.0003  0.1856
 5646TIP3    H116944   5.648   4.454   0.231 -0.9726 -0.4746  0.1093
 5646TIP3    H216945   5.499   4.483   0.226 -0.6292  1.1622 -2.1721
 5647TIP3   OH216946   2.405   4.712   4.110  0.0983  0.4993 -0.1167
 5647TIP3    H116947   2.450   4.688   4.029 -0.4265 -0.5229 -0.1140
 5647TIP3    H216948   2.313   4.697   4.093 -0.0480  0.5497  0.5801
 5648TIP3   OH216949   1.206   4.877   3.505  0.4586  0.0505 -0.1063
 5648TIP3    H116950   1.123   4.873   3.552  1.0402  0.3908  0.9851
 5648TIP3    H216951   1.208   4.797   3.453  1.2099 -2.1138  2.9670
 5649TIP3   OH216952   2.282   0.364   5.034  0.2280 -0.6820 -0.4155
 5649TIP3    H116953   2.190   0.362   5.008  0.6606 -2.1559 -2.0858
 5649TIP3    H216954   2.327   0.317   4.963  2.0433 -1.4748  1.1808
 5650TIP3   OH216955   5.078   5.509   1.488  0.4419  0.6590 -0.2518
 5650TIP3    H116956   5.050   5.498   1.579  0.7791  0.3362 -0.1826
 5650TIP3    H216957   5.160   5.460   1.482 -0.9464 -1.6879 -1.4211
 5651TIP3   OH216958   4.238   1.805   1.604 -0.5213  0.1842  0.0510
 5651TIP3    H116959   4.201   1.854   1.678  0.1235 -1.0311  1.2356
 5651TIP3    H216960   4.162   1.777   1.554 -1.0851 -0.2597  1.1197
 5652TIP3   OH216961   4.302   0.206   4.009  0.3104  0.3787 -0.0414
 5652TIP3    H116962   4.319   0.262   3.933  0.0413 -0.0953 -0.4574
 5652TIP3    H216963   4.207   0.205   4.017  0.3144  0.0092 -0.0186
 5653TIP3   OH216964   0.217   2.766   0.085 -0.0730 -0.1439  0.1068
 5653TIP3    H116965   0.224   2.711   0.164  0.7030 -0.0935  0.0740
 5653TIP3    H216966   0.258   2.849   0.110  0.7929 -0.3645 -0.5644
 5654TIP3   OH216967   3.669   3.566   3.287  0.0995  0.3138  0.2789
 5654TIP3    H116968   3.686   3.594   3.197  0.1057  0.0745  0.2066
 5654TIP3    H216969   3.753   3.535   3.319 -0.1284 -0.5721  0.0259
 5655TIP3   OH216970   2.844   1.154   4.187  0.4072 -0.6480  0.5067
 5655TIP3    H116971   2.870   1.206   4.264  0.0275  0.1385  0.1213
 5655TIP3    H216972   2.818   1.069   4.223  0.1798 -0.2730  1.2590
 5656TIP3   OH216973   3.102   2.871   4.384 -0.2383 -0.2481  0.0408
 5656TIP3    H116974   3.180   2.886   4.439  1.1351 -1.2440 -1.5330
 5656TIP3    H216975   3.066   2.958   4.369  0.7218  0.2663  0.6048
 5657TIP3   OH216976   0.065   0.876   3.631 -0.3735 -0.6990 -0.3273
 5657TIP3    H116977   0.092   0.953   3.681 -2.2022  0.9718 -1.7719
 5657TIP3    H216978  -0.010   0.841   3.680 -0.6135 -0.5401 -0.5810
 5658TIP3   OH216979   5.922   5.495   0.280 -0.1533 -0.7042  0.1276
 5658TIP3    H116980   5.989   5.449   0.330 -0.1168 -0.5842  0.1898
 5658TIP3    H216981   5.893   5.432   0.214  0.3105 -0.6166 -0.1650
 5659TIP3   OH216982   4.426   3.818   5.154 -0.4473 -0.2714 -0.0518
 5659TIP3    H116983   4.394   3.776   5.074 -0.2674 -1.1114  0.3101
 5659TIP3    H216984   4.355   3.878   5.180 -0.1941  0.5822 -1.2479
 5660TIP3   OH216985   2.753   0.199   1.196 -0.3789 -0.2831  0.1968
 5660TIP3    H116986   2.662   0.184   1.222 -0.2754  1.6772  2.0321
 5660TIP3    H216987   2.805   0.160   1.266  0.2197 -1.3100 -0.7941
 5661TIP3   OH216988   2.705   1.237   3.552 -0.8246  0.0769 -0.2077
 5661TIP3    H116989   2.769   1.293   3.595 -0.8421  0.2843 -0.4497
 5661TIP3    H216990   2.753   1.194   3.482 -0.6172 -0.8162  0.4611
 5662TIP3   OH216991   5.270   4.563   5.161 -0.0388  0.0328  0.3745
 5662TIP3    H116992   5.331   4.611   5.217  0.3571 -1.3606  1.1962
 5662TIP3    H216993   5.310   4.477   5.151  0.1479  0.3512 -2.4903
 5663TIP3   OH216994   0.753   1.523   2.849  0.2630  0.4955  0.7371
 5663TIP3    H116995   0.718   1.571   2.923 -0.8828 -0.8163  1.1002
 5663TIP3    H216996   0.725   1.432   2.864  0.5779  0.0819 -0.9554
 5664TIP3   OH216997   2.645   0.253   2.434  0.1806 -0.2662  0.2276
 5664TIP3    H116998   2.708   0.307   2.483 -0.3117  2.0066 -1.4905
 5664TIP3    H216999   2.699   0.185   2.393  1.4889  1.2927 -0.7436
 5665TIP3   OH217000   1.300   2.928   4.524  0.0078 -0.5635 -0.5406
 5665TIP3    H117001   1.350   2.925   4.606  1.9467 -1.0032 -1.6880
 5665TIP3    H217002   1.241   3.002   4.535  1.1011  0.1625  0.7847
 5666TIP3   OH217003   3.123   5.954   2.844  0.4261  0.9882  0.3174
 5666TIP3    H117004   3.045   5.898   2.845  0.9120  0.2291 -1.4077
 5666TIP3    H217005   3.090   6.041   2.820 -0.1188  1.1245  1.4821
 5667TIP3   OH217006   0.133   5.736   1.738 -0.3671 -0.2345 -0.1895
 5667TIP3    H117007   0.185   5.656   1.735  0.3392  0.1380  1.0356
 5667TIP3    H217008   0.194   5.805   1.711 -0.3986  0.1100  0.5698
 5668TIP3   OH217009   1.904   4.382   4.178 -0.2928 -0.0391  0.6459
 5668TIP3    H117010   1.900   4.457   4.119 -2.3757 -1.4566 -1.2232
 5668TIP3    H217011   1.995   4.378   4.206  0.9290  0.6878 -2.6702
 5669TIP3   OH217012   5.199   3.498   0.654  0.4254 -0.6027 -0.1143
 5669TIP3    H117013   5.123   3.443   0.672  1.3461 -1.4796  1.3028
 5669TIP3    H217014   5.274   3.439   0.661  1.4523  0.7899  1.4742
 5670TIP3   OH217015   0.034   2.329   2.576 -0.2952  0.3766 -0.0623
 5670TIP3    H117016   0.109   2.356   2.629 -0.7483 -0.4907  1.0487
 5670TIP3    H217017   0.002   2.249   2.618 -1.5973  0.5064 -0.7633
 5671TIP3   OH217018   3.641   2.129   1.214 -0.3903 -0.4594 -0.2489
 5671TIP3    H117019   3.566   2.188   1.224  1.1662  1.3818  1.1981
 5671TIP3    H217020   3.671   2.113   1.303  0.4442 -1.8949 -0.7514
 5672TIP3   OH217021   6.315   4.553   3.083  0.0100 -0.3841  0.1080
 5672TIP3    H117022   6.273   4.474   3.051 -1.4917  0.8658 -1.1271
 5672TIP3    H217023   6.279   4.566   3.171 -1.0136 -0.1630 -0.3427
 5673TIP3   OH217024   0.576   0.531   1.410  0.1072 -0.1021 -0.1643
 5673TIP3    H117025   0.651   0.573   1.453 -0.0118 -2.9902  3.3354
 5673TIP3    H217026   0.500   0.561   1.460 -0.3888 -1.4297 -0.0919
 5674TIP3   OH217027   3.240   5.895   4.173 -0.2647  0.1011  0.1825
 5674TIP3    H117028   3.318   5.949   4.188 -0.4705  1.2653 -2.3285
 5674TIP3    H217029   3.243   5.875   4.079 -1.9837 -1.4876  0.4100
 5675TIP3   OH217030   4.041   4.358   2.489  0.0967  0.1256 -1.0072
 5675TIP3    H117031   4.123   4.313   2.470  0.7570  0.6181  0.5721
 5675TIP3    H217032   4.059   4.450   2.471  0.5999  0.5447  1.3569
 5676TIP3   OH217033   3.369   4.194   2.387 -0.0824  0.3244  0.0054
 5676TIP3    H117034   3.442   4.232   2.338 -0.4845  0.3643 -0.5754
 5676TIP3    H217035   3.407   4.168   2.471  0.5606  0.4967 -0.2273
 5677TIP3   OH217036   0.197   2.373   3.162  0.0711 -0.0528  0.1821
 5677TIP3    H117037   0.280   2.405   3.198  0.6785 -1.1579 -0.1954
 5677TIP3    H217038   0.219   2.290   3.120 -1.4426 -0.9456  1.0555
 5678TIP3   OH217039   3.858   3.128   2.608 -0.0371 -0.2806  0.1075
 5678TIP3    H117040   3.934   3.092   2.563 -1.3634 -0.5523 -2.1085
 5678TIP3    H217041   3.819   3.054   2.654  2.1034  0.2733  3.0600
 5679TIP3   OH217042   1.169   5.047   3.283 -0.6253  0.2005  0.8600
 5679TIP3    H117043   1.232   5.031   3.213 -1.7848 -0.4433 -0.0823
 5679TIP3    H217044   1.177   4.971   3.341 -0.8912 -0.1465  0.4498
 5680TIP3   OH217045   3.092   5.542   3.402  0.0658 -0.2288 -0.7590
 5680TIP3    H117046   3.187   5.537   3.409  0.0134 -0.3249 -0.0287
 5680TIP3    H217047   3.074   5.633   3.379  0.1851  0.7047  2.3634
 5681TIP3   OH217048   3.155   4.497   1.922 -0.2154 -0.4580  0.4725
 5681TIP3    H117049   3.237   4.476   1.968  0.2851 -2.7838 -1.2760
 5681TIP3    H217050   3.179   4.566   1.861 -0.0226  0.1473  1.2209
 5682TIP3   OH217051   3.071   4.470   2.502 -0.4937  0.0907 -0.2021
 5682TIP3    H117052   3.062   4.553   2.547  0.0147  0.3620 -0.5827
 5682TIP3    H217053   3.106   4.410   2.568  0.3183  0.5016 -0.2491
 5683TIP3   OH217054   0.061   2.938   4.774 -0.6542 -0.2268  0.2530
 5683TIP3    H117055   0.007   3.011   4.744 -1.2208 -1.1640 -1.1048
 5683TIP3    H217056   0.087   2.893   4.694 -0.2115 -1.4460  1.0527
 5684TIP3   OH217057   4.773   2.132   5.120  0.1024  0.2500  0.1794
 5684TIP3    H117058   4.831   2.193   5.077  0.3707 -0.3581 -0.3359
 5684TIP3    H217059   4.812   2.117   5.206  0.4704  0.1756 -0.0019
 5685TIP3   OH217060   0.808   3.706   1.285  0.9619 -0.2773 -0.7216
 5685TIP3    H117061   0.826   3.642   1.354 -1.9374  0.6034  1.0603
 5685TIP3    H217062   0.837   3.790   1.322 -1.2382  0.3039 -0.1563
 5686TIP3   OH217063   3.026   3.968   1.606 -0.1980 -0.4498  0.1302
 5686TIP3    H117064   3.083   4.018   1.665  0.0839  0.0149 -0.5247
 5686TIP3    H217065   2.941   4.011   1.613 -0.5476 -1.2718  1.2700
 5687TIP3   OH217066   1.288   4.233   1.627 -0.1506  0.3484  0.0537
 5687TIP3    H117067   1.252   4.290   1.695  2.9695 -0.1531  2.3104
 5687TIP3    H217068   1.321   4.293   1.560 -1.9689  0.8806 -0.4517
 5688TIP3   OH217069   2.029   0.890   1.804 -0.0585  0.1997  0.3595
 5688TIP3    H117070   1.935   0.877   1.798 -0.1224 -0.0698  1.7340
 5688TIP3    H217071   2.041   0.984   1.815 -0.1220  0.2908 -0.2814
 5689TIP3   OH217072   1.836   5.525   0.098 -0.3893  0.1082  0.2969
 5689TIP3    H117073   1.861   5.440   0.060 -2.2676 -0.4030  0.1387
 5689TIP3    H217074   1.857   5.589   0.031  2.2714 -0.0024  0.8893
 5690TIP3   OH217075   0.284   4.744   0.413  0.7413 -0.4271  0.4220
 5690TIP3    H117076   0.328   4.817   0.370  1.0780  0.3962  2.0597
 5690TIP3    H217077   0.328   4.666   0.378  0.0826  0.1016 -1.6628
 5691TIP3   OH217078   1.340   3.104   0.665 -0.0004  0.0804 -0.0028
 5691TIP3    H117079   1.276   3.035   0.684 -0.7267  0.5998 -0.5196
 5691TIP3    H217080   1.315   3.176   0.723  0.8014 -0.1026  0.5885
 5692TIP3   OH217081   5.923   3.017   1.665  0.3982 -0.4121 -0.7956
 5692TIP3    H117082   5.857   2.996   1.731  1.6018 -2.3000 -0.1217
 5692TIP3    H217083   5.885   3.091   1.617 -0.7266  0.7761  1.6908
 5693TIP3   OH217084   2.707   2.296   1.818  0.1505 -0.8717  0.0320
 5693TIP3    H117085   2.779   2.234   1.812  2.1900  1.2595  1.0025
 5693TIP3    H217086   2.676   2.289   1.908  0.7044 -0.1584  0.2813
 5694TIP3   OH217087   2.705   5.180   2.543 -0.3010 -0.2119 -0.0529
 5694TIP3    H117088   2.677   5.097   2.504 -0.5417  0.0993 -0.5575
 5694TIP3    H217089   2.628   5.236   2.540  0.0482  0.2636 -0.3670
 5695TIP3   OH217090   5.692   4.036   0.709 -0.0130 -0.1260 -0.1401
 5695TIP3    H117091   5.754   4.005   0.643  0.7317 -0.8407  0.8584
 5695TIP3    H217092   5.674   4.127   0.685  1.5308  0.1431 -0.3891
 5696TIP3   OH217093   1.190   1.666   0.802 -0.1860  0.0650 -1.0777
 5696TIP3    H117094   1.163   1.756   0.815 -0.3768 -0.0339 -0.7811
 5696TIP3    H217095   1.192   1.655   0.707 -1.2614  0.0507 -1.1083
 5697TIP3   OH217096   1.037   4.335   4.440  0.3101  0.1743 -0.4995
 5697TIP3    H117097   1.083   4.408   4.399 -0.8640  0.4580 -1.3732
 5697TIP3    H217098   1.103   4.267   4.451  0.9755  0.6375 -1.5439
 5698TIP3   OH217099   0.632   5.456   0.995  0.1049 -0.2132  0.3751
 5698TIP3    H117100   0.648   5.370   1.035 -0.6866 -0.0345  1.0953
 5698TIP3    H217101   0.540   5.475   1.014  0.0626  0.4554 -0.4443
 5699TIP3   OH217102   2.371   0.992   0.571  0.4515  0.4160  0.1635
 5699TIP3    H117103   2.336   0.950   0.649  1.2858 -0.4543  0.0927
 5699TIP3    H217104   2.459   1.021   0.596  2.0098 -2.5928 -1.2204
 5700TIP3   OH217105   3.798   3.251   3.232 -0.0885  0.5743 -0.9202
 5700TIP3    H117106   3.742   3.253   3.155 -0.6137 -0.4950 -0.5802
 5700TIP3    H217107   3.738   3.239   3.306  0.6456 -2.3266 -0.6893
 5701TIP3   OH217108   5.943   2.919   4.279  0.6766 -0.0463 -0.0054
 5701TIP3    H117109   6.027   2.932   4.235  2.1720 -0.6802  2.4812
 5701TIP3    H217110   5.914   3.007   4.303 -0.0480  0.2863 -1.9160
 5702TIP3   OH217111   3.631   3.941   1.848 -0.0678  0.1173  0.2480
 5702TIP3    H117112   3.558   3.914   1.903  0.3693 -1.2247  0.2052
 5702TIP3    H217113   3.597   3.940   1.759  0.5278 -2.6378 -0.0165
 5703TIP3   OH217114   5.685   4.701   0.060 -0.0820 -0.1640  0.0925
 5703TIP3    H117115   5.635   4.654   0.127 -0.0019 -1.9294 -1.0285
 5703TIP3    H217116   5.662   4.793   0.073 -1.3710 -0.6445  1.4572
 5704TIP3   OH217117   4.521   3.062   0.821  0.1631 -0.4503  0.2475
 5704TIP3    H117118   4.589   3.125   0.845  0.2957 -0.5369  0.1050
 5704TIP3    H217119   4.440   3.113   0.819  0.1768 -0.4053  0.7010
 5705TIP3   OH217120   2.024   1.981   4.291  0.3333 -0.4307  0.0572
 5705TIP3    H117121   2.001   2.018   4.376 -2.9560  0.8880 -1.2139
 5705TIP3    H217122   2.049   2.056   4.237 -4.8634  0.2113 -2.0904
 5706TIP3   OH217123   2.133   5.459   1.175 -0.0253  0.5174  0.1277
 5706TIP3    H117124   2.127   5.364   1.189 -0.7827  0.5504  0.0993
 5706TIP3    H217125   2.224   5.481   1.194  0.0708 -0.1613  0.4841
 5707TIP3   OH217126   4.644   0.180   2.302  0.0411  0.6597 -0.8734
 5707TIP3    H117127   4.701   0.137   2.237 -3.1431  0.2552 -3.6880
 5707TIP3    H217128   4.661   0.274   2.290  0.4964  0.5351 -1.2544
 5708TIP3   OH217129   1.629   4.340   4.603 -0.5485  0.0776 -0.5011
 5708TIP3    H117130   1.564   4.304   4.664 -0.3625  0.4128 -0.1055
 5708TIP3    H217131   1.631   4.433   4.622  0.6209 -0.0368  0.0430
 5709TIP3   OH217132   1.761   2.165   4.371  0.0322 -0.0491 -0.2471
 5709TIP3    H117133   1.808   2.168   4.455  2.4654 -0.5494 -1.5025
 5709TIP3    H217134   1.671   2.140   4.395  0.5871  0.0310  2.2071
 5710TIP3   OH217135   5.643   3.457   3.328  0.3652 -0.0225 -0.3169
 5710TIP3    H117136   5.645   3.393   3.258 -1.9077 -1.9185  1.2141
 5710TIP3    H217137   5.682   3.412   3.403 -0.3053  0.7559  0.5248
 5711TIP3   OH217138   0.965   3.468   2.433  0.2423 -0.0450 -0.4279
 5711TIP3    H117139   1.035   3.484   2.370  1.1615 -3.3031 -0.3801
 5711TIP3    H217140   1.010   3.451   2.515 -0.6052 -1.6744 -0.2702
 5712TIP3   OH217141   0.165   3.669   3.569  1.1062 -0.5247 -0.0032
 5712TIP3    H117142   0.160   3.650   3.663  1.9777 -0.1047  0.1445
 5712TIP3    H217143   0.156   3.764   3.563 -1.2457 -0.7243 -0.5672
 5713TIP3   OH217144   5.705   1.906   3.665 -0.1641 -0.0405 -0.2157
 5713TIP3    H117145   5.767   1.894   3.738 -0.0678  1.0899 -0.0897
 5713TIP3    H217146   5.761   1.924   3.589 -0.2870 -0.6623 -0.4585
 5714TIP3   OH217147   1.523   3.965   3.484  0.0229  0.7550 -0.2373
 5714TIP3    H117148   1.434   3.937   3.502 -0.6456  1.9991 -1.4085
 5714TIP3    H217149   1.562   3.893   3.434  0.0727 -0.2699  1.2139
 5715TIP3   OH217150   0.944   2.632   1.417  0.2851  0.5121 -0.2128
 5715TIP3    H117151   0.974   2.541   1.423 -0.5082  0.2598  0.0369
 5715TIP3    H217152   0.857   2.626   1.377  0.2455  1.1660 -0.2358
 5716TIP3   OH217153   1.781   5.307   1.034  0.5103 -0.0173 -0.5159
 5716TIP3    H117154   1.731   5.277   1.110  0.0605  0.3586 -0.6603
 5716TIP3    H217155   1.797   5.400   1.051 -2.3799  0.9375 -2.3364
 5717TIP3   OH217156   6.006   4.896   3.778 -0.0981 -0.0729  0.3270
 5717TIP3    H117157   5.990   4.802   3.774  0.5673 -0.2795  1.8990
 5717TIP3    H217158   6.088   4.905   3.826 -0.5438  1.3274  0.8894
 5718TIP3   OH217159   0.288   4.979   2.238  0.0642 -0.0386 -0.7887
 5718TIP3    H117160   0.287   4.985   2.143  2.1325  0.2686 -0.8366
 5718TIP3    H217161   0.260   5.065   2.268  1.1005  0.4314 -1.1513
 5719TIP3   OH217162   1.916   1.573   4.497  0.3217  0.0538 -0.1791
 5719TIP3    H117163   1.909   1.587   4.403  0.0897  1.0970 -0.0129
 5719TIP3    H217164   1.826   1.555   4.526  0.4540 -0.6906 -0.2158
 5720TIP3   OH217165   2.167   0.519   4.380  0.3762  0.0307  0.5255
 5720TIP3    H117166   2.188   0.445   4.438 -2.5335 -1.1049  0.2839
 5720TIP3    H217167   2.138   0.589   4.439  0.7467  0.1097  0.6158
 5721TIP3   OH217168   3.880   2.643   2.435 -0.5270  0.0612  0.3856
 5721TIP3    H117169   3.943   2.610   2.499 -1.2991  1.0001  1.6748
 5721TIP3    H217170   3.809   2.579   2.436 -1.1312  0.7172  1.4558
 5722TIP3   OH217171   4.672   1.270   0.582 -0.1089 -0.1586 -0.2547
 5722TIP3    H117172   4.682   1.361   0.555 -1.1149 -0.4741 -1.8165
 5722TIP3    H217173   4.676   1.273   0.678  1.2199  1.3348 -0.3156
 5723TIP3   OH217174   1.319   4.543   0.347 -0.3618  0.1365 -0.5988
 5723TIP3    H117175   1.226   4.522   0.342 -0.2479 -0.4474 -0.3444
 5723TIP3    H217176   1.345   4.514   0.435  0.4244 -1.2435 -1.2637
 5724TIP3   OH217177   3.465   0.264   0.089  0.6166  0.0743 -0.5924
 5724TIP3    H117178   3.491   0.278  -0.002  2.4931  0.8807 -0.0005
 5724TIP3    H217179   3.495   0.176   0.109  0.7354  0.1118 -0.6015
 5725TIP3   OH217180   3.433   1.961   1.961 -0.1576  0.3106 -0.4893
 5725TIP3    H117181   3.406   1.884   2.012  1.0765  0.8541  1.0823
 5725TIP3    H217182   3.452   1.926   1.874 -0.5676 -0.9954 -0.0841
 5726TIP3   OH217183   0.851   3.815   2.705 -0.9508 -0.2732 -0.1898
 5726TIP3    H117184   0.921   3.822   2.640 -1.3898  2.6684 -0.4749
 5726TIP3    H217185   0.770   3.824   2.654 -1.4266 -0.6517  0.4825
 5727TIP3   OH217186   4.280   4.815   0.568 -0.2622 -0.2974  0.4498
 5727TIP3    H117187   4.212   4.856   0.514  0.3158 -1.2383 -1.0699
 5727TIP3    H217188   4.361   4.831   0.520  0.8434  1.7837  2.7974
 5728TIP3   OH217189   5.867   4.360   2.100  0.3472  0.5634  0.6173
 5728TIP3    H117190   5.791   4.362   2.042 -0.0631 -0.6351  1.0801
 5728TIP3    H217191   5.898   4.450   2.101  0.3946  0.6227 -1.4717
 5729TIP3   OH217192   2.152   1.637   4.793 -0.1330 -0.2340 -0.2759
 5729TIP3    H117193   2.230   1.672   4.837 -0.2291  0.0268 -0.3083
 5729TIP3    H217194   2.079   1.686   4.832 -0.2753 -0.4364 -0.2874
 5730TIP3   OH217195   5.140   2.318   4.300  0.2450  0.6863 -0.4436
 5730TIP3    H117196   5.220   2.266   4.293 -0.3656 -0.1817 -1.2373
 5730TIP3    H217197   5.118   2.341   4.209 -0.0168  1.5328 -0.1785
 5731TIP3   OH217198   5.045   4.124   5.185 -0.0071 -0.5473 -0.2929
 5731TIP3    H117199   5.023   4.070   5.261 -0.8827  1.7902  1.2366
 5731TIP3    H217200   4.993   4.087   5.113 -1.3569 -1.1277  0.9358
 5732TIP3   OH217201   4.984   1.033   1.112 -0.4313  0.3093  0.2282
 5732TIP3    H117202   5.056   1.087   1.145 -0.3638 -0.0640  0.7052
 5732TIP3    H217203   4.905   1.076   1.145 -0.4141  0.5372 -0.0241
 5733TIP3   OH217204   3.040   5.794   1.261  0.4648 -0.0217  0.0575
 5733TIP3    H117205   3.089   5.737   1.202  0.3883  1.8618 -1.9722
 5733TIP3    H217206   3.085   5.878   1.255 -0.5229  0.6417  1.4623
 5734TIP3   OH217207   2.511   5.437   1.569 -0.1312  0.6207  0.1388
 5734TIP3    H117208   2.583   5.493   1.540 -0.0568  0.7192  0.5102
 5734TIP3    H217209   2.493   5.465   1.659 -0.1118  0.0689  0.3178
 5735TIP3   OH217210   0.363   4.253   4.584  0.7552 -0.4550  0.5206
 5735TIP3    H117211   0.350   4.214   4.671  0.7724 -0.3066  0.5908
 5735TIP3    H217212   0.423   4.326   4.600  1.7650 -1.1900  0.1863
 5736TIP3   OH217213   4.992   2.905   1.929  0.2016  0.1700  0.2348
 5736TIP3    H117214   4.959   2.906   1.839  2.1520 -0.4952 -0.5364
 5736TIP3    H217215   4.991   2.997   1.956 -0.7987  0.3316 -0.3008
 5737TIP3   OH217216   2.784   2.296   2.685  0.0633  0.1344 -0.0352
 5737TIP3    H117217   2.846   2.245   2.633  0.1968  1.8197 -1.6435
 5737TIP3    H217218   2.840   2.352   2.740 -0.0387  0.5981 -0.3998
 5738TIP3   OH217219   3.553   4.461   1.329  0.0660  0.1704  0.6821
 5738TIP3    H117220   3.507   4.377   1.334  2.5862 -1.6443 -2.3957
 5738TIP3    H217221   3.519   4.503   1.250  2.2976 -0.4759 -0.7435
 5739TIP3   OH217222   3.475   2.870   0.755  0.1419  0.1696 -0.2422
 5739TIP3    H117223   3.445   2.896   0.669  0.2244  2.2118  0.3048
 5739TIP3    H217224   3.533   2.795   0.739 -1.8311 -1.1387 -1.6748
 5740TIP3   OH217225   2.925   0.124   1.453 -0.2235 -0.2910  0.0815
 5740TIP3    H117226   2.947   0.064   1.524 -1.2092 -1.4138 -0.5197
 5740TIP3    H217227   2.992   0.109   1.387  1.5188  1.7473  1.2527
 5741TIP3   OH217228   5.304   3.250   2.438  0.1123  0.2593  0.1076
 5741TIP3    H117229   5.350   3.239   2.355 -0.0483 -0.8322  0.1390
 5741TIP3    H217230   5.302   3.344   2.453  0.3101  0.4562 -1.0332
 5742TIP3   OH217231   5.882   2.559  -0.028 -0.5620 -0.3935  0.0279
 5742TIP3    H117232   5.913   2.610   0.047 -0.6227 -0.7105  0.2711
 5742TIP3    H217233   5.815   2.501   0.008 -1.4682  0.2943 -0.4983
 5743TIP3   OH217234   3.247   4.799   5.030  0.3225 -0.2313 -0.7319
 5743TIP3    H117235   3.235   4.704   5.023  1.3692 -0.4259 -0.2168
 5743TIP3    H217236   3.261   4.814   5.123 -1.1502  0.6184 -0.6316
 5744TIP3   OH217237   5.076   5.008   1.074  0.7931  0.0949 -0.5770
 5744TIP3    H117238   5.069   5.103   1.083  0.3752 -0.0130  0.3614
 5744TIP3    H217239   5.100   4.994   0.982  0.4530  1.0874 -0.8295
 5745TIP3   OH217240   1.031   5.846   3.474  0.1852  0.0519  0.4468
 5745TIP3    H117241   1.081   5.871   3.396 -0.1950 -2.0936 -0.5750
 5745TIP3    H217242   0.951   5.806   3.439 -0.2251 -0.5232  1.9515
 5746TIP3   OH217243   2.223   3.875   2.828 -0.5946  0.4528 -0.0583
 5746TIP3    H117244   2.191   3.785   2.822  1.7812 -0.3625 -2.6262
 5746TIP3    H217245   2.308   3.867   2.871 -0.0624  1.3478 -0.9173
 5747TIP3   OH217246   2.208   3.222   2.561  0.4968  0.0255  0.2434
 5747TIP3    H117247   2.167   3.210   2.475 -0.4428  4.3386 -0.1732
 5747TIP3    H217248   2.138   3.206   2.624  0.6798 -1.3152  0.1297
 5748TIP3   OH217249   4.476   4.262   4.259  0.0034 -0.3610 -0.2148
 5748TIP3    H117250   4.473   4.355   4.237  0.4587  0.1376  1.6411
 5748TIP3    H217251   4.556   4.253   4.311 -0.2169 -1.7303 -0.0920
 5749TIP3   OH217252   3.925   1.069   0.402 -0.1609 -0.8386 -0.3149
 5749TIP3    H117253   3.881   1.145   0.366  0.2642 -1.0486 -1.2954
 5749TIP3    H217254   4.006   1.062   0.353  0.3694 -1.2234  0.5822
 5750TIP3   OH217255   6.286   5.997   2.757  0.1107 -0.3311  0.0788
 5750TIP3    H117256   6.324   5.921   2.715 -0.9501 -0.6495 -0.3475
 5750TIP3    H217257   6.242   5.963   2.835  1.6339  0.1881  1.2263
 5751TIP3   OH217258   5.258   2.189   1.455  0.4825 -0.5499  0.1875
 5751TIP3    H117259   5.269   2.168   1.362 -0.3353 -0.7183  0.1178
 5751TIP3    H217260   5.300   2.117   1.501 -0.7048 -1.4271 -0.0598
 5752TIP3   OH217261   0.080   3.982   3.724 -0.1634  0.2517  0.4130
 5752TIP3    H117262   0.050   4.020   3.807  0.9686  2.1469  0.0184
 5752TIP3    H217263   0.080   4.055   3.663 -1.3642 -1.2014 -1.4185
 5753TIP3   OH217264   6.254   0.023   2.063 -0.7919 -0.8518 -0.5977
 5753TIP3    H117265   6.242   0.117   2.054  0.7001 -0.5368  0.2859
 5753TIP3    H217266   6.169  -0.009   2.093 -0.4714  0.7415  2.4142
 5754TIP3   OH217267   5.696   3.754   1.600  0.3166  0.6177  0.3636
 5754TIP3    H117268   5.761   3.801   1.549  0.4823  0.7043  0.6496
 5754TIP3    H217269   5.640   3.822   1.637 -0.3840  0.5083 -0.4665
 5755TIP3   OH217270   0.867   1.737   3.168  0.2406  0.3022  0.3043
 5755TIP3    H117271   0.773   1.747   3.153  0.4481  0.5022 -0.9327
 5755TIP3    H217272   0.875   1.729   3.263 -1.2808 -2.3926  0.3099
 5756TIP3   OH217273   1.724   2.478   0.068 -0.0066 -0.0797  0.3952
 5756TIP3    H117274   1.803   2.521   0.034  0.1088 -0.6899 -0.1238
 5756TIP3    H217275   1.704   2.410   0.004 -1.7039  0.8842 -0.1845
 5757TIP3   OH217276   3.183   0.969   0.838 -0.1408  0.2923 -0.0141
 5757TIP3    H117277   3.198   0.917   0.917 -1.8452 -1.0809 -0.5224
 5757TIP3    H217278   3.088   0.986   0.838  0.0886  1.7635 -0.8754
 5758TIP3   OH217279   5.912   2.209   3.458 -0.4289  0.2371 -0.4142
 5758TIP3    H117280   5.847   2.155   3.412 -0.8193  2.5146 -2.8294
 5758TIP3    H217281   5.889   2.298   3.433  1.8727  1.3288  1.1175
 5759TIP3   OH217282   2.536   1.125   4.276 -0.0273 -0.0769  0.0879
 5759TIP3    H117283   2.575   1.058   4.219  0.9965  0.9917 -0.5198
 5759TIP3    H217284   2.486   1.181   4.216  1.2077  1.1672  0.1728
 5760TIP3   OH217285   3.895   3.144   4.602  0.4235  0.0075  0.0525
 5760TIP3    H117286   3.988   3.165   4.592  0.3244  1.0287  1.0748
 5760TIP3    H217287   3.894   3.050   4.618  1.0270 -0.5959 -2.8134
 5761TIP3   OH217288   4.787   4.595   3.691 -0.5140  0.2354 -0.0158
 5761TIP3    H117289   4.864   4.597   3.633 -1.9097 -0.3546 -2.0175
 5761TIP3    H217290   4.765   4.502   3.696 -0.9850  0.3850  0.7001
 5762TIP3   OH217291   3.272   2.839   4.726  0.2676  0.3225 -0.4752
 5762TIP3    H117292   3.324   2.874   4.654 -0.6556  0.1550 -1.2491
 5762TIP3    H217293   3.259   2.747   4.703 -0.6012  0.4317 -0.4435
 5763TIP3   OH217294   3.884   0.190   2.829  0.1432  0.1607 -0.1591
 5763TIP3    H117295   3.876   0.273   2.875 -0.3210 -0.7114  1.3970
 5763TIP3    H217296   3.977   0.181   2.812  0.1802  1.0608 -0.4790
 5764TIP3   OH217297   6.132   0.565   1.178 -0.0470 -0.1359  0.6988
 5764TIP3    H117298   6.092   0.555   1.091 -0.1238 -1.8989  0.8968
 5764TIP3    H217299   6.091   0.643   1.215 -1.5505 -0.5363 -0.0490
 5765TIP3   OH217300   1.761   1.646   3.825  0.3938  0.2360  0.0155
 5765TIP3    H117301   1.764   1.555   3.796  2.7340  0.4194 -0.5056
 5765TIP3    H217302   1.850   1.665   3.856  0.0358  2.4051 -0.1021
 5766TIP3   OH217303   6.154   4.367   2.199 -0.3079 -0.0387  0.0116
 5766TIP3    H117304   6.108   4.442   2.162  1.9796  1.4422 -0.0692
 5766TIP3    H217305   6.177   4.314   2.123  1.4499  1.2641 -0.4384
 5767TIP3   OH217306   3.333   3.243   1.417  0.1949  0.7145 -0.0239
 5767TIP3    H117307   3.241   3.255   1.440 -0.0872  1.2677 -1.3159
 5767TIP3    H217308   3.376   3.221   1.499 -1.6795 -3.3533  0.1329
 5768TIP3   OH217309   6.264   1.637   1.165 -0.2125 -0.5502 -0.0705
 5768TIP3    H117310   6.233   1.680   1.085 -0.5598 -2.4631 -1.0160
 5768TIP3    H217311   6.209   1.672   1.235 -0.8688  0.0894 -0.8963
 5769TIP3   OH217312   3.464   1.301   4.074  0.2763 -0.7104  0.4703
 5769TIP3    H117313   3.497   1.213   4.059  3.4168  0.2464  1.1095
 5769TIP3    H217314   3.473   1.316   4.168 -0.9526  0.0571  0.5000
 5770TIP3   OH217315   3.475   2.422   0.443  0.1043 -0.5590  0.1475
 5770TIP3    H117316   3.511   2.410   0.355 -1.4357 -1.9149 -0.3484
 5770TIP3    H217317   3.512   2.350   0.494 -2.6258 -2.7775 -0.6867
 5771TIP3   OH217318   4.750   0.486   2.530  0.0057 -0.3303  0.4309
 5771TIP3    H117319   4.720   0.486   2.439  1.0775 -1.3550  0.0508
 5771TIP3    H217320   4.798   0.404   2.539  1.5822  0.6486  1.3605
 5772TIP3   OH217321   1.461   4.494   1.647  0.4076 -0.2506 -0.2559
 5772TIP3    H117322   1.526   4.431   1.679  1.5029  1.2084  0.4997
 5772TIP3    H217323   1.487   4.577   1.686 -0.5037  0.8586 -1.9026
 5773TIP3   OH217324   5.466   2.606   1.783 -0.1541  0.2628 -0.6189
 5773TIP3    H117325   5.434   2.612   1.693  0.2538  0.3073 -0.7659
 5773TIP3    H217326   5.393   2.635   1.836 -1.3998 -2.4338 -0.7240
 5774TIP3   OH217327   2.861   4.695   0.484  0.5398  0.0334  0.2275
 5774TIP3    H117328   2.942   4.667   0.527 -0.0447  0.5150  1.7237
 5774TIP3    H217329   2.868   4.790   0.480 -0.6418  0.2359  1.9186
 5775TIP3   OH217330   3.965   3.342   0.892  0.1209  0.0895 -0.4811
 5775TIP3    H117331   4.023   3.403   0.846 -0.5258  0.7056 -0.5037
 5775TIP3    H217332   3.945   3.386   0.975 -0.6272  0.0651 -0.6450
 5776TIP3   OH217333   3.526   0.528   4.795 -0.3100 -0.1993 -1.3779
 5776TIP3    H117334   3.553   0.597   4.856  1.3367 -1.0283 -1.1070
 5776TIP3    H217335   3.466   0.572   4.735 -1.7746  0.7154  0.6301
 5777TIP3   OH217336   0.534   4.746   4.393  0.0973  0.2693  0.8428
 5777TIP3    H117337   0.470   4.809   4.425 -0.8569 -0.5767  0.6262
 5777TIP3    H217338   0.599   4.740   4.464  0.6075  2.0178  0.5708
 5778TIP3   OH217339   2.255   5.365   2.799  0.1303  0.4401  0.5416
 5778TIP3    H117340   2.193   5.433   2.770  0.3004  0.2531 -0.3017
 5778TIP3    H217341   2.303   5.342   2.719  2.9583  2.2656  1.5798
 5779TIP3   OH217342   1.756   1.162   2.634 -0.0064  0.0879 -0.5114
 5779TIP3    H117343   1.840   1.199   2.607  1.0562 -1.7580  0.1142
 5779TIP3    H217344   1.718   1.227   2.692  1.4458  0.5306 -0.0256
 5780TIP3   OH217345   0.212   4.193   5.200 -0.1735 -0.2734  0.0602
 5780TIP3    H117346   0.160   4.119   5.167 -0.0363 -0.8042  0.9803
 5780TIP3    H217347   0.229   4.247   5.123 -1.2561 -0.6036 -0.4317
 5781TIP3   OH217348   5.910   3.149   3.750 -0.9880  0.0119 -0.3411
 5781TIP3    H117349   5.993   3.175   3.710 -1.9706  0.5252 -2.1534
 5781TIP3    H217350   5.856   3.118   3.678 -1.9954 -1.4643  0.9607
 5782TIP3   OH217351   5.399   5.634   4.977 -0.3961  0.0169 -0.2288
 5782TIP3    H117352   5.325   5.616   5.036 -1.3652  0.3235 -1.3064
 5782TIP3    H217353   5.418   5.549   4.937 -0.9594  0.1626 -0.8227
 5783TIP3   OH217354   4.626   0.635   5.033 -0.1493  0.4089 -0.0832
 5783TIP3    H117355   4.590   0.723   5.017 -0.3460  0.2395 -0.5938
 5783TIP3    H217356   4.578   0.578   4.972  1.6086  0.3216 -1.4842
 5784TIP3   OH217357   1.467   5.765   3.259  0.0164  0.6731 -0.0581
 5784TIP3    H117358   1.559   5.740   3.270 -0.0148  0.9073  0.8789
 5784TIP3    H217359   1.425   5.687   3.224  0.1947 -0.1617  1.4815
 5785TIP3   OH217360   2.131   1.081   1.371 -0.2788  0.3591  0.2662
 5785TIP3    H117361   2.076   1.141   1.421 -0.4754 -0.1351  0.6560
 5785TIP3    H217362   2.082   1.063   1.291  0.4984  1.9713 -0.6193
 5786TIP3   OH217363   4.973   4.872   1.460 -0.0175 -0.2644  0.0812
 5786TIP3    H117364   4.923   4.815   1.402 -1.2909  2.1348 -1.3496
 5786TIP3    H217365   4.907   4.911   1.518  0.9835 -1.0688  1.8489
 5787TIP3   OH217366   4.823   4.267   2.101  0.3072  0.1879 -0.3415
 5787TIP3    H117367   4.788   4.343   2.148 -0.1557  0.4161 -1.0484
 5787TIP3    H217368   4.896   4.238   2.155 -0.9159 -0.2642  1.1482
 5788TIP3   OH217369   5.129   5.158   2.950 -0.2317 -0.0632 -0.1996
 5788TIP3    H117370   5.116   5.248   2.980 -0.2658 -0.3408  0.6396
 5788TIP3    H217371   5.051   5.111   2.979 -0.5131 -0.2271 -1.2043
 5789TIP3   OH217372   0.286   1.395   4.874  0.4180  0.3326  0.1249
 5789TIP3    H117373   0.313   1.419   4.785  1.8011 -0.3145  0.3276
 5789TIP3    H217374   0.369   1.390   4.923 -0.3532  1.0887  1.5628
 5790TIP3   OH217375   3.187   1.789   2.769  0.0707  0.3109 -0.9922
 5790TIP3    H117376   3.132   1.728   2.817  0.6531  1.0142  0.6671
 5790TIP3    H217377   3.131   1.825   2.701 -0.5243 -1.4034 -1.4504
 5791TIP3   OH217378   0.208   4.364   0.940  0.1850  0.0320 -0.8340
 5791TIP3    H117379   0.178   4.440   0.891  0.1208  0.2852 -0.4072
 5791TIP3    H217380   0.303   4.372   0.942  0.0933  1.2492  1.0024
 5792TIP3   OH217381   2.521   4.932   2.446 -0.2521 -0.3476  0.1998
 5792TIP3    H117382   2.584   4.876   2.492  0.2594  0.6724  0.7846
 5792TIP3    H217383   2.539   4.917   2.353  1.3079  0.3642  0.3450
 5793TIP3   OH217384   2.593   3.707   3.839 -0.3004  0.4590 -0.5608
 5793TIP3    H117385   2.546   3.707   3.922  2.9760  0.7866  1.4954
 5793TIP3    H217386   2.630   3.619   3.832 -1.2680  0.1484 -2.1898
 5794TIP3   OH217387   3.275   0.876   3.735  0.4524 -0.2063  0.8327
 5794TIP3    H117388   3.352   0.925   3.706  0.2460  0.0625  0.7382
 5794TIP3    H217389   3.293   0.786   3.709 -0.0414  0.1304 -0.7806
 5795TIP3   OH217390   3.237   1.202   1.859  0.1722  0.0875 -0.2758
 5795TIP3    H117391   3.178   1.274   1.833 -0.4323  0.1888  1.2789
 5795TIP3    H217392   3.223   1.135   1.792 -1.4566  0.2627 -0.1552
 5796TIP3   OH217393   0.526   4.090   1.495  0.2291 -0.5597  0.1857
 5796TIP3    H117394   0.435   4.068   1.479  0.7564 -0.9879 -2.9957
 5796TIP3    H217395   0.568   4.006   1.513  0.0968 -0.4398  1.0600
 5797TIP3   OH217396   0.611   2.343   4.785  0.4735  0.1011 -0.2237
 5797TIP3    H117397   0.553   2.314   4.856  1.6278 -0.5130  0.5061
 5797TIP3    H217398   0.599   2.278   4.716 -0.4921  0.5764 -0.5160
 5798TIP3   OH217399   6.132   2.131   3.850 -0.3607 -0.0385  0.2744
 5798TIP3    H117400   6.220   2.099   3.869  0.0722  0.4504 -0.7863
 5798TIP3    H217401   6.077   2.095   3.919  0.7297 -0.0714  1.1442
 5799TIP3   OH217402   4.041   2.350   0.473  0.1746 -0.3855  0.6619
 5799TIP3    H117403   4.089   2.270   0.496  0.3693 -0.5292 -0.2115
 5799TIP3    H217404   3.968   2.320   0.419  0.2321  0.0229  0.3494
 5800TIP3   OH217405   4.544   0.153   1.894  0.1253 -0.0071  0.0487
 5800TIP3    H117406   4.534   0.101   1.815  2.7551 -2.4702  1.1556
 5800TIP3    H217407   4.617   0.212   1.875  2.1255 -1.9697  1.1041
 5801TIP3   OH217408   1.204   3.733   1.402 -0.4928 -0.0283  0.1321
 5801TIP3    H117409   1.291   3.693   1.401 -0.4586  0.0447  0.2555
 5801TIP3    H217410   1.151   3.675   1.348 -0.0978  0.5284 -0.8886
 5802TIP3   OH217411   0.205   4.605   4.413  0.0770 -0.2299  0.8019
 5802TIP3    H117412   0.249   4.635   4.334 -0.7438  0.6592  0.6678
 5802TIP3    H217413   0.112   4.620   4.396 -0.0808  0.3764  2.1000
 5803TIP3   OH217414   3.877   4.377   1.045  0.5167  0.0740 -0.1635
 5803TIP3    H117415   3.891   4.390   0.951  1.5074  1.4444  0.1553
 5803TIP3    H217416   3.947   4.317   1.071  0.9070  0.5517 -0.1024
 5804TIP3   OH217417   4.122   4.603   3.835  0.0137 -0.4614 -0.0089
 5804TIP3    H117418   4.127   4.519   3.789 -1.2582 -0.0713 -0.9061
 5804TIP3    H217419   4.174   4.590   3.915 -0.3164 -2.1489 -0.0413
 5805TIP3   OH217420   5.623   2.083   1.130  0.2251  0.5365 -0.0296
 5805TIP3    H117421   5.668   2.029   1.195  0.1657  0.6689  0.1246
 5805TIP3    H217422   5.594   2.160   1.180  0.3918  0.7536 -0.2664
 5806TIP3   OH217423   2.333   3.761   1.778 -0.4879  0.0439  0.0064
 5806TIP3    H117424   2.370   3.848   1.766  0.8561 -0.8549 -3.1358
 5806TIP3    H217425   2.243   3.769   1.746 -0.1911  0.1792 -0.8201
 5807TIP3   OH217426   2.907   4.691   2.388  0.0844 -0.3437 -0.3143
 5807TIP3    H117427   2.921   4.725   2.476  0.0918 -0.5375 -0.2406
 5807TIP3    H217428   2.987   4.643   2.368 -0.0211 -0.5154 -0.3255
 5808TIP3   OH217429   6.303   1.842   2.290 -0.0623 -0.5792  0.0934
 5808TIP3    H117430   6.325   1.798   2.208  0.7821 -2.2059  1.1327
 5808TIP3    H217431   6.384   1.843   2.340 -0.5919  0.2483  0.9725
 5809TIP3   OH217432   3.705   0.227   3.625 -0.1898 -0.1370 -0.0908
 5809TIP3    H117433   3.688   0.302   3.568 -1.3275 -0.0703  0.3017
 5809TIP3    H217434   3.747   0.163   3.567 -0.0272  0.4576 -0.6495
 5810TIP3   OH217435   0.744   4.008   2.258 -0.0644  0.0855  0.7062
 5810TIP3    H117436   0.769   4.096   2.289 -0.3290  0.4161  0.0113
 5810TIP3    H217437   0.828   3.964   2.243  0.0900  0.4991  0.3043
 5811TIP3   OH217438   4.692   4.657   2.813  0.3291  0.5549  0.6145
 5811TIP3    H117439   4.689   4.752   2.796  0.5615  0.0973 -2.5282
 5811TIP3    H217440   4.783   4.633   2.795  0.0523 -0.4174  0.4951
 5812TIP3   OH217441   3.048   0.542   3.606  0.0544  0.2052 -0.3438
 5812TIP3    H117442   3.046   0.446   3.609  1.2807  0.1677  0.1709
 5812TIP3    H217443   2.964   0.567   3.568 -1.3746 -0.9608  1.8452
 5813TIP3   OH217444   4.650   3.371   1.179 -0.0568 -0.3639 -0.5526
 5813TIP3    H117445   4.608   3.455   1.195  1.4966  1.1413 -3.5128
 5813TIP3    H217446   4.728   3.372   1.235 -0.5746 -0.3255  0.1786
 5814TIP3   OH217447   0.388   0.261   4.637  0.9413  0.3290 -0.6036
 5814TIP3    H117448   0.374   0.282   4.545 -2.6598 -0.7517 -0.4572
 5814TIP3    H217449   0.371   0.343   4.683  2.5427  0.8178 -0.8236
 5815TIP3   OH217450   0.463   2.140   0.570  0.5399  0.3749 -0.0235
 5815TIP3    H117451   0.543   2.118   0.618  0.8579  1.2825 -0.1190
 5815TIP3    H217452   0.447   2.232   0.592  0.3999  0.6521 -1.2513
 5816TIP3   OH217453   1.066   4.363   2.168 -0.0269  0.0228 -0.5226
 5816TIP3    H117454   0.980   4.339   2.203 -0.7269  0.8578 -1.5974
 5816TIP3    H217455   1.080   4.302   2.096 -0.2955  0.6643 -1.1304
 5817TIP3   OH217456   1.098   3.844   4.864  0.2247 -0.4749  0.4506
 5817TIP3    H117457   1.032   3.817   4.800  0.5050 -1.1569  0.4389
 5817TIP3    H217458   1.172   3.784   4.849  1.2748  0.9227 -0.2402
 5818TIP3   OH217459   3.591   2.680   1.674  0.3953 -0.0491 -0.3489
 5818TIP3    H117460   3.551   2.597   1.698 -2.6240  1.0678 -1.1001
 5818TIP3    H217461   3.679   2.676   1.713 -0.4466 -2.5864  1.6050
 5819TIP3   OH217462   0.620   0.953   0.313 -0.1014  0.6993  0.0257
 5819TIP3    H117463   0.670   1.024   0.274  1.4051 -0.1320  0.3613
 5819TIP3    H217464   0.653   0.874   0.269 -2.4869  0.2451 -1.1208
 5820TIP3   OH217465   1.847   0.162   0.387 -0.2195 -0.5979  0.2335
 5820TIP3    H117466   1.856   0.147   0.292 -3.0448  0.1976 -0.2463
 5820TIP3    H217467   1.796   0.087   0.417 -1.5994  0.4551  0.5945
 5821TIP3   OH217468   4.766   2.988   4.108  0.0127  0.0058  0.3954
 5821TIP3    H117469   4.682   2.996   4.064 -1.5146 -0.9405  2.8928
 5821TIP3    H217470   4.788   2.895   4.102 -2.0768 -1.0078  4.3532
 5822TIP3   OH217471   1.086   4.740   0.306 -0.0130 -0.4113 -0.0048
 5822TIP3    H117472   1.165   4.708   0.263 -1.4060 -1.6077 -1.7870
 5822TIP3    H217473   1.114   4.822   0.348  1.7738  0.0927 -1.9889
 5823TIP3   OH217474   3.230   0.751   1.020 -0.3138  0.0395  0.4113
 5823TIP3    H117475   3.200   0.662   1.003  1.5032 -0.5752  0.2724
 5823TIP3    H217476   3.254   0.751   1.112  1.0929 -0.0634  0.0605
 5824TIP3   OH217477   6.302   4.950   2.416  0.0534  0.6821  0.3848
 5824TIP3    H117478   6.343   5.024   2.370  0.5811 -0.3200 -0.8006
 5824TIP3    H217479   6.299   4.978   2.508  2.4570  1.2331  0.3765
 5825TIP3   OH217480   2.446   4.994   3.985 -0.3773 -0.4328 -0.2239
 5825TIP3    H117481   2.416   4.910   4.021 -0.9296  0.3005  1.0784
 5825TIP3    H217482   2.498   5.033   4.055 -0.4433  0.5007 -0.6771
 5826TIP3   OH217483   6.320   1.088   2.748 -0.2203  0.6637 -0.0866
 5826TIP3    H117484   6.229   1.116   2.738 -0.0955  1.1485  0.0968
 5826TIP3    H217485   6.331   1.018   2.684 -0.7280  0.5931 -0.0984
 5827TIP3   OH217486   4.444   1.092   3.942 -0.5524  0.5617 -0.2712
 5827TIP3    H117487   4.492   1.105   3.860  0.1944  1.3131  0.2620
 5827TIP3    H217488   4.479   1.160   4.001 -2.1542  1.0178  0.1935
 5828TIP3   OH217489   5.680   5.385   3.393  0.0017  0.4129 -0.0804
 5828TIP3    H117490   5.684   5.479   3.410 -0.7258  0.4327 -0.0105
 5828TIP3    H217491   5.627   5.377   3.314  1.1071  0.1361 -0.8241
 5829TIP3   OH217492   0.162   4.565   4.793  0.1081  0.0591  0.7938
 5829TIP3    H117493   0.114   4.638   4.831  0.3321  0.5616  0.1498
 5829TIP3    H217494   0.187   4.510   4.867  0.1220  0.7546  1.3084
 5830TIP3   OH217495   4.026   0.540   4.869 -0.0140  0.2932  0.0305
 5830TIP3    H117496   4.044   0.526   4.962 -0.8560 -0.3158  0.1153
 5830TIP3    H217497   4.075   0.471   4.825 -1.3212 -0.7854  0.1961
 5831TIP3   OH217498   0.365   2.776   2.162  0.0999 -0.1153  0.4293
 5831TIP3    H117499   0.400   2.774   2.251  2.9948 -1.7207 -0.5865
 5831TIP3    H217500   0.404   2.855   2.123 -0.8939  0.4048  0.4637
 5832TIP3   OH217501   5.398   0.431   4.029  0.1924  0.1947 -0.8992
 5832TIP3    H117502   5.361   0.368   4.091 -0.0925  1.9695  0.8433
 5832TIP3    H217503   5.338   0.506   4.032  0.8149  0.8016 -2.4770
 5833TIP3   OH217504   5.152   5.956   0.171 -0.1732 -0.7707  0.0252
 5833TIP3    H117505   5.177   5.979   0.081  0.6884  0.0280  0.4528
 5833TIP3    H217506   5.234   5.932   0.214 -0.2546  0.7376  1.1198
 5834TIP3   OH217507   4.323   2.168   3.433 -0.2174 -0.3766 -0.3582
 5834TIP3    H117508   4.416   2.190   3.439 -0.4498  0.5686  0.0858
 5834TIP3    H217509   4.294   2.206   3.350 -0.2242 -0.6248 -0.4714
 5835TIP3   OH217510   0.858   1.286   0.917 -0.3431 -0.3997  0.2196
 5835TIP3    H117511   0.851   1.221   0.846 -2.1456 -2.0981  1.8373
 5835TIP3    H217512   0.841   1.370   0.875 -0.7822 -1.2798 -1.4508
 5836TIP3   OH217513   3.834   4.374   0.128  0.6524  0.4343  0.2907
 5836TIP3    H117514   3.859   4.362   0.036  0.0249  0.9784  0.0385
 5836TIP3    H217515   3.878   4.303   0.174  1.1973  0.3124 -0.3886
 5837TIP3   OH217516   2.353   1.301   4.485  0.1723  0.3320 -0.2110
 5837TIP3    H117517   2.323   1.326   4.572  1.2754  1.7341 -0.2062
 5837TIP3    H217518   2.273   1.298   4.432 -0.4301  0.0691  0.6891
 5838TIP3   OH217519   5.650   0.047   2.804  0.3060 -0.7190  0.6230
 5838TIP3    H117520   5.618  -0.039   2.775 -0.1917 -0.1197 -0.6671
 5838TIP3    H217521   5.744   0.034   2.818  0.3273 -1.3428 -0.0584
 5839TIP3   OH217522   3.596   4.233   2.222 -0.6724  0.1986 -0.1608
 5839TIP3    H117523   3.661   4.272   2.280 -1.3983 -0.6691  1.2789
 5839TIP3    H217524   3.632   4.244   2.134  0.6570  1.1433  0.4806
 5840TIP3   OH217525   0.689   5.010   4.282 -0.0842  0.4488  0.1567
 5840TIP3    H117526   0.642   4.928   4.294 -1.4287  1.1088 -0.3380
 5840TIP3    H217527   0.717   5.008   4.190 -0.9144  0.9211 -0.1167
 5841TIP3   OH217528   4.734   3.096   1.899  0.1840 -0.6075 -0.1203
 5841TIP3    H117529   4.805   3.160   1.893  1.3064 -1.6776  1.0631
 5841TIP3    H217530   4.726   3.060   1.810  1.7600 -1.1144 -0.0807
 5842TIP3   OH217531   3.938   1.041   3.120 -0.1303  0.2727  0.2739
 5842TIP3    H117532   4.011   0.985   3.093  0.2467  0.8803 -0.0042
 5842TIP3    H217533   3.973   1.094   3.191 -0.6854 -0.2984  0.9860
 5843TIP3   OH217534   4.559   1.296   2.109 -0.0050  0.6146  0.3342
 5843TIP3    H117535   4.555   1.215   2.058 -1.3285  0.4852  0.6101
 5843TIP3    H217536   4.512   1.361   2.057 -0.0781  0.8664  0.7036
 5844TIP3   OH217537   1.388   1.737   0.179 -0.2020 -0.2534 -0.0183
 5844TIP3    H117538   1.356   1.658   0.223 -2.2186 -1.1099 -2.7790
 5844TIP3    H217539   1.456   1.706   0.119 -1.6412 -0.1232 -1.7911
 5845TIP3   OH217540   1.961   3.763   3.112 -0.4792 -0.1555 -0.0157
 5845TIP3    H117541   1.994   3.673   3.107 -2.5022 -0.9708  0.4917
 5845TIP3    H217542   1.999   3.798   3.193 -1.5508 -1.3793  1.0500
 5846TIP3   OH217543   1.960   4.045   3.669 -0.3485  0.7485 -0.2145
 5846TIP3    H117544   1.929   4.067   3.756  2.1593 -0.3572  1.0632
 5846TIP3    H217545   2.015   4.119   3.643 -0.2631  0.6169 -0.4141
 5847TIP3   OH217546   6.378   0.378   2.176  0.7795  0.0833 -0.2270
 5847TIP3    H117547   6.286   0.397   2.196  0.7726  1.2934 -1.2340
 5847TIP3    H217548   6.374   0.325   2.096  0.9148 -1.5322  0.8059
 5848TIP3   OH217549   5.406   0.097   5.034 -0.1339 -0.3333  0.2268
 5848TIP3    H117550   5.326   0.054   5.063 -1.0108 -0.1237 -1.7159
 5848TIP3    H217551   5.477   0.043   5.068 -1.1731 -2.1995 -0.4505
 5849TIP3   OH217552   1.191   0.300   3.336  0.3674  0.2686  0.0906
 5849TIP3    H117553   1.130   0.245   3.386 -1.0370  0.2309 -1.5572
 5849TIP3    H217554   1.142   0.379   3.316  1.6754  1.2699  0.6462
 5850TIP3   OH217555   2.581   0.824   1.853  0.2232  0.1954 -0.3001
 5850TIP3    H117556   2.603   0.761   1.920  2.0333  0.2632 -0.7920
 5850TIP3    H217557   2.491   0.851   1.874  0.3860 -0.5290  1.4613
 5851TIP3   OH217558   4.428   0.890   1.043 -0.1439  0.1803 -0.2567
 5851TIP3    H117559   4.506   0.904   1.097  0.4612  0.2983 -1.1345
 5851TIP3    H217560   4.461   0.847   0.964 -0.8799  0.7447 -0.8877
 5852TIP3   OH217561   0.328   0.460   0.817 -0.3465 -0.1693  0.2747
 5852TIP3    H117562   0.317   0.438   0.725 -0.9214 -0.0796  0.3217
 5852TIP3    H217563   0.408   0.514   0.819 -0.0884 -0.5292 -0.1072
 5853TIP3   OH217564   3.722   2.851   5.020 -0.1801  0.2245 -0.4844
 5853TIP3    H117565   3.771   2.776   5.054 -0.2379  0.3109 -0.2086
 5853TIP3    H217566   3.751   2.925   5.074 -1.2192  0.1244  0.2498
 5854TIP3   OH217567   5.717   0.078   1.858  0.1380  0.1438 -0.0692
 5854TIP3    H117568   5.753   0.083   1.946  0.9035  0.1594 -0.3744
 5854TIP3    H217569   5.777   0.022   1.810 -1.4552 -1.6803 -0.0421
 5855TIP3   OH217570   4.133   5.479   4.800  0.2915 -0.5217 -0.2160
 5855TIP3    H117571   4.165   5.556   4.754 -1.5455  1.3981  1.5237
 5855TIP3    H217572   4.211   5.427   4.817  1.7255  1.4114 -0.6071
 5856TIP3   OH217573   3.284   3.429   3.775  0.0165  0.6548  0.1639
 5856TIP3    H117574   3.223   3.485   3.823  1.4642  1.6509  0.9251
 5856TIP3    H217575   3.368   3.476   3.779  0.9868 -0.9561 -0.3019
 5857TIP3   OH217576   0.133   3.113   4.426 -0.7819 -0.3410  0.2780
 5857TIP3    H117577   0.210   3.059   4.409 -1.1643 -1.6901  2.4396
 5857TIP3    H217578   0.135   3.180   4.358  2.4608 -0.1132  0.4399
 5858TIP3   OH217579   0.719   0.728   0.519  0.1894  0.1643  0.0556
 5858TIP3    H117580   0.677   0.791   0.460 -0.0898 -0.6030 -0.5917
 5858TIP3    H217581   0.740   0.779   0.597 -2.2617  0.5431  0.5760
 5859TIP3   OH217582   3.241   5.188   2.296  0.7404  0.3393 -0.0622
 5859TIP3    H117583   3.239   5.125   2.368  0.2096  2.1952  1.6196
 5859TIP3    H217584   3.301   5.256   2.324  2.3555  0.0084 -2.4237
 5860TIP3   OH217585   1.888   4.545   4.612 -0.2715 -0.0306  0.0665
 5860TIP3    H117586   1.811   4.599   4.630  0.3903  0.5972  1.0857
 5860TIP3    H217587   1.953   4.606   4.578  0.6853 -0.0208  1.7775
 5861TIP3   OH217588   2.133   1.958   1.563 -0.5094 -0.5017  0.0572
 5861TIP3    H117589   2.195   1.997   1.624 -0.4317 -2.1593  1.1140
 5861TIP3    H217590   2.184   1.891   1.517 -0.9605 -0.3146 -0.7371
 5862TIP3   OH217591   2.371   0.165   2.404  0.0514 -0.3841  0.1200
 5862TIP3    H117592   2.447   0.217   2.429  0.2003  0.6533 -2.1776
 5862TIP3    H217593   2.300   0.228   2.399 -0.2525 -0.7747 -0.6649
 5863TIP3   OH217594   4.976   0.444   3.933 -0.0817  0.6380  0.5957
 5863TIP3    H117595   4.978   0.413   4.024 -0.2971 -0.4747  0.2330
 5863TIP3    H217596   4.883   0.445   3.910  0.0028  0.4170  0.2291
 5864TIP3   OH217597   2.338   2.999   4.002  0.1323  0.1828 -0.7406
 5864TIP3    H117598   2.313   2.970   3.914 -1.3187 -0.5653 -0.1070
 5864TIP3    H217599   2.363   3.091   3.991  0.9107 -0.1595 -2.0886
 5865TIP3   OH217600   5.131   5.016   0.533  0.1945  0.4922  0.4053
 5865TIP3    H117601   5.088   5.075   0.596  1.0525  2.1360 -0.4609
 5865TIP3    H217602   5.164   5.075   0.466  0.9203 -1.0543 -0.6311
 5866TIP3   OH217603   5.199   1.074   0.644 -0.2237 -0.2216 -0.1250
 5866TIP3    H117604   5.248   0.992   0.635  0.7489  0.3716 -0.2951
 5866TIP3    H217605   5.246   1.124   0.710 -0.4930  0.4357 -0.4168
 5867TIP3   OH217606   2.794   3.730   0.891  0.3455  0.6894 -0.1051
 5867TIP3    H117607   2.861   3.798   0.885  1.0228 -0.1094 -2.4059
 5867TIP3    H217608   2.740   3.742   0.813 -1.7416  0.7848  1.2744
 5868TIP3   OH217609   1.536   2.445   5.067  0.3650  0.2389 -0.0034
 5868TIP3    H117610   1.509   2.511   5.002 -0.0136  1.4303  1.3263
 5868TIP3    H217611   1.562   2.496   5.143  2.2821 -1.0781  0.2833
 5869TIP3   OH217612   2.714   4.600   4.987 -0.1222 -0.3153 -0.1338
 5869TIP3    H117613   2.738   4.677   5.038  0.3407 -0.5872  0.0670
 5869TIP3    H217614   2.624   4.617   4.958 -0.1064  0.1894  0.1089
 5870TIP3   OH217615   0.528   2.834   0.217  0.0319  0.0741 -0.2472
 5870TIP3    H117616   0.508   2.858   0.307 -0.3924  1.1855 -0.6227
 5870TIP3    H217617   0.574   2.911   0.182  2.2447 -1.2029 -0.3184
 5871TIP3   OH217618   1.921   5.658   4.265 -0.5190 -0.0381 -0.3589
 5871TIP3    H117619   1.933   5.570   4.302  1.9355  1.1244  1.9371
 5871TIP3    H217620   1.826   5.667   4.256 -1.0333 -1.8606  2.1429
 5872TIP3   OH217621   2.742   0.562   2.008 -0.4971 -0.4973  0.1615
 5872TIP3    H117622   2.661   0.517   1.982 -0.4926 -0.5922  0.3118
 5872TIP3    H217623   2.724   0.595   2.096 -0.8729  0.6883 -0.3335
 5873TIP3   OH217624   2.190   5.724   1.401 -0.1197  0.2107  0.1293
 5873TIP3    H117625   2.152   5.745   1.316 -0.3744 -0.0255  0.1836
 5873TIP3    H217626   2.117   5.733   1.462  0.6654  3.3013  0.7866
 5874TIP3   OH217627   1.601   3.271   0.880  0.2567 -0.2780 -0.2740
 5874TIP3    H117628   1.626   3.179   0.879 -0.6828 -0.5496  0.4640
 5874TIP3    H217629   1.652   3.310   0.809 -0.8091 -1.7691 -1.9417
 5875TIP3   OH217630   5.725   3.268   5.045 -0.2192 -0.2308  0.3136
 5875TIP3    H117631   5.787   3.199   5.070  0.8554  0.0236 -1.4443
 5875TIP3    H217632   5.780   3.344   5.024 -1.1539  0.1931 -0.7337
 5876TIP3   OH217633   6.307   1.882   3.731  0.3125  0.2829  0.6397
 5876TIP3    H117634   6.249   1.953   3.703  0.7535  0.3543 -0.1092
 5876TIP3    H217635   6.248   1.815   3.765 -0.3374 -0.2535 -1.4501
 5877TIP3   OH217636   4.731   2.612   4.411 -0.4346 -0.5484  0.1002
 5877TIP3    H117637   4.665   2.547   4.437  0.0980 -2.2442 -2.3337
 5877TIP3    H217638   4.813   2.563   4.411 -0.2937 -0.6956 -3.8435
 5878TIP3   OH217639   5.282   1.170   2.075  0.2584 -0.2811 -0.0887
 5878TIP3    H117640   5.233   1.232   2.129  1.0227  1.2330 -1.0508
 5878TIP3    H217641   5.290   1.092   2.129 -0.0099  0.7507  1.5123
 5879TIP3   OH217642   2.667   3.122   0.430  0.2049 -0.4979 -0.0401
 5879TIP3    H117643   2.603   3.192   0.419  0.8645  0.2426  0.6615
 5879TIP3    H217644   2.720   3.150   0.505  0.8247 -1.4891 -0.0910
 5880TIP3   OH217645   2.431   4.122   3.064  0.0096  0.0592  0.0547
 5880TIP3    H117646   2.420   4.191   2.999  1.4725  0.2748 -0.0030
 5880TIP3    H217647   2.526   4.112   3.072 -0.1621 -0.7933  1.2802
 5881TIP3   OH217648   6.229   2.793   3.619  0.1259 -0.7386  0.5271
 5881TIP3    H117649   6.287   2.856   3.576 -0.4638 -0.2935  0.3713
 5881TIP3    H217650   6.226   2.719   3.559 -1.0251  0.0496 -0.4352
 5882TIP3   OH217651   1.638   5.711   0.660  0.1464 -0.7195 -0.6214
 5882TIP3    H117652   1.691   5.763   0.600 -0.9750  0.4259 -0.6576
 5882TIP3    H217653   1.696   5.690   0.733  0.5198  0.9609 -0.4004
 5883TIP3   OH217654   1.179   1.184   0.872 -0.2187 -0.2576  0.2762
 5883TIP3    H117655   1.179   1.099   0.828 -1.1188  0.0124 -0.2689
 5883TIP3    H217656   1.115   1.236   0.824 -1.4460 -0.0209  2.0290
 5884TIP3   OH217657   0.234   1.807   4.820  0.1977  0.6966 -0.7981
 5884TIP3    H117658   0.178   1.862   4.874  0.1868  0.5974 -0.7092
 5884TIP3    H217659   0.227   1.845   4.732 -1.7788 -0.6192 -1.2980
 5885TIP3   OH217660   3.782   1.833   4.865 -0.1978 -0.0306 -0.0720
 5885TIP3    H117661   3.834   1.879   4.931 -2.7092 -0.5250  2.4404
 5885TIP3    H217662   3.729   1.772   4.915 -1.5765 -1.1546 -2.7011
 5886TIP3   OH217663   4.034   1.485   4.415  0.1100  0.5733 -0.8632
 5886TIP3    H117664   4.078   1.499   4.332  0.7816 -5.2523 -1.9332
 5886TIP3    H217665   3.941   1.474   4.392 -0.2591  2.0991 -0.2454
 5887TIP3   OH217666   3.897   1.864   2.099 -0.6150 -0.1808  0.6799
 5887TIP3    H117667   3.941   1.871   2.184  1.8151 -0.4118 -0.4681
 5887TIP3    H217668   3.887   1.954   2.069  0.6897 -0.1778  0.2085
 5888TIP3   OH217669   1.417   3.745   0.034 -0.4317  0.4047 -0.2995
 5888TIP3    H117670   1.371   3.662   0.026  0.5774 -0.2565  0.5594
 5888TIP3    H217671   1.385   3.797  -0.040 -2.5571  0.0044  0.2695
 5889TIP3   OH217672   0.905   4.569   0.049  0.3189  0.7375 -0.5787
 5889TIP3    H117673   0.848   4.553   0.124 -0.5747  0.7649 -1.2466
 5889TIP3    H217674   0.869   4.647   0.007  0.9816  0.8940 -0.8833
 5890TIP3   OH217675   1.593   4.860   5.083  0.0726  0.2006 -0.0525
 5890TIP3    H117676   1.625   4.792   5.024  2.5823  0.7904  0.4976
 5890TIP3    H217677   1.510   4.888   5.045  0.7627 -0.6323 -2.3388
 5891TIP3   OH217678   4.300   1.974   1.384 -0.0364 -0.4823 -0.5484
 5891TIP3    H117679   4.295   1.981   1.479  1.0334 -0.4919 -0.4719
 5891TIP3    H217680   4.229   2.029   1.352  1.7234  2.4966  0.2291
 5892TIP3   OH217681   2.911   4.254   3.211  0.1445 -0.0046 -0.7766
 5892TIP3    H117682   2.846   4.190   3.238  1.1726 -0.7236  0.1047
 5892TIP3    H217683   2.935   4.300   3.292 -1.8918  2.8430 -1.6516
 5893TIP3   OH217684   1.719   4.633   1.938 -0.9331  0.1982 -0.1371
 5893TIP3    H117685   1.777   4.709   1.933 -0.7826  0.0184 -1.3724
 5893TIP3    H217686   1.776   4.562   1.969 -0.6674  0.1985 -0.6195
 5894TIP3   OH217687   5.880   0.223   0.160  0.3365  0.5130 -0.5680
 5894TIP3    H117688   5.928   0.141   0.170 -1.3762 -0.3527  1.4786
 5894TIP3    H217689   5.788   0.197   0.159 -0.3259  2.4095  1.2714
 5895TIP3   OH217690   2.927   0.101   2.685 -0.0596 -0.4166  0.1787
 5895TIP3    H117691   2.993   0.076   2.749 -0.4803 -0.0192  0.7815
 5895TIP3    H217692   2.877   0.171   2.728  0.2364  0.5170 -0.9242
 5896TIP3   OH217693   3.274   4.074   4.634 -0.0416  0.3801  0.3260
 5896TIP3    H117694   3.315   4.017   4.699  0.4189  0.8450  0.4506
 5896TIP3    H217695   3.244   4.150   4.684  0.7335  0.9530 -0.0752
 5897TIP3   OH217696   5.265   1.812   0.819  0.2365  0.0375  0.5427
 5897TIP3    H117697   5.223   1.829   0.735  0.1206  0.6570  0.7260
 5897TIP3    H217698   5.200   1.762   0.869 -0.2070  0.8129  0.7489
 5898TIP3   OH217699   3.992   0.665   2.038 -0.0743  0.4475  0.2149
 5898TIP3    H117700   3.945   0.584   2.018  1.5955 -0.4506 -0.3322
 5898TIP3    H217701   4.026   0.652   2.127  1.9530 -0.4091 -0.6241
 5899TIP3   OH217702   3.223   2.297   2.729 -0.5948 -0.3654 -0.4490
 5899TIP3    H117703   3.200   2.308   2.637  0.4320  1.4609 -0.5135
 5899TIP3    H217704   3.282   2.369   2.749  1.2700 -2.1629  0.9837
 5900TIP3   OH217705   2.584   4.578   1.396  0.0507  0.0733 -0.5894
 5900TIP3    H117706   2.594   4.517   1.323 -0.5878  0.5281 -1.0632
 5900TIP3    H217707   2.653   4.552   1.458 -1.5624 -2.5844  0.2542
 5901TIP3   OH217708   6.221   3.954   3.482  0.0911 -0.1546 -0.3539
 5901TIP3    H117709   6.204   3.896   3.556 -0.9255  0.1954 -0.3040
 5901TIP3    H217710   6.184   4.038   3.508  0.9499  0.3508 -0.7045
 5902TIP3   OH217711   3.768   2.687   4.484 -0.7191  0.1792  0.1117
 5902TIP3    H117712   3.827   2.743   4.433  0.7937 -2.2198 -0.9604
 5902TIP3    H217713   3.820   2.661   4.560 -1.2495 -0.1294  0.3751
 5903TIP3   OH217714   5.314   5.943   3.311  0.6609 -0.3326 -0.2964
 5903TIP3    H117715   5.279   5.858   3.337 -1.6654  0.6203  0.0273
 5903TIP3    H217716   5.312   5.995   3.391  0.1355  0.5862 -0.8828
 5904TIP3   OH217717   1.748   0.325   5.067  0.1809  0.0780 -0.5938
 5904TIP3    H117718   1.787   0.412   5.065  1.9900 -0.6689 -0.1942
 5904TIP3    H217719   1.736   0.306   5.160  0.9902 -0.5641 -0.6023
 5905TIP3   OH217720   4.224   0.862   2.329 -0.7561  0.0109  0.4837
 5905TIP3    H117721   4.298   0.923   2.329 -0.1272 -0.7372  0.2870
 5905TIP3    H217722   4.191   0.866   2.239 -1.4697  0.9371  0.7690
 5906TIP3   OH217723   4.131   4.574   1.113  0.0381  0.1785  0.5505
 5906TIP3    H117724   4.066   4.558   1.182 -1.5085 -0.2073 -0.9084
 5906TIP3    H217725   4.143   4.488   1.072  0.7227  0.4540  0.1595
 5907TIP3   OH217726   0.230   4.937   2.817 -0.3053 -0.1154 -0.9393
 5907TIP3    H117727   0.212   5.014   2.871  0.5009  0.9278 -2.0973
 5907TIP3    H217728   0.165   4.941   2.747  0.2832  0.0171 -1.4885
 5908TIP3   OH217729   0.231   5.898   0.341 -0.2569  0.0767  0.0720
 5908TIP3    H117730   0.163   5.948   0.386  1.5580  0.5156  2.5470
 5908TIP3    H217731   0.285   5.964   0.297 -0.9296 -0.2064 -1.2283
 5909TIP3   OH217732   4.238   0.964   2.920 -0.8377  0.0011 -0.0350
 5909TIP3    H117733   4.223   1.036   2.859 -0.4070  0.4993  0.4442
 5909TIP3    H217734   4.333   0.956   2.925 -0.8385  0.5807  1.2770
 5910TIP3   OH217735   2.860   0.756   1.707  0.0873  0.2331 -0.0183
 5910TIP3    H117736   2.876   0.850   1.718 -0.9032  0.5026 -0.7661
 5910TIP3    H217737   2.765   0.749   1.698  0.2214 -0.7509 -0.7852
 5911TIP3   OH217738   3.717   5.497   2.722 -0.0203  0.2432  0.2502
 5911TIP3    H117739   3.648   5.551   2.761 -0.6848  0.2925 -0.9532
 5911TIP3    H217740   3.751   5.445   2.795 -2.3913 -0.9205  0.6208
 5912TIP3   OH217741   5.362   1.126   4.165 -0.1243  0.0548 -0.7074
 5912TIP3    H117742   5.456   1.143   4.176 -0.1944 -0.8311  2.3019
 5912TIP3    H217743   5.319   1.206   4.194 -0.2785 -0.7078  1.3215
 5913TIP3   OH217744   0.222   0.440   1.928 -0.1905 -0.2747  0.1064
 5913TIP3    H117745   0.310   0.447   1.963  0.6732  2.1961 -2.2388
 5913TIP3    H217746   0.213   0.348   1.903  3.1352 -0.0024 -2.7654
 5914TIP3   OH217747   4.285   3.643   2.319 -0.0697 -0.0135  0.2738
 5914TIP3    H117748   4.230   3.697   2.262 -0.7465  0.9853  1.8107
 5914TIP3    H217749   4.250   3.657   2.407  2.3995  0.3845  1.2763
 5915TIP3   OH217750   5.059   3.795   4.318 -0.0054 -0.1098  0.1336
 5915TIP3    H117751   4.992   3.737   4.355 -0.8932  0.3408 -0.7114
 5915TIP3    H217752   5.142   3.753   4.340 -0.4731 -0.0244  2.3394
 5916TIP3   OH217753   4.279   0.961   1.443 -0.1515 -0.0043  0.4604
 5916TIP3    H117754   4.353   0.920   1.400 -0.2146 -0.7651  1.0666
 5916TIP3    H217755   4.313   0.992   1.527  0.4052  2.9667 -0.7126
 5917TIP3   OH217756   4.517   2.083   4.553 -0.4852 -0.3566 -0.0676
 5917TIP3    H117757   4.454   2.012   4.542 -0.0887 -1.0660  1.8958
 5917TIP3    H217758   4.501   2.117   4.640  0.8330  0.4755 -0.1105
 5918TIP3   OH217759   3.349   2.477   2.922  0.3421  0.7738  0.2866
 5918TIP3    H117760   3.286   2.444   2.986 -2.7131 -0.0755 -2.8340
 5918TIP3    H217761   3.299   2.542   2.871  1.6835 -0.3544 -2.7351
 5919TIP3   OH217762   4.237   4.411   1.899  0.3602 -0.3438  0.1796
 5919TIP3    H117763   4.177   4.374   1.835  0.0025  0.4589  0.0430
 5919TIP3    H217764   4.246   4.503   1.874  1.2333 -0.3244  0.5122
 5920TIP3   OH217765   0.944   5.318   4.095 -0.6052 -0.1764  0.5153
 5920TIP3    H117766   0.944   5.387   4.161  1.5694  0.5480 -0.1481
 5920TIP3    H217767   0.973   5.240   4.143  0.8046  0.3082  0.5089
 5921TIP3   OH217768   6.105   3.377   0.662 -0.9895 -0.6971  0.8217
 5921TIP3    H117769   6.063   3.362   0.577 -0.8997  0.0939  0.6272
 5921TIP3    H217770   6.189   3.332   0.656 -0.9508 -0.5771  0.4569
 5922TIP3   OH217771   4.488   3.431   3.583 -0.0773  0.6085 -0.0041
 5922TIP3    H117772   4.511   3.392   3.498  1.1442  1.9755 -0.3406
 5922TIP3    H217773   4.393   3.444   3.579 -0.0532  0.5311 -1.1179
 5923TIP3   OH217774   1.901   5.274   5.131 -0.2193 -0.4294  0.4178
 5923TIP3    H117775   1.974   5.222   5.096 -0.2670  1.1029 -2.1898
 5923TIP3    H217776   1.823   5.233   5.094 -0.3814  0.4216 -0.1897
 5924TIP3   OH217777  -0.004   2.429   3.831 -0.3888  0.2446 -0.7466
 5924TIP3    H117778   0.060   2.373   3.876 -0.0855 -0.6736 -2.2396
 5924TIP3    H217779   0.034   2.517   3.837 -0.8547  0.3451  1.6031
 5925TIP3   OH217780   3.226   2.202   4.195 -0.3215 -0.3660  0.3240
 5925TIP3    H117781   3.186   2.190   4.281 -1.6768  0.2567 -0.1913
 5925TIP3    H217782   3.197   2.289   4.168  2.8179  0.8957  0.6416
 5926TIP3   OH217783   5.611   4.933   0.667  0.1521  0.0375 -0.1669
 5926TIP3    H117784   5.521   4.903   0.677  0.1858 -0.4963 -1.2769
 5926TIP3    H217785   5.665   4.855   0.683  0.4388  0.4299  0.8176
 5927TIP3   OH217786   0.325   5.012   4.157  0.0971 -0.6595 -0.2215
 5927TIP3    H117787   0.325   4.940   4.093 -0.7768 -1.4227  0.6038
 5927TIP3    H217788   0.398   5.068   4.130  0.5957 -1.6831 -1.0792
 5928TIP3   OH217789   5.735   4.641   2.604 -0.0035 -0.0824  0.0274
 5928TIP3    H117790   5.782   4.597   2.533 -1.5293 -2.0844  0.1592
 5928TIP3    H217791   5.732   4.576   2.674 -2.0165  0.3202  0.3808
 5929TIP3   OH217792   0.537   1.697   1.060 -0.5675  0.7025  0.0497
 5929TIP3    H117793   0.489   1.751   0.996  1.1528  1.6576 -0.4968
 5929TIP3    H217794   0.554   1.757   1.133 -0.3909  0.3185  0.3232
 5930TIP3   OH217795   2.002   2.973   5.055 -0.3923  0.2437  0.5047
 5930TIP3    H117796   1.917   2.930   5.051 -1.4408  2.0984  1.5177
 5930TIP3    H217797   2.065   2.902   5.040 -2.0786 -1.1907 -0.2144
 5931TIP3   OH217798   6.123   2.694   2.993 -0.2253  0.1545 -0.0376
 5931TIP3    H117799   6.152   2.744   2.916  2.4127  0.5867  1.1324
 5931TIP3    H217800   6.125   2.602   2.963  0.2105  0.3530 -0.6498
 5932TIP3   OH217801   4.520   0.021   3.581 -0.0004  0.3439  0.1655
 5932TIP3    H117802   4.532   0.114   3.562  1.2761  0.1267 -0.1985
 5932TIP3    H217803   4.599  -0.021   3.546 -1.1176 -1.0470 -0.8331
 5933TIP3   OH217804   6.010   0.066   2.667  0.1084 -0.0238 -0.2652
 5933TIP3    H117805   5.953   0.038   2.738 -0.2158 -0.4494 -0.6920
 5933TIP3    H217806   6.056  -0.013   2.639  1.8535  0.5040  0.8747
 5934TIP3   OH217807   3.639   0.462   1.503  0.2946 -0.2694  0.0895
 5934TIP3    H117808   3.704   0.408   1.548 -0.2591  0.4378  1.8224
 5934TIP3    H217809   3.564   0.404   1.491  0.3960 -0.4259  0.2109
 5935TIP3   OH217810   2.601   5.373   4.207 -0.4922 -0.1693  0.1398
 5935TIP3    H117811   2.516   5.368   4.163  0.0906 -0.6588 -0.9839
 5935TIP3    H217812   2.618   5.467   4.215 -0.9092 -0.0693 -0.0990
 5936TIP3   OH217813   5.502   2.714   5.167  0.4968 -0.4264 -0.5326
 5936TIP3    H117814   5.571   2.777   5.149 -1.0563  1.4336 -0.3162
 5936TIP3    H217815   5.513   2.646   5.100  2.4121 -0.1341 -0.5762
 5937TIP3   OH217816   0.214   3.284   1.464 -0.5665 -0.2591  0.0758
 5937TIP3    H117817   0.239   3.196   1.493  0.7184  0.2684  0.6415
 5937TIP3    H217818   0.120   3.289   1.484 -0.4343 -1.1281  1.0416
 5938TIP3   OH217819   1.395   5.883   3.496 -0.3589 -0.0031  0.0325
 5938TIP3    H117820   1.353   5.955   3.449  1.1825  1.0476  0.1543
 5938TIP3    H217821   1.440   5.833   3.429  0.3118  0.4077  0.1658
 5939TIP3   OH217822   4.216   5.157   4.521 -0.6473  0.0380  0.0528
 5939TIP3    H117823   4.259   5.160   4.435  0.2007 -0.5830  0.4351
 5939TIP3    H217824   4.165   5.238   4.526 -0.6936  0.0843 -1.0257
 5940TIP3   OH217825   2.757   1.192   1.062  0.3472  0.5302 -0.5654
 5940TIP3    H117826   2.698   1.261   1.033  0.4128  1.2063  0.8084
 5940TIP3    H217827   2.711   1.151   1.135  0.1506 -1.1577 -1.5911
 5941TIP3   OH217828   3.832   0.237   4.603 -0.1843 -0.2771 -0.1567
 5941TIP3    H117829   3.867   0.287   4.676 -0.2700 -2.3593  1.3838
 5941TIP3    H217830   3.768   0.295   4.562 -1.2088  0.4476  2.3232
 5942TIP3   OH217831   3.916   2.792   4.294 -0.8453 -0.1561 -0.7466
 5942TIP3    H117832   3.946   2.836   4.215 -2.0289  1.9728 -0.0937
 5942TIP3    H217833   3.877   2.710   4.262 -1.4193  0.7078 -2.4072
 5943TIP3   OH217834   6.200   4.127   4.447  1.3443  0.0262  0.6044
 5943TIP3    H117835   6.207   4.216   4.412  0.6806 -0.5293 -1.0370
 5943TIP3    H217836   6.137   4.084   4.390  1.1410 -1.3107  1.7988
 5944TIP3   OH217837   0.177   2.094   1.556 -0.0632 -0.0953 -0.7208
 5944TIP3    H117838   0.177   2.040   1.478 -0.7451 -0.3381 -0.5534
 5944TIP3    H217839   0.102   2.152   1.546 -1.1832 -1.2542  0.5108
 5945TIP3   OH217840   2.636   0.034   0.184  0.1368 -0.3014  0.0870
 5945TIP3    H117841   2.688  -0.003   0.256  0.5000 -0.6654 -0.3601
 5945TIP3    H217842   2.655   0.128   0.188  0.6852 -0.4045  0.0478
 5946TIP3   OH217843   0.146   0.484   4.167 -0.1343  0.4082  0.2259
 5946TIP3    H117844   0.177   0.574   4.173  0.3863  0.1797  1.2262
 5946TIP3    H217845   0.072   0.488   4.106 -2.2576  2.1110  2.6517
 5947TIP3   OH217846   0.676   1.727   4.856  0.1061 -0.2570  0.1342
 5947TIP3    H117847   0.605   1.736   4.920  0.2297 -1.3395  0.4341
 5947TIP3    H217848   0.641   1.668   4.789  0.3222  0.1131 -0.3106
 5948TIP3   OH217849   4.878   2.874   0.185  0.5946  0.2869  0.3088
 5948TIP3    H117850   4.947   2.861   0.119 -0.4969 -3.5955 -0.3492
 5948TIP3    H217851   4.924   2.871   0.269  1.4711  0.1217 -0.1669
 5949TIP3   OH217852   1.085   4.409   3.136 -0.2484 -0.1323  0.3271
 5949TIP3    H117853   1.011   4.466   3.116 -0.1843  0.4776  1.6759
 5949TIP3    H217854   1.065   4.326   3.092 -0.9952  0.5024 -0.5507
 5950TIP3   OH217855   2.954   0.427   2.967 -0.3181 -0.1579 -0.2274
 5950TIP3    H117856   2.888   0.381   2.916 -0.3822  0.9822 -1.2175
 5950TIP3    H217857   2.904   0.466   3.039 -0.6950  0.4740 -0.8185
 5951TIP3   OH217858   0.039   5.362   4.479 -0.5552 -0.2227 -1.1309
 5951TIP3    H117859   0.128   5.332   4.462 -0.0030 -0.0209  1.0510
 5951TIP3    H217860   0.048   5.425   4.551 -2.4960 -0.3799 -0.6798
 5952TIP3   OH217861   5.957   3.988   4.282  0.0542 -0.7048  0.5855
 5952TIP3    H117862   5.951   3.897   4.252 -0.2229 -1.2598  2.2224
 5952TIP3    H217863   5.946   4.040   4.202 -0.6095 -2.0945 -0.2742
 5953TIP3   OH217864   6.205   4.013   4.075 -0.3545 -0.1223  0.2818
 5953TIP3    H117865   6.257   4.092   4.094  0.4612 -0.6514  0.2776
 5953TIP3    H217866   6.127   4.047   4.031 -0.3122  0.7431  0.8287
 5954TIP3   OH217867   5.624   2.717   4.415  1.0506  0.4281 -0.0977
 5954TIP3    H117868   5.663   2.728   4.502 -0.4633  0.3513  0.6124
 5954TIP3    H217869   5.696   2.684   4.362  1.4672 -1.8652  1.7012
 5955TIP3   OH217870   4.088   5.353   2.572  0.6268  0.9183  0.5615
 5955TIP3    H117871   4.180   5.331   2.585  0.3892 -0.0833  0.5851
 5955TIP3    H217872   4.072   5.334   2.479  0.3679  0.8220  0.6262
 5956TIP3   OH217873   2.566   3.312   4.120  0.5152  0.4466 -0.0655
 5956TIP3    H117874   2.638   3.259   4.085  1.3072  2.4207 -1.5982
 5956TIP3    H217875   2.590   3.329   4.211  0.7558 -0.8924  0.1482
 5957TIP3   OH217876   6.103   2.407   3.749 -0.0551 -0.0085  0.1823
 5957TIP3    H117877   6.092   2.314   3.769  0.7407 -0.8487 -2.7832
 5957TIP3    H217878   6.191   2.428   3.782  0.0313 -0.4930  0.2680
 5958TIP3   OH217879   4.274   1.473   0.127 -0.1337 -0.0829  0.4910
 5958TIP3    H117880   4.227   1.473   0.210  0.5804 -0.7342  0.9070
 5958TIP3    H217881   4.214   1.431   0.065 -0.5499  0.1370  0.7400
 5959TIP3   OH217882   2.976   1.783   4.734  0.2118  0.6134  0.3153
 5959TIP3    H117883   2.940   1.774   4.646 -2.4686 -1.1320  1.4588
 5959TIP3    H217884   3.045   1.716   4.739  0.8145  1.1566 -0.6334
 5960TIP3   OH217885   3.815   4.623   0.166  0.8594 -0.5956 -0.6642
 5960TIP3    H117886   3.839   4.534   0.141  1.4452 -0.4855 -0.5127
 5960TIP3    H217887   3.819   4.623   0.262  0.2930 -0.5615 -0.6391
 5961TIP3   OH217888   3.070   1.794   3.695  0.5267  0.3367 -0.1356
 5961TIP3    H117889   3.055   1.867   3.756 -0.8977 -0.1145  0.0999
 5961TIP3    H217890   3.005   1.729   3.720  1.0189 -0.5452 -1.0882
 5962TIP3   OH217891   1.989   1.757   3.925 -0.1885  0.1441 -0.0133
 5962TIP3    H117892   2.029   1.832   3.881  0.5268 -0.8225 -1.0833
 5962TIP3    H217893   2.034   1.751   4.009 -0.4027  1.0305  0.1693
 5963TIP3   OH217894   6.354   1.380   3.724 -0.4614  0.0412  0.2091
 5963TIP3    H117895   6.326   1.385   3.633 -1.6713  0.3487  0.5857
 5963TIP3    H217896   6.363   1.287   3.742 -1.0605 -0.0548  0.0233
 5964TIP3   OH217897   6.104   1.177   1.979  0.1166  0.0255  0.2214
 5964TIP3    H117898   6.199   1.165   1.982 -0.0655 -1.4056  1.0792
 5964TIP3    H217899   6.068   1.089   1.975 -1.2335  0.4720  1.4941
 5965TIP3   OH217900   3.700   2.945   1.597  0.4375  0.1638 -0.0050
 5965TIP3    H117901   3.609   2.949   1.626  0.7074  1.3766  0.6952
 5965TIP3    H217902   3.716   2.851   1.585 -0.4834 -0.1812  1.2134
 5966TIP3   OH217903   3.106   3.141   2.806 -0.2274 -0.1045  0.2393
 5966TIP3    H117904   3.058   3.072   2.761  1.4235 -1.0077 -0.2163
 5966TIP3    H217905   3.191   3.144   2.763  0.3528  1.0501  1.3818
 5967TIP3   OH217906   0.282   2.361   3.920  0.0360  0.0360 -0.5881
 5967TIP3    H117907   0.254   2.428   3.859  2.2822  0.4560 -1.2415
 5967TIP3    H217908   0.365   2.328   3.884 -0.2530 -2.0484  0.4861
 5968TIP3   OH217909   5.536   3.706   3.815 -0.1702 -0.2020  0.2038
 5968TIP3    H117910   5.485   3.779   3.850 -1.3824 -1.3555  0.9425
 5968TIP3    H217911   5.580   3.743   3.738 -0.8506  1.2620  0.4702
 5969TIP3   OH217912   0.208   0.958   0.221 -0.2410  0.2474 -0.1054
 5969TIP3    H117913   0.242   1.044   0.194  0.5482 -0.4159 -1.3278
 5969TIP3    H217914   0.257   0.938   0.301 -1.5947  1.6230  1.1224
 5970TIP3   OH217915   4.627   5.798   2.898 -0.6564 -0.0969 -0.2619
 5970TIP3    H117916   4.702   5.743   2.920  0.4120  1.0983 -0.7958
 5970TIP3    H217917   4.596   5.764   2.814 -0.4099 -0.2759 -0.2805
 5971TIP3   OH217918   3.895   5.961   0.205 -0.0948 -0.6821 -0.0192
 5971TIP3    H117919   3.964   5.904   0.171  0.1968 -0.5220  0.2987
 5971TIP3    H217920   3.839   5.902   0.256  0.4864 -0.6140  0.7281
 5972TIP3   OH217921   5.397   2.166   4.540 -0.1410 -0.0740 -0.2213
 5972TIP3    H117922   5.430   2.145   4.453  0.3422  0.9698 -0.2915
 5972TIP3    H217923   5.364   2.082   4.573 -0.8002 -0.3891 -1.5931
 5973TIP3   OH217924   6.322   1.181   3.073 -0.0048 -0.0941  0.1061
 5973TIP3    H117925   6.241   1.171   3.123  0.8542  0.3779  1.6664
 5973TIP3    H217926   6.297   1.164   2.983 -2.1580  1.5047  0.3291
 5974TIP3   OH217927   3.009   0.555   4.982  0.0133  0.2736 -0.0406
 5974TIP3    H117928   3.066   0.486   5.015 -1.0658 -0.5918  0.0825
 5974TIP3    H217929   2.952   0.576   5.055 -0.1368  0.7929 -0.3006
 5975TIP3   OH217930   2.805   5.151   1.916 -0.4548  0.1026  0.2387
 5975TIP3    H117931   2.812   5.057   1.932  0.7586  0.2919  0.9517
 5975TIP3    H217932   2.714   5.165   1.889 -0.0805 -1.6223 -2.2717
 5976TIP3   OH217933   3.107   1.553   4.742 -0.3918  0.0090  0.1126
 5976TIP3    H117934   3.189   1.518   4.775  0.2896  0.1562 -1.3857
 5976TIP3    H217935   3.046   1.479   4.747  0.6964 -1.0993 -1.8305
 5977TIP3   OH217936   4.436   1.364   1.582 -0.1073  0.5546  0.1188
 5977TIP3    H117937   4.429   1.387   1.675  2.5061  2.4742 -0.0305
 5977TIP3    H217938   4.356   1.398   1.543  0.1301  2.5747  1.2350
 5978TIP3   OH217939   3.024   3.036   1.507  0.3284 -0.3492 -0.3796
 5978TIP3    H117940   2.963   3.069   1.440  0.3999  0.1375 -0.2137
 5978TIP3    H217941   2.995   2.947   1.524 -1.4581  0.4157  0.9445
 5979TIP3   OH217942   6.320   4.919   0.972  0.6730  0.2672 -0.2832
 5979TIP3    H117943   6.389   4.894   1.033  3.3656  2.0851 -2.3304
 5979TIP3    H217944   6.323   4.851   0.904  0.0270  0.0439 -0.0928
 5980TIP3   OH217945   1.273   1.495   2.217 -0.5574 -0.4479  0.2465
 5980TIP3    H117946   1.274   1.501   2.313 -1.2903 -0.7999  0.2893
 5980TIP3    H217947   1.365   1.500   2.191 -0.2646 -1.3395  1.0397
 5981TIP3   OH217948   1.769   2.608   1.900  0.0518 -1.1730 -0.4106
 5981TIP3    H117949   1.768   2.592   1.994  0.3899  0.9263 -0.0067
 5981TIP3    H217950   1.689   2.565   1.868 -0.0900 -1.8743  0.8235
 5982TIP3   OH217951   4.284   5.160   3.145  0.3451 -0.2727 -0.2728
 5982TIP3    H117952   4.198   5.118   3.138 -0.4942  1.5416 -1.4700
 5982TIP3    H217953   4.324   5.147   3.059  2.2624 -2.9605  0.8778
 5983TIP3   OH217954   3.456   3.250   5.025 -0.2061  0.6206  0.6308
 5983TIP3    H117955   3.478   3.172   4.974 -1.4493 -0.0838  1.1459
 5983TIP3    H217956   3.378   3.226   5.074  0.8559  1.3227  2.7769
 5984TIP3   OH217957   6.131   1.913   3.268  0.0944 -0.2277  0.4570
 5984TIP3    H117958   6.204   1.891   3.211 -0.9471 -0.7568 -0.6954
 5984TIP3    H217959   6.122   2.008   3.259 -1.2366 -0.5083 -1.7667
 5985TIP3   OH217960   3.553   2.506   2.033  0.1940  0.1618 -0.2968
 5985TIP3    H117961   3.539   2.468   1.946  0.4894 -1.0869  0.1853
 5985TIP3    H217962   3.495   2.457   2.091 -0.2757  1.2383  0.1715
 5986TIP3   OH217963   4.028   4.864   0.421 -0.9745  0.3939 -0.3371
 5986TIP3    H117964   4.035   4.786   0.366  0.1474  0.0899  0.2177
 5986TIP3    H217965   3.944   4.853   0.466 -1.6166  0.3445 -1.5093
 5987TIP3   OH217966   6.160   0.701   4.061 -0.1305  0.6152  0.1295
 5987TIP3    H117967   6.091   0.719   4.125  2.1931  1.4279  2.5675
 5987TIP3    H217968   6.179   0.608   4.072 -0.5543  0.4747 -0.2847
 5988TIP3   OH217969   4.372   0.465   0.805  0.3979 -0.0760 -0.0627
 5988TIP3    H117970   4.406   0.554   0.795  0.7310 -0.0724  0.9901
 5988TIP3    H217971   4.342   0.461   0.896  2.1490 -1.6240  0.5105
 5989TIP3   OH217972   3.798   2.898   2.445  0.7729  0.6117 -0.0009
 5989TIP3    H117973   3.768   2.908   2.535 -2.7850 -2.9233 -0.5588
 5989TIP3    H217974   3.852   2.819   2.446  0.6581  0.5084 -0.9741
 5990TIP3   OH217975   4.891   0.190   2.127  0.2050  0.4618  0.4312
 5990TIP3    H117976   4.921   0.168   2.039 -1.9675 -1.5376  0.0958
 5990TIP3    H217977   4.903   0.285   2.134 -0.0240  0.7389 -2.2037
 5991TIP3   OH217978   4.929   0.348   1.440  0.0234  0.1748 -0.3968
 5991TIP3    H117979   4.847   0.300   1.452 -1.5514  2.9039  0.7562
 5991TIP3    H217980   4.967   0.354   1.528  1.6698 -1.2812 -0.9545
 5992TIP3   OH217981   5.988   0.650   2.922 -0.0283 -0.2378 -0.1852
 5992TIP3    H117982   5.913   0.601   2.888  0.0209  0.0907 -0.7735
 5992TIP3    H217983   6.002   0.721   2.859 -0.0754  0.5216  0.6421
 5993TIP3   OH217984   3.211   4.774   3.164 -0.0908 -0.1502  0.3302
 5993TIP3    H117985   3.275   4.766   3.235  0.5200 -0.6828 -0.2645
 5993TIP3    H217986   3.181   4.684   3.148 -0.0224 -0.0713 -0.2639
 5994TIP3   OH217987   2.387   2.232   4.584 -0.3334 -0.0316  0.6303
 5994TIP3    H117988   2.334   2.191   4.516  0.2396 -1.8259  1.1899
 5994TIP3    H217989   2.459   2.274   4.538 -0.7929  0.1250  0.0494
 5995TIP3   OH217990   2.092   5.090   2.448 -0.3036 -0.3070 -0.0039
 5995TIP3    H117991   2.162   5.154   2.433 -0.9201  0.2439 -0.5745
 5995TIP3    H217992   2.084   5.044   2.364 -1.3831  0.3930 -0.2956
 5996TIP3   OH217993   3.500   5.570   1.828  0.5598 -0.2807  0.5550
 5996TIP3    H117994   3.590   5.598   1.846  1.7056 -0.9787 -3.2936
 5996TIP3    H217995   3.463   5.643   1.778 -0.9772 -0.1722  1.7718
 5997TIP3   OH217996   2.847   2.483   1.657  0.0675  0.5270  0.4005
 5997TIP3    H117997   2.825   2.410   1.714 -0.5636  0.3929 -0.0030
 5997TIP3    H217998   2.926   2.455   1.612  0.7194  0.7407  1.3863
 5998TIP3   OH217999   6.244   5.152   3.996 -0.1644 -0.2105  0.2772
 5998TIP3    H118000   6.292   5.127   3.917 -0.2709  0.5870 -0.0515
 5998TIP3    H218001   6.311   5.167   4.062  0.2173  2.2068 -0.5341
 5999TIP3   OH218002   4.917   4.910   2.654 -0.1094 -0.2912  0.2232
 5999TIP3    H118003   4.995   4.965   2.655 -0.3266  0.0162  1.0857
 5999TIP3    H218004   4.940   4.836   2.710  1.1738 -2.5457 -2.9729
 6000TIP3   OH218005   0.867   3.564   0.027 -0.1599 -0.3522  0.4227
 6000TIP3    H118006   0.863   3.643   0.081 -0.4051 -2.0316  3.0686
 6000TIP3    H218007   0.952   3.570  -0.018 -1.0242  2.2954 -1.0518
 6001TIP3   OH218008   4.755   3.165   0.177  0.2773 -0.3865  0.3406
 6001TIP3    H118009   4.730   3.253   0.150  2.3977  0.0512 -0.4522
 6001TIP3    H218010   4.774   3.119   0.095  0.9657 -0.9673  0.8074
 6002TIP3   OH218011   6.101   3.756   2.568 -0.0430 -0.5722 -0.0902
 6002TIP3    H118012   6.061   3.679   2.528 -0.9989  0.0357 -0.3277
 6002TIP3    H218013   6.041   3.781   2.637  1.3076 -1.2642  1.3950
 6003TIP3   OH218014   5.641   3.596   5.107  0.0096 -0.1732 -0.1282
 6003TIP3    H118015   5.706   3.540   5.065  0.3588  0.6892 -0.7773
 6003TIP3    H218016   5.693   3.662   5.152 -0.3999  0.9165 -1.2005
 6004TIP3   OH218017   5.103   2.931   3.272 -0.0480  0.0406 -0.1748
 6004TIP3    H118018   5.115   2.908   3.364  0.6143 -0.8644 -0.4689
 6004TIP3    H218019   5.015   2.898   3.251 -0.2344  0.3253  0.1478
 6005TIP3   OH218020   4.458   0.695   2.170  0.4886  0.4225  0.2117
 6005TIP3    H118021   4.484   0.778   2.129 -0.3034  0.2902 -0.6071
 6005TIP3    H218022   4.466   0.710   2.264  1.1783  1.1463  0.0419
 6006TIP3   OH218023   6.194   5.971   1.053  0.2519 -0.2226  0.3500
 6006TIP3    H118024   6.230   5.912   1.119  1.0954 -1.8305 -1.4509
 6006TIP3    H218025   6.266   6.027   1.028  0.8147 -1.5609 -1.2230
 6007TIP3   OH218026   6.194   1.454   0.851 -0.1718  0.0616  0.5038
 6007TIP3    H118027   6.155   1.542   0.848 -1.6540 -0.4651  2.4341
 6007TIP3    H218028   6.187   1.422   0.761 -2.3592  0.8127  0.3419
 6008TIP3   OH218029   5.721   2.069   2.134  0.4453 -0.2186  0.3829
 6008TIP3    H118030   5.754   2.034   2.052  0.1012  1.8700 -0.7334
 6008TIP3    H218031   5.645   2.123   2.108  0.2818  0.4325  2.0682
 6009TIP3   OH218032   5.271   4.760   4.088  0.6388 -0.5687 -0.4715
 6009TIP3    H118033   5.350   4.709   4.068  1.8328  0.8508  0.4502
 6009TIP3    H218034   5.254   4.809   4.007  0.2238 -1.4388 -0.9308
 6010TIP3   OH218035   5.059   5.791   2.858  0.0097  0.8341 -0.3708
 6010TIP3    H118036   5.123   5.782   2.788 -0.0432  0.6226 -0.3930
 6010TIP3    H218037   5.089   5.866   2.910  0.9153  0.0038  0.3151
 6011TIP3   OH218038   3.291   4.908   3.402 -0.0750  0.4762  0.2172
 6011TIP3    H118039   3.273   4.993   3.361 -3.6831 -1.0220 -1.7409
 6011TIP3    H218040   3.258   4.917   3.492 -0.2680  1.1707  0.0810
 6012TIP3   OH218041   2.581   4.874   1.758 -0.2347 -0.2934  0.4267
 6012TIP3    H118042   2.534   4.875   1.841  0.1582 -1.2062  0.6770
 6012TIP3    H218043   2.668   4.841   1.780 -0.0128 -0.1931 -0.2848
 6013TIP3   OH218044   1.900   3.359   3.679  0.0721  0.0650 -0.1979
 6013TIP3    H118045   1.807   3.379   3.679  0.0283  0.0142 -1.8247
 6013TIP3    H218046   1.913   3.303   3.603  1.3657 -0.2706  0.2395
 6014TIP3   OH218047   1.340   3.440   2.724  0.0410 -0.4177 -0.0461
 6014TIP3    H118048   1.246   3.459   2.727 -0.3330 -2.0558 -0.3556
 6014TIP3    H218049   1.369   3.477   2.640 -0.4552 -0.4057 -0.2171
 6015TIP3   OH218050   4.509   0.611   4.187 -0.4556  0.2733 -0.0041
 6015TIP3    H118051   4.555   0.611   4.271 -0.4771 -0.0345  0.0087
 6015TIP3    H218052   4.418   0.589   4.209 -0.4188 -0.0051 -0.1304
 6016TIP3   OH218053   3.604   1.306   0.651 -0.5264 -0.2805 -0.1654
 6016TIP3    H118054   3.607   1.285   0.744 -1.1483 -0.3691 -0.1660
 6016TIP3    H218055   3.588   1.223   0.608  0.3885 -0.3442 -0.4028
 6017TIP3   OH218056   5.737   4.294   0.183  0.2971 -0.2306  0.5239
 6017TIP3    H118057   5.798   4.221   0.186  0.1193 -0.3862  0.3791
 6017TIP3    H218058   5.688   4.280   0.102  0.1817 -0.0164  0.5572
 6018TIP3   OH218059   1.892   1.380   3.757  0.1190  0.7162  0.2740
 6018TIP3    H118060   1.882   1.352   3.666  1.1842 -0.6609  0.5570
 6018TIP3    H218061   1.986   1.384   3.771 -0.0173 -0.1861  1.6268
 6019TIP3   OH218062   1.514   2.062   4.496 -0.2043 -0.0281 -0.0809
 6019TIP3    H118063   1.463   2.140   4.516 -0.2761 -0.1456  0.2096
 6019TIP3    H218064   1.528   2.021   4.582 -0.8518 -0.7580 -0.3122
 6020TIP3   OH218065   2.269   2.039   2.962 -0.2764 -0.1307  0.3433
 6020TIP3    H118066   2.272   1.946   2.940  0.7066  0.0250 -0.3029
 6020TIP3    H218067   2.296   2.083   2.881 -0.0638  0.6734  0.8369
 6021TIP3   OH218068   1.036   1.263   0.403  0.1619  0.0799 -0.1449
 6021TIP3    H118069   1.064   1.284   0.492 -0.4842 -0.4124  0.1757
 6021TIP3    H218070   0.942   1.248   0.410 -0.1914  1.5714 -1.1869
 6022TIP3   OH218071   1.947   1.436   5.040 -0.0283 -0.1743 -0.1479
 6022TIP3    H118072   1.859   1.408   5.015  0.2613 -0.6187 -0.7061
 6022TIP3    H218073   1.975   1.494   4.969  0.6581 -1.1399 -0.6795
 6023TIP3   OH218074   3.612   0.737   0.548  0.6129 -0.0544 -0.0033
 6023TIP3    H118075   3.574   0.822   0.571 -1.0346 -0.1111 -2.1186
 6023TIP3    H218076   3.672   0.756   0.476 -1.0352 -0.7880 -1.6572
 6024TIP3   OH218077   1.306   2.809   3.865  0.3886 -0.1667  0.2458
 6024TIP3    H118078   1.380   2.770   3.913 -1.5701 -1.4772  2.4179
 6024TIP3    H218079   1.269   2.737   3.814 -0.5001 -0.0317  0.6760
 6025TIP3   OH218080   6.281   4.504   1.483  0.1938 -0.1468  0.0631
 6025TIP3    H118081   6.277   4.517   1.577  1.7391 -1.1579  0.3107
 6025TIP3    H218082   6.192   4.519   1.452 -0.4044 -0.1410  1.7242
 6026TIP3   OH218083   0.237   2.032   2.678 -0.0741  0.2462 -0.3217
 6026TIP3    H118084   0.247   2.127   2.689  1.6116  0.4559 -2.6836
 6026TIP3    H218085   0.302   1.994   2.737 -0.2731  0.6010  0.1309
 6027TIP3   OH218086   4.600   1.591   1.523  0.2847  0.2848  0.2542
 6027TIP3    H118087   4.613   1.507   1.567  1.6453 -0.8668 -2.1920
 6027TIP3    H218088   4.578   1.652   1.594  0.0249 -1.9344  2.1880
 6028TIP3   OH218089   2.296   0.500   3.715 -0.5667  0.3036  0.8113
 6028TIP3    H118090   2.266   0.450   3.791  0.6779 -1.2525  0.3175
 6028TIP3    H218091   2.252   0.459   3.641  0.9048 -0.4782  0.3422
 6029TIP3   OH218092   1.547   1.450   1.495 -0.3786  0.0821  0.3128
 6029TIP3    H118093   1.588   1.367   1.472 -0.1533  0.1132  0.6022
 6029TIP3    H218094   1.464   1.450   1.447  0.8308  0.9088 -1.8874
 6030TIP3   OH218095   0.881   3.542   0.336  0.0531 -0.6439  0.4652
 6030TIP3    H118096   0.867   3.505   0.249 -0.1373  0.7472 -0.1239
 6030TIP3    H218097   0.966   3.585   0.330  0.1363 -0.7238  1.0331
 6031TIP3   OH218098   3.654   5.078   3.484 -0.5573  0.2422  0.1655
 6031TIP3    H118099   3.718   5.065   3.554 -0.4959  0.9656  0.2518
 6031TIP3    H218100   3.571   5.094   3.529 -0.5163  0.7176  0.0820
 6032TIP3   OH218101   5.446   0.875   1.717 -0.3635 -0.3471 -0.2228
 6032TIP3    H118102   5.421   0.865   1.625  2.0744  1.4689 -1.1961
 6032TIP3    H218103   5.511   0.806   1.731  1.5589  1.2346 -0.8852
 6033TIP3   OH218104   6.147   5.981   2.336  0.5232 -0.1722 -0.1141
 6033TIP3    H118105   6.118   5.891   2.340  1.4275 -0.4706  0.0476
 6033TIP3    H218106   6.239   5.976   2.310  0.1981  0.7740 -1.6117
 6034TIP3   OH218107   5.456   2.012   0.654  0.3916 -0.5513  0.0520
 6034TIP3    H118108   5.424   1.932   0.695  0.1217 -0.2365  0.4550
 6034TIP3    H218109   5.423   2.083   0.709 -0.8221 -0.0619 -1.2325
 6035TIP3   OH218110   0.838   5.140   4.784  0.2223  0.1146  0.5107
 6035TIP3    H118111   0.899   5.076   4.820  0.5624  1.1283  1.8315
 6035TIP3    H218112   0.820   5.110   4.695  2.7297 -0.1733  0.0405
 6036TIP3   OH218113   2.503   4.566   0.960 -0.0893  0.3748 -0.2496
 6036TIP3    H118114   2.513   4.479   0.921  1.8389  0.1912  0.5069
 6036TIP3    H218115   2.457   4.617   0.894 -1.7530 -1.3414 -0.5023
 6037TIP3   OH218116   4.828   0.211   0.693 -0.1590  0.2646  0.2050
 6037TIP3    H118117   4.783   0.262   0.761  0.2117 -1.4800  1.8426
 6037TIP3    H218118   4.778   0.227   0.614 -1.2982  1.4790  1.1203
 6038TIP3   OH218119   0.550   3.400   2.057 -0.2059 -0.1882  0.6600
 6038TIP3    H118120   0.489   3.406   1.983 -0.0919  0.2934  0.6041
 6038TIP3    H218121   0.599   3.319   2.041 -1.3380 -0.9781  1.1048
 6039TIP3   OH218122   5.851   2.721   3.091 -0.4478  0.1261  0.2461
 6039TIP3    H118123   5.841   2.805   3.136 -2.2131 -0.4237  0.9683
 6039TIP3    H218124   5.945   2.707   3.087 -0.0460  2.5941 -0.7858
 6040TIP3   OH218125   0.148   0.628   0.929  0.2539 -0.0359  0.6410
 6040TIP3    H118126   0.074   0.664   0.880  1.2646  0.2415 -0.7467
 6040TIP3    H218127   0.187   0.564   0.869  3.1064  2.1493 -0.0773
 6041TIP3   OH218128   1.707   1.016   4.549 -0.7354 -0.0213  0.2275
 6041TIP3    H118129   1.791   1.004   4.504  0.1574 -0.5456  1.9209
 6041TIP3    H218130   1.672   1.098   4.514  0.3650  0.0823 -0.6920
 6042TIP3   OH218131   5.402   5.720   1.481 -0.4737 -0.0591 -0.2902
 6042TIP3    H118132   5.420   5.657   1.412  0.4715  0.6795 -0.7270
 6042TIP3    H218133   5.363   5.795   1.436  1.4428  1.0129 -0.2688
 6043TIP3   OH218134   2.348   2.995   1.153 -0.0344 -0.1065 -0.0337
 6043TIP3    H118135   2.287   2.936   1.110 -0.2672 -0.1037  0.2861
 6043TIP3    H218136   2.370   2.951   1.236 -1.7708  1.1396  1.1591
 6044TIP3   OH218137   0.913   3.897   0.370 -0.8552  0.1680 -0.4706
 6044TIP3    H118138   0.988   3.847   0.338 -0.2448  0.0523  1.0603
 6044TIP3    H218139   0.846   3.886   0.302  0.2442 -0.3487 -1.5070
 6045TIP3   OH218140   3.263   1.364   0.865 -0.1628 -0.0481  0.1034
 6045TIP3    H118141   3.182   1.321   0.892 -0.3052  0.3531  0.3184
 6045TIP3    H218142   3.294   1.408   0.945 -0.2739  0.6588 -0.2408
 6046TIP3   OH218143   1.073   1.884   2.261 -0.4485 -0.2746  0.1803
 6046TIP3    H118144   0.981   1.861   2.254 -0.8964  1.5250 -0.3902
 6046TIP3    H218145   1.086   1.908   2.352 -0.8381  0.5908  0.0116
 6047TIP3   OH218146   2.667   3.330   2.628  0.2255 -0.5276  0.2087
 6047TIP3    H118147   2.634   3.245   2.656 -2.9642  0.4873 -0.1301
 6047TIP3    H218148   2.668   3.325   2.532 -3.5665  0.8394 -0.0750
 6048TIP3   OH218149   3.268   2.122   1.144  0.6871  0.3559 -0.6095
 6048TIP3    H118150   3.260   2.216   1.125  1.3959  0.0760 -2.5245
 6048TIP3    H218151   3.221   2.079   1.072 -0.0230 -0.7710  0.4888
 6049TIP3   OH218152   5.249   3.398   4.908  0.0762 -0.1105 -0.4192
 6049TIP3    H118153   5.320   3.461   4.899  0.3280 -0.1467  1.0131
 6049TIP3    H218154   5.186   3.441   4.966 -0.2251 -0.7550 -0.2570
 6050TIP3   OH218155   5.626   3.581   4.057 -0.0220 -0.1939  0.1241
 6050TIP3    H118156   5.616   3.606   3.965  0.8268  0.2007  0.1200
 6050TIP3    H218157   5.711   3.618   4.081  0.0536 -0.8535  0.8838
 6051TIP3   OH218158   0.148   1.861   3.931  0.1807  0.2762  0.0635
 6051TIP3    H118159   0.134   1.952   3.955 -0.1231  0.7231 -1.6726
 6051TIP3    H218160   0.102   1.851   3.848  0.6188 -1.3315 -0.0168
 6052TIP3   OH218161   3.355   0.111   2.014 -0.1301 -0.5874 -0.2387
 6052TIP3    H118162   3.294   0.075   1.950 -0.3342  3.0662 -2.4118
 6052TIP3    H218163   3.439   0.068   1.994 -0.5888 -0.8187 -1.8166
 6053TIP3   OH218164   3.147   5.344   3.931  0.2415  0.0764  0.6072
 6053TIP3    H118165   3.202   5.266   3.936  0.3764  0.2383  2.0887
 6053TIP3    H218166   3.062   5.316   3.964  0.1350  0.4131  0.6260
 6054TIP3   OH218167   1.741   3.164   0.365  0.5500 -0.2505  0.1874
 6054TIP3    H118168   1.680   3.096   0.337  1.4984 -0.6920 -0.9009
 6054TIP3    H218169   1.732   3.232   0.299  0.8849 -0.1046  0.2923
 6055TIP3   OH218170   4.724   5.106   4.398  0.9847  0.7745  0.1746
 6055TIP3    H118171   4.719   5.115   4.493  1.4434  0.2896  0.2448
 6055TIP3    H218172   4.633   5.088   4.371  1.0635 -0.4487  0.6684
 6056TIP3   OH218173   0.345   1.610   3.611 -0.2732 -0.5031  0.0955
 6056TIP3    H118174   0.352   1.559   3.530  0.5838  1.9132 -1.4484
 6056TIP3    H218175   0.251   1.629   3.619 -0.0951  1.8882 -2.1810
 6057TIP3   OH218176   5.087   4.180   2.261  0.0759  0.0258  0.4137
 6057TIP3    H118177   5.051   4.193   2.349 -0.9118 -1.1636  0.2140
 6057TIP3    H218178   5.163   4.124   2.274  0.0519  0.0189  0.5244
 6058TIP3   OH218179   0.112   0.715   4.819 -0.0026  0.1106 -0.6459
 6058TIP3    H118180   0.096   0.748   4.731  0.2262 -0.1474 -0.7856
 6058TIP3    H218181   0.045   0.758   4.873 -1.1306 -0.8864 -1.2009
 6059TIP3   OH218182   4.995   1.133   4.072  0.0167  0.0878  0.0811
 6059TIP3    H118183   5.085   1.132   4.038  0.9285 -0.1761  2.3401
 6059TIP3    H218184   4.940   1.141   3.994  1.9527 -0.8000 -1.4616
 6060TIP3   OH218185   5.618   4.961   2.437 -0.1488 -0.2739 -0.2275
 6060TIP3    H118186   5.700   4.932   2.477  0.8515  0.5474 -1.5818
 6060TIP3    H218187   5.642   5.039   2.387 -1.6306 -0.3778 -1.1676
 6061TIP3   OH218188   5.872   1.296   4.748  0.5279 -0.6374 -0.0687
 6061TIP3    H118189   5.887   1.244   4.670 -0.0378 -0.6805 -0.1529
 6061TIP3    H218190   5.929   1.372   4.738  1.2351 -1.1504 -0.0244
 6062TIP3   OH218191   3.292   3.055   0.252 -0.3514 -0.5156  0.3680
 6062TIP3    H118192   3.230   3.080   0.183 -0.2358 -0.4338  0.2941
 6062TIP3    H218193   3.332   3.138   0.280 -0.0607 -0.5992  0.2097
 6063TIP3   OH218194   4.275   5.212   1.407  0.1689  0.4112 -0.4049
 6063TIP3    H118195   4.310   5.297   1.381 -1.2300  1.1783  0.1324
 6063TIP3    H218196   4.254   5.222   1.500  1.8304 -1.1865  0.2190
 6064TIP3   OH218197   6.189   2.496   0.739 -0.4309 -0.3730  0.2381
 6064TIP3    H118198   6.235   2.568   0.781  0.6210 -0.5038 -0.6225
 6064TIP3    H218199   6.239   2.418   0.764  0.2573 -0.4499 -1.2367
 6065TIP3   OH218200   1.768   2.505   4.944 -0.0474  0.2603 -0.1235
 6065TIP3    H118201   1.694   2.449   4.968  0.4709 -0.1285  0.5981
 6065TIP3    H218202   1.752   2.527   4.852 -1.2390  0.4746  0.1195
 6066TIP3   OH218203   5.958   0.041   3.992 -0.0856 -0.0238 -0.3600
 6066TIP3    H118204   5.917  -0.018   3.928  1.2621  0.2899 -1.5579
 6066TIP3    H218205   5.968  -0.013   4.070 -2.9953 -0.0272  0.1030
 6067TIP3   OH218206   1.886   0.833   0.928  0.0979 -0.0780  0.1094
 6067TIP3    H118207   1.889   0.750   0.974  2.3493 -0.3091 -0.3618
 6067TIP3    H218208   1.932   0.818   0.846 -0.6963  1.2759 -0.6409
 6068TIP3   OH218209   1.748   5.430   4.665  0.7283  0.1919  0.1506
 6068TIP3    H118210   1.732   5.482   4.743 -1.0920  1.0894 -0.7533
 6068TIP3    H218211   1.753   5.340   4.696 -0.7367  0.4510  1.2456
 6069TIP3   OH218212   4.467   5.044   1.549 -0.7558  0.1406  0.3626
 6069TIP3    H118213   4.430   4.961   1.521 -1.4493  0.8119 -0.7689
 6069TIP3    H218214   4.413   5.111   1.506 -0.3176  1.1813  1.3716
 6070TIP3   OH218215   3.671   1.000   2.672 -0.0122 -0.2332 -0.2638
 6070TIP3    H118216   3.664   0.913   2.633 -2.3995 -0.5536  0.7395
 6070TIP3    H218217   3.632   0.992   2.759  0.8432  1.5653  0.3506
 6071TIP3   OH218218   2.809   1.337   4.416  1.0292 -0.1480 -0.2645
 6071TIP3    H118219   2.788   1.284   4.493 -0.5308 -0.2025 -0.6772
 6071TIP3    H218220   2.728   1.386   4.398  1.6532  0.5378 -1.3284
 6072TIP3   OH218221   3.690   4.034   4.238 -0.4290 -0.1425 -0.1165
 6072TIP3    H118222   3.596   4.024   4.227 -0.2015 -2.6228 -0.3995
 6072TIP3    H218223   3.702   4.057   4.330 -1.3409  1.4043 -0.3616
 6073TIP3   OH218224   0.665   1.203   4.286  0.2569  0.5979 -0.0757
 6073TIP3    H118225   0.635   1.162   4.205  0.6931 -1.5991  0.7988
 6073TIP3    H218226   0.761   1.198   4.282  0.2690 -0.6540  1.0762
 6074TIP3   OH218227   4.134   5.563   2.064  0.6130 -0.5389  0.3431
 6074TIP3    H118228   4.068   5.586   2.129  1.0959 -0.5676  0.8451
 6074TIP3    H218229   4.207   5.622   2.081 -0.0924  1.0135 -1.6105
 6075TIP3   OH218230   2.183   5.158   5.013 -0.4960  0.2753  0.6171
 6075TIP3    H118231   2.224   5.077   4.983 -1.1219  0.0071  0.4688
 6075TIP3    H218232   2.255   5.221   5.015  0.1417 -0.4366  1.3662
 6076TIP3   OH218233   1.829   1.877   2.075 -0.3954  0.1829 -0.0403
 6076TIP3    H118234   1.877   1.901   1.995  1.3227  2.1443  1.4523
 6076TIP3    H218235   1.856   1.787   2.093 -1.1691 -0.4613 -1.8545
 6077TIP3   OH218236   4.067   1.864   4.568  0.1360 -0.0992  0.4107
 6077TIP3    H118237   4.004   1.935   4.560 -2.0279 -2.0289 -1.1832
 6077TIP3    H218238   4.014   1.787   4.589  1.9656 -1.7536 -0.6772
 6078TIP3   OH218239   2.413   1.749   4.224 -0.8449  0.2132  0.7966
 6078TIP3    H118240   2.461   1.808   4.282  1.0864  0.3187 -0.7864
 6078TIP3    H218241   2.394   1.801   4.146  0.0927 -0.9247 -0.2513
 6079TIP3   OH218242   4.273   2.513   0.529 -0.3509  0.0760  0.2466
 6079TIP3    H118243   4.245   2.548   0.613 -0.6666  1.1642 -0.2880
 6079TIP3    H218244   4.192   2.483   0.487 -0.2693  0.0863  0.0799
 6080TIP3   OH218245   1.786   0.777   4.674  0.3112  0.0180 -0.0059
 6080TIP3    H118246   1.738   0.857   4.654  0.7378  0.3770  0.3886
 6080TIP3    H218247   1.877   0.798   4.650  0.3763 -0.4421 -0.1639
 6081TIP3   OH218248   3.848   2.054   4.451 -0.2839  0.3322 -0.1041
 6081TIP3    H118249   3.785   2.061   4.380 -1.3001 -0.9348  0.6353
 6081TIP3    H218250   3.873   2.144   4.470  0.7388  0.6759 -2.6548
 6082TIP3   OH218251   2.723   0.786   1.111 -0.1819 -0.3483 -0.0858
 6082TIP3    H118252   2.678   0.845   1.171 -0.1983 -1.3168  0.8823
 6082TIP3    H218253   2.653   0.732   1.074  0.0598 -1.2836  0.7761
 6083TIP3   OH218254   0.167   3.507   0.479  0.0037 -0.0443 -0.1259
 6083TIP3    H118255   0.254   3.491   0.442 -0.4804  0.9287 -1.7997
 6083TIP3    H218256   0.106   3.472   0.414 -0.8810  1.4402 -0.1527
 6084TIP3   OH218257   2.020   4.678   0.197 -0.2665  0.2592 -0.2679
 6084TIP3    H118258   2.084   4.739   0.234  0.3233 -0.2596 -0.4120
 6084TIP3    H218259   2.000   4.714   0.110  1.3316 -0.6030 -1.0357
 6085TIP3   OH218260   0.035   3.970   5.136  0.2814  0.9860 -0.4472
 6085TIP3    H118261   0.013   3.919   5.058 -0.9468 -1.1594  1.2055
 6085TIP3    H218262   0.096   3.916   5.185  2.3625  3.0216 -0.6192
 6086TIP3   OH218263   4.876   1.909   2.269 -0.0048 -0.6264 -0.4998
 6086TIP3    H118264   4.925   1.861   2.335  2.2744  0.4785 -1.3169
 6086TIP3    H218265   4.827   1.975   2.317  2.2318  0.6838  0.0963
 6087TIP3   OH218266   3.769   4.086   4.854  0.2795  0.2940 -0.4642
 6087TIP3    H118267   3.685   4.051   4.822  1.1732  0.3929 -3.0905
 6087TIP3    H218268   3.766   4.179   4.832  1.5051  0.0818 -1.6052
 6088TIP3   OH218269   3.112   1.839   5.074  0.4069 -0.2792 -0.2362
 6088TIP3    H118270   3.104   1.899   5.000  1.5628 -0.1592 -0.2756
 6088TIP3    H218271   3.031   1.853   5.124 -0.6260 -0.7131 -1.6983
 6089TIP3   OH218272   5.655   4.196   4.206  0.0655 -0.3494  0.5762
 6089TIP3    H118273   5.713   4.219   4.133  1.5142 -0.4737  1.6368
 6089TIP3    H218274   5.571   4.236   4.183  1.2969  2.3140  0.2828
 6090TIP3   OH218275   3.427   5.646   4.981  0.2105 -0.0686  0.4016
 6090TIP3    H118276   3.379   5.621   5.060 -0.3752 -0.1511  0.0245
 6090TIP3    H218277   3.421   5.570   4.924 -0.9685  0.6279 -0.4614
 6091TIP3   OH218278   2.343   1.738   3.783 -0.2075 -0.6142  0.2719
 6091TIP3    H118279   2.357   1.815   3.837 -0.0994  0.3026 -1.0031
 6091TIP3    H218280   2.399   1.751   3.707 -1.8833 -0.8044 -1.0695
 6092TIP3   OH218281   5.295   2.910   0.608  0.0198 -0.2420  0.7817
 6092TIP3    H118282   5.382   2.927   0.643  0.3522  1.4702 -0.7312
 6092TIP3    H218283   5.246   2.990   0.625 -0.7185 -0.5288  0.0517
 6093TIP3   OH218284   1.937   0.630   2.493  0.0395 -0.6547  0.3839
 6093TIP3    H118285   1.856   0.645   2.542 -0.9817  0.8517 -1.6407
 6093TIP3    H218286   1.919   0.552   2.440 -0.9148  0.8055 -1.5574
 6094TIP3   OH218287   1.869   5.542   2.188 -0.1993  0.3010  0.6385
 6094TIP3    H118288   1.850   5.528   2.281 -2.6710  0.4921  0.2355
 6094TIP3    H218289   1.862   5.637   2.177  0.6065  0.3302  0.3400
 6095TIP3   OH218290   1.955   4.215   0.172  0.4476  0.2752  0.2188
 6095TIP3    H118291   2.041   4.182   0.200  0.9235  1.3519  0.0961
 6095TIP3    H218292   1.893   4.150   0.203  1.0809  0.6584  2.4840
 6096TIP3   OH218293   5.824   4.450   2.805 -0.3887  0.1127  0.5409
 6096TIP3    H118294   5.911   4.475   2.773 -0.6792  0.8236  0.2838
 6096TIP3    H218295   5.798   4.378   2.748 -1.2285  1.8688 -1.4577
 6097TIP3   OH218296   3.731   2.897   2.704 -0.1670 -0.2252  0.0497
 6097TIP3    H118297   3.647   2.897   2.750 -1.0408  0.1184 -1.4633
 6097TIP3    H218298   3.778   2.821   2.739 -0.5821  0.3056  1.8085
 6098TIP3   OH218299   0.403   2.144   0.291  0.8587  0.4010 -0.2401
 6098TIP3    H118300   0.317   2.133   0.250  1.7177 -0.7531 -1.8055
 6098TIP3    H218301   0.386   2.130   0.385 -0.5228 -0.6329 -0.6109
 6099TIP3   OH218302   4.284   1.350   2.367 -0.3152  0.6037  0.3420
 6099TIP3    H118303   4.219   1.299   2.416 -1.2852  0.6753 -0.8004
 6099TIP3    H218304   4.368   1.315   2.395 -0.9452 -2.4903 -1.2025
 6100TIP3   OH218305   0.448   1.049   3.389 -0.2557 -0.4879 -0.2224
 6100TIP3    H118306   0.453   1.123   3.329  0.2304  1.1599  1.7402
 6100TIP3    H218307   0.355   1.032   3.398 -0.3318 -0.7833 -1.4473
 6101TIP3   OH218308   0.310   2.768   3.525 -0.7333 -0.2890  0.1000
 6101TIP3    H118309   0.383   2.830   3.521  0.2834 -1.4031  0.7078
 6101TIP3    H218310   0.283   2.758   3.434  0.6239 -0.6913 -0.2890
 6102TIP3   OH218311   5.366   5.958   2.118  0.1039  0.0749 -0.8251
 6102TIP3    H118312   5.400   6.035   2.072  1.4612 -1.0768 -1.8234
 6102TIP3    H218313   5.381   5.885   2.058  0.3621 -1.2257  0.7376
 6103TIP3   OH218314   3.766   2.336   3.658 -0.0882 -0.1652 -0.0432
 6103TIP3    H118315   3.702   2.266   3.651  1.2735 -1.5245  0.6438
 6103TIP3    H218316   3.782   2.363   3.567 -0.6300 -0.7497 -0.3179
 6104TIP3   OH218317   0.846   5.665   4.612  0.0681  0.2600  0.4811
 6104TIP3    H118318   0.767   5.648   4.560  0.8941 -0.6421 -0.5026
 6104TIP3    H218319   0.851   5.761   4.617 -0.7368  0.3360  0.0252
 6105TIP3   OH218320   2.653   4.997   3.753  0.0498 -0.1651 -0.8778
 6105TIP3    H118321   2.600   5.003   3.832  2.4747  0.7709  0.7980
 6105TIP3    H218322   2.715   4.926   3.771 -1.3072 -2.1440 -3.3131
 6106TIP3   OH218323   0.591   3.660   2.970 -0.0655 -0.3836 -0.2840
 6106TIP3    H118324   0.604   3.588   2.909  1.8860 -0.1530 -0.1970
 6106TIP3    H218325   0.560   3.619   3.050 -0.8573 -0.8917 -0.8394
 6107TIP3   OH218326   4.783   1.450   4.649 -0.4091  0.3620  0.2485
 6107TIP3    H118327   4.830   1.508   4.709 -0.4941  0.3099  0.3650
 6107TIP3    H218328   4.824   1.365   4.660 -0.7130  0.2558  0.5502
 6108TIP3   OH218329   0.177   4.852   3.929 -0.3671  0.4934  0.2217
 6108TIP3    H118330   0.233   4.871   3.854  0.4163  1.0028  0.9149
 6108TIP3    H218331   0.089   4.875   3.900 -0.7128 -2.7720 -1.8062
 6109TIP3   OH218332   0.615   1.038   2.018  0.1329 -0.0085 -0.1060
 6109TIP3    H118333   0.674   1.105   1.984  0.4689 -0.7171 -0.9673
 6109TIP3    H218334   0.604   0.977   1.945 -1.5343  0.0194  0.0899
 6110TIP3   OH218335   0.106   3.419   4.921  0.3052  0.6123  0.5287
 6110TIP3    H118336   0.131   3.340   4.872 -0.7064 -0.4674  1.6892
 6110TIP3    H218337   0.073   3.479   4.854  0.1130 -0.3489 -0.2600
 6111TIP3   OH218338   2.619   1.258   4.611 -0.1972 -0.3493 -0.7593
 6111TIP3    H118339   2.550   1.223   4.556  0.2602 -1.0947 -0.8732
 6111TIP3    H218340   2.574   1.305   4.682 -0.8444 -1.9390 -0.0878
 6112TIP3   OH218341   0.962   0.849   2.788  0.0430  0.1283  0.8784
 6112TIP3    H118342   0.873   0.867   2.760 -0.5058 -1.9219  1.1347
 6112TIP3    H218343   1.011   0.835   2.707 -0.2164 -0.1499  0.7666
 6113TIP3   OH218344   5.920   0.075   3.315 -0.1528 -0.5617 -0.1638
 6113TIP3    H118345   5.947   0.164   3.334  1.7934 -0.7441 -1.7497
 6113TIP3    H218346   5.853   0.055   3.381 -0.0952  1.7726  0.6812
 6114TIP3   OH218347   5.557   4.430   4.376  0.3968  0.2191  0.6424
 6114TIP3    H118348   5.534   4.411   4.285  1.5537 -0.7406  0.5324
 6114TIP3    H218349   5.473   4.425   4.423 -0.2244  0.8058 -0.3706
 6115TIP3   OH218350   1.545   0.346   3.421  0.1201 -0.2256 -0.4724
 6115TIP3    H118351   1.570   0.437   3.432  0.8387 -0.3843 -0.6948
 6115TIP3    H218352   1.471   0.333   3.480 -0.6192  0.7493 -1.1528
 6116TIP3   OH218353   1.222   1.625   0.531  0.2645  0.1720  0.2541
 6116TIP3    H118354   1.148   1.601   0.475 -0.6240 -0.3010  1.5754
 6116TIP3    H218355   1.257   1.705   0.492 -0.8029  0.2796 -0.5297
 6117TIP3   OH218356   0.163   2.380   1.243 -0.3369  0.1781 -0.4004
 6117TIP3    H118357   0.117   2.313   1.191  1.4843 -1.0614 -0.5043
 6117TIP3    H218358   0.223   2.421   1.181  0.7374 -0.2356  0.3353
 6118TIP3   OH218359   0.233   0.753   4.189 -0.2079 -0.3969 -0.2318
 6118TIP3    H118360   0.176   0.738   4.265  0.1806 -0.5522  0.0353
 6118TIP3    H218361   0.316   0.781   4.227 -0.6872  1.7976 -0.6836
 6119TIP3   OH218362   0.097   1.180   2.380  0.0242  0.3791 -0.5145
 6119TIP3    H118363   0.173   1.170   2.323  0.5315 -1.0541  0.3630
 6119TIP3    H218364   0.121   1.254   2.437  0.4250  0.4311 -0.7436
 6120TIP3   OH218365   4.208   5.745   0.613 -0.1453 -0.2107 -0.0975
 6120TIP3    H118366   4.253   5.662   0.601  0.8128  0.1990  0.5804
 6120TIP3    H218367   4.115   5.724   0.600 -0.1200 -1.7574  1.7992
 6121TIP3   OH218368   6.174   3.251   3.718  0.1994 -0.4926 -0.0641
 6121TIP3    H118369   6.190   3.346   3.714 -0.1847 -0.4346 -0.3123
 6121TIP3    H218370   6.260   3.212   3.705  0.4878 -0.1745  0.7829
 6122TIP3   OH218371   0.415   5.560   3.185 -0.3869  0.5732 -0.9205
 6122TIP3    H118372   0.452   5.539   3.271 -0.5003 -1.2102 -1.2734
 6122TIP3    H218373   0.486   5.542   3.123 -1.0961 -0.6582 -1.4071
 6123TIP3   OH218374   5.127   0.598   3.379  1.0462  0.1212  0.2509
 6123TIP3    H118375   5.160   0.605   3.468  1.9029  2.8560 -0.1588
 6123TIP3    H218376   5.079   0.516   3.377  1.4381 -0.2797  3.0598
 6124TIP3   OH218377   2.751   1.794   2.888 -0.8199  0.2395  0.0491
 6124TIP3    H118378   2.746   1.874   2.940 -1.2982 -0.0154  0.4080
 6124TIP3    H218379   2.692   1.810   2.814  0.9731  1.1791 -1.2543
 6125TIP3   OH218380   3.447   5.906   5.130 -0.4395  0.2745 -0.3678
 6125TIP3    H118381   3.526   5.854   5.142  0.8120  2.0493 -0.3837
 6125TIP3    H218382   3.398   5.862   5.061  1.0098 -0.3681 -1.0269
 6126TIP3   OH218383   6.003   3.668   0.097  0.1129 -0.2729 -0.5155
 6126TIP3    H118384   6.033   3.746   0.050 -1.0260  1.7899  1.9749
 6126TIP3    H218385   6.068   3.655   0.166  1.2186 -2.6690 -1.8440
 6127TIP3   OH218386   0.365   4.893   3.189  0.3007 -0.0634 -0.2344
 6127TIP3    H118387   0.376   4.807   3.230 -2.1545 -0.1062  0.4364
 6127TIP3    H218388   0.403   4.883   3.102 -0.2357 -1.9327 -0.2844
 6128TIP3   OH218389   2.476   1.647   0.137  0.3452 -0.4561  0.0663
 6128TIP3    H118390   2.543   1.660   0.070 -0.8434 -0.1945 -1.1100
 6128TIP3    H218391   2.470   1.552   0.146 -0.6072 -0.5664 -1.4135
 6129TIP3   OH218392   5.368   2.788   0.363  0.4519 -0.1096 -0.2931
 6129TIP3    H118393   5.332   2.856   0.308 -1.5387  1.0683  2.2526
 6129TIP3    H218394   5.373   2.828   0.450  2.7647 -2.0590  0.5930
 6130TIP3   OH218395   4.998   3.723   0.719  0.0423  0.5945  0.4992
 6130TIP3    H118396   5.076   3.671   0.701 -0.2452  0.5809 -0.7954
 6130TIP3    H218397   4.968   3.692   0.804 -1.2054 -2.7610 -1.0008
 6131TIP3   OH218398   1.515   4.200   0.075 -0.2693  0.3000  0.4444
 6131TIP3    H118399   1.566   4.162   0.147 -1.9323 -1.8850  0.5548
 6131TIP3    H218400   1.573   4.192  -0.001 -0.3471 -2.1145  0.5643
 6132TIP3   OH218401   3.966   0.629   1.634 -0.0717 -0.0428  0.3408
 6132TIP3    H118402   3.999   0.643   1.545 -0.4006 -0.1380  0.2012
 6132TIP3    H218403   3.961   0.716   1.672  0.8017 -0.0614  0.5378
 6133TIP3   OH218404   0.021   2.011   0.652  0.5960  0.1213 -0.0548
 6133TIP3    H118405   0.108   1.986   0.621  0.1917  1.1914 -2.2497
 6133TIP3    H218406  -0.039   1.960   0.598 -0.1448  1.0787 -0.1615
 6134TIP3   OH218407   1.745   3.649   1.210  0.0585 -0.7187 -0.6285
 6134TIP3    H118408   1.814   3.584   1.196  2.1496  1.4997 -1.3166
 6134TIP3    H218409   1.790   3.733   1.204 -2.4356  0.8186  0.7268
 6135TIP3   OH218410   0.610   1.618   3.529  0.0068 -0.0131  0.6948
 6135TIP3    H118411   0.542   1.635   3.594 -0.7514  0.0387 -0.0899
 6135TIP3    H218412   0.661   1.546   3.566 -0.7823 -0.3855  1.0842
 6136TIP3   OH218413   3.729   4.072   2.524  0.1207 -0.3337 -0.1194
 6136TIP3    H118414   3.806   4.035   2.481  0.7478  0.2547  0.4777
 6136TIP3    H218415   3.737   4.166   2.512 -0.6992 -0.2834 -0.3543
 6137TIP3   OH218416   3.110   0.504   2.561 -0.3724 -0.1828 -0.6639
 6137TIP3    H118417   3.094   0.459   2.477  0.3440  1.2091 -1.5871
 6137TIP3    H218418   3.203   0.528   2.557 -0.2911 -0.2461  0.6174
 6138TIP3   OH218419   5.042   5.558   4.776  0.4728  0.4033  0.1971
 6138TIP3    H118420   5.089   5.494   4.721  0.5069  0.4802  0.1367
 6138TIP3    H218421   5.046   5.639   4.726  0.1082  0.3648  0.1026
 6139TIP3   OH218422   0.336   4.452   3.529 -0.5410 -0.9072  0.0129
 6139TIP3    H118423   0.288   4.534   3.517 -0.0893 -0.0939  2.8837
 6139TIP3    H218424   0.419   4.465   3.483 -0.3492  0.4076  0.6830
 6140TIP3   OH218425   2.221   0.509   3.405 -0.3083  0.1626  0.0215
 6140TIP3    H118426   2.194   0.586   3.456 -1.5717  0.2714 -0.7629
 6140TIP3    H218427   2.232   0.541   3.316 -1.3312 -0.6425 -0.4163
 6141TIP3   OH218428   1.807   2.645   4.420  0.2472  0.8113 -0.4867
 6141TIP3    H118429   1.798   2.739   4.433  0.6839  0.6386  1.3124
 6141TIP3    H218430   1.902   2.631   4.412  0.3214  0.3761  0.8511
 6142TIP3   OH218431   6.073   1.320   4.501  0.2597  0.0232  0.0134
 6142TIP3    H118432   6.006   1.384   4.477  0.5543  0.2104 -0.3235
 6142TIP3    H218433   6.130   1.315   4.424 -0.3860 -1.4677 -0.4176
 6143TIP3   OH218434   4.049   2.052   0.445  0.1583 -0.0616  0.3449
 6143TIP3    H118435   4.064   1.960   0.421 -0.5505 -0.3079  0.8006
 6143TIP3    H218436   3.980   2.048   0.511  0.3807  0.7774  0.6364
 6144TIP3   OH218437   4.765   3.528   0.676 -0.7077  0.2670 -0.2327
 6144TIP3    H118438   4.694   3.531   0.740  0.1867 -0.5123  0.8366
 6144TIP3    H218439   4.787   3.620   0.659 -1.8303  0.5099 -0.4492
 6145TIP3   OH218440   1.521   3.477   4.924  0.0630 -0.2163  0.2889
 6145TIP3    H118441   1.580   3.448   4.854 -0.5131 -0.3408 -0.1580
 6145TIP3    H218442   1.528   3.408   4.991  0.1285 -0.4295  0.0654
 6146TIP3   OH218443   2.932   5.413   2.620  0.1002  0.1429  0.1850
 6146TIP3    H118444   2.893   5.342   2.570 -0.3922 -0.5311  1.4827
 6146TIP3    H218445   2.994   5.454   2.559 -0.9024 -0.2475 -1.1599
 6147TIP3   OH218446   3.156   1.521   4.480  0.4706 -0.0378  0.4144
 6147TIP3    H118447   3.244   1.556   4.493 -0.1078  1.2055  1.1114
 6147TIP3    H218448   3.111   1.537   4.563  0.2911 -2.8760  0.9620
 6148TIP3   OH218449   0.628   2.639   4.376  0.4331  0.2735 -0.1296
 6148TIP3    H118450   0.702   2.690   4.344  0.4198  1.0612  1.0303
 6148TIP3    H218451   0.660   2.598   4.456  0.8684 -2.6677 -1.6594
 6149TIP3   OH218452   3.605   1.767   2.268 -0.2381 -0.1267 -0.5943
 6149TIP3    H118453   3.675   1.703   2.284 -0.2565 -0.4617 -1.7563
 6149TIP3    H218454   3.596   1.814   2.351  1.5737  0.1271 -0.4948
 6150TIP3   OH218455   4.172   5.688   3.737  0.6622  0.1101  0.2302
 6150TIP3    H118456   4.190   5.734   3.818  1.7754 -0.2535  0.1999
 6150TIP3    H218457   4.080   5.660   3.745  0.2771  1.4299  0.6716
 6151TIP3   OH218458   2.932   4.606   1.775 -0.1010 -0.7969 -0.5182
 6151TIP3    H118459   3.002   4.549   1.807  0.6975 -0.1267 -1.0207
 6151TIP3    H218460   2.895   4.559   1.700  1.0416 -0.3582 -1.3926
 6152TIP3   OH218461   0.301   5.803   3.595  0.4225 -0.5368 -0.1764
 6152TIP3    H118462   0.396   5.788   3.598  0.3455 -1.1588 -0.6161
 6152TIP3    H218463   0.288   5.862   3.521  0.6196  0.8906  0.8937
 6153TIP3   OH218464   0.232   4.913   0.958  0.1774 -0.0408 -0.6252
 6153TIP3    H118465   0.158   4.949   0.909  1.0713 -1.7561 -3.4627
 6153TIP3    H218466   0.308   4.962   0.926  0.5443  0.5306  1.0039
 6154TIP3   OH218467   3.335   1.684   5.026 -0.3148 -0.2028  0.1371
 6154TIP3    H118468   3.275   1.759   5.031  0.4413  0.3860  0.4908
 6154TIP3    H218469   3.398   1.698   5.096 -1.5826 -2.4835  1.8926
 6155TIP3   OH218470   3.602   1.307   5.080 -0.2112 -0.1371  0.2611
 6155TIP3    H118471   3.655   1.237   5.042 -1.9061 -2.4716  1.8786
 6155TIP3    H218472   3.648   1.387   5.059  0.5652 -1.4605 -3.9367
 6156TIP3   OH218473   2.457   5.616   2.864 -0.4165 -0.5649  0.1458
 6156TIP3    H118474   2.377   5.623   2.917  0.6995 -0.7266  1.9470
 6156TIP3    H218475   2.502   5.699   2.878 -0.3539 -0.3862 -1.0426
 6157TIP3   OH218476   6.142   5.498   0.761  0.3767 -0.5041  0.3379
 6157TIP3    H118477   6.211   5.439   0.791  0.5745 -0.1702  0.5570
 6157TIP3    H218478   6.186   5.582   0.749  0.2857 -0.6010 -0.8249
 6158TIP3   OH218479   1.502   5.666   1.388  0.5684  0.2949  0.2640
 6158TIP3    H118480   1.494   5.597   1.454 -0.8017  1.3705  1.2802
 6158TIP3    H218481   1.596   5.670   1.368  0.8881 -0.6491  1.5021
 6159TIP3   OH218482   1.104   3.062   2.454 -0.3356 -0.6557  0.0186
 6159TIP3    H118483   1.142   2.974   2.445  0.0810 -0.5187  0.3972
 6159TIP3    H218484   1.159   3.105   2.520 -2.5321 -1.2232  2.4039
 6160TIP3   OH218485   4.431   1.289   0.347  0.1465  1.0968  0.0260
 6160TIP3    H118486   4.386   1.320   0.425  3.0840  0.1001  2.2795
 6160TIP3    H218487   4.394   1.202   0.330  0.6242  0.6149  1.3571
 6161TIP3   OH218488   2.261   2.089   3.522 -0.2116 -0.3753  0.1412
 6161TIP3    H118489   2.230   2.001   3.541 -2.0664  0.4482  1.2323
 6161TIP3    H218490   2.244   2.101   3.429  0.6213 -1.3463 -0.1563
 6162TIP3   OH218491   2.059   1.333   0.299 -0.3592 -0.0753 -0.2353
 6162TIP3    H118492   1.964   1.339   0.292 -0.2600  2.4942 -0.5089
 6162TIP3    H218493   2.084   1.411   0.349  1.7677  0.8211 -2.4956
 6163TIP3   OH218494   4.525   1.755   4.705  0.8649 -0.1499 -0.3669
 6163TIP3    H118495   4.498   1.790   4.620 -0.1975 -0.6065 -0.2260
 6163TIP3    H218496   4.499   1.822   4.768  2.1483  0.4423 -0.4237
 6164TIP3   OH218497   2.326   0.655   0.356 -0.0000  0.2928 -0.2497
 6164TIP3    H118498   2.305   0.576   0.306 -1.7344 -0.3857  1.4203
 6164TIP3    H218499   2.253   0.714   0.339  0.6506  1.0532 -0.4623
 6165TIP3   OH218500   0.639   1.881  -0.019 -0.3335  0.0636  0.5171
 6165TIP3    H118501   0.584   1.848   0.051 -1.4981  1.1690  0.1602
 6165TIP3    H218502   0.699   1.941   0.024 -0.9108  0.5831  0.6075
 6166TIP3   OH218503   5.072   5.517   0.674  0.6639 -0.2648 -0.0891
 6166TIP3    H118504   5.007   5.529   0.605  0.0616  0.6241  0.6070
 6166TIP3    H218505   5.022   5.485   0.749  0.9308  0.8316  0.5872
 6167TIP3   OH218506   3.200   5.444   1.932 -0.4144  0.2198  0.1895
 6167TIP3    H118507   3.150   5.458   2.012 -0.1001  0.0007  0.4274
 6167TIP3    H218508   3.277   5.395   1.960 -1.1467 -1.4030 -0.5148
 6168TIP3   OH218509   1.229   4.079   3.153  0.1968 -0.0866  0.0622
 6168TIP3    H118510   1.220   3.995   3.107  1.8926 -0.2377 -0.0473
 6168TIP3    H218511   1.150   4.085   3.207 -1.1566 -0.5708 -1.7734
 6169TIP3   OH218512   4.734   1.304   0.229  0.1577  0.1107 -0.6044
 6169TIP3    H118513   4.735   1.214   0.261  0.0975  0.0323 -0.8188
 6169TIP3    H218514   4.803   1.348   0.278 -0.8111  0.3303  0.5920
 6170TIP3   OH218515   2.814   1.915   0.371 -0.0435 -0.2649 -0.1407
 6170TIP3    H118516   2.892   1.894   0.320 -0.9440 -1.0479 -1.2323
 6170TIP3    H218517   2.765   1.833   0.375 -0.0043 -0.2388  2.0239
 6171TIP3   OH218518   2.684   0.641   2.281 -0.4466 -0.4191 -0.5053
 6171TIP3    H118519   2.595   0.611   2.299  0.0089 -1.0475  0.7268
 6171TIP3    H218520   2.721   0.662   2.366  0.7656 -0.6318 -0.9550
 6172TIP3   OH218521   4.120   0.444   5.110 -0.0225  0.0815 -0.2360
 6172TIP3    H118522   4.078   0.401   5.184  0.1017 -2.8083 -1.7187
 6172TIP3    H218523   4.209   0.410   5.110 -0.1623 -0.3715 -1.9539
 6173TIP3   OH218524   5.380   5.915   1.695 -0.1285 -0.2368 -0.0979
 6173TIP3    H118525   5.425   5.898   1.612 -2.2441  1.8127 -1.8166
 6173TIP3    H218526   5.420   5.995   1.729  2.2918 -2.2444  2.1992
 6174TIP3   OH218527   0.007   1.075   2.021 -0.9234 -0.4531  0.5457
 6174TIP3    H118528   0.038   1.033   1.941 -1.3147 -1.4953  0.9205
 6174TIP3    H218529   0.086   1.093   2.071 -0.7485 -0.7374  0.3732
 6175TIP3   OH218530   1.858   5.887   3.453  0.4760 -0.5371 -0.4679
 6175TIP3    H118531   1.847   5.866   3.546  0.3416 -0.2827 -0.4236
 6175TIP3    H218532   1.786   5.948   3.435  1.2045  0.3417 -0.4419
 6176TIP3   OH218533   5.577   4.807   5.003 -0.1226 -0.5219 -0.2866
 6176TIP3    H118534   5.605   4.898   5.009  0.1518 -0.4835 -1.7554
 6176TIP3    H218535   5.585   4.774   5.092 -0.0128  0.8233  0.2321
 6177TIP3   OH218536   1.416   1.076   4.796  0.0716 -0.0694  0.1715
 6177TIP3    H118537   1.425   0.991   4.753  0.5496  0.1234 -0.1146
 6177TIP3    H218538   1.454   1.138   4.734  2.1952  0.0434  1.4723
 6178TIP3   OH218539   1.274   4.596   3.041 -0.0057  0.1252 -0.1047
 6178TIP3    H118540   1.208   4.528   3.055 -1.2745  1.1408 -0.9323
 6178TIP3    H218541   1.335   4.557   2.979 -1.2094  0.0138 -1.2744
 6179TIP3   OH218542   0.921   5.481   0.297 -0.4736  0.2862 -0.2264
 6179TIP3    H118543   0.995   5.530   0.261 -0.1436  0.2245  0.3624
 6179TIP3    H218544   0.929   5.490   0.392 -0.3218 -1.0291 -0.0946
 6180TIP3   OH218545   4.494   0.225   2.574 -0.7574 -0.6131  0.2394
 6180TIP3    H118546   4.547   0.230   2.494  1.4213 -0.1963  1.6390
 6180TIP3    H218547   4.410   0.189   2.544  0.0384 -0.6639 -2.1911
 6181TIP3   OH218548   1.674   0.888   2.837  0.2717  0.2615  0.0493
 6181TIP3    H118549   1.620   0.904   2.915 -0.2781  1.4343 -0.5417
 6181TIP3    H218550   1.687   0.975   2.799 -1.7579 -0.4906 -2.6642
 6182TIP3   OH218551   4.700   2.936   2.147 -0.6301 -0.4009  0.3559
 6182TIP3    H118552   4.778   2.946   2.201 -1.1836 -1.3092  1.3955
 6182TIP3    H218553   4.712   2.996   2.074 -0.6679  2.3322  2.4324
 6183TIP3   OH218554   2.587   3.723   1.640  0.0416  0.0299  0.4124
 6183TIP3    H118555   2.572   3.791   1.575 -0.1557 -0.3922  0.0123
 6183TIP3    H218556   2.507   3.723   1.693 -0.2524 -0.3617 -0.0229
 6184TIP3   OH218557   1.187   5.829   3.070 -0.0254  0.6233  0.6693
 6184TIP3    H118558   1.196   5.820   2.975  0.6218 -1.0588  0.8476
 6184TIP3    H218559   1.277   5.842   3.102 -0.2547  1.3440  1.0576
 6185TIP3   OH218560   5.574   4.157   1.503 -0.1231 -0.3112 -0.0127
 6185TIP3    H118561   5.656   4.135   1.458  0.5596 -0.1737  1.1335
 6185TIP3    H218562   5.506   4.137   1.439  0.8307  0.2019 -1.2364
 6186TIP3   OH218563   0.145   0.404   3.492 -0.3199 -0.2309 -0.4430
 6186TIP3    H118564   0.172   0.446   3.574  1.9550  0.9963 -1.7063
 6186TIP3    H218565   0.131   0.477   3.432 -1.2074 -1.1362 -1.3659
 6187TIP3   OH218566   4.128   3.305   0.169 -0.1305 -0.0986  0.0909
 6187TIP3    H118567   4.063   3.263   0.226 -1.3210 -1.2813 -2.0115
 6187TIP3    H218568   4.113   3.399   0.180 -2.0609 -0.3450 -0.1546
 6188TIP3   OH218569   1.878   3.108   0.779  0.0312  0.0143 -0.0998
 6188TIP3    H118570   1.918   3.038   0.832  0.6056 -0.3936 -1.0324
 6188TIP3    H218571   1.798   3.069   0.745  1.1630 -0.8630 -1.9897
 6189TIP3   OH218572   2.417   2.472   1.206 -0.4997  0.4720  0.1615
 6189TIP3    H118573   2.508   2.443   1.196 -1.0374 -1.5759  0.9061
 6189TIP3    H218574   2.415   2.515   1.292 -0.0261  1.5520 -0.3363
 6190TIP3   OH218575   1.760   3.547   4.275 -0.0215 -0.5651  0.9496
 6190TIP3    H118576   1.828   3.498   4.228  0.1595 -0.6252  1.2720
 6190TIP3    H218577   1.772   3.638   4.247  0.6959 -0.4498  1.6001
 6191TIP3   OH218578   4.190   3.603   0.412 -0.0665  0.1487 -0.0245
 6191TIP3    H118579   4.138   3.538   0.461 -2.2691  2.6495  1.2228
 6191TIP3    H218580   4.145   3.609   0.328 -0.4977  0.7284  0.2378
 6192TIP3   OH218581   1.420   3.898   1.137 -0.0022 -0.1131  0.4024
 6192TIP3    H118582   1.373   3.890   1.220 -0.4734  1.9134  0.3979
 6192TIP3    H218583   1.480   3.972   1.151  0.6002 -0.3637 -0.7499
 6193TIP3   OH218584   3.875   5.793   3.270 -0.7439  0.5229 -0.2630
 6193TIP3    H118585   3.845   5.881   3.294  0.3613  0.7323  0.4367
 6193TIP3    H218586   3.964   5.788   3.305 -0.5899 -0.6807 -0.7838
 6194TIP3   OH218587   6.213   5.164   0.874  0.1746  0.2444  0.1211
 6194TIP3    H118588   6.252   5.083   0.906 -0.7168 -0.0790  0.4390
 6194TIP3    H218589   6.283   5.229   0.880  0.1527  0.1443  2.4981
 6195TIP3   OH218590   4.009   0.895   1.726  0.0017  0.1803  0.2343
 6195TIP3    H118591   4.049   0.947   1.657 -1.1093  0.7599  0.0036
 6195TIP3    H218592   3.945   0.953   1.766 -0.2588 -0.5562  0.9194
 6196TIP3   OH218593   4.581   4.657   3.314 -0.7478 -0.3158 -0.5987
 6196TIP3    H118594   4.544   4.575   3.348  2.1592 -2.0936 -1.2904
 6196TIP3    H218595   4.581   4.645   3.219  0.5720  0.0149 -0.6616
 6197TIP3   OH218596   0.261   2.903   0.592  0.1289 -0.2081 -0.2710
 6197TIP3    H118597   0.211   2.976   0.629  1.2547 -0.9063  2.9671
 6197TIP3    H218598   0.349   2.938   0.580  0.3434 -0.6504 -0.0009
 6198TIP3   OH218599   0.008   0.918   4.021  0.1107 -0.1080  1.0662
 6198TIP3    H118600  -0.070   0.864   4.035 -0.3362  0.5434  1.1421
 6198TIP3    H218601   0.081   0.864   4.051 -0.2826 -0.8214  0.7648
 6199TIP3   OH218602   1.533   0.414   4.872 -0.3268 -0.5800 -0.0954
 6199TIP3    H118603   1.594   0.366   4.928  2.1291 -0.3722 -2.3639
 6199TIP3    H218604   1.479   0.347   4.831  0.0872 -1.0259  0.0824
 6200TIP3   OH218605   6.225   2.957   4.990  0.7313 -0.4863  0.0601
 6200TIP3    H118606   6.284   3.028   5.015  0.3661 -0.6738  1.5398
 6200TIP3    H218607   6.280   2.895   4.942  0.8049  1.3374 -2.4657
 6201TIP3   OH218608   2.129   0.245   3.569 -0.3057 -0.2559  0.0098
 6201TIP3    H118609   2.212   0.198   3.564  0.2604  0.7785 -0.7387
 6201TIP3    H218610   2.079   0.199   3.637  1.0855 -0.5806  0.8485
 6202TIP3   OH218611   4.177   1.781   5.036  0.1903  0.3021 -0.1395
 6202TIP3    H118612   4.114   1.852   5.046 -0.6581 -0.1397 -1.9551
 6202TIP3    H218613   4.254   1.822   4.998  0.2174  0.4751  0.0967
 6203TIP3   OH218614   4.707   2.118   0.332  0.0253  0.3678  0.4940
 6203TIP3    H118615   4.787   2.074   0.362 -0.1121 -1.2136 -1.2988
 6203TIP3    H218616   4.725   2.211   0.345  2.1693  0.0551  0.1798
 6204TIP3   OH218617   5.439   1.117   4.535  0.4432  0.5990 -0.5276
 6204TIP3    H118618   5.534   1.128   4.529  0.4878  1.2464  0.8249
 6204TIP3    H218619   5.409   1.198   4.578 -0.7017  0.3527 -0.8376
 6205TIP3   OH218620   3.417   3.747   2.610 -0.1133  0.4894 -0.1119
 6205TIP3    H118621   3.441   3.655   2.604  1.1948  0.7841  0.1918
 6205TIP3    H218622   3.467   3.780   2.685 -1.5243  1.1717  0.5764
 6206TIP3   OH218623   2.679   3.937   3.133 -0.1751 -0.0858 -0.1659
 6206TIP3    H118624   2.728   3.865   3.173  0.7647 -0.1756 -1.4395
 6206TIP3    H218625   2.732   3.964   3.058 -1.7224  0.2736 -1.1816
 6207TIP3   OH218626   0.842   0.856   3.966  0.4909  0.1056 -0.4634
 6207TIP3    H118627   0.837   0.788   3.899 -1.3862 -0.1358 -0.1234
 6207TIP3    H218628   0.928   0.844   4.007  0.7644 -1.1234 -1.3535
 6208TIP3   OH218629   6.017   1.988   5.165 -0.8073 -0.4179  0.0702
 6208TIP3    H118630   5.947   2.012   5.103 -0.4627  0.1940 -0.0982
 6208TIP3    H218631   6.033   1.895   5.149  0.6401  0.1363 -2.2001
 6209TIP3   OH218632   1.971   1.781   0.935 -0.2341  0.3614  0.1046
 6209TIP3    H118633   1.996   1.867   0.970 -2.9402  0.9345  0.8637
 6209TIP3    H218634   2.031   1.720   0.977  1.2878  1.7925  0.1069
 6210TIP3   OH218635   6.024   1.354   1.080 -0.1925  0.2468  0.6109
 6210TIP3    H118636   5.996   1.281   1.024  1.3664 -1.3030  1.7135
 6210TIP3    H218637   6.120   1.351   1.078 -0.0892  1.9913  1.0720
 6211TIP3   OH218638   2.858   5.243   1.515 -0.0981 -0.1164 -0.3924
 6211TIP3    H118639   2.939   5.267   1.560 -0.2779 -0.0373 -0.1008
 6211TIP3    H218640   2.837   5.156   1.548  0.2485 -0.4410 -1.0157
 6212TIP3   OH218641   0.530   5.283   1.605 -0.1654 -0.0667 -0.5489
 6212TIP3    H118642   0.607   5.248   1.558  0.0994  2.3876 -2.1430
 6212TIP3    H218643   0.456   5.258   1.550 -0.5000 -1.7632  0.5918
 6213TIP3   OH218644   6.055   1.125   3.013 -0.7551  0.3193 -0.1648
 6213TIP3    H118645   6.078   1.115   2.920  0.4540 -1.5999  0.2732
 6213TIP3    H218646   6.010   1.043   3.035 -1.4490  0.9554  0.8451
 6214TIP3   OH218647   4.065   0.382   0.290 -0.1133  0.0740 -0.3147
 6214TIP3    H118648   3.989   0.398   0.347  0.2809  1.3404 -0.1282
 6214TIP3    H218649   4.094   0.469   0.264  1.2633 -0.4010 -0.4090
 6215TIP3   OH218650   6.036   1.304   1.356 -0.2795 -0.0875  0.9892
 6215TIP3    H118651   6.107   1.344   1.406  1.5383 -2.8362  0.8215
 6215TIP3    H218652   6.047   1.337   1.267 -1.4481  2.1769  1.5918
 6216TIP3   OH218653   4.113   1.603   4.839 -0.3590 -0.1459  0.2711
 6216TIP3    H118654   4.157   1.654   4.907 -0.0561  0.9333 -0.7094
 6216TIP3    H218655   4.055   1.544   4.888 -0.3325  0.7613  1.4573
 6217TIP3   OH218656   2.738   1.871   4.882 -0.1795  0.1177  0.0356
 6217TIP3    H118657   2.747   1.842   4.973  0.5960 -2.0892 -0.6841
 6217TIP3    H218658   2.816   1.838   4.838 -0.6829  0.8815 -1.5149
 6218TIP3   OH218659   2.980   2.037   2.173  0.2958  0.0969  0.2341
 6218TIP3    H118660   3.066   2.029   2.132  1.0093 -1.1870  1.8945
 6218TIP3    H218661   2.996   2.022   2.266 -1.5635  1.0112  0.7497
 6219TIP3   OH218662   0.879   1.497   1.491  0.1212  0.1347 -0.1250
 6219TIP3    H118663   0.957   1.529   1.445 -0.7521  0.1282 -1.6972
 6219TIP3    H218664   0.868   1.407   1.460  0.0159 -0.2003  0.8369
 6220TIP3   OH218665   5.848   1.291   4.076 -0.3161  0.3599 -0.2085
 6220TIP3    H118666   5.944   1.281   4.074 -0.3369  0.3100 -2.1303
 6220TIP3    H218667   5.833   1.377   4.039 -1.0283  0.4785  0.3410
 6221TIP3   OH218668   4.038   4.035   3.031 -0.1006  0.6373 -0.2508
 6221TIP3    H118669   3.964   4.050   3.091  0.6259 -0.3609  0.9579
 6221TIP3    H218670   4.059   4.121   2.997 -1.4391  1.0267 -0.1402
 6222TIP3   OH218671   0.699   2.299   2.256 -0.1842  0.2028  0.0299
 6222TIP3    H118672   0.650   2.228   2.298 -0.2981 -0.0433 -0.5101
 6222TIP3    H218673   0.654   2.378   2.284  1.9292  0.4068  3.4439
 6223TIP3   OH218674   4.516   5.053   2.524  0.1236  0.3000  0.3361
 6223TIP3    H118675   4.433   5.006   2.513 -0.3551  1.3318 -0.6413
 6223TIP3    H218676   4.575   5.013   2.460  0.0716  0.2835  0.2989
 6224TIP3   OH218677   0.175   1.445   2.905  0.1371  0.0540  0.2983
 6224TIP3    H118678   0.147   1.407   2.822 -0.4860 -2.7839  1.6711
 6224TIP3    H218679   0.096   1.448   2.958  1.0337 -1.3103  1.8309
 6225TIP3   OH218680   2.835   2.645   3.612 -0.0284  0.9061 -0.3017
 6225TIP3    H118681   2.745   2.632   3.582  0.4374 -0.0500 -1.3772
 6225TIP3    H218682   2.848   2.576   3.678  0.8838 -1.1539 -2.4737
 6226TIP3   OH218683   0.865   5.818   1.511  0.2533  0.0797  0.5155
 6226TIP3    H118684   0.826   5.732   1.523 -0.5111  0.2652 -0.4796
 6226TIP3    H218685   0.808   5.862   1.448  1.2372  0.9067  0.1563
 6227TIP3   OH218686   0.848   5.808   5.188  0.7096  0.3249 -0.3047
 6227TIP3    H118687   0.929   5.795   5.237  0.1906 -2.8528 -0.0433
 6227TIP3    H218688   0.875   5.804   5.096  1.0600  1.2136 -0.2469
 6228TIP3   OH218689   1.222   2.436   3.924 -0.4446 -0.0257 -0.1338
 6228TIP3    H118690   1.192   2.381   3.997  0.5088 -0.4138 -0.0122
 6228TIP3    H218691   1.154   2.426   3.857 -0.6257 -0.8163  0.1540
 6229TIP3   OH218692   2.857   2.126   1.287  0.3256 -0.6931  0.2271
 6229TIP3    H118693   2.918   2.195   1.311  0.8739 -0.7215 -1.0455
 6229TIP3    H218694   2.894   2.087   1.209 -1.7779 -0.1144 -1.1367
 6230TIP3   OH218695   3.764   1.298   4.825 -0.2491  0.0168  0.0516
 6230TIP3    H118696   3.825   1.371   4.837  0.1550 -0.4512  0.9475
 6230TIP3    H218697   3.680   1.341   4.806  0.5235  0.6456 -2.2128
 6231TIP3   OH218698   5.005   5.667   0.931  0.1366 -0.7975  0.1816
 6231TIP3    H118699   5.086   5.671   0.983  0.3809  0.5072 -0.2678
 6231TIP3    H218700   4.965   5.753   0.943  0.3241 -0.3542 -1.9575
 6232TIP3   OH218701   3.846   1.268   2.316 -0.6845  0.0975  0.2697
 6232TIP3    H118702   3.818   1.188   2.362  1.2814 -1.3596 -0.8748
 6232TIP3    H218703   3.804   1.262   2.231 -0.7905  0.4448  0.2994
 6233TIP3   OH218704   2.122   5.368   0.137 -0.0106  0.2563 -0.0641
 6233TIP3    H118705   2.125   5.352   0.043 -0.3300  1.4125 -0.2915
 6233TIP3    H218706   2.140   5.462   0.146 -0.7219  0.3146  0.9643
 6234TIP3   OH218707   5.023   4.637   3.562 -0.2894  0.2203  0.0695
 6234TIP3    H118708   5.113   4.665   3.580 -0.1848 -0.3451  0.4692
 6234TIP3    H218709   5.032   4.558   3.509 -0.5409  0.0558  0.2646
 6235TIP3   OH218710   6.038   1.148   2.735 -0.7714 -0.2398 -0.3550
 6235TIP3    H118711   5.995   1.233   2.747 -0.6842 -0.2450 -0.0027
 6235TIP3    H218712   6.036   1.134   2.640 -0.2241  0.4475 -0.4756
 6236TIP3   OH218713   5.169   2.341   4.605  0.5135 -0.1323 -0.3978
 6236TIP3    H118714   5.241   2.287   4.573 -0.7440 -1.6216 -0.8381
 6236TIP3    H218715   5.132   2.382   4.527 -0.7973 -1.5557 -0.5753
 6237TIP3   OH218716   4.688   0.482   2.283  0.3579  0.0512 -0.2826
 6237TIP3    H118717   4.738   0.561   2.264  1.9256 -0.8579 -0.1037
 6237TIP3    H218718   4.628   0.473   2.208 -1.3617  2.4959  0.6754
 6238TIP3   OH218719   2.615   4.329   0.812 -0.7838 -0.2942 -1.0833
 6238TIP3    H118720   2.678   4.272   0.855 -1.1977  0.9430  1.3788
 6238TIP3    H218721   2.666   4.378   0.748  0.6457  0.1238  0.3002
 6239TIP3   OH218722   5.420   4.318   0.977  0.3821  0.0559  0.8203
 6239TIP3    H118723   5.484   4.310   1.047  0.9206  0.7933  0.4370
 6239TIP3    H218724   5.465   4.368   0.909 -0.2209 -0.3994  0.0620
 6240TIP3   OH218725   5.442   1.252   3.067 -0.5997 -0.6050 -0.1651
 6240TIP3    H118726   5.472   1.301   3.143  1.8773 -0.1461 -1.3389
 6240TIP3    H218727   5.445   1.160   3.095 -0.5021 -0.3862  0.5438
 6241TIP3   OH218728   5.158   1.333   3.606  1.0769 -0.1949 -0.3053
 6241TIP3    H118729   5.222   1.376   3.663  1.3242 -0.7791 -0.1347
 6241TIP3    H218730   5.188   1.354   3.517  0.2567  1.3669 -0.2603
 6242TIP3   OH218731   2.679   1.049   1.730 -0.5795 -0.0680  0.5634
 6242TIP3    H118732   2.724   1.112   1.787  0.5334 -0.2780 -0.0595
 6242TIP3    H218733   2.610   1.012   1.785 -0.5462  0.8983  1.2731
 6243TIP3   OH218734   0.247   4.118   2.582  0.0357  0.8873  0.5737
 6243TIP3    H118735   0.254   4.199   2.632  0.9087  0.7852  0.6408
 6243TIP3    H218736   0.200   4.058   2.641  1.5636  0.5822  1.5613
 6244TIP3   OH218737   0.069   5.360   3.239  0.2079  0.0545  0.5070
 6244TIP3    H118738   0.084   5.265   3.230 -1.7298 -0.2747  0.2935
 6244TIP3    H218739  -0.022   5.367   3.268  0.6446  1.8400  1.5938
 6245TIP3   OH218740   2.960   2.163   1.745  0.1894  0.0298 -0.1188
 6245TIP3    H118741   3.023   2.210   1.691  0.0619  0.3854  0.0381
 6245TIP3    H218742   3.009   2.089   1.782  0.6293  0.5587  0.3622
 6246TIP3   OH218743   2.490   3.909   4.813 -0.3956 -0.1008 -0.2085
 6246TIP3    H118744   2.549   3.985   4.809  0.8392 -1.0109  0.0959
 6246TIP3    H218745   2.544   3.836   4.782 -0.2275 -1.6226  3.2956
 6247TIP3   OH218746   4.829   2.623   2.090 -0.1492 -0.3440  0.5560
 6247TIP3    H118747   4.863   2.643   2.003  0.4706 -2.2294  0.3260
 6247TIP3    H218748   4.755   2.683   2.102  0.8514  1.1805 -0.5080
 6248TIP3   OH218749   0.100   1.845   2.517  0.3835 -0.6762 -0.2986
 6248TIP3    H118750   0.147   1.911   2.568  0.3591 -0.4780 -0.5309
 6248TIP3    H218751   0.165   1.777   2.499 -0.0507 -1.6381  1.5383
 6249TIP3   OH218752   0.572   5.626   0.007  0.2773  0.1974  0.4726
 6249TIP3    H118753   0.600   5.545   0.050  1.9448  1.1693  1.2994
 6249TIP3    H218754   0.650   5.659  -0.037 -0.1584  1.7358  0.7823
 6250TIP3   OH218755   4.194   5.439   1.824  0.4170  0.0938 -0.3089
 6250TIP3    H118756   4.139   5.499   1.773 -0.5234 -1.6999 -1.5051
 6250TIP3    H218757   4.186   5.469   1.914 -0.9142  1.0881 -0.7304
 6251TIP3   OH218758   4.735   3.680   4.769  0.5153  1.0167  0.3601
 6251TIP3    H118759   4.810   3.631   4.737  1.3500  2.3141  0.2908
 6251TIP3    H218760   4.747   3.684   4.864  0.7368  1.5260  0.3156
 6252TIP3   OH218761   0.729   0.975   4.925 -0.1808 -0.2043 -0.1234
 6252TIP3    H118762   0.751   1.065   4.901 -0.9263  0.2857  0.9333
 6252TIP3    H218763   0.707   0.933   4.841 -0.0274  0.6515 -0.6067
 6253TIP3   OH218764   1.272   3.994   4.210  0.3270  0.7599 -0.2584
 6253TIP3    H118765   1.328   3.950   4.273 -0.8269  0.7889  0.8113
 6253TIP3    H218766   1.297   4.087   4.216 -0.0140  0.8142  0.4241
 6254TIP3   OH218767   0.060   0.955   0.729  0.3361 -0.1461  0.6879
 6254TIP3    H118768  -0.017   0.898   0.721 -0.5034  1.0591 -0.2846
 6254TIP3    H218769   0.063   1.002   0.646  1.3294  0.8180  1.2441
 6255TIP3   OH218770   4.439   4.857   2.213 -0.0483  0.0331  0.9162
 6255TIP3    H118771   4.503   4.903   2.268  0.1547  1.3307 -0.3376
 6255TIP3    H218772   4.403   4.926   2.156  0.8347 -1.4704 -1.6120
 6256TIP3   OH218773   4.001   4.139   3.906  1.0919 -0.1500 -0.3511
 6256TIP3    H118774   3.950   4.061   3.929 -0.3765  0.6561 -0.7456
 6256TIP3    H218775   3.940   4.194   3.859  2.1655  1.1683 -0.2534
 6257TIP3   OH218776   4.552   1.056   3.671  0.0431  0.2180  0.0014
 6257TIP3    H118777   4.612   0.999   3.623  1.3427 -1.5092  3.3010
 6257TIP3    H218778   4.488   0.996   3.710 -0.7040  1.4363  0.6996
 6258TIP3   OH218779   6.286   2.162   3.095 -0.5497 -0.4626 -0.0840
 6258TIP3    H118780   6.285   2.203   3.182 -1.5026 -1.9594  0.6641
 6258TIP3    H218781   6.375   2.177   3.062 -0.5554  1.2209  0.5979
 6259TIP3   OH218782   4.338   3.787   2.893  0.4462  0.4764 -0.3910
 6259TIP3    H118783   4.330   3.717   2.959  0.6430  0.2943 -0.5605
 6259TIP3    H218784   4.296   3.751   2.815 -0.7245  1.0827 -0.0687
 6260TIP3   OH218785   1.823   0.578   5.059 -0.4867 -0.1091  0.2009
 6260TIP3    H118786   1.894   0.639   5.081 -1.6691  0.7637  1.8210
 6260TIP3    H218787   1.759   0.632   5.012 -0.4697 -0.6965 -0.5191
 6261TIP3   OH218788   5.398   2.323   4.259  0.3090 -0.6444 -0.1338
 6261TIP3    H118789   5.487   2.290   4.249  0.1193 -0.6840 -2.1500
 6261TIP3    H218790   5.409   2.412   4.294  1.2055 -0.3864 -1.0126
 6262TIP3   OH218791   6.236   0.283   1.957  0.1306  0.3213 -0.5731
 6262TIP3    H118792   6.224   0.370   1.919  0.8028 -0.5673 -2.9905
 6262TIP3    H218793   6.193   0.224   1.895 -1.5082 -1.0234  1.6901
 6263TIP3   OH218794   3.705   0.788   0.033  0.5045 -0.6099 -1.0071
 6263TIP3    H118795   3.650   0.835  -0.029  0.4320 -0.6609 -0.9810
 6263TIP3    H218796   3.659   0.793   0.116  0.5010 -0.7178 -1.0015
 6264TIP3   OH218797   3.384   4.930   4.610  0.0482 -0.2223  0.1799
 6264TIP3    H118798   3.413   4.996   4.672  2.1981 -0.7256 -0.2024
 6264TIP3    H218799   3.295   4.956   4.587 -0.0222  1.1664  1.8275
 6265TIP3   OH218800   6.208   0.419   3.692  0.1216 -0.4226  0.3392
 6265TIP3    H118801   6.167   0.341   3.729  2.0991 -2.4841 -1.5755
 6265TIP3    H218802   6.300   0.411   3.715  0.3034  1.7022  0.5684
 6266TIP3   OH218803   1.495   3.624   1.293 -0.2115 -0.3165  0.1970
 6266TIP3    H118804   1.582   3.629   1.255  0.0182 -1.1814  0.6060
 6266TIP3    H218805   1.498   3.681   1.370 -0.6023  1.2347 -0.8882
 6267TIP3   OH218806   2.055   4.408   1.443 -0.0208  0.1947  0.4272
 6267TIP3    H118807   2.092   4.477   1.498 -0.5652 -1.2670  2.7880
 6267TIP3    H218808   2.072   4.436   1.353  4.6476  0.7779  1.2622
 6268TIP3   OH218809   2.164   2.134   0.412 -0.3453 -0.5620  0.1200
 6268TIP3    H118810   2.163   2.039   0.418  0.5707 -0.5628  0.4013
 6268TIP3    H218811   2.130   2.164   0.497  1.1303 -0.6383  0.7580
 6269TIP3   OH218812   4.295   3.957   3.131 -0.0567 -0.0523 -0.5229
 6269TIP3    H118813   4.327   3.936   3.043 -0.1762 -0.7064 -0.4155
 6269TIP3    H218814   4.203   3.982   3.117 -0.7144 -2.2101 -0.3576
 6270TIP3   OH218815   3.564   5.445   1.453  0.5575  0.1097  0.0113
 6270TIP3    H118816   3.615   5.367   1.432  1.5067  0.3016  1.4553
 6270TIP3    H218817   3.498   5.414   1.516  0.5656  0.3515  0.1410
 6271TIP3   OH218818   0.700   0.029   5.119  0.3489 -0.7758 -0.5670
 6271TIP3    H118819   0.752  -0.035   5.167  1.6428  1.6027  1.4746
 6271TIP3    H218820   0.645   0.070   5.186 -0.6840  0.0425 -1.8567
 6272TIP3   OH218821   1.804   4.508   3.454  0.3562  0.4060 -0.0036
 6272TIP3    H118822   1.768   4.573   3.393 -0.6945  0.3930  0.5650
 6272TIP3    H218823   1.795   4.425   3.408 -1.3639  0.2654  0.5107
 6273TIP3   OH218824   6.166   1.000   1.355  0.3733  0.3051 -0.8520
 6273TIP3    H118825   6.145   1.038   1.440 -1.8686 -2.2927 -0.0822
 6273TIP3    H218826   6.137   1.064   1.291 -1.8363  0.5821  0.3635
 6274TIP3   OH218827   4.137   4.272   5.014 -0.7685 -0.7412  0.2295
 6274TIP3    H118828   4.116   4.365   5.025  0.2980 -0.3084 -1.0926
 6274TIP3    H218829   4.218   4.260   5.063 -0.3549 -0.7145 -0.4331
 6275TIP3   OH218830   5.106   5.175   0.016  0.6497 -0.5592 -0.0308
 6275TIP3    H118831   5.017   5.140   0.019  0.9686 -1.3608  0.4322
 6275TIP3    H218832   5.095   5.270   0.006 -0.2732 -0.4553  1.7297
 6276TIP3   OH218833   6.088   1.507   2.034  0.0075 -0.1154  0.1852
 6276TIP3    H118834   6.132   1.587   2.062  1.8667 -1.0794  0.1724
 6276TIP3    H218835   6.010   1.537   1.988 -0.8927  1.6029  2.6405
 6277TIP3   OH218836   4.816   2.448   2.619  0.1082 -0.0203  0.1798
 6277TIP3    H118837   4.817   2.384   2.548 -0.6664 -1.1838  1.1950
 6277TIP3    H218838   4.830   2.397   2.698  0.0498  1.1399  0.9646
 6278TIP3   OH218839   3.385   3.657   0.970  0.1905  0.5039  0.0108
 6278TIP3    H118840   3.431   3.725   1.019 -0.1823 -0.0625  1.1785
 6278TIP3    H218841   3.396   3.578   1.022 -1.3602  0.1644 -0.1123
 6279TIP3   OH218842   3.452   3.682   2.106  0.0128 -0.1224  0.6577
 6279TIP3    H118843   3.517   3.721   2.164  0.3676 -0.2654  0.3615
 6279TIP3    H218844   3.379   3.658   2.163  0.2927 -0.1156  1.0166
 6280TIP3   OH218845   0.950   1.924   2.927 -0.4116 -0.2844 -0.2209
 6280TIP3    H118846   0.988   1.867   2.994  0.4293  1.2234  0.6457
 6280TIP3    H218847   0.904   1.991   2.977 -2.0725 -0.6329 -1.2385
 6281TIP3   OH218848   4.598   4.051   2.066 -0.0914  0.2113 -0.3331
 6281TIP3    H118849   4.558   4.043   1.979 -0.5285 -0.8422 -0.0446
 6281TIP3    H218850   4.637   4.139   2.066  1.5201 -0.4352 -2.2651
 6282TIP3   OH218851   2.477   3.186   4.718 -0.1711  0.1067 -0.0160
 6282TIP3    H118852   2.497   3.271   4.679 -0.4196  1.2650  2.1985
 6282TIP3    H218853   2.562   3.144   4.730 -0.1613 -0.9101 -2.9409
 6283TIP3   OH218854   0.025   2.620   0.414 -0.2706 -0.2323  0.5283
 6283TIP3    H118855  -0.004   2.559   0.346  0.3878 -1.3275  1.2005
 6283TIP3    H218856   0.103   2.579   0.451 -0.7894  0.1847  2.1651
 6284TIP3   OH218857   5.378   5.413   2.271 -0.0813 -0.1060  0.7126
 6284TIP3    H118858   5.309   5.387   2.332  1.2823 -1.9249  1.5781
 6284TIP3    H218859   5.398   5.334   2.222 -0.7195  1.1827 -1.7611
 6285TIP3   OH218860   4.135   1.859   0.892 -0.1594  0.2865  0.1734
 6285TIP3    H118861   4.224   1.890   0.875 -0.0720 -0.4465 -0.8094
 6285TIP3    H218862   4.138   1.823   0.980 -0.0182  2.1311  0.9622
 6286TIP3   OH218863   0.754   3.393   1.817  0.3280  0.7743 -0.2623
 6286TIP3    H118864   0.745   3.339   1.738 -1.6402 -0.5056  0.7539
 6286TIP3    H218865   0.765   3.331   1.888 -0.5958  1.7589  0.7850
 6287TIP3   OH218866   5.169   3.156   0.663  0.3139 -0.4542 -0.1670
 6287TIP3    H118867   5.125   3.173   0.580  0.8123 -1.7072 -0.7114
 6287TIP3    H218868   5.133   3.221   0.723 -1.0982 -0.4193 -1.0072
 6288TIP3   OH218869   1.041   3.075   2.209 -1.0162  0.3230  0.0090
 6288TIP3    H118870   0.955   3.035   2.222 -0.5819 -0.7262 -0.2255
 6288TIP3    H218871   1.076   3.085   2.297  0.2228 -2.9413  0.0252
 6289TIP3   OH218872  -0.018   1.750   2.046 -0.2165 -0.1366  0.0742
 6289TIP3    H118873  -0.036   1.724   1.955  0.2911  1.4365 -0.5087
 6289TIP3    H218874   0.075   1.772   2.045 -0.0396 -0.7891  1.1713
 6290TIP3   OH218875   3.126   0.713   0.692 -0.0352  0.2235 -0.0262
 6290TIP3    H118876   3.045   0.759   0.716  0.1691  1.2069 -1.1292
 6290TIP3    H218877   3.155   0.671   0.773 -1.4702  0.1251  0.4626
 6291TIP3   OH218878   5.536   5.906   4.307 -0.2211  0.1833 -0.3753
 6291TIP3    H118879   5.559   5.906   4.400  1.3533 -0.0754 -0.7329
 6291TIP3    H218880   5.468   5.973   4.300 -0.0164  0.5632  0.8784
 6292TIP3   OH218881   6.106   3.414   4.884  0.7010 -0.3116  0.1188
 6292TIP3    H118882   6.142   3.341   4.836 -0.2994 -0.8716  0.1932
 6292TIP3    H218883   6.163   3.488   4.863  1.2320 -0.9218 -0.6047
 6293TIP3   OH218884   2.998   0.762   1.217 -0.2168  0.0313 -0.1615
 6293TIP3    H118885   3.069   0.825   1.220  0.0332 -0.2630  0.2245
 6293TIP3    H218886   2.941   0.793   1.146 -0.0053  0.5830 -0.0961
 6294TIP3   OH218887   5.911   2.198   3.067  0.3553  0.0359  0.8268
 6294TIP3    H118888   5.911   2.294   3.070 -0.8245  0.0266  2.3004
 6294TIP3    H218889   5.973   2.176   2.997  1.5382  1.8434  1.2397
 6295TIP3   OH218890   0.898   1.097   2.998 -0.3448  0.6644 -0.6014
 6295TIP3    H118891   0.905   1.011   2.955 -0.0652  0.9861 -1.2141
 6295TIP3    H218892   0.989   1.120   3.019 -0.5838 -0.2239  1.6830
 6296TIP3   OH218893   3.390   1.708   4.492  0.0028  0.2878 -0.5271
 6296TIP3    H118894   3.328   1.779   4.483 -0.5697  0.2251  2.2719
 6296TIP3    H218895   3.466   1.747   4.536  0.0729 -0.6058  0.1735
 6297TIP3   OH218896   1.384   3.216   5.028  0.2621 -0.2108  0.1396
 6297TIP3    H118897   1.427   3.233   5.112  3.0594  2.2907 -1.6089
 6297TIP3    H218898   1.408   3.126   5.007  3.5987  0.5945 -0.0345
 6298TIP3   OH218899   2.297   2.221   0.188 -0.6069 -0.3454  0.7675
 6298TIP3    H118900   2.260   2.306   0.163 -0.8269  0.4428  3.4352
 6298TIP3    H218901   2.231   2.183   0.247  1.0834 -0.6363  2.5723
 6299TIP3   OH218902   6.059   3.372   0.394 -0.0228  0.2461 -0.1200
 6299TIP3    H118903   5.965   3.380   0.378 -0.0142  0.3692 -0.1100
 6299TIP3    H218904   6.097   3.448   0.351  0.0586  0.2715 -0.0034
 6300TIP3   OH218905   1.217   2.078   5.061 -0.2346  0.3414 -0.1488
 6300TIP3    H118906   1.299   2.126   5.052 -0.6539  0.8470 -1.7289
 6300TIP3    H218907   1.168   2.124   5.129  0.9027 -0.1804  1.0626
 6301TIP3   OH218908   2.935   3.831   1.278  0.4158 -0.9614  0.2907
 6301TIP3    H118909   3.021   3.837   1.235  0.7050  1.0554  1.0119
 6301TIP3    H218910   2.934   3.745   1.319  2.2300 -0.9180  0.5175
 6302TIP3   OH218911   0.635   2.426   1.985 -0.4873  0.0358  0.9760
 6302TIP3    H118912   0.712   2.464   1.942 -0.5237  0.1366  0.9988
 6302TIP3    H218913   0.669   2.389   2.066  0.1748 -2.9822 -0.5317
 6303TIP3   OH218914   2.282   4.451   0.613 -0.1725 -0.4296 -0.0865
 6303TIP3    H118915   2.331   4.382   0.658  0.7246 -0.5961 -1.2410
 6303TIP3    H218916   2.287   4.426   0.520 -1.3766  0.2426 -0.3536
 6304TIP3   OH218917   1.165   1.635   4.108 -0.5460 -0.1238  0.3084
 6304TIP3    H118918   1.238   1.667   4.162  0.5337  0.2643 -1.3111
 6304TIP3    H218919   1.169   1.688   4.029 -0.9600 -1.8630 -0.9227
 6305TIP3   OH218920   2.832   0.399   1.513  0.8837  0.4483  0.2226
 6305TIP3    H118921   2.838   0.412   1.607  0.4957  0.8880  0.1932
 6305TIP3    H218922   2.845   0.305   1.500 -0.1656  0.2042  0.8121
 6306TIP3   OH218923   4.049   5.847   1.237 -0.2642  0.2016  0.0838
 6306TIP3    H118924   4.047   5.930   1.286 -0.2711 -0.8488  1.9460
 6306TIP3    H218925   4.045   5.779   1.304 -1.6636 -1.3345 -1.4671
 6307TIP3   OH218926   2.272   2.661   1.568  0.3608  0.2541  0.0543
 6307TIP3    H118927   2.235   2.690   1.652  1.0431  1.0871  0.0857
 6307TIP3    H218928   2.224   2.581   1.548 -1.3257  1.1643  0.1838
 6308TIP3   OH218929   4.750   0.628   0.474  0.1389 -0.4984  0.3632
 6308TIP3    H118930   4.769   0.581   0.555  0.7294 -0.4280  0.2703
 6308TIP3    H218931   4.668   0.673   0.491  0.2392 -0.5133  0.9119
 6309TIP3   OH218932   2.218   0.707   1.193  0.3605  0.3476 -0.0788
 6309TIP3    H118933   2.306   0.671   1.191 -0.1803 -1.1531 -2.9371
 6309TIP3    H218934   2.225   0.794   1.153  0.5986  0.3937  0.0669
 6310TIP3   OH218935   2.763   5.250   4.420  0.2980  0.2744 -0.3376
 6310TIP3    H118936   2.809   5.192   4.360  1.9756  1.2959 -0.1101
 6310TIP3    H218937   2.711   5.307   4.364 -2.0029 -1.8306 -0.5383
 6311TIP3   OH218938   0.873   4.177   0.427  0.0120  0.5913 -0.8270
 6311TIP3    H118939   0.869   4.082   0.418 -0.1538  0.5902 -0.7444
 6311TIP3    H218940   0.808   4.209   0.365 -0.8171  0.6023  0.0234
 6312TIP3   OH218941   2.148   3.393   4.620 -0.7619  0.1617  0.1769
 6312TIP3    H118942   2.165   3.316   4.675  0.5892 -0.1791 -0.6754
 6312TIP3    H218943   2.181   3.466   4.672  2.9644 -0.4111 -1.1131
 6313TIP3   OH218944   6.270   5.960   0.456 -0.2347 -0.1007 -0.3456
 6313TIP3    H118945   6.261   6.055   0.444 -0.5810  0.2386  2.1327
 6313TIP3    H218946   6.181   5.926   0.448 -0.3423  0.0120  0.3217
 6314TIP3   OH218947   0.633   4.786   4.679 -0.3001 -0.1835  0.0845
 6314TIP3    H118948   0.667   4.764   4.765 -0.8626  0.3738  0.4657
 6314TIP3    H218949   0.544   4.749   4.678  0.1220 -1.2282 -0.7173
 6315TIP3   OH218950   1.374   3.513   3.525  1.0731 -0.7178  0.0625
 6315TIP3    H118951   1.343   3.544   3.610  2.1042 -2.6816  1.2187
 6315TIP3    H218952   1.310   3.447   3.498 -0.8986  1.9005 -2.1937
 6316TIP3   OH218953   2.764   4.737   2.166 -0.2336 -0.1533  0.2492
 6316TIP3    H118954   2.812   4.723   2.248 -2.4003  0.5660  1.7421
 6316TIP3    H218955   2.768   4.653   2.121  0.5129 -0.7570  1.3884
 6317TIP3   OH218956   4.773   3.333   0.480 -0.6815 -0.1987 -0.1611
 6317TIP3    H118957   4.774   3.414   0.530 -2.0831  0.2994 -0.8850
 6317TIP3    H218958   4.784   3.360   0.389  1.2520 -1.0446 -0.2139
 6318TIP3   OH218959   3.426   5.315   5.172  0.2865  0.0164 -0.5904
 6318TIP3    H118960   3.509   5.287   5.134 -0.3768 -1.2626 -1.1669
 6318TIP3    H218961   3.361   5.255   5.135 -1.1228  1.8529 -1.2402
 6319TIP3   OH218962   5.112   4.734   5.004 -0.0321  0.3204  0.4388
 6319TIP3    H118963   5.149   4.662   5.054 -0.8092 -0.1455  0.3558
 6319TIP3    H218964   5.188   4.779   4.967  0.5571  0.5498  1.8383
 6320TIP3   OH218965   0.700   4.517   2.213  0.4224 -0.1069 -0.5552
 6320TIP3    H118966   0.678   4.607   2.190 -1.9103 -0.6540 -0.6546
 6320TIP3    H218967   0.719   4.474   2.130 -2.6521 -0.7094 -1.0543
 6321TIP3   OH218968   2.386   5.139   2.261 -0.1190  0.3009  0.3457
 6321TIP3    H118969   2.446   5.075   2.222  0.5951 -0.2211  2.1696
 6321TIP3    H218970   2.432   5.169   2.339 -0.9271  2.2486  0.1234
 6322TIP3   OH218971   2.285   4.656   0.808 -0.0115 -0.3573 -0.2297
 6322TIP3    H118972   2.285   4.587   0.741 -1.8120 -1.2219  0.6027
 6322TIP3    H218973   2.243   4.731   0.765 -0.6450 -0.7173 -0.2380
 6323TIP3   OH218974   3.934   4.631   3.565  0.3365  0.6319 -0.0965
 6323TIP3    H118975   3.978   4.713   3.590  1.2768  0.6167 -1.5871
 6323TIP3    H218976   4.006   4.568   3.557 -0.1585  0.1518 -0.8420
 6324TIP3   OH218977   2.352   1.952   4.013  0.3505  0.1691 -0.1855
 6324TIP3    H118978   2.285   2.010   4.048  0.9633 -0.1184  1.5410
 6324TIP3    H218979   2.434   2.002   4.022  0.6323 -0.2369 -0.4596
 6325TIP3   OH218980   5.189   2.910   2.784  0.2202  0.5915  0.0835
 6325TIP3    H118981   5.225   2.970   2.849 -1.5861  0.8601  0.8928
 6325TIP3    H218982   5.204   2.953   2.700 -0.7710  2.0563  0.6287
 6326TIP3   OH218983   3.779   0.304   2.276 -0.0790  0.1052 -0.2768
 6326TIP3    H118984   3.787   0.325   2.369  1.4368 -1.0335 -0.1008
 6326TIP3    H218985   3.686   0.285   2.264 -0.0695 -1.3492  1.4236
 6327TIP3   OH218986   1.379   2.009   1.955  0.6722  0.2221  0.1296
 6327TIP3    H118987   1.344   2.056   2.031  1.0962 -1.7184  1.5899
 6327TIP3    H218988   1.303   1.973   1.911  0.3126  2.3582 -1.1603
 6328TIP3   OH218989   0.698   3.106   3.637  0.0661 -0.2012  0.0606
 6328TIP3    H118990   0.706   3.178   3.701  0.5459 -0.5836  0.4466
 6328TIP3    H218991   0.604   3.096   3.624 -0.0257  0.1452  0.4135
 6329TIP3   OH218992   2.217   2.250   1.142  0.1144  0.5375 -0.4830
 6329TIP3    H118993   2.234   2.157   1.160 -0.2000  0.5115 -0.3178
 6329TIP3    H218994   2.272   2.297   1.204  0.0855  0.4592 -0.3970
 6330TIP3   OH218995   1.967   3.227   1.810 -0.7499 -0.2356 -0.3903
 6330TIP3    H118996   2.017   3.237   1.729 -1.1648  0.4913 -0.5648
 6330TIP3    H218997   1.893   3.287   1.800 -2.2046 -1.9488 -0.5589
 6331TIP3   OH218998   1.506   4.897   4.246 -0.0709 -0.2855 -0.1064
 6331TIP3    H118999   1.525   4.899   4.152 -0.8954 -0.2570 -0.2765
 6331TIP3    H219000   1.565   4.831   4.281 -0.5577 -1.1179 -0.8257
 6332TIP3   OH219001   3.117   4.295   2.304 -0.1407  0.0080 -0.1892
 6332TIP3    H119002   3.199   4.287   2.353 -1.1497 -0.4275  1.5176
 6332TIP3    H219003   3.085   4.382   2.327 -0.3736  0.0035 -0.5019
 6333TIP3   OH219004   2.918   6.027   2.591  0.1570  0.4584 -0.2939
 6333TIP3    H119005   2.893   5.950   2.642  2.3881  0.5557  1.0517
 6333TIP3    H219006   2.931   5.993   2.502  0.7648 -0.6604  0.2038
 6334TIP3   OH219007   3.201   5.645   2.691 -0.5813 -0.1396 -0.0657
 6334TIP3    H119008   3.142   5.695   2.748 -1.1435 -1.3133  0.3975
 6334TIP3    H219009   3.257   5.712   2.652 -0.9176  0.8089  0.9995
 6335TIP3   OH219010   2.450   3.527   3.147  0.0296 -0.6834  0.1132
 6335TIP3    H119011   2.525   3.480   3.112 -0.2120 -0.5143 -0.6578
 6335TIP3    H219012   2.374   3.477   3.118 -0.1604 -1.1063  1.2612
 6336TIP3   OH219013   3.635   3.968   3.691 -0.0294  0.0928 -0.4317
 6336TIP3    H119014   3.561   3.909   3.672 -0.3917  0.2905  0.3486
 6336TIP3    H219015   3.710   3.925   3.649 -0.3802 -0.6780 -0.2949
 6337TIP3   OH219016   0.351   5.467   1.740  0.1906 -0.2532 -0.4588
 6337TIP3    H119017   0.343   5.497   1.650  1.3430  0.3799 -0.3821
 6337TIP3    H219018   0.435   5.420   1.742 -0.4650 -1.4541 -0.0192
 6338TIP3   OH219019   2.927   4.535   3.297 -0.2020  0.2781 -0.4481
 6338TIP3    H119020   2.839   4.513   3.266 -0.8821  0.0295  1.5579
 6338TIP3    H219021   2.923   4.629   3.316 -0.5666 -0.0547  1.2222
 6339TIP3   OH219022   2.232   4.629   2.096  0.0879 -0.2474 -0.0801
 6339TIP3    H119023   2.266   4.685   2.165  0.8640  1.0460 -1.4345
 6339TIP3    H219024   2.285   4.549   2.101  1.0902  0.4028 -0.0529
 6340TIP3   OH219025   1.797   4.119   4.846 -0.1154  0.3161  0.1731
 6340TIP3    H119026   1.836   4.056   4.786  0.3543  1.3873 -0.6907
 6340TIP3    H219027   1.805   4.203   4.800 -2.7918  0.7178  0.2458
 6341TIP3   OH219028   1.603   0.784   0.812 -0.0882 -0.8940  0.2905
 6341TIP3    H119029   1.617   0.795   0.718 -1.8726 -0.3951  0.0476
 6341TIP3    H219030   1.682   0.820   0.853  0.0444  0.3490 -0.9768
 6342TIP3   OH219031   1.088   0.932   2.551  0.0530  0.2570  0.5477
 6342TIP3    H119032   1.056   1.015   2.587 -0.2244  1.3183 -1.9000
 6342TIP3    H219033   1.021   0.907   2.487 -0.0133 -2.0631  1.4474
 6343TIP3   OH219034   0.078   1.705   3.562 -1.0585 -0.0780 -0.0068
 6343TIP3    H119035   0.048   1.773   3.501 -1.2722  0.9043  1.1546
 6343TIP3    H219036   0.068   1.744   3.649  2.1227 -0.2488  0.5592
 6344TIP3   OH219037   4.518   4.069   4.648 -0.1094 -0.2268  0.4559
 6344TIP3    H119038   4.489   4.151   4.607  1.9882  0.1165 -0.5077
 6344TIP3    H219039   4.501   4.002   4.582  2.1486  0.1515 -0.6431
 6345TIP3   OH219040   5.823   3.270   3.984 -0.3300  0.4773 -0.7332
 6345TIP3    H119041   5.818   3.337   3.917  1.1204 -1.9069 -3.4561
 6345TIP3    H219042   5.856   3.193   3.939  2.6230 -0.8421  3.1029
 6346TIP3   OH219043   3.186   0.669   4.305  0.1254  0.0232  0.6708
 6346TIP3    H119044   3.213   0.686   4.215  0.8110 -0.5487  0.7522
 6346TIP3    H219045   3.208   0.577   4.319 -1.0566 -0.2187  1.0543
 6347TIP3   OH219046   5.804   3.395   0.780  0.1458  0.2800 -0.4121
 6347TIP3    H119047   5.847   3.457   0.839 -2.6611  1.4210  0.6324
 6347TIP3    H219048   5.757   3.449   0.718  0.1049 -0.8896 -1.4442
 6348TIP3   OH219049   3.198   2.360   4.959  0.2446  0.1695  0.0852
 6348TIP3    H119050   3.104   2.347   4.945 -0.1044  0.5963  1.7662
 6348TIP3    H219051   3.209   2.455   4.957  0.8889  0.0906 -1.3639
 6349TIP3   OH219052   0.843   2.926   1.177  0.2081 -0.1503  0.7489
 6349TIP3    H119053   0.840   3.012   1.218  1.0382 -0.3290  1.1965
 6349TIP3    H219054   0.792   2.870   1.235 -0.7460  0.1236  0.2067
 6350TIP3   OH219055   3.868   3.349   1.842  0.4606  0.6938 -0.5355
 6350TIP3    H119056   3.865   3.256   1.820 -0.6280  0.3358  0.9496
 6350TIP3    H219057   3.939   3.356   1.905 -0.4978  0.5440  0.5944
 6351TIP3   OH219058   5.198   2.475   4.866  0.0636 -0.4545 -0.8269
 6351TIP3    H119059   5.168   2.444   4.781 -0.0315 -3.2811  0.1566
 6351TIP3    H219060   5.263   2.411   4.894  1.7863  1.6234  0.3002
 6352TIP3   OH219061   1.946   2.089   3.067 -0.1485  0.1302  0.1486
 6352TIP3    H119062   1.955   2.116   3.158  0.8653  1.0959 -0.2239
 6352TIP3    H219063   2.002   2.012   3.058 -0.5872 -0.2310  0.4290
 6353TIP3   OH219064   5.412   4.634   0.905  0.4938 -0.0002 -0.3064
 6353TIP3    H119065   5.340   4.623   0.843  0.6020 -2.5727 -0.0758
 6353TIP3    H219066   5.490   4.638   0.850  0.3606  0.7900 -0.4542
 6354TIP3   OH219067   3.873   1.185   2.833  0.1992  0.7627 -0.8354
 6354TIP3    H119068   3.789   1.158   2.796  0.6359  0.8043 -1.9016
 6354TIP3    H219069   3.916   1.104   2.859  0.0600  0.6993 -0.8044
 6355TIP3   OH219070   2.159   0.743   4.020 -0.0465  0.2542 -0.0549
 6355TIP3    H119071   2.146   0.746   3.925 -2.5420  1.0384  0.2451
 6355TIP3    H219072   2.158   0.650   4.041 -0.3228  0.1009 -0.7034
 6356TIP3   OH219073   4.282   3.034   1.564 -0.4247 -0.2402  0.4239
 6356TIP3    H119074   4.239   3.055   1.481  0.7097 -0.5154 -0.2429
 6356TIP3    H219075   4.311   2.943   1.554  0.3470 -0.0485  0.8368
 6357TIP3   OH219076   5.884   2.972   0.683  0.6753  0.4973  0.3985
 6357TIP3    H119077   5.894   3.062   0.653 -2.3695  0.4477 -1.2023
 6357TIP3    H219078   5.811   2.974   0.744 -0.8976 -1.0814 -1.2807
 6358TIP3   OH219079   3.939   5.049   0.061  0.1237 -0.1465  0.0417
 6358TIP3    H119080   3.955   5.094  -0.022 -1.9339 -0.5592 -0.6275
 6358TIP3    H219081   4.015   5.071   0.115  0.0865  2.6120 -0.8872
 6359TIP3   OH219082   0.181   4.675   1.086  0.2108 -0.2945 -0.1585
 6359TIP3    H119083   0.215   4.595   1.048  0.6323 -0.2013  0.0109
 6359TIP3    H219084   0.207   4.744   1.025 -0.5488 -0.3345 -0.5392
 6360TIP3   OH219085   5.308   3.744   0.724  0.0320 -0.1827 -0.3833
 6360TIP3    H119086   5.327   3.667   0.669 -0.5524  0.1407 -1.0652
 6360TIP3    H219087   5.257   3.708   0.797 -0.9425 -0.3520 -1.1197
 6361TIP3   OH219088   3.497   3.034   3.885 -0.1235 -0.5026  0.1318
 6361TIP3    H119089   3.575   2.991   3.919  0.2555  0.8267  0.9907
 6361TIP3    H219090   3.445   3.054   3.963 -0.3793  0.3960 -0.2578
 6362TIP3   OH219091   1.758   4.973   3.858  0.2830 -0.2389  0.2598
 6362TIP3    H119092   1.838   4.934   3.895 -0.1510  0.3243  1.8427
 6362TIP3    H219093   1.790   5.049   3.809  0.6829  0.3227  1.3640
 6363TIP3   OH219094   4.525   3.881   0.242 -0.1788 -0.0955  0.0497
 6363TIP3    H119095   4.435   3.892   0.211  0.3319 -0.0165 -1.5118
 6363TIP3    H219096   4.543   3.788   0.231 -0.4645 -0.3336  1.5320
 6364TIP3   OH219097   5.296   0.079   1.513 -0.2501  0.1390 -0.3705
 6364TIP3    H119098   5.382   0.120   1.527 -0.2733 -0.1623  0.6996
 6364TIP3    H219099   5.297   0.053   1.421  0.8319  0.0894 -0.3566
 6365TIP3   OH219100   3.004   0.965   1.833 -0.5225  0.2879  0.0024
 6365TIP3    H119101   2.937   1.025   1.865 -0.0009  0.7352  0.2704
 6365TIP3    H219102   3.029   1.001   1.748  0.4792  1.0123  0.5892
 6366TIP3   OH219103   2.735   3.763   2.574  0.6456  0.1261  0.1780
 6366TIP3    H119104   2.822   3.768   2.613  0.2533  1.8541  0.9301
 6366TIP3    H219105   2.736   3.828   2.504  0.2205 -0.4501 -0.3727
 6367TIP3   OH219106   3.326   5.594   3.029  0.0642 -0.4058  0.2954
 6367TIP3    H119107   3.234   5.584   3.004 -0.3699  1.7795  0.8344
 6367TIP3    H219108   3.324   5.642   3.112  1.6951 -0.8673  0.6517
 6368TIP3   OH219109   0.818   5.721   3.374  0.0630 -0.4655 -0.4270
 6368TIP3    H119110   0.781   5.638   3.405  0.0401 -0.5031 -0.5512
 6368TIP3    H219111   0.751   5.786   3.393  0.6664 -0.2334  0.9780
 6369TIP3   OH219112   5.621   2.371   1.795 -0.0603 -0.1141 -0.1359
 6369TIP3    H119113   5.570   2.451   1.807 -1.3219 -1.0709  1.1867
 6369TIP3    H219114   5.712   2.401   1.787 -0.5273  1.4461  0.1920
 6370TIP3   OH219115   1.411   2.521   3.381 -0.0655  0.1769  0.5848
 6370TIP3    H119116   1.338   2.472   3.420 -0.6002  1.2304  0.9415
 6370TIP3    H219117   1.465   2.454   3.339 -1.1519 -0.6529  0.4596
 6371TIP3   OH219118   5.040   2.387   0.418  0.2016  0.6606  0.3878
 6371TIP3    H119119   4.968   2.434   0.461 -0.9787  0.9904 -1.8124
 6371TIP3    H219120   5.091   2.456   0.377  0.5458  0.2597  0.1447
 6372TIP3   OH219121   0.151   4.625   1.764 -0.8802  0.0184  0.0089
 6372TIP3    H119122   0.211   4.567   1.719 -2.3013 -1.6446  0.1713
 6372TIP3    H219123   0.117   4.683   1.696  1.9388  2.0526  0.1463
 6373TIP3   OH219124   5.791   4.718   1.967 -0.1817  0.2187  0.1278
 6373TIP3    H119125   5.796   4.769   1.886 -0.1186 -1.3538 -0.9194
 6373TIP3    H219126   5.721   4.655   1.951 -1.2749  0.8976  1.9556
 6374TIP3   OH219127   3.387   4.214   2.939  0.2295  0.5281 -0.4908
 6374TIP3    H119128   3.381   4.233   2.845 -0.0228 -0.3341 -0.6562
 6374TIP3    H219129   3.372   4.299   2.981 -0.1007  0.8430 -1.2176
 6375TIP3   OH219130   4.948   1.033   0.821  0.0182 -0.2463 -0.1340
 6375TIP3    H119131   4.999   1.104   0.782 -1.6997  1.2704  0.2765
 6375TIP3    H219132   4.973   1.033   0.913 -1.0768  0.8679  0.1852
 6376TIP3   OH219133   1.922   5.758   2.401  0.5786  0.6663 -0.0392
 6376TIP3    H119134   1.867   5.696   2.450  1.3170 -0.8188 -0.9987
 6376TIP3    H219135   1.954   5.819   2.468 -0.0480 -0.0914  0.9905
 6377TIP3   OH219136   5.045   2.331   4.036  0.6490  0.1692 -0.3173
 6377TIP3    H119137   5.026   2.418   4.002  0.4964 -0.2014 -1.2193
 6377TIP3    H219138   4.959   2.295   4.060  0.6817  0.1610 -0.2117
 6378TIP3   OH219139   5.275   2.100   2.007  0.0786  0.2658 -0.0856
 6378TIP3    H119140   5.321   2.016   2.008 -0.9162 -0.3202 -1.2831
 6378TIP3    H219141   5.345   2.165   2.005  0.8795 -0.5817 -1.0816
 6379TIP3   OH219142   6.282   5.336   2.028  0.0700 -0.1485 -0.3787
 6379TIP3    H119143   6.362   5.331   1.975  0.9620  0.2920  0.8937
 6379TIP3    H219144   6.240   5.418   1.999  1.1474  0.6936  0.3926
 6380TIP3   OH219145   5.353   0.795   3.895 -0.2607  0.0858 -0.2032
 6380TIP3    H119146   5.391   0.874   3.857  0.6502  0.3945  1.2823
 6380TIP3    H219147   5.420   0.728   3.884 -0.2839 -0.0058  0.1979
 6381TIP3   OH219148   4.518   2.118   1.877 -0.1735 -0.2188  0.1495
 6381TIP3    H119149   4.598   2.067   1.888  0.0693 -0.0190 -0.5970
 6381TIP3    H219150   4.474   2.112   1.961 -0.0169 -1.4197  0.1588
 6382TIP3   OH219151   5.608   4.338   1.195  0.0022 -0.3067 -0.1005
 6382TIP3    H119152   5.660   4.271   1.239 -1.3015  0.3310  2.5834
 6382TIP3    H219153   5.538   4.359   1.256 -1.8518  0.8278 -2.4413
 6383TIP3   OH219154   2.773   1.876   3.903 -0.2290  0.4280 -0.0605
 6383TIP3    H119155   2.847   1.930   3.930  1.0642 -0.4723 -1.5908
 6383TIP3    H219156   2.811   1.789   3.890 -1.7560 -0.2696 -0.0042
 6384TIP3   OH219157   0.522   5.754   1.903 -0.2410 -0.5115  0.2881
 6384TIP3    H119158   0.607   5.764   1.947  0.6424 -0.7388 -1.2916
 6384TIP3    H219159   0.536   5.682   1.841 -1.2417  0.2073 -0.8021
 6385TIP3   OH219160   6.039   5.645   4.582  0.4265  0.4198  0.1529
 6385TIP3    H119161   6.009   5.662   4.671 -2.1103  0.1513 -0.5459
 6385TIP3    H219162   6.033   5.730   4.538  1.1578  0.4509  0.1124
 6386TIP3   OH219163   0.591   3.116   0.628 -0.1395  0.5208 -0.0852
 6386TIP3    H119164   0.664   3.173   0.653 -0.6840  1.3057 -0.2187
 6386TIP3    H219165   0.526   3.128   0.697 -0.4844  0.4953 -0.3978
 6387TIP3   OH219166   4.357   3.780   0.534  0.3162  0.5849  0.0169
 6387TIP3    H119167   4.307   3.858   0.512  1.3008  1.2498  0.0589
 6387TIP3    H219168   4.320   3.711   0.479 -0.2909  1.1788 -0.3285
 6388TIP3   OH219169   3.018   1.475   3.985  0.1981  0.0614 -0.5108
 6388TIP3    H119170   3.084   1.543   3.970 -1.3267  1.3651 -1.6090
 6388TIP3    H219171   3.004   1.476   4.079 -0.0536  1.5528 -0.5390
 6389TIP3   OH219172   5.013   1.634   2.118  0.3675  0.3134 -0.1311
 6389TIP3    H119173   5.034   1.694   2.047 -0.0466  1.9582  1.0779
 6389TIP3    H219174   5.022   1.687   2.198  1.7307 -1.6978  1.1454
 6390TIP3   OH219175   5.382   3.515   3.325  0.0144  0.0490  0.1282
 6390TIP3    H119176   5.345   3.459   3.257 -0.2307 -0.9225  1.0474
 6390TIP3    H219177   5.476   3.519   3.304 -0.2600  0.9462 -1.0782
 6391TIP3   OH219178   3.560   3.201   3.383  0.0781 -0.3425  0.4202
 6391TIP3    H119179   3.549   3.234   3.472  1.4303  0.6118  0.2670
 6391TIP3    H219180   3.509   3.120   3.381 -0.6867  0.0663  1.7878
 6392TIP3   OH219181   0.839   1.051   0.633  0.9141 -0.2474  0.6304
 6392TIP3    H119182   0.823   0.977   0.692 -1.1087 -0.1155  0.3184
 6392TIP3    H219183   0.755   1.066   0.591  1.3914  2.0017  0.3870
 6393TIP3   OH219184   2.105   2.722   4.962 -0.3700 -0.2693 -0.0992
 6393TIP3    H119185   2.067   2.639   4.989 -1.1608  0.2279  0.3426
 6393TIP3    H219186   2.080   2.732   4.870  1.0564 -1.2499 -0.6223
 6394TIP3   OH219187   3.920   2.639   1.125 -0.0098 -0.0487 -0.1616
 6394TIP3    H119188   3.939   2.559   1.077 -1.2384  0.7314 -2.0491
 6394TIP3    H219189   3.841   2.675   1.083  0.7472  2.3717  0.3104
 6395TIP3   OH219190   6.232   3.639   2.901 -0.1786 -0.2205 -0.7852
 6395TIP3    H119191   6.265   3.599   2.820 -0.7832 -1.4672 -0.4425
 6395TIP3    H219192   6.308   3.683   2.938  0.5641 -1.1522 -1.1421
 6396TIP3   OH219193   4.605   2.798   0.104  0.1526 -0.5806 -0.0698
 6396TIP3    H119194   4.680   2.854   0.124  1.1153 -1.8013 -0.0994
 6396TIP3    H219195   4.628   2.713   0.143 -1.5671 -0.7848  0.5918
 6397TIP3   OH219196   0.081   1.972   4.983  0.0868 -0.5600  0.1101
 6397TIP3    H119197   0.015   2.041   4.977 -0.6692 -1.2376  0.5407
 6397TIP3    H219198   0.140   2.001   5.052 -0.4937 -0.5637  0.6129
 6398TIP3   OH219199   0.232   0.122   1.923  0.1953  0.0571 -0.0043
 6398TIP3    H119200   0.188   0.100   2.005  2.3173  2.1561  1.8171
 6398TIP3    H219201   0.325   0.109   1.941  0.7126  0.5060 -2.0994
 6399TIP3   OH219202   4.295   3.156   3.184  0.0755  0.8135  0.1868
 6399TIP3    H119203   4.315   3.087   3.247 -1.1343 -0.9161 -1.2405
 6399TIP3    H219204   4.203   3.178   3.201 -0.9274 -1.1253 -2.1715
 6400TIP3   OH219205   0.715   2.874   0.925  0.4900 -0.5247 -0.1303
 6400TIP3    H119206   0.770   2.801   0.898  1.1617  0.3222 -1.1534
 6400TIP3    H219207   0.738   2.889   1.017  1.1311 -0.9137 -0.2236
 6401TIP3   OH219208   4.359   2.684   1.201 -0.1963 -1.0318 -0.3184
 6401TIP3    H119209   4.417   2.757   1.178 -0.5909 -0.7884 -0.5639
 6401TIP3    H219210   4.416   2.607   1.202  0.6408 -0.4712  1.8223
 6402TIP3   OH219211   1.198   2.731   4.140 -0.2813  0.1523 -0.1044
 6402TIP3    H119212   1.214   2.657   4.082 -1.2289  0.2568 -0.5167
 6402TIP3    H219213   1.150   2.794   4.087 -0.4090  0.6161  0.5422
 6403TIP3   OH219214   3.411   3.762   3.695 -0.2417 -0.7915  0.6796
 6403TIP3    H119215   3.388   3.753   3.603 -0.0931  1.0564  0.4184
 6403TIP3    H219216   3.354   3.832   3.727  2.5854  1.6552  0.8282
 6404TIP3   OH219217   4.855   1.819   4.109  0.5067  0.2978  0.0070
 6404TIP3    H119218   4.843   1.725   4.101  1.1640  0.1833  0.2895
 6404TIP3    H219219   4.781   1.849   4.161  0.6748 -0.1680  0.5154
 6405TIP3   OH219220   3.238   0.773   4.016 -0.2961 -0.4615 -0.3359
 6405TIP3    H119221   3.274   0.826   3.945 -2.8163 -1.1381 -2.2628
 6405TIP3    H219222   3.166   0.824   4.051 -0.7757 -1.2724 -0.1048
 6406TIP3   OH219223   5.436   3.499   4.568  0.4853 -0.0750 -0.5789
 6406TIP3    H119224   5.440   3.498   4.663  0.5053  2.1862 -0.5084
 6406TIP3    H219225   5.342   3.507   4.548  0.1156 -3.6730 -0.9119
 6407TIP3   OH219226   0.597   0.075   0.547  0.3967  0.0432  0.1014
 6407TIP3    H119227   0.597   0.170   0.536  0.6206  0.0465  0.1154
 6407TIP3    H219228   0.689   0.052   0.560  0.3420 -0.1730  0.1244
 6408TIP3   OH219229   6.047   1.576   4.092  0.1389  0.4484  0.4937
 6408TIP3    H119230   6.083   1.626   4.166  0.1120  0.5271  0.4537
 6408TIP3    H219231   6.031   1.489   4.127 -2.3373  1.1479  1.3377
 6409TIP3   OH219232   4.217   0.068   0.168  0.3929  0.1356  0.5395
 6409TIP3    H119233   4.289   0.025   0.121  0.1145  1.4724 -1.2042
 6409TIP3    H219234   4.161  -0.004   0.197  0.0637 -0.7522 -2.0697
 6410TIP3   OH219235   1.814   5.646   2.640  0.8228 -0.2244 -0.3998
 6410TIP3    H119236   1.722   5.637   2.663  1.2437 -1.1855  1.0624
 6410TIP3    H219237   1.838   5.734   2.667  0.6355 -0.4131  0.3984
 6411TIP3   OH219238   2.673   4.086   2.522  0.3073 -0.3213 -0.1065
 6411TIP3    H119239   2.769   4.085   2.526  0.2664 -1.6367  2.8612
 6411TIP3    H219240   2.646   4.114   2.609 -2.0276 -0.8958 -0.5932
 6412TIP3   OH219241   0.962   2.564   3.485 -0.0673 -0.2851  0.0009
 6412TIP3    H119242   1.000   2.505   3.421 -0.6491 -0.0583 -0.5595
 6412TIP3    H219243   1.011   2.546   3.566  0.7505 -0.4877 -0.5223
 6413TIP3   OH219244   0.341   5.326   3.039  0.2199 -0.6176 -0.5107
 6413TIP3    H119245   0.427   5.330   2.997  0.0984  0.8448 -0.6863
 6413TIP3    H219246   0.336   5.407   3.090 -0.7681 -1.0360  0.0784
 6414TIP3   OH219247   4.694   5.172   4.708 -0.5757  0.8228  0.5878
 6414TIP3    H119248   4.665   5.136   4.792 -1.9019  0.8074  0.1502
 6414TIP3    H219249   4.684   5.266   4.718  0.4783  0.9125  0.8690
 6415TIP3   OH219250   1.044   4.164   1.941 -0.1325  0.2110 -0.2361
 6415TIP3    H119251   0.993   4.214   1.878 -1.0473  0.8748  0.9752
 6415TIP3    H219252   0.989   4.088   1.961  0.6915 -0.6398 -1.1188
 6416TIP3   OH219253   1.642   0.719   2.428 -0.2122  0.4380  0.2071
 6416TIP3    H119254   1.656   0.808   2.462 -1.6656  0.1718  1.6637
 6416TIP3    H219255   1.603   0.672   2.502  0.5615 -1.4375 -0.5271
 6417TIP3   OH219256   0.416   3.477   0.071  0.0449 -0.5091 -0.8002
 6417TIP3    H119257   0.436   3.547   0.009  0.8159 -0.0476 -0.0570
 6417TIP3    H219258   0.369   3.411   0.019 -0.7537  0.5761 -1.5015
 6418TIP3   OH219259   3.771   5.814   0.963  0.0568  0.0696 -0.1576
 6418TIP3    H119260   3.747   5.800   1.055  2.4709  1.4735  0.8005
 6418TIP3    H219261   3.719   5.890   0.936 -1.6080 -1.1139 -0.4151
 6419TIP3   OH219262   5.801   1.642   2.722  0.2635  0.1793 -0.2249
 6419TIP3    H119263   5.706   1.646   2.709  0.3467  0.3135 -0.8159
 6419TIP3    H219264   5.834   1.718   2.673  0.7349 -0.2621 -0.5895
 6420TIP3   OH219265   1.983   2.856   2.526 -0.4237  0.3241  0.1696
 6420TIP3    H119266   1.954   2.801   2.599 -0.4539 -1.4919 -1.1331
 6420TIP3    H219267   1.944   2.941   2.544 -1.0829 -0.2756  1.8531
 6421TIP3   OH219268   1.328   1.882   0.419 -0.5106  0.4223  0.0079
 6421TIP3    H119269   1.301   1.838   0.338  0.5153 -0.4466  0.1122
 6421TIP3    H219270   1.424   1.881   0.415 -0.4519  1.7373  0.5252
 6422TIP3   OH219271   1.503   0.396   2.760  0.4732 -0.0180  0.1465
 6422TIP3    H119272   1.536   0.486   2.761  2.1144 -0.6000  1.0690
 6422TIP3    H219273   1.430   0.398   2.698  1.0831  1.7334 -0.5611
 6423TIP3   OH219274   4.694   5.570   4.402  0.1772  0.3834  0.1190
 6423TIP3    H119275   4.768   5.570   4.342  0.9702  1.4975  1.0493
 6423TIP3    H219276   4.721   5.627   4.474 -1.1204 -0.1360  1.0657
 6424TIP3   OH219277   2.446   4.112   5.069 -0.5715  0.6404 -0.0503
 6424TIP3    H119278   2.356   4.140   5.082 -1.2595  0.3785 -3.2996
 6424TIP3    H219279   2.464   4.131   4.976  2.1627 -0.8243  0.0675
 6425TIP3   OH219280   6.190   1.743   2.639 -0.5246 -0.2116 -0.1112
 6425TIP3    H119281   6.142   1.737   2.557  0.1741  0.5214 -0.5922
 6425TIP3    H219282   6.273   1.784   2.615  0.8770 -2.5289  0.4631
 6426TIP3   OH219283   1.212   2.797   2.500  0.0308 -0.0792  0.3705
 6426TIP3    H119284   1.252   2.767   2.418  1.0205 -2.2452  1.5668
 6426TIP3    H219285   1.285   2.832   2.551 -0.4889  0.7483  0.5758
 6427TIP3   OH219286   5.738   3.077   1.891  0.3687  0.3277 -0.2689
 6427TIP3    H119287   5.732   3.063   1.985 -1.1276  2.1440 -0.0177
 6427TIP3    H219288   5.788   3.158   1.882  0.4583  0.1961 -1.0164
 6428TIP3   OH219289   2.562   5.564   3.456 -0.0329  0.0414  0.1628
 6428TIP3    H119290   2.589   5.578   3.365 -0.1835  1.7479  0.3487
 6428TIP3    H219291   2.556   5.469   3.465 -1.3567 -0.1270 -1.9908
 6429TIP3   OH219292   2.460   1.646   2.213  0.0876  0.0027 -0.0626
 6429TIP3    H119293   2.526   1.651   2.282  1.8716 -2.0334 -1.4654
 6429TIP3    H219294   2.463   1.732   2.171  0.1908  0.6920  1.3108
 6430TIP3   OH219295   5.355   4.842   0.703 -0.3737 -0.0762 -0.6280
 6430TIP3    H119296   5.281   4.886   0.662 -0.2947  0.7492  0.0974
 6430TIP3    H219297   5.379   4.773   0.641 -1.1052  0.2912 -1.3364
 6431TIP3   OH219298   5.290   2.539   1.323  0.5366 -0.2626  0.0089
 6431TIP3    H119299   5.285   2.546   1.418 -1.6928  2.2441 -0.1653
 6431TIP3    H219300   5.363   2.595   1.298  0.9443 -0.6996  0.2041
 6432TIP3   OH219301   6.321   0.921   0.116 -0.3830 -0.5237 -0.3929
 6432TIP3    H119302   6.291   0.877   0.196 -0.5134  0.4843  0.1292
 6432TIP3    H219303   6.415   0.933   0.129 -0.7154  1.5160  0.5920
 6433TIP3   OH219304   2.441   4.179   3.835 -0.3545 -0.1243  0.2900
 6433TIP3    H119305   2.462   4.110   3.772  0.2284 -1.0595  1.4513
 6433TIP3    H219306   2.521   4.232   3.841  0.5649 -1.5782  2.0890
 6434TIP3   OH219307   2.449   2.290   4.850  0.1175  0.2714  0.2060
 6434TIP3    H119308   2.416   2.268   4.763  1.2520  1.2476 -0.4944
 6434TIP3    H219309   2.394   2.362   4.879 -2.1638 -1.8521  1.5820
 6435TIP3   OH219310   5.306   0.209   4.152  0.3940  0.9264  0.2229
 6435TIP3    H119311   5.248   0.136   4.128  0.8128  0.2053  1.3448
 6435TIP3    H219312   5.385   0.167   4.185  1.3608  1.9093 -0.7659
 6436TIP3   OH219313   1.109   1.132   3.905 -0.3484  0.3786 -0.2000
 6436TIP3    H119314   1.113   1.228   3.907 -0.9732  0.4270 -0.9087
 6436TIP3    H219315   1.107   1.106   3.997 -0.2857  1.0535 -0.0032
 6437TIP3   OH219316   0.310   5.759   2.088 -0.3043  0.2077 -0.4454
 6437TIP3    H119317   0.386   5.742   2.032 -1.7808 -0.3729 -2.3721
 6437TIP3    H219318   0.323   5.848   2.120  0.6112  0.5443 -1.6859
 6438TIP3   OH219319   0.569   5.059   3.630 -0.8004 -0.1540 -0.0590
 6438TIP3    H119320   0.619   5.128   3.674 -0.3847 -0.6042  0.1798
 6438TIP3    H219321   0.531   5.102   3.554  1.2387 -0.1609 -1.1382
 6439TIP3   OH219322   4.172   1.591   2.416  0.4793 -0.2791 -0.1509
 6439TIP3    H119323   4.082   1.563   2.399  0.3517 -1.0330  1.5144
 6439TIP3    H219324   4.225   1.514   2.395  0.3800 -0.9852  1.8900
 6440TIP3   OH219325   2.183   0.188   3.860  0.0871  0.4386 -0.3365
 6440TIP3    H119326   2.118   0.180   3.929  1.7574 -1.4855  1.1579
 6440TIP3    H219327   2.203   0.098   3.834  1.1799  1.0190 -1.6937
 6441TIP3   OH219328   1.658   4.761   1.397 -0.2991 -0.4241  0.5137
 6441TIP3    H119329   1.657   4.696   1.468 -0.3204 -0.1427  0.7737
 6441TIP3    H219330   1.748   4.762   1.367  0.4327  1.6007  2.5382
 6442TIP3   OH219331   4.356   3.733   4.843 -0.5165 -0.3060  0.0447
 6442TIP3    H119332   4.399   3.719   4.758 -0.4555  1.2988 -0.2205
 6442TIP3    H219333   4.304   3.813   4.831  0.2062  0.4747  1.7601
 6443TIP3   OH219334   2.098   4.933   1.204 -0.1167  0.4567 -0.1116
 6443TIP3    H119335   2.150   4.902   1.278 -0.8189  0.9025  0.5888
 6443TIP3    H219336   2.159   4.934   1.131  0.1718 -1.6055  0.0466
 6444TIP3   OH219337   5.329   5.031   3.315  0.2438  0.7167 -0.4801
 6444TIP3    H119338   5.324   5.044   3.221 -1.8039  0.1288 -0.5181
 6444TIP3    H219339   5.308   4.938   3.327  0.6861  0.7372  0.5461
 6445TIP3   OH219340   3.122   3.372   0.957 -0.2607  0.2864  0.1895
 6445TIP3    H119341   3.203   3.355   0.909  0.3545 -0.1336  1.3409
 6445TIP3    H219342   3.097   3.287   0.992 -1.3249  0.3738 -0.3248
 6446TIP3   OH219343   1.958   5.656   1.586  0.1835 -0.4834 -0.2977
 6446TIP3    H119344   1.943   5.736   1.636 -1.9610  0.1519 -1.8001
 6446TIP3    H219345   1.900   5.591   1.627  0.2358 -0.6340 -0.4584
 6447TIP3   OH219346   4.755   4.361   2.715  0.3899 -0.2613  0.5214
 6447TIP3    H119347   4.816   4.433   2.696 -0.2487 -0.1809 -1.4999
 6447TIP3    H219348   4.761   4.349   2.810  3.8083 -0.4931  0.4213
 6448TIP3   OH219349   3.816   1.812   0.424  0.3723  0.1034 -0.2560
 6448TIP3    H119350   3.848   1.841   0.510  1.9301  0.0975 -0.8018
 6448TIP3    H219351   3.800   1.892   0.375  1.1771  0.0940 -0.5425
 6449TIP3   OH219352   1.955   2.372   1.691 -0.3557  0.6948 -0.0640
 6449TIP3    H119353   1.931   2.285   1.658  1.1891  0.3659 -0.3888
 6449TIP3    H219354   1.871   2.416   1.705 -1.2225 -1.0869  0.7799
 6450TIP3   OH219355   5.932   1.215   5.056  0.5886  0.2113 -0.7871
 6450TIP3    H119356   5.920   1.185   4.966  1.5314  0.0019 -0.8615
 6450TIP3    H219357   6.027   1.227   5.064  0.6268 -0.7422  0.4785
 6451TIP3   OH219358   2.080   4.359   0.886  0.3111 -0.6895  0.0543
 6451TIP3    H119359   2.172   4.347   0.863  0.2404 -1.7541  0.2950
 6451TIP3    H219360   2.041   4.400   0.808  1.3109  1.3844  0.5611
 6452TIP3   OH219361   3.964   1.887   2.571 -0.0663  0.4017 -0.0452
 6452TIP3    H119362   3.937   1.799   2.596 -0.5304  0.6313  0.2637
 6452TIP3    H219363   4.054   1.894   2.602  0.3484 -0.3392 -1.0126
 6453TIP3   OH219364   3.924   0.889   5.104 -0.2935 -0.8277 -0.4301
 6453TIP3    H119365   3.888   0.954   5.042  0.0538 -1.5723 -1.4380
 6453TIP3    H219366   4.012   0.871   5.071 -0.4851 -2.0026 -0.3130
 6454TIP3   OH219367   6.048   4.518   1.359 -0.5663 -0.3751 -0.0102
 6454TIP3    H119368   6.060   4.605   1.320  1.2600  0.0099  1.2978
 6454TIP3    H219369   5.954   4.512   1.374 -0.6072  2.0967  1.3522
 6455TIP3   OH219370   5.057   5.275   1.013 -0.0456 -0.4292 -0.1056
 6455TIP3    H119371   4.974   5.306   0.976 -0.3728 -0.3501  0.6721
 6455TIP3    H219372   5.068   5.326   1.093  1.7221  0.9355 -1.1329
 6456TIP3   OH219373   6.080   5.708   2.392 -0.6222  0.3726 -0.7518
 6456TIP3    H119374   6.056   5.746   2.476 -0.9413 -1.4322  0.0265
 6456TIP3    H219375   6.164   5.665   2.408 -0.8522 -0.2888 -1.2372
 6457TIP3   OH219376   1.773   4.731   2.435  0.1777  0.4983 -0.3593
 6457TIP3    H119377   1.702   4.669   2.419 -0.3279  0.9279  0.1609
 6457TIP3    H219378   1.834   4.717   2.363  0.4730 -1.1568  0.1620
 6458TIP3   OH219379   0.503   3.517   3.225  0.2561  0.0609 -0.3405
 6458TIP3    H119380   0.487   3.429   3.260 -0.6856  1.1026  2.0816
 6458TIP3    H219381   0.423   3.565   3.245  2.2480  2.5861  2.3052
 6459TIP3   OH219382   4.131   3.067   2.780 -1.2968  0.5803  0.0607
 6459TIP3    H119383   4.144   2.998   2.714 -0.8401 -0.2521  1.0081
 6459TIP3    H219384   4.039   3.057   2.806 -0.8635 -0.6433  1.2363
 6460TIP3   OH219385   1.798   2.762   0.592  0.1106  0.2111  0.3655
 6460TIP3    H119386   1.828   2.836   0.538  0.7384 -0.0639  0.3225
 6460TIP3    H219387   1.719   2.794   0.634 -0.9822  0.1016 -1.4933
 6461TIP3   OH219388   0.379   0.316   4.372 -0.1466 -0.2234  0.3629
 6461TIP3    H119389   0.350   0.339   4.283  0.7732  1.0232  0.3561
 6461TIP3    H219390   0.413   0.227   4.364 -3.1805 -1.5043  0.2106
 6462TIP3   OH219391   2.502   4.332   4.409 -0.2423  0.1752 -0.0646
 6462TIP3    H119392   2.461   4.257   4.366 -0.7063 -0.1968  1.0156
 6462TIP3    H219393   2.560   4.293   4.474 -0.1217  0.7559  0.1767
 6463TIP3   OH219394   2.202   5.913   1.035 -0.1363 -0.0635  0.1523
 6463TIP3    H119395   2.291   5.946   1.047  0.8283 -2.1204 -0.9536
 6463TIP3    H219396   2.176   5.945   0.949 -0.5255  0.5788  0.4954
 6464TIP3   OH219397   4.764   3.913   1.716  0.3582 -0.6350 -0.4408
 6464TIP3    H119398   4.845   3.866   1.734  0.0553 -0.5164  1.5368
 6464TIP3    H219399   4.772   3.995   1.766 -1.1254 -0.8113  0.1508
 6465TIP3   OH219400   5.628   2.131   3.864 -0.0581  0.0127 -0.7098
 6465TIP3    H119401   5.591   2.185   3.795 -0.1426  0.3407 -0.4096
 6465TIP3    H219402   5.692   2.075   3.819 -0.1559  0.1803 -1.0606
 6466TIP3   OH219403   1.402   1.859   0.763 -0.0978 -0.6776  0.0041
 6466TIP3    H119404   1.382   1.766   0.752 -1.7097 -0.2325 -1.2552
 6466TIP3    H219405   1.417   1.869   0.857 -0.9995 -2.0173  0.3207
 6467TIP3   OH219406   4.752   0.623   2.974  0.2429  0.4312  0.1411
 6467TIP3    H119407   4.778   0.544   2.928  0.7065  0.5888  0.1323
 6467TIP3    H219408   4.833   0.659   3.010 -0.2044 -0.0948  1.7630
 6468TIP3   OH219409   4.366   2.263   3.171  0.4288 -0.2307 -0.0126
 6468TIP3    H119410   4.312   2.218   3.106  1.4416 -0.3047 -0.8291
 6468TIP3    H219411   4.456   2.252   3.139  0.9355 -0.1367  1.3264
 6469TIP3   OH219412   2.745   3.907   1.099  0.0925 -0.4020 -0.0321
 6469TIP3    H119413   2.750   3.853   1.020  0.8732  0.7523 -0.8169
 6469TIP3    H219414   2.821   3.881   1.151  1.4081  1.0008 -1.1609
 6470TIP3   OH219415   4.704   5.755   4.105  0.2273  0.5326 -0.2341
 6470TIP3    H119416   4.686   5.750   4.012 -0.1516  0.4386 -0.1591
 6470TIP3    H219417   4.629   5.711   4.146  1.1815 -0.9063  0.0359
 6471TIP3   OH219418   3.077   5.196   5.129  0.1543 -0.2790 -0.2285
 6471TIP3    H119419   3.054   5.150   5.048 -2.0781 -2.6119  1.5344
 6471TIP3    H219420   3.023   5.275   5.128  1.4852  0.6698 -1.7508
 6472TIP3   OH219421   3.672   4.836   4.590 -0.5172 -0.2511 -0.1447
 6472TIP3    H119422   3.631   4.768   4.644 -0.7736  0.0780  0.0789
 6472TIP3    H219423   3.618   4.914   4.604 -1.6484 -0.5864 -2.2325
 6473TIP3   OH219424   2.835   4.742   3.003 -0.2785 -0.2021  0.3918
 6473TIP3    H119425   2.840   4.680   2.931  0.9240 -2.0304  1.9242
 6473TIP3    H219426   2.757   4.717   3.052 -1.8037  1.8092 -0.8303
 6474TIP3   OH219427   4.722   2.373   0.430 -0.1796 -0.1215 -0.3361
 6474TIP3    H119428   4.780   2.375   0.506 -1.1019  0.6145  0.3682
 6474TIP3    H219429   4.693   2.464   0.419  0.2022 -0.1524 -1.7811
 6475TIP3   OH219430   4.632   2.979   2.838  0.0987 -0.4079 -0.3105
 6475TIP3    H119431   4.642   3.042   2.767 -0.9719 -1.4686 -1.4531
 6475TIP3    H219432   4.564   3.017   2.894  2.0415  1.2029  1.1062
 6476TIP3   OH219433   4.912   2.860   3.721 -0.1042 -0.2967  0.1648
 6476TIP3    H119434   4.909   2.936   3.779 -1.1072 -0.9295  0.9889
 6476TIP3    H219435   4.893   2.895   3.634  2.2601  0.7996  0.0115
 6477TIP3   OH219436   4.826   5.268   1.845  0.1753 -0.1712 -0.0603
 6477TIP3    H119437   4.747   5.272   1.898 -0.3247 -1.4004 -0.6696
 6477TIP3    H219438   4.895   5.244   1.907  0.2394  1.6322  0.6108
 6478TIP3   OH219439   1.506   2.871   1.670 -0.1566  0.9772 -0.3095
 6478TIP3    H119440   1.504   2.959   1.633  0.2916  0.2877 -2.0771
 6478TIP3    H219441   1.421   2.834   1.647 -0.2324  0.8399  0.1793
 6479TIP3   OH219442   4.362   4.900   0.055  0.1676 -0.7159 -0.7502
 6479TIP3    H119443   4.342   4.931  -0.033 -1.1411  0.2625 -0.1446
 6479TIP3    H219444   4.456   4.917   0.066  0.8220 -2.6712 -2.6208
 6480TIP3   OH219445   2.914   0.241   0.132 -0.2520 -0.2098 -0.0735
 6480TIP3    H119446   3.007   0.237   0.107 -0.4046  0.3709 -0.7765
 6480TIP3    H219447   2.877   0.161   0.095  0.0691 -0.7399  0.7098
 6481TIP3   OH219448   4.945   1.712   2.956  0.3795  0.1497  0.6167
 6481TIP3    H119449   5.023   1.712   2.899  0.8831 -0.1169  1.2954
 6481TIP3    H219450   4.974   1.669   3.036 -0.9645 -1.5999  0.2205
 6482TIP3   OH219451   0.580   1.542   3.055 -0.7760 -0.0705 -0.3345
 6482TIP3    H119452   0.506   1.549   2.995 -0.1232 -1.5537 -1.3772
 6482TIP3    H219453   0.577   1.623   3.106 -0.3243  2.1615 -3.5545
 6483TIP3   OH219454   4.942   0.671   4.255 -0.5992 -0.1468  0.1840
 6483TIP3    H119455   5.002   0.693   4.184 -1.1329  1.8946  0.2920
 6483TIP3    H219456   4.958   0.739   4.321 -1.9358 -0.4923  0.8908
 6484TIP3   OH219457   0.368   0.960   1.813  0.4261  0.1606 -0.3879
 6484TIP3    H119458   0.430   0.887   1.805  2.4009  1.7698 -0.5921
 6484TIP3    H219459   0.330   0.968   1.725  0.6113 -0.2739 -0.5127
 6485TIP3   OH219460   4.747   1.542   3.871  0.0885 -0.6323  0.3239
 6485TIP3    H119461   4.745   1.506   3.960  1.6616  2.1163  1.5991
 6485TIP3    H219462   4.829   1.510   3.834 -0.3487 -1.4046 -0.0028
 6486TIP3   OH219463   3.310   5.213   1.318  0.6874  0.1627 -0.2895
 6486TIP3    H119464   3.358   5.144   1.273 -0.8792  0.0642 -1.8571
 6486TIP3    H219465   3.314   5.188   1.411  2.1288 -0.7563 -0.5643
 6487TIP3   OH219466   1.406   0.824   1.954 -0.1038  0.0466 -0.2863
 6487TIP3    H119467   1.500   0.840   1.959 -0.2755  0.7941  1.0082
 6487TIP3    H219468   1.370   0.902   1.911 -0.0739 -0.6242 -1.6108
 6488TIP3   OH219469   1.686   1.521   4.651 -0.8259  0.1480  0.3797
 6488TIP3    H119470   1.595   1.499   4.634 -0.6814  0.6202 -1.1093
 6488TIP3    H219471   1.726   1.439   4.680 -1.4385 -0.3457 -0.1603
 6489TIP3   OH219472   0.969   0.923   3.309 -0.0090 -0.1251  0.0218
 6489TIP3    H119473   0.968   0.890   3.219 -1.5489  0.4592 -0.2076
 6489TIP3    H219474   0.906   0.995   3.309 -0.1026 -0.1723  1.5942
 6490TIP3   OH219475   2.669   3.872   1.433 -0.5217  0.5707  0.0774
 6490TIP3    H119476   2.707   3.915   1.509 -0.2842  1.5289 -0.5633
 6490TIP3    H219477   2.721   3.793   1.421 -0.8075  0.2133  1.1301
 6491TIP3   OH219478   1.180   1.187   2.276 -0.0334  0.1660 -0.4492
 6491TIP3    H119479   1.206   1.155   2.362 -2.1110  2.2068  1.0379
 6491TIP3    H219480   1.246   1.253   2.254 -0.1873  0.5308  0.1718
 6492TIP3   OH219481   4.112   2.197   3.755 -0.0726 -0.3731 -0.2839
 6492TIP3    H119482   4.025   2.206   3.794 -0.1381 -0.5118 -0.3957
 6492TIP3    H219483   4.139   2.287   3.736  1.2979  0.0085  2.9299
 6493TIP3   OH219484   1.134   1.856   2.536  0.9637 -0.0882 -0.4928
 6493TIP3    H119485   1.217   1.809   2.526  1.0882  0.1123 -0.4052
 6493TIP3    H219486   1.150   1.917   2.607 -0.2699 -2.3084  1.8463
 6494TIP3   OH219487   6.242   5.149   4.759  0.0547  0.2503 -0.4993
 6494TIP3    H119488   6.250   5.194   4.843 -1.8404  0.8395 -0.5695
 6494TIP3    H219489   6.327   5.108   4.744  1.7464  3.3467 -0.1622
 6495TIP3   OH219490   5.200   1.725   4.869  0.6855 -0.6942  0.0278
 6495TIP3    H119491   5.186   1.810   4.827 -0.8719  0.1488  2.0815
 6495TIP3    H219492   5.261   1.744   4.940  2.2247 -1.8294 -0.9289
 6496TIP3   OH219493   5.807   2.125   0.635  0.3171  0.1888 -0.1905
 6496TIP3    H119494   5.852   2.203   0.604  0.6908  0.3429  0.7221
 6496TIP3    H219495   5.786   2.144   0.726 -2.0142  0.3178 -0.6698
 6497TIP3   OH219496   2.479   2.147   5.099 -0.5178 -0.0251  0.2279
 6497TIP3    H119497   2.412   2.111   5.042  0.2266  0.2070 -0.8165
 6497TIP3    H219498   2.533   2.201   5.042  0.8141 -0.5366  0.9602
 6498TIP3   OH219499   0.592   3.724   0.285  0.1258 -0.5043 -0.1734
 6498TIP3    H119500   0.631   3.805   0.252  0.1883 -0.1736  0.6902
 6498TIP3    H219501   0.502   3.726   0.251 -0.1968  0.4497  0.6783
 6499TIP3   OH219502   4.405   5.025   0.891  0.5357  0.1869  0.2199
 6499TIP3    H119503   4.392   5.111   0.849 -2.1380  0.3406  1.1674
 6499TIP3    H219504   4.396   5.043   0.984  1.3968 -0.9413  0.5325
 6500TIP3   OH219505   1.195   3.055   3.824  0.0188  0.2953  0.0561
 6500TIP3    H119506   1.244   2.974   3.836 -0.0373  0.2547  0.0089
 6500TIP3    H219507   1.108   3.027   3.797  0.4519  0.4147 -1.5395
 6501TIP3   OH219508   3.813   0.642   1.210 -0.1056  0.2570 -0.3719
 6501TIP3    H119509   3.798   0.710   1.275 -1.8338  1.4837 -1.9553
 6501TIP3    H219510   3.903   0.612   1.226 -0.5930  0.2005  2.7671
 6502TIP3   OH219511   5.201   3.372   4.083  0.4769 -0.1468 -0.1376
 6502TIP3    H119512   5.118   3.421   4.090  1.4278  1.6269 -0.6701
 6502TIP3    H219513   5.182   3.304   4.018 -0.4973  0.4085 -0.4706
 6503TIP3   OH219514   0.133   1.900   3.210  0.0720  0.1525  0.1096
 6503TIP3    H119515   0.074   1.916   3.284 -1.0336  1.2159 -0.9383
 6503TIP3    H219516   0.182   1.822   3.234 -0.0637  0.6275  2.0639
 6504TIP3   OH219517   2.243   2.952   3.745 -0.5144  0.1686  0.3764
 6504TIP3    H119518   2.262   3.037   3.707  0.3971 -0.7718 -1.3715
 6504TIP3    H219519   2.220   2.896   3.671 -1.5201 -1.0086  1.5255
 6505TIP3   OH219520   2.156   3.425   4.054 -0.6541 -0.4942 -0.4129
 6505TIP3    H119521   2.136   3.518   4.065  1.6111 -0.0821  0.8189
 6505TIP3    H219522   2.106   3.399   3.977 -0.4946  2.0268 -1.4730
 6506TIP3   OH219523   4.608   2.198   3.438  0.1385  0.4312 -0.3688
 6506TIP3    H119524   4.594   2.287   3.406 -1.0134  0.7762  1.0135
 6506TIP3    H219525   4.702   2.192   3.453  0.1509  1.6043  0.0555
 6507TIP3   OH219526   0.552   4.401   0.626  0.2691 -0.5455 -0.2194
 6507TIP3    H119527   0.600   4.473   0.586 -0.7391  0.5819  0.5134
 6507TIP3    H219528   0.464   4.405   0.588 -0.7281  0.5725  1.9602
 6508TIP3   OH219529   5.813   5.179   4.363 -0.2303 -0.3363  0.0437
 6508TIP3    H119530   5.815   5.274   4.372  0.2011 -0.2401 -1.0503
 6508TIP3    H219531   5.721   5.156   4.377 -0.2233  0.1567  0.9952
 6509TIP3   OH219532   1.164   3.518   0.899  0.5978  0.0746  0.3657
 6509TIP3    H119533   1.214   3.595   0.871 -0.2519 -0.3537 -2.6121
 6509TIP3    H219534   1.091   3.555   0.949 -0.8536  1.5055 -2.5520
 6510TIP3   OH219535   3.876   2.681   2.760 -0.0359 -0.4695 -0.2809
 6510TIP3    H119536   3.941   2.673   2.830  0.2176  0.1621 -0.4359
 6510TIP3    H219537   3.927   2.684   2.679 -0.3241 -1.1029 -0.4964
 6511TIP3   OH219538   0.999   4.024   4.648  0.4177 -0.1706  0.2763
 6511TIP3    H119539   1.057   4.083   4.697  0.6999  1.3229 -1.7234
 6511TIP3    H219540   1.053   3.992   4.575 -0.9982  0.6850 -1.2252
 6512TIP3   OH219541   5.465   0.813   4.558 -0.1691  0.0273 -0.9292
 6512TIP3    H119542   5.390   0.770   4.518 -0.7322  0.0279  0.0995
 6512TIP3    H219543   5.500   0.869   4.488 -0.2567 -1.0359 -1.8471
 6513TIP3   OH219544   5.534   5.632   2.374  0.3730 -0.2508  0.2202
 6513TIP3    H119545   5.490   5.565   2.322  0.4834  0.1208 -0.3774
 6513TIP3    H219546   5.517   5.608   2.465 -0.0663 -0.7656  0.0098
 6514TIP3   OH219547   2.028   0.717   0.112  0.1683 -0.5865 -0.2658
 6514TIP3    H119548   2.040   0.812   0.112  0.7527 -0.6414 -1.5400
 6514TIP3    H219549   1.937   0.704   0.137  0.2393  0.2766  0.4810
 6515TIP3   OH219550   1.370   4.952   2.782 -0.9368 -0.5102  0.5331
 6515TIP3    H119551   1.314   4.977   2.708  1.3103  0.7017 -0.8769
 6515TIP3    H219552   1.411   4.870   2.753 -0.2271 -0.1523  0.5002
 6516TIP3   OH219553   1.455   2.509   1.864 -0.3959  0.1321 -0.0300
 6516TIP3    H119554   1.374   2.487   1.819 -0.2854  1.8781 -1.1863
 6516TIP3    H219555   1.435   2.591   1.909  0.2249 -0.3373  1.1582
 6517TIP3   OH219556   2.150   2.033   0.054  0.1191  0.1244  0.0096
 6517TIP3    H119557   2.207   2.100   0.091 -0.6703 -0.1538  1.8612
 6517TIP3    H219558   2.205   1.955   0.048  0.9955  0.8202 -2.0000
 6518TIP3   OH219559   5.415   5.037   1.861  0.0722 -0.4768  0.1033
 6518TIP3    H119560   5.460   5.000   1.785  0.1161 -1.0856  0.4171
 6518TIP3    H219561   5.472   5.016   1.935 -1.0033 -1.8006  0.5901
 6519TIP3   OH219562   5.917   0.259   4.981  0.0042  0.0139 -0.1413
 6519TIP3    H119563   5.845   0.321   4.973 -0.3301 -0.5352 -1.7165
 6519TIP3    H219564   5.897   0.208   5.060  0.3009  1.8565  1.2000
 6520TIP3   OH219565   2.590   4.651   1.930  0.2023 -0.1763 -0.0119
 6520TIP3    H119566   2.666   4.708   1.940  1.5057 -2.0635  1.5789
 6520TIP3    H219567   2.602   4.610   1.844  1.2970 -0.8456  0.4412
 6521TIP3   OH219568   3.693   5.353   3.100  0.0767 -0.5024 -0.2209
 6521TIP3    H119569   3.727   5.278   3.149 -0.3108 -0.9609 -0.6512
 6521TIP3    H219570   3.770   5.392   3.059  0.5168  0.2595  1.2238
 6522TIP3   OH219571   4.891   3.476   2.901 -0.4158  0.5237 -0.2176
 6522TIP3    H119572   4.815   3.525   2.934 -0.1788  1.2960 -0.8126
 6522TIP3    H219573   4.961   3.497   2.962 -0.5724  0.0974  0.1203
 6523TIP3   OH219574   5.998   1.126   0.826 -0.2040  0.0137 -0.2992
 6523TIP3    H119575   5.952   1.159   0.748 -0.9498  1.5267  0.7222
 6523TIP3    H219576   5.927   1.098   0.885  0.2635  0.4720  0.4966
 6524TIP3   OH219577   3.957   5.279   2.034 -0.2486 -0.3336  0.5374
 6524TIP3    H119578   3.984   5.200   2.080 -0.2424 -0.0670  1.0010
 6524TIP3    H219579   4.038   5.316   1.999 -0.3445 -0.9360 -0.3383
 6525TIP3   OH219580   2.710   5.736   4.232 -0.1127 -0.8278 -0.0963
 6525TIP3    H119581   2.681   5.730   4.323  0.7286 -1.5175  0.1334
 6525TIP3    H219582   2.799   5.770   4.237 -0.8426  1.4348 -0.8087
 6526TIP3   OH219583   0.460   2.884   1.056 -0.3327  0.0400  0.2093
 6526TIP3    H119584   0.521   2.857   0.987 -1.6427  0.4310 -1.1385
 6526TIP3    H219585   0.376   2.846   1.030 -0.5007 -1.4606  2.6236
 6527TIP3   OH219586   5.816   3.620   1.881 -0.1728 -0.3646 -0.1138
 6527TIP3    H119587   5.898   3.660   1.854 -0.6262  1.7770  1.4456
 6527TIP3    H219588   5.758   3.632   1.806 -0.1815  1.6984  0.1562
 6528TIP3   OH219589   5.533   3.147   0.059  0.2242  0.2167  0.4335
 6528TIP3    H119590   5.599   3.125   0.124  1.2507  0.3747 -0.5121
 6528TIP3    H219591   5.479   3.215   0.100  2.7700  2.6355  0.0647
 6529TIP3   OH219592   6.338   1.147   4.821 -0.2746  0.4612 -0.7331
 6529TIP3    H119593   6.249   1.124   4.848 -0.3619 -1.6193 -2.5180
 6529TIP3    H219594   6.393   1.115   4.893 -0.8537  0.1650 -0.4111
 6530TIP3   OH219595   0.897   4.962   0.097  0.2714 -0.1341  0.4175
 6530TIP3    H119596   0.921   5.036   0.153 -0.7410 -0.0871  0.8238
 6530TIP3    H219597   0.980   4.930   0.062  0.8581  0.3004  1.3697
 6531TIP3   OH219598   5.103   3.535   1.812 -0.4170  0.4152  0.0535
 6531TIP3    H119599   5.169   3.562   1.876  0.5160 -0.3242 -0.5613
 6531TIP3    H219600   5.038   3.488   1.862 -0.9529  1.8922  0.8115
 6532TIP3   OH219601   2.860   1.612   3.809  0.4739  0.3827  0.3604
 6532TIP3    H119602   2.924   1.577   3.871  0.6833 -0.4077 -0.2840
 6532TIP3    H219603   2.786   1.553   3.814  0.4059  0.4367  0.0084
 6533TIP3   OH219604   2.410   5.496   0.391  0.1574 -0.5560 -0.3057
 6533TIP3    H119605   2.431   5.472   0.300 -0.0423  2.1225 -1.1322
 6533TIP3    H219606   2.488   5.472   0.441  0.1117 -2.4695 -1.0480
 6534TIP3   OH219607   0.183   4.637   4.138 -0.2197  0.4486 -0.1119
 6534TIP3    H119608   0.134   4.577   4.081 -2.3719  0.4341  1.5981
 6534TIP3    H219609   0.174   4.723   4.096  0.1617  0.0991 -0.9308
 6535TIP3   OH219610   4.536   3.250   2.044  0.2211 -0.0296 -0.3989
 6535TIP3    H119611   4.569   3.173   1.997  0.3256 -1.2568  1.5545
 6535TIP3    H219612   4.610   3.279   2.098 -0.1695  0.7632 -0.2719
 6536TIP3   OH219613   5.025   2.409   0.907 -0.3008 -0.8587  0.1749
 6536TIP3    H119614   5.039   2.447   0.994 -1.0005  2.0979 -0.8626
 6536TIP3    H219615   5.094   2.448   0.853 -1.2079 -0.8409 -1.0273
 6537TIP3   OH219616   2.754   4.562   3.584  0.1773  0.1939  0.5616
 6537TIP3    H119617   2.838   4.604   3.603 -0.2151  1.3644 -0.1635
 6537TIP3    H219618   2.688   4.628   3.606 -0.5564 -0.6410  0.9537
 6538TIP3   OH219619   1.260   0.541   4.603 -0.1310  0.7190  0.0951
 6538TIP3    H119620   1.191   0.571   4.662  0.8739  0.4506  1.4677
 6538TIP3    H219621   1.291   0.460   4.642  2.1508  1.7199  0.5585
 6539TIP3   OH219622   3.615   3.318   0.932 -0.3224 -1.0342  0.5381
 6539TIP3    H119623   3.668   3.259   0.985  1.0601 -2.2200 -1.9631
 6539TIP3    H219624   3.563   3.368   0.995  2.6282 -0.8888  3.1022
 6540TIP3   OH219625   1.124   0.212   0.550 -0.4441  0.1260  0.3832
 6540TIP3    H119626   1.133   0.158   0.628 -1.1983 -0.6067 -0.0237
 6540TIP3    H219627   1.129   0.151   0.477 -1.1269  0.6175 -0.0907
 6541TIP3   OH219628   6.296   1.962   1.829  0.5142  0.0336 -0.4404
 6541TIP3    H119629   6.238   1.936   1.757  0.8006  0.7496 -0.9447
 6541TIP3    H219630   6.359   1.890   1.835 -0.2565 -0.6281 -0.0550
 6542TIP3   OH219631   5.507   1.233   2.303 -0.0258 -0.5856  0.3594
 6542TIP3    H119632   5.430   1.184   2.277 -1.1989  0.7423  1.2011
 6542TIP3    H219633   5.574   1.210   2.238 -0.9387 -2.1806 -0.0563
 6543TIP3   OH219634   0.181   3.923   0.944  0.1966 -0.2164  0.2510
 6543TIP3    H119635   0.257   3.980   0.932  1.3601 -1.4235  1.4072
 6543TIP3    H219636   0.219   3.839   0.970 -1.5025 -1.2055 -0.2980
 6544TIP3   OH219637   2.121   1.004   0.089 -0.7144  0.4061  0.2175
 6544TIP3    H119638   2.159   1.091   0.078 -1.2190  0.6506  0.3567
 6544TIP3    H219639   2.112   0.994   0.184 -1.8812  0.7507  0.1573
 6545TIP3   OH219640   3.803   3.279   3.578  0.5124 -0.3591 -0.4193
 6545TIP3    H119641   3.833   3.219   3.510  0.4212 -0.1412 -0.6541
 6545TIP3    H219642   3.714   3.250   3.598  0.8246 -0.9169  0.1753
 6546TIP3   OH219643   5.135   5.661   2.035  0.2129  0.0911  0.6137
 6546TIP3    H119644   5.226   5.676   2.009 -0.3043 -0.6887 -2.0061
 6546TIP3    H219645   5.090   5.743   2.013  0.0669  0.0322  0.6899
 6547TIP3   OH219646   1.284   2.303   4.256  0.5955 -0.6149 -0.6203
 6547TIP3    H119647   1.213   2.267   4.309  0.3585 -1.0499 -1.2192
 6547TIP3    H219648   1.305   2.386   4.298 -0.6930 -0.1783 -0.7720
 6548TIP3   OH219649   3.715   0.525   0.957  0.2319 -0.4783 -0.4249
 6548TIP3    H119650   3.756   0.549   1.040 -0.1497 -0.2495 -0.2963
 6548TIP3    H219651   3.705   0.608   0.910 -1.0538 -0.3590  0.0053
 6549TIP3   OH219652   5.541   2.355   4.715 -0.1609  0.6075  0.2610
 6549TIP3    H119653   5.618   2.328   4.767  0.3140  0.3226 -0.5713
 6549TIP3    H219654   5.517   2.277   4.666 -1.3648  0.5200  0.9392
 6550TIP3   OH219655   2.677   0.915   4.963 -0.2691 -0.3828  0.0987
 6550TIP3    H119656   2.707   0.837   4.916 -0.7682 -0.9356  0.6816
 6550TIP3    H219657   2.673   0.888   5.055 -2.0533 -0.1884  0.1027
 6551TIP3   OH219658   0.402   0.064   0.204  0.4665  0.0799  0.4053
 6551TIP3    H119659   0.498   0.068   0.204  0.5568 -1.2496 -0.5217
 6551TIP3    H219660   0.380   0.020   0.286  0.7804 -1.2720 -0.2082
 6552TIP3   OH219661   0.134   2.961   2.445 -0.2152 -0.1311  0.7274
 6552TIP3    H119662   0.131   2.892   2.380  1.6478  0.3041  0.1455
 6552TIP3    H219663   0.102   2.920   2.525 -1.8232 -0.8688 -0.2435
 6553TIP3   OH219664   1.985   4.804   1.576  0.5790  0.5255 -0.3832
 6553TIP3    H119665   2.031   4.888   1.579  2.7434 -0.5091 -1.8355
 6553TIP3    H219666   1.965   4.791   1.483 -1.2422  0.1392  0.0132
 6554TIP3   OH219667   0.564   3.647   1.836 -0.3252 -0.3036 -0.3280
 6554TIP3    H119668   0.560   3.553   1.823  0.3737 -0.7344  2.0717
 6554TIP3    H219669   0.527   3.684   1.756 -0.8164 -2.5937 -1.2389
 6555TIP3   OH219670   1.795   2.676   1.605  0.5768 -0.4944 -0.2163
 6555TIP3    H119671   1.765   2.591   1.638  2.4523 -0.9746  0.3650
 6555TIP3    H219672   1.800   2.664   1.510 -0.8384 -0.4394 -0.3263
 6556TIP3   OH219673   6.062   0.793   2.461 -0.3558 -0.3704  0.4963
 6556TIP3    H119674   6.151   0.828   2.462 -0.6820  0.4735  0.7557
 6556TIP3    H219675   6.058   0.742   2.380 -0.7283  2.6077 -1.5496
 6557TIP3   OH219676   0.275   1.702   1.364  0.2291 -0.0296  0.0177
 6557TIP3    H119677   0.327   1.729   1.440  0.1949 -1.7859  0.7098
 6557TIP3    H219678   0.309   1.755   1.292  2.9378 -0.9866  0.4667
 6558TIP3   OH219679   2.909   5.436   4.561  0.4336 -0.3661 -0.5185
 6558TIP3    H119680   2.979   5.374   4.580  0.0995 -0.5606  0.1175
 6558TIP3    H219681   2.850   5.387   4.504 -0.3245 -1.0021  0.7465
 6559TIP3   OH219682   2.082   3.520  -0.002 -0.1330 -0.0809  0.2263
 6559TIP3    H119683   2.162   3.502   0.047 -0.9721 -1.5742  1.1349
 6559TIP3    H219684   2.061   3.436  -0.044 -0.5910  0.6157 -0.9666
 6560TIP3   OH219685   3.845   1.836   1.288 -0.1587 -0.3215 -0.5539
 6560TIP3    H119686   3.817   1.856   1.198 -1.1037 -0.0873 -0.2160
 6560TIP3    H219687   3.764   1.826   1.337  0.3322  1.7859  0.7859
 6561TIP3   OH219688   1.890   1.587   2.120 -0.3683 -0.0230  0.0586
 6561TIP3    H119689   1.977   1.573   2.082  0.5484  2.3322  1.0549
 6561TIP3    H219690   1.833   1.525   2.075  1.4547 -0.2697 -2.0724
 6562TIP3   OH219691   0.751   0.778   4.205  0.5776 -0.1325 -0.0988
 6562TIP3    H119692   0.772   0.823   4.123 -0.0953 -2.6347 -1.7393
 6562TIP3    H219693   0.834   0.743   4.236  1.0425  1.8078  0.9980
 6563TIP3   OH219694   2.536   2.935   3.235 -0.6052  0.0634  0.1892
 6563TIP3    H119695   2.556   2.843   3.255 -1.8294 -0.6481 -1.5774
 6563TIP3    H219696   2.602   2.960   3.171 -1.8860 -0.5236 -1.4358
 6564TIP3   OH219697   5.562   5.606   3.118  0.0915 -0.1767  0.0478
 6564TIP3    H119698   5.563   5.694   3.154 -1.5581  0.9778 -2.5043
 6564TIP3    H219699   5.510   5.612   3.038  2.3466 -2.8414 -1.8169
 6565TIP3   OH219700   1.342   5.294   1.377 -0.3682 -0.2244 -0.0440
 6565TIP3    H119701   1.298   5.354   1.437  0.5331  2.2260 -1.6754
 6565TIP3    H219702   1.415   5.258   1.428 -0.7719  0.2570  0.9011
 6566TIP3   OH219703   1.110   5.053   1.415  0.0842  0.1549 -0.4731
 6566TIP3    H119704   1.056   5.039   1.492  0.0640  0.9748 -0.3272
 6566TIP3    H219705   1.196   5.021   1.439 -0.2570 -0.8808 -0.6010
 6567TIP3   OH219706   5.400   4.262   4.720 -0.5991  0.4066 -0.3547
 6567TIP3    H119707   5.343   4.191   4.691 -0.6850  0.4114 -0.1965
 6567TIP3    H219708   5.343   4.321   4.769 -0.3489  0.1112  0.3123
 6568TIP3   OH219709   1.652   4.718   2.808 -0.1824  0.5878 -0.5727
 6568TIP3    H119710   1.623   4.777   2.878 -0.1959  0.4872 -0.4940
 6568TIP3    H219711   1.744   4.742   2.794 -0.2413  0.7606 -0.6760
 6569TIP3   OH219712   3.765   1.713   0.759  0.3717  0.4358  0.2635
 6569TIP3    H119713   3.855   1.680   0.763  0.1128 -0.1897  2.6397
 6569TIP3    H219714   3.723   1.660   0.692  1.2113 -0.8099  0.6819
 6570TIP3   OH219715   6.168   1.143   1.591 -0.0443  0.0371  0.9575
 6570TIP3    H119716   6.238   1.203   1.615  0.3042 -0.2657  0.7179
 6570TIP3    H219717   6.093   1.170   1.644  0.0149  0.8739  0.6348
 6571TIP3   OH219718   0.724   1.506   4.144 -0.3563 -0.1262 -0.0988
 6571TIP3    H119719   0.798   1.532   4.198  0.2067 -0.9305 -0.4622
 6571TIP3    H219720   0.763   1.488   4.058 -0.1504 -4.8027  0.7196
 6572TIP3   OH219721   2.358   1.113   3.841  0.2470  0.3915  0.6885
 6572TIP3    H119722   2.392   1.165   3.768 -0.1195 -2.0162 -1.3706
 6572TIP3    H219723   2.344   1.026   3.803 -1.4147 -0.5928  3.2817
 6573TIP3   OH219724   6.209   1.690   4.899  0.4896 -0.3585 -0.7235
 6573TIP3    H119725   6.200   1.710   4.806  3.0701  2.4662 -0.5079
 6573TIP3    H219726   6.254   1.605   4.902  0.5059 -0.4065 -2.0444
 6574TIP3   OH219727   3.594   1.397   2.214 -0.6908  0.1646 -0.0886
 6574TIP3    H119728   3.557   1.458   2.278  0.6094 -0.1921  1.0473
 6574TIP3    H219729   3.588   1.311   2.257 -1.8986 -0.4400 -1.4009
 6575TIP3   OH219730   0.872   1.740   5.053  0.1078  0.1178  0.3949
 6575TIP3    H119731   0.803   1.713   4.992  0.0159 -0.8690  0.9201
 6575TIP3    H219732   0.831   1.737   5.139  0.7996 -0.4582  0.7094
 6576TIP3   OH219733   1.165   1.754   3.845  1.0437  0.0932 -0.4558
 6576TIP3    H119734   1.246   1.709   3.824  1.3229  0.6286 -0.5508
 6576TIP3    H219735   1.121   1.766   3.761  0.2699 -1.2828 -0.2779
 6577TIP3   OH219736   2.771   4.323   5.179  0.3323 -0.5240  0.0391
 6577TIP3    H119737   2.861   4.355   5.176 -0.0514  0.6805  0.7772
 6577TIP3    H219738   2.735   4.343   5.093  0.7971 -1.1296 -0.3045
 6578TIP3   OH219739   4.743   1.306   1.620 -0.2000 -0.3256  0.3050
 6578TIP3    H119740   4.670   1.258   1.580 -1.0342  0.1590  1.1878
 6578TIP3    H219741   4.791   1.240   1.669 -1.5424 -0.2806  1.7989
 6579TIP3   OH219742   4.910   2.712   2.800  0.3273 -0.5046 -0.5984
 6579TIP3    H119743   5.005   2.714   2.815  0.4308  2.2495 -0.9715
 6579TIP3    H219744   4.901   2.714   2.705 -0.1662 -2.5770 -0.6247
 6580TIP3   OH219745   6.286   1.177   3.430 -0.2518 -0.7074 -0.7822
 6580TIP3    H119746   6.200   1.172   3.388 -1.2779  0.9400  0.9751
 6580TIP3    H219747   6.316   1.266   3.413 -0.3532 -0.2405  1.1697
 6581TIP3   OH219748   2.978   5.113   3.393  0.3276 -0.0610  0.1342
 6581TIP3    H119749   2.893   5.151   3.416 -0.0561  0.6895 -2.3035
 6581TIP3    H219750   2.956   5.035   3.343  1.0620  0.2834 -0.7393
 6582TIP3   OH219751   4.036   3.730   4.088  0.1945 -0.1953  0.3249
 6582TIP3    H119752   4.046   3.734   4.183  0.2033  0.3043  0.3094
 6582TIP3    H219753   3.961   3.788   4.070  0.7036  0.3603 -0.0428
 6583TIP3   OH219754   4.871   5.054   3.015  0.1024  0.3823  0.1685
 6583TIP3    H119755   4.780   5.025   3.011  0.1446  0.0744  1.1440
 6583TIP3    H219756   4.873   5.116   3.088  0.5462  0.9216 -0.2840
 6584TIP3   OH219757   1.822   3.635   1.533 -0.3484 -0.4396  0.3981
 6584TIP3    H119758   1.814   3.630   1.628 -1.3148  2.3947  0.5602
 6584TIP3    H219759   1.777   3.716   1.509  0.8455 -0.4748 -2.3706
 6585TIP3   OH219760   3.237   5.880   4.509 -0.4362  0.4441  0.2974
 6585TIP3    H119761   3.223   5.818   4.581 -1.2060  0.9765  0.6123
 6585TIP3    H219762   3.263   5.824   4.435 -1.1096 -0.2715  0.5793
 6586TIP3   OH219763   0.425   4.215   2.310 -0.1177 -0.3114  0.0764
 6586TIP3    H119764   0.479   4.192   2.235 -0.8104  0.2735 -0.6158
 6586TIP3    H219765   0.482   4.200   2.386  1.4400  1.3662 -0.6781
 6587TIP3   OH219766   1.421   3.698   0.655 -0.2443  0.5222  0.7466
 6587TIP3    H119767   1.397   3.703   0.748 -0.0075  2.1299  0.7569
 6587TIP3    H219768   1.338   3.690   0.609 -0.3124 -1.2542  1.1186
 6588TIP3   OH219769   1.263   1.088   4.469 -0.5817 -0.6428 -0.1188
 6588TIP3    H119770   1.231   1.177   4.456 -0.6299 -0.6505 -0.0531
 6588TIP3    H219771   1.355   1.099   4.494 -0.9585 -0.5326  1.3358
 6589TIP3   OH219772   2.384   0.914   4.061  0.3312  0.3673  0.7500
 6589TIP3    H119773   2.307   0.869   4.025 -0.6923  0.9190  2.1580
 6589TIP3    H219774   2.390   0.995   4.010  1.3366 -0.6356 -0.8346
 6590TIP3   OH219775   5.356   3.689   0.192  0.1246 -0.1294  0.1773
 6590TIP3    H119776   5.278   3.671   0.244 -0.2258  1.5067  0.2484
 6590TIP3    H219777   5.324   3.729   0.111  0.8008 -0.8188 -0.4539
 6591TIP3   OH219778   5.721   0.524   4.111 -0.1812 -0.0114 -0.0620
 6591TIP3    H119779   5.814   0.546   4.110  0.0910 -1.0024  1.0488
 6591TIP3    H219780   5.718   0.431   4.087 -1.0635  0.4411 -1.9355
 6592TIP3   OH219781   1.100   5.279   1.886  0.2938  0.2503  0.2438
 6592TIP3    H119782   1.005   5.284   1.899  0.3866  1.7215  0.5349
 6592TIP3    H219783   1.128   5.205   1.939 -0.7745 -0.6734 -0.4294
 6593TIP3   OH219784   0.071   1.296  -0.011 -0.3465  0.4682  0.1038
 6593TIP3    H119785  -0.002   1.235  -0.021 -0.9697  1.2991 -0.6883
 6593TIP3    H219786   0.059   1.333   0.077  0.4458 -1.0319  0.8636
 6594TIP3   OH219787   6.125   4.718   4.243 -0.2461  0.5441 -0.4649
 6594TIP3    H119788   6.124   4.721   4.339  0.3319 -1.2424 -0.3553
 6594TIP3    H219789   6.039   4.751   4.217  0.3200  3.0304  0.5373
 6595TIP3   OH219790   5.545   3.848   0.542 -0.0875 -0.2130  0.1123
 6595TIP3    H119791   5.589   3.931   0.524 -1.9900  0.4599 -1.9304
 6595TIP3    H219792   5.460   3.856   0.498 -1.8580 -1.8437  2.9193
 6596TIP3   OH219793   3.004   4.250   0.013  0.4291  0.0277 -0.3446
 6596TIP3    H119794   3.089   4.293   0.012 -0.4123  1.7998 -0.7736
 6596TIP3    H219795   2.953   4.299   0.078  0.0575 -1.7467  0.7873
 6597TIP3   OH219796   1.802   0.414   4.161 -0.0822 -0.2921 -0.3790
 6597TIP3    H119797   1.717   0.372   4.146 -0.0903  0.0280 -1.3359
 6597TIP3    H219798   1.782   0.490   4.215 -0.8507  1.2965 -2.7495
 6598TIP3   OH219799   0.372   0.681   3.471  0.4107 -0.0440 -0.8955
 6598TIP3    H119800   0.328   0.679   3.556  1.3310  0.2863 -0.3911
 6598TIP3    H219801   0.303   0.702   3.409 -0.1375  0.4952 -0.1281
 6599TIP3   OH219802   6.229   5.661   0.057 -0.1810  0.2475  0.5131
 6599TIP3    H119803   6.322   5.675   0.071 -0.3800  1.4388  0.8222
 6599TIP3    H219804   6.216   5.567   0.067  1.0595 -0.0060 -0.0304
 6600TIP3   OH219805   0.404   4.197   3.940 -0.0880  0.4857 -0.5290
 6600TIP3    H119806   0.441   4.226   4.024  1.0461 -1.2737 -0.3568
 6600TIP3    H219807   0.358   4.273   3.906 -1.8802  0.8580  2.3721
 6601TIP3   OH219808   3.905   4.825   4.437 -0.3156  0.1813 -0.1553
 6601TIP3    H119809   3.817   4.830   4.475 -0.0881  1.3528  0.2805
 6601TIP3    H219810   3.892   4.845   4.344 -0.4935  0.5148 -0.0610
 6602TIP3   OH219811   4.392   5.937   0.883  0.0825  0.0495  0.4344
 6602TIP3    H119812   4.336   5.868   0.919  1.0892 -0.2586  1.5041
 6602TIP3    H219813   4.481   5.903   0.894  0.4883  0.3890 -1.4887
 6603TIP3   OH219814   0.443   2.685   4.204 -0.1280 -0.6948 -0.4887
 6603TIP3    H119815   0.496   2.661   4.279  1.1939 -0.0803 -1.1838
 6603TIP3    H219816   0.395   2.605   4.181  0.1850 -1.1508  0.4112
 6604TIP3   OH219817   1.438   5.824   2.215 -0.9360  0.2652 -0.1374
 6604TIP3    H119818   1.435   5.835   2.310 -1.8235 -0.2772 -0.0880
 6604TIP3    H219819   1.482   5.740   2.202  0.2946  0.9160 -0.2641
 6605TIP3   OH219820   3.146   4.310   5.074 -0.2114  0.2580 -0.3129
 6605TIP3    H119821   3.191   4.251   5.133 -1.8728  0.8481  1.6697
 6605TIP3    H219822   3.199   4.390   5.074 -0.1959  0.2517  0.4006
 6606TIP3   OH219823   2.091   2.755   4.699 -0.2377  0.1802 -0.3133
 6606TIP3    H119824   2.057   2.843   4.687 -0.4894  0.0064 -0.9440
 6606TIP3    H219825   2.145   2.740   4.621 -0.0800 -0.1705 -0.1406
 6607TIP3   OH219826   5.158   2.387   3.769 -0.1720 -0.1976 -0.1911
 6607TIP3    H119827   5.097   2.461   3.773  0.1924  0.2751 -2.1653
 6607TIP3    H219828   5.240   2.421   3.805 -0.3207  0.0235 -0.0646
 6608TIP3   OH219829   5.014   2.113   0.350 -0.1848  0.4301 -0.7395
 6608TIP3    H119830   5.098   2.083   0.384 -0.2100 -0.3310 -1.3233
 6608TIP3    H219831   5.015   2.208   0.363  0.1293  0.2541  0.6347
 6609TIP3   OH219832   1.671   0.006   1.525 -0.1139  0.4769 -0.0827
 6609TIP3    H119833   1.614  -0.056   1.570 -0.8844  0.0512 -1.5896
 6609TIP3    H219834   1.706   0.061   1.595 -0.5025 -0.7609  1.1376
 6610TIP3   OH219835   2.879   1.685   2.371 -0.2705  0.3420 -0.1343
 6610TIP3    H119836   2.919   1.608   2.412 -1.3337 -0.5683 -0.7396
 6610TIP3    H219837   2.787   1.681   2.396 -0.7162  0.3906 -1.6511
 6611TIP3   OH219838   0.410   2.867   2.707 -0.0552 -0.5701 -0.1967
 6611TIP3    H119839   0.443   2.918   2.632  0.9198  0.4692  0.8935
 6611TIP3    H219840   0.459   2.785   2.703  1.3120  0.1908  0.2875
 6612TIP3   OH219841   1.775   0.494   4.783  0.1732 -0.1125  0.0840
 6612TIP3    H119842   1.689   0.484   4.823 -0.2850  1.0152 -0.5699
 6612TIP3    H219843   1.791   0.589   4.783  1.2405 -0.2796 -0.1522
 6613TIP3   OH219844   6.233   5.279   5.028 -0.4488  0.2951 -0.6465
 6613TIP3    H119845   6.195   5.285   5.115 -0.4873  0.6520 -0.6895
 6613TIP3    H219846   6.324   5.254   5.044  0.6309  3.9734 -0.2785
 6614TIP3   OH219847   4.756   2.030   2.983  0.5777  0.3327  0.1931
 6614TIP3    H119848   4.724   1.969   3.050  1.3087  0.1445  0.3753
 6614TIP3    H219849   4.699   2.014   2.907 -0.4348  0.7437  0.8476
 6615TIP3   OH219850   2.746   2.188   0.378  0.2419 -0.5581 -0.9163
 6615TIP3    H119851   2.650   2.192   0.381  0.2648 -0.7230  1.0878
 6615TIP3    H219852   2.767   2.100   0.409  1.0778  0.3720  1.3937
 6616TIP3   OH219853   2.445   0.524   2.339  0.4308  0.2507 -0.0708
 6616TIP3    H119854   2.361   0.510   2.296 -0.2177  1.5682  0.6968
 6616TIP3    H219855   2.445   0.461   2.412  0.1748  0.1418 -0.1637
 6617TIP3   OH219856   3.566   2.191   1.923 -0.1187 -0.3594  0.3151
 6617TIP3    H119857   3.511   2.245   1.866  1.2606  0.7358 -0.0326
 6617TIP3    H219858   3.516   2.110   1.935 -2.4165  1.0891  1.1463
 6618TIP3   OH219859   4.782   4.587   4.663  0.0105 -0.2313  0.2277
 6618TIP3    H119860   4.853   4.627   4.713  0.0293  1.1899 -0.8539
 6618TIP3    H219861   4.819   4.506   4.628  0.6226 -0.2340  0.8699
 6619TIP3   OH219862   3.529   1.565   3.273 -0.0547 -0.4170 -0.0396
 6619TIP3    H119863   3.603   1.504   3.273  2.3782  2.2371  2.0288
 6619TIP3    H219864   3.559   1.640   3.221 -1.1283  0.8321  1.0293
 6620TIP3   OH219865   5.331   0.853   3.438 -0.2092  0.3878 -0.0546
 6620TIP3    H119866   5.258   0.895   3.483  0.2128  2.6275 -1.3176
 6620TIP3    H219867   5.383   0.815   3.508 -1.1280  1.1693  1.1053
 6621TIP3   OH219868   4.074   0.259   2.190  0.6587  0.7574  0.4075
 6621TIP3    H119869   4.119   0.342   2.179  0.6581  0.8205  0.8719
 6621TIP3    H219870   4.137   0.193   2.159  1.0428  0.8510  0.9854
 6622TIP3   OH219871   4.656   3.450   2.414  0.2819 -0.5927  0.1616
 6622TIP3    H119872   4.673   3.416   2.502 -2.3128 -0.1198  0.9171
 6622TIP3    H219873   4.645   3.372   2.360  0.4694 -0.8990  0.5576
 6623TIP3   OH219874   2.942   3.014   0.733 -0.0381 -0.5435 -0.2201
 6623TIP3    H119875   2.937   2.993   0.827  0.3602  0.5099  0.0443
 6623TIP3    H219876   2.886   3.091   0.722  2.8410  1.7100 -0.1038
 6624TIP3   OH219877   1.043   5.318   2.450 -0.2930 -0.3736 -0.5319
 6624TIP3    H119878   1.093   5.398   2.438 -0.6539 -0.2838 -1.4628
 6624TIP3    H219879   1.016   5.321   2.542 -0.4030  0.6225 -0.5850
 6625TIP3   OH219880   4.323   5.268   4.245  0.3673 -0.3853  0.5205
 6625TIP3    H119881   4.241   5.311   4.219  0.6750  0.7561  1.3506
 6625TIP3    H219882   4.392   5.324   4.209  0.7764 -0.4182  1.2385
 6626TIP3   OH219883   3.015   5.305   2.846  0.3295  0.1814  0.5240
 6626TIP3    H119884   2.993   5.343   2.761 -0.7365  2.4868  1.7414
 6626TIP3    H219885   3.110   5.313   2.852  0.3506  0.5544 -0.1991
 6627TIP3   OH219886   3.131   2.479   3.270  0.3831 -0.6503 -0.3830
 6627TIP3    H119887   3.077   2.534   3.327  1.4535  2.0185 -1.7647
 6627TIP3    H219888   3.184   2.427   3.330  0.3549  0.9021  1.0569
 6628TIP3   OH219889   2.180   5.887   3.696 -0.2840  0.5121 -0.6552
 6628TIP3    H119890   2.101   5.937   3.676  0.3117  1.3895 -0.8624
 6628TIP3    H219891   2.251   5.936   3.654  0.6624  0.9441  1.2960
 6629TIP3   OH219892   4.417   2.049   1.626  0.0559 -0.0655  0.5160
 6629TIP3    H119893   4.352   2.031   1.695  0.4998 -0.9972  0.7135
 6629TIP3    H219894   4.470   2.120   1.662 -0.6505  0.4754  0.4948
 6630TIP3   OH219895   3.548   4.337   3.972  0.6422  0.1085 -0.5755
 6630TIP3    H119896   3.590   4.252   3.980  1.0058  0.2885 -0.5504
 6630TIP3    H219897   3.462   4.318   3.934  1.2040 -0.1374 -1.7474
 6631TIP3   OH219898   5.812   0.855   1.802 -0.1304  0.5097 -0.0539
 6631TIP3    H119899   5.805   0.917   1.730 -0.1909  0.2982 -0.2310
 6631TIP3    H219900   5.886   0.799   1.779 -1.2654 -0.7177 -0.8550
 6632TIP3   OH219901   3.332   1.355   4.746 -0.0226  0.0690  0.1464
 6632TIP3    H119902   3.328   1.278   4.690  0.8330 -0.0596  0.2410
 6632TIP3    H219903   3.340   1.320   4.835 -1.4782  0.2730  0.3665
 6633TIP3   OH219904   2.721   4.178   4.166  0.3819  0.0134  0.2818
 6633TIP3    H119905   2.806   4.199   4.205  0.0661 -0.1049  1.0503
 6633TIP3    H219906   2.679   4.263   4.154 -0.2815 -0.0362  1.9820
 6634TIP3   OH219907   3.824   3.806   1.259 -0.3965 -0.0220 -0.2102
 6634TIP3    H119908   3.783   3.723   1.236  1.6126 -0.6833 -1.7713
 6634TIP3    H219909   3.874   3.787   1.338  1.7354 -0.9990 -1.6833
 6635TIP3   OH219910   5.030   3.962   0.326 -0.1272  0.5865 -0.0155
 6635TIP3    H119911   4.945   4.001   0.347  0.8528  1.8344  1.8668
 6635TIP3    H219912   5.076   4.030   0.276  0.2473  0.4106  0.0869
 6636TIP3   OH219913   4.403   5.769   1.092  0.0676 -0.3671  0.2298
 6636TIP3    H119914   4.489   5.725   1.096 -0.5733 -1.6595  0.2808
 6636TIP3    H219915   4.344   5.702   1.058 -1.1452  0.1854  1.2018
 6637TIP3   OH219916   4.896   4.537   0.131  0.4284 -0.2901  0.3220
 6637TIP3    H119917   4.842   4.518   0.208  0.0099  0.8816  0.3368
 6637TIP3    H219918   4.938   4.454   0.110 -0.2622 -0.8757  1.1894
 6638TIP3   OH219919   2.561   0.820   0.796 -0.1327 -0.1467 -0.0689
 6638TIP3    H119920   2.610   0.775   0.727 -0.3328 -1.1358  0.4120
 6638TIP3    H219921   2.542   0.751   0.860 -1.7915  0.3097 -0.0412
 6639TIP3   OH219922   3.811   1.799   1.003 -0.0856 -0.7161  0.2524
 6639TIP3    H119923   3.812   1.710   0.967 -0.1349 -1.0156  0.9802
 6639TIP3    H219924   3.827   1.856   0.927 -0.8997 -1.2943 -0.3636
 6640TIP3   OH219925   0.558   1.751   4.298  0.0155  0.1296 -0.3111
 6640TIP3    H119926   0.631   1.764   4.359 -0.9268 -1.0340  1.1213
 6640TIP3    H219927   0.503   1.686   4.340 -0.9236 -0.3785 -2.2196
   6.35570   5.99220   5.18941   0.00000   0.00000  -2.11857   0.00000  -2.11857  -2.99611
