* SET NIONTYPES = 1
* SET NPOSTOT = 66
* SET NNEGTOT = 65
* SET NIONTOT = 131
*  DATE:     6/18/26      0:10:16      CREATED BY USER: charmm-gui
*
       131  EXT
         1         1  LIT       LIT           -23.0139296195       -9.5933407352      -29.9866165165  IONS      1               1.0000000000
         2         2  LIT       LIT            50.0245923505        2.3086379633        9.9074321568  IONS      2               1.0000000000
         3         3  LIT       LIT           -12.8036468850       17.2324660087      -47.0387537650  IONS      3               1.0000000000
         4         4  LIT       LIT            20.8666229255        9.0532226531        5.9782150832  IONS      4               1.0000000000
         5         5  LIT       LIT           -22.3344969529      -19.8194401747      -18.9308668421  IONS      5               1.0000000000
         6         6  LIT       LIT           -27.5860160165      -25.6852747617      -20.7658801389  IONS      6               1.0000000000
         7         7  LIT       LIT           -13.1659631948       13.6249097360        9.2993785527  IONS      7               1.0000000000
         8         8  LIT       LIT            14.0790034304      -49.5666810469      -27.5216656000  IONS      8               1.0000000000
         9         9  LIT       LIT            -1.0487547625      -47.8436220326      -14.9991857282  IONS      9               1.0000000000
        10        10  LIT       LIT           -28.0542341765      -33.1344231117        5.4328847714  IONS      10              1.0000000000
        11        11  LIT       LIT             6.9866773967       -6.6886347308        0.8041375972  IONS      11              1.0000000000
        12        12  LIT       LIT            21.6659292322      -40.6007392206       17.3014083132  IONS      12              1.0000000000
        13        13  LIT       LIT           -13.7952504697        7.6908398757       15.2363628832  IONS      13              1.0000000000
        14        14  LIT       LIT            -5.7555976818       38.8520797608        7.6996870236  IONS      14              1.0000000000
        15        15  LIT       LIT           -42.0239113451       11.8337279458      -30.0413254324  IONS      15              1.0000000000
        16        16  LIT       LIT           -32.9455389897       -7.9698181653       12.4686749029  IONS      16              1.0000000000
        17        17  LIT       LIT            -8.8772094800        9.5378223190       42.1458333724  IONS      17              1.0000000000
        18        18  LIT       LIT            -2.5307787266       42.0774681928        4.3568933692  IONS      18              1.0000000000
        19        19  LIT       LIT           -29.0476233205       25.4379776828      -39.7185292172  IONS      19              1.0000000000
        20        20  LIT       LIT            21.0074593818      -26.9440016380      -45.3955877790  IONS      20              1.0000000000
        21        21  LIT       LIT           -19.8656604673       -7.4388595542       37.7169673393  IONS      21              1.0000000000
        22        22  LIT       LIT           -11.3110631812       25.4354857294      -43.3376306647  IONS      22              1.0000000000
        23        23  LIT       LIT            -2.3739656490      -26.5971913969      -31.5770771275  IONS      23              1.0000000000
        24        24  LIT       LIT           -11.1106341714       -6.9288604688      -39.2844064263  IONS      24              1.0000000000
        25        25  LIT       LIT             7.2108096388       20.9421123064       43.8752905893  IONS      25              1.0000000000
        26        26  LIT       LIT            33.6482666001       23.9564121849      -27.9696487837  IONS      26              1.0000000000
        27        27  LIT       LIT            -7.4475030757       18.6417630259      -28.8128161971  IONS      27              1.0000000000
        28        28  LIT       LIT           -52.0281553569        0.8796692520      -28.8989069238  IONS      28              1.0000000000
        29        29  LIT       LIT             5.3260356157       46.7766366675        2.0272074981  IONS      29              1.0000000000
        30        30  LIT       LIT           -18.7189520683      -28.6091346027      -18.1960108373  IONS      30              1.0000000000
        31        31  LIT       LIT            42.8073892997       12.8258985729       20.4731690097  IONS      31              1.0000000000
        32        32  LIT       LIT           -39.7779735021      -37.5372776628       -0.9021879819  IONS      32              1.0000000000
        33        33  LIT       LIT           -23.6193181326      -37.5542008891      -11.1216015818  IONS      33              1.0000000000
        34        34  LIT       LIT            29.6084125875        8.1731256887       19.0947520971  IONS      34              1.0000000000
        35        35  LIT       LIT             8.0759893522      -40.2568514291       -5.1477995132  IONS      35              1.0000000000
        36        36  LIT       LIT             5.6980103766       33.2421060913       37.7795774467  IONS      36              1.0000000000
        37        37  LIT       LIT            -1.2110296173      -24.4236454339       -2.7460675031  IONS      37              1.0000000000
        38        38  LIT       LIT           -28.0474907689       11.6874812757       21.0729993535  IONS      38              1.0000000000
        39        39  LIT       LIT            10.8850903402        3.0013292699      -15.7182561177  IONS      39              1.0000000000
        40        40  LIT       LIT           -33.6724200578       -4.6488455430      -17.3085203302  IONS      40              1.0000000000
        41        41  LIT       LIT            25.8747735294       12.5395872974      -31.0561062816  IONS      41              1.0000000000
        42        42  LIT       LIT            23.2166817604      -22.7667366900       48.0904853921  IONS      42              1.0000000000
        43        43  LIT       LIT            -2.8990442049       -0.0261125488       36.0529635832  IONS      43              1.0000000000
        44        44  LIT       LIT             4.0139630628       43.1423909825       14.3353607456  IONS      44              1.0000000000
        45        45  LIT       LIT           -13.4648041549       28.7561179478       29.9729475988  IONS      45              1.0000000000
        46        46  LIT       LIT             0.8608674031       -1.0598554642      -10.0758825639  IONS      46              1.0000000000
        47        47  LIT       LIT           -25.0358003983       -6.7535876262      -13.4999374143  IONS      47              1.0000000000
        48        48  LIT       LIT           -26.6023752748      -29.4949603121       -0.6577171890  IONS      48              1.0000000000
        49        49  LIT       LIT           -15.0476019099       -6.3543583006       21.0072507875  IONS      49              1.0000000000
        50        50  LIT       LIT             1.6133217469       -8.2408719582        6.2281898419  IONS      50              1.0000000000
        51        51  LIT       LIT            -0.5175378122       19.7523433954      -41.0531063668  IONS      51              1.0000000000
        52        52  LIT       LIT           -29.6309258874       16.7430407279      -22.1061882062  IONS      52              1.0000000000
        53        53  LIT       LIT           -27.6608989944       -9.7909066618      -16.7582741278  IONS      53              1.0000000000
        54        54  LIT       LIT           -11.6162508650       36.7466644777      -37.5455736352  IONS      54              1.0000000000
        55        55  LIT       LIT           -51.1563983299      -28.4535872741        5.2525109285  IONS      55              1.0000000000
        56        56  LIT       LIT           -24.4873420979      -35.0050050030       24.9122417641  IONS      56              1.0000000000
        57        57  LIT       LIT            41.6054698311       28.4333635570      -17.8029810614  IONS      57              1.0000000000
        58        58  LIT       LIT            44.5930206312       10.8473012216       -6.3281408690  IONS      58              1.0000000000
        59        59  LIT       LIT            29.1131464053       34.7618746904      -12.8830841585  IONS      59              1.0000000000
        60        60  LIT       LIT            36.8435377089       -1.4394318185       22.0111200031  IONS      60              1.0000000000
        61        61  LIT       LIT            37.0165373468       -5.4541946135       33.3706544041  IONS      61              1.0000000000
        62        62  LIT       LIT            42.0041913234        0.3824845216       30.2640170589  IONS      62              1.0000000000
        63        63  LIT       LIT            22.1157452360       -4.4514606679       20.0883517587  IONS      63              1.0000000000
        64        64  LIT       LIT           -23.4022597721      -12.9137073877      -34.1687678203  IONS      64              1.0000000000
        65        65  LIT       LIT           -41.4586024112       -3.7622255331      -37.8373399940  IONS      65              1.0000000000
        66        66  LIT       LIT            -0.0454152824       11.5362099050       32.0154886377  IONS      66              1.0000000000
        67        67  CLA       CLA           -45.3372924912       -0.0335124246       10.0912332425  IONS      67             -1.0000000000
        68        68  CLA       CLA            33.3053025403       24.2156289091      -16.9249952701  IONS      68             -1.0000000000
        69        69  CLA       CLA           -27.7482925911       21.5541482600       44.2173786173  IONS      69             -1.0000000000
        70        70  CLA       CLA            21.1491790680        4.7329617447       36.1711890729  IONS      70             -1.0000000000
        71        71  CLA       CLA           -23.1056389000       -4.9337073174      -31.0945386070  IONS      71             -1.0000000000
        72        72  CLA       CLA             7.8054284959        8.1553687837       34.9619586510  IONS      72             -1.0000000000
        73        73  CLA       CLA             7.2867077472      -37.1281042919       25.2393397781  IONS      73             -1.0000000000
        74        74  CLA       CLA            35.0544949533       37.7847876092        1.3092484069  IONS      74             -1.0000000000
        75        75  CLA       CLA            15.7488137252       17.4294276216       36.3544027518  IONS      75             -1.0000000000
        76        76  CLA       CLA           -12.2123842705       45.4732229716       24.9371055114  IONS      76             -1.0000000000
        77        77  CLA       CLA            -0.7176776794       37.3841547940      -39.6221851115  IONS      77             -1.0000000000
        78        78  CLA       CLA            41.7474716843      -11.3172437837       12.9842660950  IONS      78             -1.0000000000
        79        79  CLA       CLA           -22.1277835109        5.9362980821      -45.6080081793  IONS      79             -1.0000000000
        80        80  CLA       CLA           -45.6176734309        8.9143877299      -29.9594810594  IONS      80             -1.0000000000
        81        81  CLA       CLA           -40.4833099034       26.1244954757       24.0241901178  IONS      81             -1.0000000000
        82        82  CLA       CLA             6.7395551592      -21.9992990803      -52.8496712638  IONS      82             -1.0000000000
        83        83  CLA       CLA           -23.0648020966      -30.7535885631      -26.0270275963  IONS      83             -1.0000000000
        84        84  CLA       CLA            40.3096819131       -1.3895709163       31.7943976487  IONS      84             -1.0000000000
        85        85  CLA       CLA             5.8050957753        6.1937420097      -48.5087121871  IONS      85             -1.0000000000
        86        86  CLA       CLA            -4.0136708160       41.2950219484      -23.1303554827  IONS      86             -1.0000000000
        87        87  CLA       CLA             2.6801346272      -25.8296512841       15.2521188737  IONS      87             -1.0000000000
        88        88  CLA       CLA            -6.6837236155       41.4467465382       -2.7158324273  IONS      88             -1.0000000000
        89        89  CLA       CLA            34.2021564755       16.2909407079      -16.7961981945  IONS      89             -1.0000000000
        90        90  CLA       CLA            48.9506315391       32.7506266535       -3.0523314270  IONS      90             -1.0000000000
        91        91  CLA       CLA            27.9177618562       41.2179968638       14.6084967862  IONS      91             -1.0000000000
        92        92  CLA       CLA            26.8859475334        5.4750984874       11.1325041272  IONS      92             -1.0000000000
        93        93  CLA       CLA            24.8663330885       -1.6278062160       26.1994179337  IONS      93             -1.0000000000
        94        94  CLA       CLA            47.9544460796        5.6586022103       25.8971361918  IONS      94             -1.0000000000
        95        95  CLA       CLA            17.9623854525      -35.2738333001      -27.9367257883  IONS      95             -1.0000000000
        96        96  CLA       CLA            31.9900512376       41.1774499025      -19.5434492913  IONS      96             -1.0000000000
        97        97  CLA       CLA            17.0050649248      -22.1227036458       34.0415067046  IONS      97             -1.0000000000
        98        98  CLA       CLA           -43.3763330523        4.9416012770      -10.3962027226  IONS      98             -1.0000000000
        99        99  CLA       CLA            -6.2433152529      -29.2158570123      -30.6179838779  IONS      99             -1.0000000000
       100       100  CLA       CLA           -18.5694666609       24.3910873756      -22.8985822968  IONS      100            -1.0000000000
       101       101  CLA       CLA           -31.4556437016       -1.3978021403       20.3900196653  IONS      101            -1.0000000000
       102       102  CLA       CLA           -24.1177194151      -13.4289727465      -11.3012674143  IONS      102            -1.0000000000
       103       103  CLA       CLA           -44.3337690673       -1.3990002634      -34.3388602590  IONS      103            -1.0000000000
       104       104  CLA       CLA           -21.3578129007      -27.5518389610      -12.6318050718  IONS      104            -1.0000000000
       105       105  CLA       CLA           -17.1467348113      -15.5054900004       26.1763301017  IONS      105            -1.0000000000
       106       106  CLA       CLA            30.7631732423       20.1373205763      -32.6534258861  IONS      106            -1.0000000000
       107       107  CLA       CLA            -9.6548157841        5.6732762469       17.9413853615  IONS      107            -1.0000000000
       108       108  CLA       CLA           -12.3683792340      -43.8180325305       18.2516047942  IONS      108            -1.0000000000
       109       109  CLA       CLA            30.3954907372       30.6309981865      -14.4991769085  IONS      109            -1.0000000000
       110       110  CLA       CLA             0.1368328579       15.8250576106      -23.1052922392  IONS      110            -1.0000000000
       111       111  CLA       CLA            40.2349959348        7.9028084933       17.0645671978  IONS      111            -1.0000000000
       112       112  CLA       CLA            14.6682896487      -41.1426662105       -4.0239875034  IONS      112            -1.0000000000
       113       113  CLA       CLA            21.1955533030       13.0906502676      -36.5596155982  IONS      113            -1.0000000000
       114       114  CLA       CLA            -2.3622812997       36.6961490331        1.4203724077  IONS      114            -1.0000000000
       115       115  CLA       CLA            14.1415016418       37.9096979994       -5.8297232668  IONS      115            -1.0000000000
       116       116  CLA       CLA            49.7335888987        1.5794500203        3.1491177697  IONS      116            -1.0000000000
       117       117  CLA       CLA            18.4471300920      -20.5332858027       46.0194085481  IONS      117            -1.0000000000
       118       118  CLA       CLA            39.2248070234      -31.4351722740      -26.7590619067  IONS      118            -1.0000000000
       119       119  CLA       CLA             1.2012906111        3.8448637001      -15.4329085158  IONS      119            -1.0000000000
       120       120  CLA       CLA           -43.4203119650       22.2559061845      -21.4226555331  IONS      120            -1.0000000000
       121       121  CLA       CLA           -24.9037026659      -26.6798855267       29.0101896422  IONS      121            -1.0000000000
       122       122  CLA       CLA           -20.8992898948      -22.9575980384      -16.5230844225  IONS      122            -1.0000000000
       123       123  CLA       CLA            -9.6781906187        1.1918202062       22.2471589015  IONS      123            -1.0000000000
       124       124  CLA       CLA            -2.5714374241      -21.4932107963        2.4125516607  IONS      124            -1.0000000000
       125       125  CLA       CLA           -32.3115105869      -16.5120148226       15.3998829435  IONS      125            -1.0000000000
       126       126  CLA       CLA            21.1792802064       48.0781759069      -27.4803176272  IONS      126            -1.0000000000
       127       127  CLA       CLA             8.7402290890        7.8419629592       12.1268923586  IONS      127            -1.0000000000
       128       128  CLA       CLA           -28.4318342706      -22.1969413486      -23.5939363801  IONS      128            -1.0000000000
       129       129  CLA       CLA           -25.3649377848      -35.5782008882       12.2110060036  IONS      129            -1.0000000000
       130       130  CLA       CLA           -16.3881269884        5.8943480100       47.0458496747  IONS      130            -1.0000000000
       131       131  CLA       CLA           -29.9123815809       30.4674001066       -5.8878385002  IONS      131            -1.0000000000
