* GENERATED BY CHARMM-GUI (HTTP://WWW.CHARMM-GUI.ORG) V3.7 ON JUN, 18. 2026. JOB
* GENERATES IONS
*  DATE:     6/18/26      0: 9:28      CREATED BY USER: charmm-gui
*
       205  EXT
         1         1  GLY       N             -28.2376759428        0.0539366904       -0.2059204506  PROA      1              97.4300000000
         2         1  GLY       HT1           -28.9944377755       -0.2008567425        0.4604066725  PROA      1               0.0000000000
         3         1  GLY       HT2           -27.8690339977       -0.8072607666       -0.6576301942  PROA      1               0.0000000000
         4         1  GLY       HT3           -28.6174429066        0.6915643041       -0.9344859697  PROA      1               0.0000000000
         5         1  GLY       CA            -27.1639474261        0.7226122694        0.5115640737  PROA      1              97.9000000000
         6         1  GLY       HA1           -26.9138282169        0.1117300622        1.3662959783  PROA      1               0.0000000000
         7         1  GLY       HA2           -27.5362389058        1.6843614985        0.8320961210  PROA      1               0.0000000000
         8         1  GLY       C             -25.9202222992        0.9282602299       -0.3321264650  PROA      1              98.0700000000
         9         1  GLY       O             -25.7941347410        0.3470306668       -1.4123334464  PROA      1              97.6300000000
        10         2  PRO       N             -24.9230346097        1.8226921038        0.0083413526  PROA      2              98.2600000000
        11         2  PRO       CD            -25.2465674971        2.8199824439        0.8856129459  PROA      2              94.0200000000
        12         2  PRO       HD1           -25.3400195757        2.3999319217        1.9093948171  PROA      2               0.0000000000
        13         2  PRO       HD2           -26.2057653687        3.2886987750        0.5797543242  PROA      2               0.0000000000
        14         2  PRO       CA            -23.6739317177        2.0163790051       -0.7307116559  PROA      2              98.3400000000
        15         2  PRO       HA            -23.8777297473        2.1799509305       -1.7767598929  PROA      2               0.0000000000
        16         2  PRO       CB            -23.0192651206        3.2003523212       -0.0138184746  PROA      2              98.1400000000
        17         2  PRO       HB1           -22.6245320105        3.9358958373       -0.7467788716  PROA      2               0.0000000000
        18         2  PRO       HB2           -22.1852007938        2.8566350484        0.6344596843  PROA      2               0.0000000000
        19         2  PRO       CG            -24.1140310927        3.8029371776        0.8052370530  PROA      2              96.7600000000
        20         2  PRO       HG1           -23.7396623062        4.0318205675        1.8259002692  PROA      2               0.0000000000
        21         2  PRO       HG2           -24.4646742247        4.7450165833        0.3321315863  PROA      2               0.0000000000
        22         2  PRO       C             -22.7690723405        0.7879110102       -0.6916233830  PROA      2              98.4500000000
        23         2  PRO       O             -22.9134774189       -0.0627235989        0.1904032238  PROA      2              98.3300000000
        24         3  GLY       N             -21.9704820304        0.6228625557       -1.8379691094  PROA      3              98.2600000000
        25         3  GLY       HN            -22.0345155186        1.2162530109       -2.6365878645  PROA      3               0.0000000000
        26         3  GLY       CA            -20.9965564110       -0.4554567289       -1.8897610818  PROA      3              98.2600000000
        27         3  GLY       HA1           -20.4986582360       -0.4047351845       -2.8467425293  PROA      3               0.0000000000
        28         3  GLY       HA2           -21.5322366637       -1.3886432151       -1.7975742741  PROA      3               0.0000000000
        29         3  GLY       C             -19.9565546549       -0.3734779995       -0.7883334468  PROA      3              98.4400000000
        30         3  GLY       O             -19.8305526872        0.6555115238       -0.1214675944  PROA      3              98.3400000000
        31         4  ASN       N             -19.2834799709       -1.4663634091       -0.6164324540  PROA      4              98.0400000000
        32         4  ASN       HN            -19.4962021301       -2.3176610003       -1.0897661062  PROA      4               0.0000000000
        33         4  ASN       CA            -18.1547462077       -1.4828628801        0.3077730747  PROA      4              97.9900000000
        34         4  ASN       HA            -18.4870475211       -1.0723385545        1.2496917115  PROA      4               0.0000000000
        35         4  ASN       CB            -17.6401554837       -2.9108719747        0.5018540181  PROA      4              97.6100000000
        36         4  ASN       HB1           -16.6707618127       -2.8749426926        1.0429170921  PROA      4               0.0000000000
        37         4  ASN       HB2           -17.4849359909       -3.3772473799       -0.4942208502  PROA      4               0.0000000000
        38         4  ASN       CG            -18.6015748536       -3.7756710417        1.2936863038  PROA      4              92.9500000000
        39         4  ASN       OD1           -19.4667643119       -3.2665356899        2.0111208965  PROA      4              87.4400000000
        40         4  ASN       ND2           -18.4580072277       -5.0890676832        1.1684760850  PROA      4              89.9800000000
        41         4  ASN       HD21          -19.0643710203       -5.7081573334        1.6675261386  PROA      4               0.0000000000
        42         4  ASN       HD22          -17.7434652102       -5.4596225751        0.5750801150  PROA      4               0.0000000000
        43         4  ASN       C             -17.0253294178       -0.5737543537       -0.1708012683  PROA      4              98.1800000000
        44         4  ASN       O             -16.8115967904       -0.4240485471       -1.3750801129  PROA      4              97.9800000000
        45         5  PRO       N             -16.1945840200        0.1118763757        0.7731556094  PROA      5              98.2100000000
        46         5  PRO       CD            -16.5407112981        0.2547786313        2.1699264755  PROA      5              96.0700000000
        47         5  PRO       HD1           -16.4125374292       -0.7140549104        2.6965628072  PROA      5               0.0000000000
        48         5  PRO       HD2           -17.5893142765        0.6052570806        2.2699737074  PROA      5               0.0000000000
        49         5  PRO       CA            -15.0157048500        0.8776428597        0.3611585285  PROA      5              98.1900000000
        50         5  PRO       HA            -15.2974038524        1.6638302224       -0.3208230928  PROA      5               0.0000000000
        51         5  PRO       CB            -14.4291763640        1.3627055499        1.6902576677  PROA      5              98.0600000000
        52         5  PRO       HB1           -14.0585658953        2.4060702380        1.6001756630  PROA      5               0.0000000000
        53         5  PRO       HB2           -13.5897646392        0.7101700194        2.0122236549  PROA      5               0.0000000000
        54         5  PRO       CG            -15.5637188746        1.2847467539        2.6602044281  PROA      5              96.8700000000
        55         5  PRO       HG1           -15.1834940458        0.9970002850        3.6636608840  PROA      5               0.0000000000
        56         5  PRO       HG2           -16.0640865715        2.2737575845        2.7362541131  PROA      5               0.0000000000
        57         5  PRO       C             -14.0018556433        0.0320620195       -0.4057200986  PROA      5              98.3800000000
        58         5  PRO       O             -13.9525927343       -1.1883914643       -0.2317561377  PROA      5              98.3100000000
        59         6  GLY       N             -13.3807493825        0.6926240909       -1.2932615132  PROA      6              98.3300000000
        60         6  GLY       HN            -13.5843742773        1.6389388249       -1.5312502385  PROA      6               0.0000000000
        61         6  GLY       CA            -12.3047017769        0.0226082603       -2.0055664600  PROA      6              98.3000000000
        62         6  GLY       HA1           -11.8791506690        0.7300627947       -2.7017727789  PROA      6               0.0000000000
        63         6  GLY       HA2           -12.7323743034       -0.8134909578       -2.5387861236  PROA      6               0.0000000000
        64         6  GLY       C             -11.2090636563       -0.4862427821       -1.0890165567  PROA      6              98.5000000000
        65         6  GLY       O             -11.1706197620       -0.1402648521        0.0934991256  PROA      6              98.4200000000
        66         7  SER       N             -10.4159336093       -1.1598396811       -1.7359469597  PROA      7              98.3700000000
        67         7  SER       HN            -10.5277774354       -1.4074680256       -2.6946460005  PROA      7               0.0000000000
        68         7  SER       CA             -9.2278551527       -1.6198508919       -1.0226123490  PROA      7              98.3300000000
        69         7  SER       HA             -9.5407479114       -2.0021832696       -0.0623594887  PROA      7               0.0000000000
        70         7  SER       CB             -8.5111848540       -2.7092882493       -1.8205183130  PROA      7              98.0800000000
        71         7  SER       HB1            -7.6261040239       -3.0666301563       -1.2520396940  PROA      7               0.0000000000
        72         7  SER       HB2            -8.1813812978       -2.2990216279       -2.7988537199  PROA      7               0.0000000000
        73         7  SER       OG             -9.3737798229       -3.8090317083       -2.0566120316  PROA      7              92.4100000000
        74         7  SER       HG1            -9.6279515402       -4.1366126499       -1.1907670889  PROA      7               0.0000000000
        75         7  SER       C              -8.2691811617       -0.4667377453       -0.7455613603  PROA      7              98.5300000000
        76         7  SER       O              -8.2828470084        0.5429276165       -1.4522374543  PROA      7              98.4600000000
        77         8  GLY       N              -7.5207577874       -0.6431305537        0.4203425937  PROA      8              98.2300000000
        78         8  GLY       HN             -7.6363737225       -1.4007253593        1.0574758162  PROA      8               0.0000000000
        79         8  GLY       CA             -6.5065621578        0.3591089148        0.7077608824  PROA      8              98.1300000000
        80         8  GLY       HA1            -6.1397721344        0.1801590251        1.7076265621  PROA      8               0.0000000000
        81         8  GLY       HA2            -6.9765736132        1.3297905570        0.6515848806  PROA      8               0.0000000000
        82         8  GLY       C              -5.3385040484        0.3203942600       -0.2599474563  PROA      8              98.3100000000
        83         8  GLY       O              -5.2671526604       -0.5589545133       -1.1208398504  PROA      8              98.1400000000
        84         9  PRO       N              -4.5365272606        1.1387856493       -0.1309212347  PROA      9              98.5900000000
        85         9  PRO       CD             -4.5175762671        2.1604901735        1.0027518774  PROA      9              97.7300000000
        86         9  PRO       HD1            -4.5999341426        1.6498492986        1.9847722131  PROA      9               0.0000000000
        87         9  PRO       HD2            -5.3473673603        2.8876124432        0.8817526661  PROA      9               0.0000000000
        88         9  PRO       CA             -3.3165968173        1.1870825852       -0.9394056930  PROA      9              98.6000000000
        89         9  PRO       HA             -3.5532782814        1.0678061677       -1.9845277795  PROA      9               0.0000000000
        90         9  PRO       CB             -2.7041737271        2.5413463633       -0.5726733957  PROA      9              98.5400000000
        91         9  PRO       HB1            -3.0560785161        3.3340849990       -1.2667943852  PROA      9               0.0000000000
        92         9  PRO       HB2            -1.5949139603        2.4960797087       -0.6122861795  PROA      9               0.0000000000
        93         9  PRO       CG             -3.1747329301        2.8090915412        0.8206419155  PROA      9              98.0300000000
        94         9  PRO       HG1            -2.4504041370        2.3895789283        1.5511575567  PROA      9               0.0000000000
        95         9  PRO       HG2            -3.2585259935        3.9043308010        0.9871526398  PROA      9               0.0000000000
        96         9  PRO       C              -2.3516604202        0.0478937820       -0.6206587396  PROA      9              98.7300000000
        97         9  PRO       O              -2.4383656481       -0.5581302540        0.4515530265  PROA      9              98.7000000000
        98        10  GLY       N              -1.5318921582       -0.1909124818       -1.5862386508  PROA      10             98.4400000000
        99        10  GLY       HN             -1.5406918146        0.2903884467       -2.4591087508  PROA      10              0.0000000000
       100        10  GLY       CA             -0.5327343735       -1.2285755515       -1.3856966976  PROA      10             98.4000000000
       101        10  GLY       HA1            -0.0749206887       -1.4347859768       -2.3418186321  PROA      10              0.0000000000
       102        10  GLY       HA2            -1.0400253656       -2.1082600917       -1.0181423174  PROA      10              0.0000000000
       103        10  GLY       C               0.5479350501       -0.8343472552       -0.3971909327  PROA      10             98.5900000000
       104        10  GLY       O               0.6354041474        0.3280593971        0.0028302315  PROA      10             98.5300000000
       105        11  ASP       N               1.3042639098       -1.7865926483        0.0399158820  PROA      11             98.4300000000
       106        11  ASP       HN              1.1263838629       -2.7369118839       -0.2012498270  PROA      11              0.0000000000
       107        11  ASP       CA              2.4601657709       -1.5735182832        0.9045332555  PROA      11             98.4300000000
       108        11  ASP       HA              2.1354882176       -1.0066052964        1.7643943893  PROA      11              0.0000000000
       109        11  ASP       CB              3.0557356684       -2.9135887084        1.3443420236  PROA      11             98.2500000000
       110        11  ASP       HB1             4.0145732958       -2.7249542946        1.8722850320  PROA      11              0.0000000000
       111        11  ASP       HB2             3.2509568443       -3.5332638369        0.4434714528  PROA      11              0.0000000000
       112        11  ASP       CG              2.1413946631       -3.6922900276        2.2735307996  PROA      11             96.4000000000
       113        11  ASP       OD1             1.3314456739       -3.0704991116        2.9943141871  PROA      11             95.0100000000
       114        11  ASP       OD2             2.2329987407       -4.9388684213        2.2856963843  PROA      11             95.0200000000
       115        11  ASP       C               3.5234292190       -0.7319095808        0.2024672814  PROA      11             98.6100000000
       116        11  ASP       O               3.6902356521       -0.8221264292       -1.0146976762  PROA      11             98.5500000000
       117        12  PRO       N               4.3850135115        0.0574293897        1.0317962249  PROA      12             98.6000000000
       118        12  PRO       CD              4.2005341408        0.2642451711        2.3321979299  PROA      12             97.2800000000
       119        12  PRO       HD1             4.4041887860       -0.6738984735        2.8905635585  PROA      12              0.0000000000
       120        12  PRO       HD2             3.1548544177        0.5922717261        2.5119571668  PROA      12              0.0000000000
       121        12  PRO       CA              5.5065900155        0.7620563294        0.4072259553  PROA      12             98.5800000000
       122        12  PRO       HA              5.1593287473        1.3675463735       -0.4145461507  PROA      12              0.0000000000
       123        12  PRO       CB              6.1186557936        1.5498494339        1.5682175607  PROA      12             98.5300000000
       124        12  PRO       HB1             6.1974720274        2.6285207335        1.3145856484  PROA      12              0.0000000000
       125        12  PRO       HB2             7.1306728473        1.1645068434        1.8160188705  PROA      12              0.0000000000
       126        12  PRO       CG              5.1769858719        1.3407593087        2.7102565609  PROA      12             97.8800000000
       127        12  PRO       HG1             5.7435810144        1.0355801143        3.6158668743  PROA      12              0.0000000000
       128        12  PRO       HG2             4.6328369718        2.2844237587        2.9286457011  PROA      12              0.0000000000
       129        12  PRO       C               6.5324816088       -0.1877668889       -0.2063865387  PROA      12             98.6900000000
       130        12  PRO       O               6.6360944343       -1.3445381913        0.2099132766  PROA      12             98.6500000000
       131        13  GLY       N               7.1530528188        0.3206774624       -1.2878890653  PROA      13             98.3900000000
       132        13  GLY       HN              6.9366623026        1.2066434727       -1.6902838993  PROA      13              0.0000000000
       133        13  GLY       CA              8.2030078432       -0.4722624992       -1.9056962067  PROA      13             98.3700000000
       134        13  GLY       HA1             8.5891774961        0.0878351904       -2.7444156900  PROA      13              0.0000000000
       135        13  GLY       HA2             7.7608639031       -1.3965832022       -2.2469098768  PROA      13              0.0000000000
       136        13  GLY       C               9.3449543869       -0.7923067479       -0.9593549520  PROA      13             98.5600000000
       137        13  GLY       O               9.4490808656       -0.2002834724        0.1175364620  PROA      13             98.5100000000
       138        14  SER       N              10.1715408144       -1.5935177089       -1.4380791668  PROA      14             98.4300000000
       139        14  SER       HN             10.0481700105       -2.0530105292       -2.3141992962  PROA      14              0.0000000000
       140        14  SER       CA             11.3905561171       -1.8862717942       -0.6896309472  PROA      14             98.3800000000
       141        14  SER       HA             11.1197205109       -2.0422430364        0.3440455267  PROA      14              0.0000000000
       142        14  SER       CB             12.0799082166       -3.1302156586       -1.2522021384  PROA      14             98.2000000000
       143        14  SER       HB1            12.9988876216       -3.3444714898       -0.6658580541  PROA      14              0.0000000000
       144        14  SER       HB2            12.3515536272       -2.9571778617       -2.3154494215  PROA      14              0.0000000000
       145        14  SER       OG             11.2226528037       -4.2558356712       -1.1800720858  PROA      14             93.4000000000
       146        14  SER       HG1            11.0193688906       -4.3744229323       -0.2493665941  PROA      14              0.0000000000
       147        14  SER       C              12.3538527353       -0.7036840414       -0.7186108048  PROA      14             98.5600000000
       148        14  SER       O              12.3235646359        0.1058205239       -1.6479196823  PROA      14             98.5100000000
       149        15  GLY       N              13.0937067541       -0.3972760031        0.4697410560  PROA      15             98.0300000000
       150        15  GLY       HN             12.9472467977       -0.8859862630        1.3261808433  PROA      15              0.0000000000
       151        15  GLY       CA             14.1039739897        0.6479619291        0.4937780624  PROA      15             97.9800000000
       152        15  GLY       HA1            14.5284072077        0.6737506666        1.4864906167  PROA      15              0.0000000000
       153        15  GLY       HA2            13.6144312791        1.5850419675        0.2735151126  PROA      15              0.0000000000
       154        15  GLY       C              15.2173306969        0.4255283760       -0.5122463693  PROA      15             98.2100000000
       155        15  GLY       O              15.2965733306       -0.6361346868       -1.1331112065  PROA      15             98.1000000000
       156        16  PRO       N              16.0005036630        1.2358578915       -0.8386237297  PROA      16             98.4900000000
       157        16  PRO       CD             16.0335286854        2.5802672387       -0.0411760167  PROA      16             97.4100000000
       158        16  PRO       HD1            16.0274383431        2.3859057030        1.0513578728  PROA      16              0.0000000000
       159        16  PRO       HD2            15.1700403173        3.2196418306       -0.3187219908  PROA      16              0.0000000000
       160        16  PRO       CA             17.1743504285        1.0968120520       -1.7035792347  PROA      16             98.4800000000
       161        16  PRO       HA             16.8960161844        0.6548922270       -2.6468508815  PROA      16              0.0000000000
       162        16  PRO       CB             17.7116633610        2.5266530472       -1.8009164887  PROA      16             98.4300000000
       163        16  PRO       HB1            17.2455800405        3.0657298526       -2.6531135656  PROA      16              0.0000000000
       164        16  PRO       HB2            18.8141808544        2.5250201159       -1.9370408150  PROA      16              0.0000000000
       165        16  PRO       CG             17.3388015276        3.1645340350       -0.5024732291  PROA      16             97.8400000000
       166        16  PRO       HG1            18.1282913201        2.9695492654        0.2544818358  PROA      16              0.0000000000
       167        16  PRO       HG2            17.2344337063        4.2623591207       -0.6373124013  PROA      16              0.0000000000
       168        16  PRO       C              18.2282997111        0.1570098402       -1.1217891415  PROA      16             98.6300000000
       169        16  PRO       O              18.2473377971       -0.0809724822        0.0892017608  PROA      16             98.5800000000
       170        17  GLY       N              19.0318104977       -0.5777354332       -1.9645309756  PROA      17             98.3300000000
       171        17  GLY       HN             18.8751472778       -0.5532940460       -2.9474173814  PROA      17              0.0000000000
       172        17  GLY       CA             20.1403168816       -1.4295139335       -1.5643347945  PROA      17             98.3200000000
       173        17  GLY       HA1            20.5658456239       -1.8592496379       -2.4590633146  PROA      17              0.0000000000
       174        17  GLY       HA2            19.7452942605       -2.2080796236       -0.9286625474  PROA      17              0.0000000000
       175        17  GLY       C              21.2254194921       -0.6832350633       -0.8124357504  PROA      17             98.5000000000
       176        17  GLY       O              21.2950679266        0.5467638142       -0.8705550832  PROA      17             98.4700000000
       177        18  ASN       N              21.9069544446       -1.2422803630       -0.0144611509  PROA      18             98.3600000000
       178        18  ASN       HN             21.6951091694       -2.1820383664        0.2343757518  PROA      18              0.0000000000
       179        18  ASN       CA             23.0715018499       -0.7077492582        0.6842833223  PROA      18             98.2600000000
       180        18  ASN       HA             22.7704901976        0.1945246574        1.1956154094  PROA      18              0.0000000000
       181        18  ASN       CB             23.6131390526       -1.7307769146        1.6847819755  PROA      18             97.9600000000
       182        18  ASN       HB1            24.6340220198       -1.4244939256        1.9974345002  PROA      18              0.0000000000
       183        18  ASN       HB2            23.6653400285       -2.7249266168        1.1921316626  PROA      18              0.0000000000
       184        18  ASN       CG             22.7469745987       -1.8521756572        2.9227122983  PROA      18             94.0900000000
       185        18  ASN       OD1            21.8743367682       -1.0149395725        3.1698518444  PROA      18             89.7700000000
       186        18  ASN       ND2            22.9790039860       -2.8965720214        3.7094578720  PROA      18             91.4400000000
       187        18  ASN       HD21           22.4375193611       -3.0270022224        4.5399892463  PROA      18              0.0000000000
       188        18  ASN       HD22           23.6952102286       -3.5525879874        3.4713577451  PROA      18              0.0000000000
       189        18  ASN       C              24.1680337867       -0.2886749229       -0.2909912099  PROA      18             98.4000000000
       190        18  ASN       O              24.3697015048       -0.9368987697       -1.3200767146  PROA      18             98.2400000000
       191        19  PRO       N              24.7009703022        1.1778525993       -0.1372489033  PROA      19             98.1600000000
       192        19  PRO       CD             24.4333307434        1.9199746518        0.9608644450  PROA      19             95.6200000000
       193        19  PRO       HD1            24.6344326847        1.3190816236        1.8729518276  PROA      19              0.0000000000
       194        19  PRO       HD2            23.3692332436        2.2375067519        0.9439029612  PROA      19              0.0000000000
       195        19  PRO       CA             25.7882461950        1.6706412799       -0.9862161873  PROA      19             97.9500000000
       196        19  PRO       HA             25.4953450008        1.6469130778       -2.0235981557  PROA      19              0.0000000000
       197        19  PRO       CB             26.0625410265        3.0700570167       -0.4311342645  PROA      19             97.7500000000
       198        19  PRO       HB1            25.6662030765        3.8503323759       -1.1153550227  PROA      19              0.0000000000
       199        19  PRO       HB2            27.1527948647        3.2331295427       -0.2939286809  PROA      19              0.0000000000
       200        19  PRO       CG             25.3510808332        3.1057303279        0.8832484074  PROA      19             96.2600000000
       201        19  PRO       HG1            26.0887458969        3.0672793557        1.7131076230  PROA      19              0.0000000000
       202        19  PRO       HG2            24.7632029750        4.0445202435        0.9690834793  PROA      19              0.0000000000
       203        19  PRO       C              27.0390622306        0.7989013793       -0.9083715310  PROA      19             97.9500000000
       204        19  PRO       OT1            27.0103855620       -0.2109065831       -0.1553339968  PROA      19              0.0000000000
       205        19  PRO       OT2            28.0370782200        1.1331409614       -1.6010821393  PROA      19              0.0000000000
